Generated by trjconv : CNT in water t= 310.00000
33518
    1C        C    1   2.847   2.775   4.750
    1C        C    2   2.902   2.723   4.870
    1C        C    3   2.843   2.774   4.986
    1C        C    4   2.854   2.777   4.260
    1C        C    5   2.903   2.731   4.384
    1C        C    6   2.855   2.779   4.507
    1C        C    7   3.015   2.642   4.627
    1C        C    8   2.901   2.725   4.630
    1C        C    9   3.080   2.604   4.746
    1C        C   10   3.016   2.639   4.867
    1C        C   11   3.180   2.491   4.980
    1C        C   12   3.060   2.563   4.976
    1C        C   13   2.851   2.773   3.770
    1C        C   14   2.898   2.718   3.892
    1C        C   15   2.849   2.771   4.013
    1C        C   16   3.018   2.645   4.139
    1C        C   17   2.905   2.730   4.137
    1C        C   18   3.080   2.613   4.262
    1C        C   19   3.022   2.655   4.384
    1C        C   20   3.211   2.557   4.505
    1C        C   21   3.080   2.612   4.506
    1C        C   22   3.281   2.533   4.625
    1C        C   23   3.208   2.542   4.746
    1C        C   24   3.410   2.479   4.866
    1C        C   25   3.268   2.497   4.867
    1C        C   26   3.488   2.474   4.982
    1C        C   27   2.851   2.769   3.283
    1C        C   28   2.906   2.726   3.405
    1C        C   29   2.855   2.774   3.528
    1C        C   30   3.020   2.641   3.652
    1C        C   31   2.904   2.723   3.650
    1C        C   32   3.075   2.602   3.775
    1C        C   33   3.013   2.637   3.898
    1C        C   34   3.210   2.552   4.016
    1C        C   35   3.078   2.603   4.018
    1C        C   36   3.277   2.533   4.139
    1C        C   37   3.208   2.554   4.261
    1C        C   38   3.416   2.507   4.383
    1C        C   39   3.277   2.534   4.383
    1C        C   40   3.488   2.497   4.504
    1C        C   41   3.418   2.497   4.627
    1C        C   42   3.632   2.481   4.746
    1C        C   43   3.489   2.482   4.748
    1C        C   44   3.705   2.487   4.866
    1C        C   45   3.627   2.481   4.982
    1C        C   46   2.837   2.750   2.796
    1C        C   47   2.895   2.706   2.917
    1C        C   48   2.846   2.760   3.037
    1C        C   49   3.014   2.634   3.160
    1C        C   50   2.902   2.720   3.160
    1C        C   51   3.074   2.598   3.283
    1C        C   52   3.015   2.636   3.405
    1C        C   53   3.207   2.548   3.526
    1C        C   54   3.077   2.603   3.528
    1C        C   55   3.271   2.526   3.650
    1C        C   56   3.206   2.547   3.774
    1C        C   57   3.417   2.505   3.894
    1C        C   58   3.278   2.531   3.894
    1C        C   59   3.486   2.505   4.017
    1C        C   60   3.417   2.510   4.140
    1C        C   61   3.629   2.503   4.261
    1C        C   62   3.488   2.502   4.262
    1C        C   63   3.701   2.507   4.382
    1C        C   64   3.629   2.504   4.503
    1C        C   65   3.836   2.545   4.622
    1C        C   66   3.700   2.506   4.625
    1C        C   67   3.904   2.566   4.745
    1C        C   68   3.841   2.527   4.865
    1C        C   69   4.053   2.582   4.981
    1C        C   70   3.923   2.530   4.978
    1C        C   71   2.826   2.733   2.310
    1C        C   72   2.888   2.693   2.430
    1C        C   73   2.835   2.748   2.550
    1C        C   74   3.004   2.622   2.672
    1C        C   75   2.888   2.702   2.673
    1C        C   76   3.074   2.595   2.792
    1C        C   77   3.012   2.627   2.915
    1C        C   78   3.206   2.543   3.037
    1C        C   79   3.077   2.599   3.038
    1C        C   80   3.274   2.530   3.160
    1C        C   81   3.207   2.550   3.283
    1C        C   82   3.414   2.496   3.405
    1C        C   83   3.275   2.523   3.404
    1C        C   84   3.482   2.494   3.529
    1C        C   85   3.410   2.503   3.651
    1C        C   86   3.626   2.500   3.769
    1C        C   87   3.485   2.494   3.771
    1C        C   88   3.695   2.513   3.892
    1C        C   89   3.627   2.507   4.016
    1C        C   90   3.834   2.551   4.137
    1C        C   91   3.698   2.512   4.138
    1C        C   92   3.906   2.566   4.257
    1C        C   93   3.838   2.541   4.379
    1C        C   94   4.033   2.626   4.500
    1C        C   95   3.906   2.564   4.501
    1C        C   96   4.091   2.667   4.622
    1C        C   97   4.030   2.631   4.744
    1C        C   98   4.191   2.764   4.864
    1C        C   99   4.098   2.656   4.866
    1C        C  100   4.205   2.848   4.976
    1C        C  101   2.821   2.728   2.073
    1C        C  102   2.988   2.586   2.191
    1C        C  103   2.875   2.674   2.190
    1C        C  104   3.063   2.575   2.311
    1C        C  105   3.005   2.615   2.433
    1C        C  106   3.200   2.525   2.551
    1C        C  107   3.072   2.585   2.554
    1C        C  108   3.273   2.516   2.672
    1C        C  109   3.205   2.542   2.793
    1C        C  110   3.411   2.492   2.918
    1C        C  111   3.272   2.515   2.915
    1C        C  112   3.484   2.492   3.039
    1C        C  113   3.412   2.502   3.160
    1C        C  114   3.624   2.499   3.283
    1C        C  115   3.483   2.489   3.282
    1C        C  116   3.694   2.512   3.406
    1C        C  117   3.623   2.503   3.527
    1C        C  118   3.834   2.544   3.647
    1C        C  119   3.697   2.511   3.648
    1C        C  120   3.898   2.571   3.770
    1C        C  121   3.831   2.550   3.893
    1C        C  122   4.025   2.640   4.013
    1C        C  123   3.899   2.578   4.014
    1C        C  124   4.088   2.674   4.136
    1C        C  125   4.029   2.636   4.258
    1C        C  126   4.199   2.763   4.375
    1C        C  127   4.092   2.671   4.380
    1C        C  128   4.239   2.821   4.497
    1C        C  129   4.190   2.768   4.619
    1C        C  130   4.317   2.937   4.737
    1C        C  131   4.239   2.819   4.741
    1C        C  132   4.349   3.007   4.856
    1C        C  133   4.289   2.958   4.972
    1C        C  134   3.172   2.468   2.080
    1C        C  135   3.037   2.506   2.083
    1C        C  136   3.259   2.475   2.190
    1C        C  137   3.195   2.519   2.308
    1C        C  138   3.406   2.479   2.425
    1C        C  139   3.267   2.505   2.428
    1C        C  140   3.478   2.477   2.547
    1C        C  141   3.412   2.491   2.670
    1C        C  142   3.621   2.490   2.793
    1C        C  143   3.479   2.487   2.795
    1C        C  144   3.693   2.503   2.913
    1C        C  145   3.625   2.495   3.037
    1C        C  146   3.829   2.542   3.159
    1C        C  147   3.693   2.504   3.160
    1C        C  148   3.897   2.569   3.280
    1C        C  149   3.831   2.545   3.402
    1C        C  150   4.028   2.627   3.524
    1C        C  151   3.900   2.567   3.524
    1C        C  152   4.086   2.668   3.646
    1C        C  153   4.022   2.637   3.768
    1C        C  154   4.191   2.768   3.889
    1C        C  155   4.081   2.680   3.890
    1C        C  156   4.243   2.815   4.012
    1C        C  157   4.196   2.765   4.135
    1C        C  158   4.343   2.923   4.251
    1C        C  159   4.254   2.813   4.255
    1C        C  160   4.373   2.986   4.373
    1C        C  161   4.326   2.932   4.496
    1C        C  162   4.434   3.117   4.617
    1C        C  163   4.363   2.995   4.617
    1C        C  164   4.465   3.185   4.737
    1C        C  165   4.426   3.126   4.859
    1C        C  166   4.506   3.321   4.974
    1C        C  167   4.476   3.185   4.975
    1C        C  168   3.473   2.435   2.074
    1C        C  169   3.398   2.453   2.191
    1C        C  170   3.622   2.466   2.305
    1C        C  171   3.480   2.460   2.307
    1C        C  172   3.691   2.490   2.426
    1C        C  173   3.619   2.486   2.547
    1C        C  174   3.823   2.542   2.668
    1C        C  175   3.689   2.499   2.670
    1C        C  176   3.892   2.570   2.788
    1C        C  177   3.829   2.542   2.912
    1C        C  178   4.024   2.622   3.031
    1C        C  179   3.894   2.565   3.035
    1C        C  180   4.086   2.659   3.152
    1C        C  181   4.025   2.629   3.276
    1C        C  182   4.192   2.756   3.398
    1C        C  183   4.083   2.666   3.399
    1C        C  184   4.243   2.807   3.520
    1C        C  185   4.193   2.760   3.643
    1C        C  186   4.343   2.911   3.763
    1C        C  187   4.247   2.807   3.765
    1C        C  188   4.382   2.973   3.884
    1C        C  189   4.335   2.922   4.007
    1C        C  190   4.444   3.106   4.131
    1C        C  191   4.384   2.978   4.127
    1C        C  192   4.467   3.174   4.252
    1C        C  193   4.439   3.110   4.375
    1C        C  194   4.513   3.314   4.492
    1C        C  195   4.464   3.181   4.495
    1C        C  196   4.526   3.385   4.613
    1C        C  197   4.508   3.320   4.737
    1C        C  198   4.553   3.535   4.852
    1C        C  199   4.527   3.395   4.857
    1C        C  200   4.581   3.621   4.964
    1C        C  201   3.612   2.429   2.065
    1C        C  202   3.825   2.512   2.181
    1C        C  203   3.690   2.464   2.180
    1C        C  204   3.896   2.542   2.300
    1C        C  205   3.828   2.525   2.423
    1C        C  206   4.018   2.617   2.540
    1C        C  207   3.893   2.551   2.545
    1C        C  208   4.079   2.657   2.661
    1C        C  209   4.021   2.627   2.786
    1C        C  210   4.193   2.750   2.908
    1C        C  211   4.083   2.661   2.909
    1C        C  212   4.245   2.798   3.030
    1C        C  213   4.197   2.746   3.153
    1C        C  214   4.335   2.908   3.274
    1C        C  215   4.247   2.797   3.275
    1C        C  216   4.373   2.971   3.394
    1C        C  217   4.335   2.914   3.518
    1C        C  218   4.440   3.098   3.642
    1C        C  219   4.376   2.972   3.640
    1C        C  220   4.469   3.165   3.763
    1C        C  221   4.443   3.100   3.886
    1C        C  222   4.507   3.305   4.003
    1C        C  223   4.468   3.169   4.007
    1C        C  224   4.518   3.378   4.124
    1C        C  225   4.507   3.310   4.247
    1C        C  226   4.522   3.522   4.367
    1C        C  227   4.522   3.381   4.368
    1C        C  228   4.519   3.594   4.489
    1C        C  229   4.526   3.526   4.612
    1C        C  230   4.505   3.743   4.726
    1C        C  231   4.537   3.605   4.729
    1C        C  232   4.500   3.820   4.845
    1C        C  233   4.543   3.755   4.961
    1C        C  234   4.013   2.618   2.065
    1C        C  235   3.894   2.546   2.065
    1C        C  236   4.085   2.651   2.181
    1C        C  237   4.022   2.609   2.300
    1C        C  238   4.202   2.730   2.423
    1C        C  239   4.085   2.650   2.420
    1C        C  240   4.252   2.784   2.544
    1C        C  241   4.192   2.742   2.665
    1C        C  242   4.334   2.904   2.785
    1C        C  243   4.246   2.794   2.785
    1C        C  244   4.370   2.966   2.907
    1C        C  245   4.332   2.909   3.031
    1C        C  246   4.434   3.096   3.149
    1C        C  247   4.375   2.968   3.152
    1C        C  248   4.460   3.161   3.272
    1C        C  249   4.433   3.099   3.396
    1C        C  250   4.498   3.300   3.513
    1C        C  251   4.460   3.164   3.519
    1C        C  252   4.509   3.370   3.636
    1C        C  253   4.502   3.302   3.760
    1C        C  254   4.524   3.516   3.878
    1C        C  255   4.518   3.374   3.881
    1C        C  256   4.525   3.589   3.999
    1C        C  257   4.528   3.519   4.122
    1C        C  258   4.497   3.729   4.241
    1C        C  259   4.526   3.591   4.244
    1C        C  260   4.474   3.800   4.361
    1C        C  261   4.494   3.733   4.484
    1C        C  262   4.425   3.939   4.599
    1C        C  263   4.472   3.805   4.604
    1C        C  264   4.406   4.010   4.719
    1C        C  265   4.437   3.946   4.841
    1C        C  266   4.328   4.134   4.956
    1C        C  267   4.390   4.009   4.957
    1C        C  268   4.265   2.775   2.062
    1C        C  269   4.201   2.731   2.178
    1C        C  270   4.342   2.890   2.301
    1C        C  271   4.253   2.779   2.301
    1C        C  272   4.383   2.953   2.420
    1C        C  273   4.336   2.898   2.541
    1C        C  274   4.439   3.085   2.661
    1C        C  275   4.376   2.958   2.662
    1C        C  276   4.467   3.154   2.781
    1C        C  277   4.443   3.087   2.903
    1C        C  278   4.504   3.290   3.024
    1C        C  279   4.470   3.153   3.025
    1C        C  280   4.518   3.362   3.146
    1C        C  281   4.506   3.294   3.269
    1C        C  282   4.517   3.508   3.390
    1C        C  283   4.515   3.367   3.390
    1C        C  284   4.515   3.582   3.511
    1C        C  285   4.518   3.511   3.633
    1C        C  286   4.491   3.722   3.752
    1C        C  287   4.518   3.583   3.754
    1C        C  288   4.468   3.790   3.874
    1C        C  289   4.496   3.727   3.998
    1C        C  290   4.425   3.927   4.114
    1C        C  291   4.483   3.799   4.119
    1C        C  292   4.397   3.995   4.235
    1C        C  293   4.428   3.933   4.358
    1C        C  294   4.328   4.127   4.477
    1C        C  295   4.395   4.002   4.476
    1C        C  296   4.290   4.189   4.598
    1C        C  297   4.332   4.132   4.721
    1C        C  298   4.203   4.314   4.835
    1C        C  299   4.284   4.196   4.838
    1C        C  300   4.170   4.400   4.945
    1C        C  301   4.359   2.878   2.066
    1C        C  302   4.470   3.070   2.177
    1C        C  303   4.393   2.950   2.182
    1C        C  304   4.484   3.142   2.299
    1C        C  305   4.450   3.078   2.420
    1C        C  306   4.512   3.284   2.536
    1C        C  307   4.474   3.148   2.540
    1C        C  308   4.519   3.358   2.656
    1C        C  309   4.506   3.290   2.780
    1C        C  310   4.518   3.501   2.899
    1C        C  311   4.516   3.360   2.902
    1C        C  312   4.519   3.572   3.021
    1C        C  313   4.525   3.503   3.144
    1C        C  314   4.483   3.712   3.262
    1C        C  315   4.512   3.574   3.265
    1C        C  316   4.466   3.785   3.382
    1C        C  317   4.490   3.721   3.505
    1C        C  318   4.417   3.917   3.629
    1C        C  319   4.473   3.787   3.629
    1C        C  320   4.383   3.983   3.750
    1C        C  321   4.417   3.921   3.872
    1C        C  322   4.312   4.108   3.993
    1C        C  323   4.391   3.991   3.992
    1C        C  324   4.271   4.167   4.114
    1C        C  325   4.325   4.117   4.235
    1C        C  326   4.181   4.277   4.354
    1C        C  327   4.283   4.180   4.354
    1C        C  328   4.133   4.334   4.474
    1C        C  329   4.195   4.293   4.594
    1C        C  330   4.028   4.435   4.712
    1C        C  331   4.140   4.347   4.712
    1C        C  332   3.968   4.488   4.827
    1C        C  333   4.050   4.473   4.939
    1C        C  334   4.555   3.266   2.065
    1C        C  335   4.536   3.127   2.063
    1C        C  336   4.543   3.352   2.175
    1C        C  337   4.513   3.281   2.293
    1C        C  338   4.517   3.495   2.411
    1C        C  339   4.520   3.354   2.414
    1C        C  340   4.518   3.568   2.532
    1C        C  341   4.523   3.499   2.655
    1C        C  342   4.496   3.711   2.774
    1C        C  343   4.519   3.572   2.776
    1C        C  344   4.479   3.781   2.896
    1C        C  345   4.490   3.710   3.017
    1C        C  346   4.421   3.913   3.138
    1C        C  347   4.468   3.780   3.139
    1C        C  348   4.388   3.979   3.259
    1C        C  349   4.421   3.919   3.383
    1C        C  350   4.315   4.101   3.504
    1C        C  351   4.390   3.981   3.506
    1C        C  352   4.273   4.161   3.624
    1C        C  353   4.312   4.104   3.748
    1C        C  354   4.170   4.263   3.866
    1C        C  355   4.271   4.164   3.869
    1C        C  356   4.122   4.318   3.987
    1C        C  357   4.175   4.271   4.109
    1C        C  358   4.014   4.408   4.229
    1C        C  359   4.126   4.322   4.231
    1C        C  360   3.955   4.449   4.351
    1C        C  361   4.015   4.412   4.473
    1C        C  362   3.823   4.507   4.593
    1C        C  363   3.954   4.454   4.593
    1C        C  364   3.760   4.547   4.713
    1C        C  365   3.837   4.542   4.831
    1C        C  366   3.625   4.585   4.952
    1C        C  367   3.763   4.569   4.948
    1C        C  368   4.513   3.566   2.049
    1C        C  369   4.528   3.492   2.167
    1C        C  370   4.495   3.704   2.289
    1C        C  371   4.512   3.564   2.288
    1C        C  372   4.489   3.780   2.408
    1C        C  373   4.506   3.709   2.529
    1C        C  374   4.429   3.909   2.649
    1C        C  375   4.480   3.777   2.650
    1C        C  376   4.397   3.976   2.769
    1C        C  377   4.424   3.912   2.892
    1C        C  378   4.315   4.092   3.014
    1C        C  379   4.395   3.976   3.014
    1C        C  380   4.271   4.153   3.134
    1C        C  381   4.313   4.098   3.258
    1C        C  382   4.172   4.255   3.377
    1C        C  383   4.272   4.155   3.380
    1C        C  384   4.117   4.299   3.499
    1C        C  385   4.170   4.258   3.623
    1C        C  386   4.000   4.388   3.742
    1C        C  387   4.115   4.307   3.744
    1C        C  388   3.943   4.430   3.864
    1C        C  389   4.006   4.399   3.987
    1C        C  390   3.817   4.495   4.107
    1C        C  391   3.947   4.440   4.109
    1C        C  392   3.752   4.521   4.230
    1C        C  393   3.823   4.501   4.350
    1C        C  394   3.616   4.551   4.473
    1C        C  395   3.755   4.527   4.471
    1C        C  396   3.544   4.566   4.593
    1C        C  397   3.620   4.564   4.713
    1C        C  398   3.410   4.550   4.838
    1C        C  399   3.550   4.568   4.835
    1C        C  400   3.341   4.511   4.954
    1C        C  401   4.506   3.705   2.052
    1C        C  402   4.458   3.917   2.171
    1C        C  403   4.491   3.779   2.170
    1C        C  404   4.413   3.981   2.288
    1C        C  405   4.436   3.910   2.408
    1C        C  406   4.333   4.100   2.528
    1C        C  407   4.404   3.978   2.528
    1C        C  408   4.275   4.149   2.647
    1C        C  409   4.319   4.094   2.769
    1C        C  410   4.173   4.248   2.890
    1C        C  411   4.273   4.148   2.891
    1C        C  412   4.118   4.298   3.011
    1C        C  413   4.173   4.255   3.133
    1C        C  414   4.000   4.378   3.253
    1C        C  415   4.120   4.303   3.255
    1C        C  416   3.942   4.413   3.377
    1C        C  417   3.999   4.378   3.501
    1C        C  418   3.809   4.481   3.619
    1C        C  419   3.938   4.424   3.620
    1C        C  420   3.743   4.505   3.742
    1C        C  421   3.813   4.484   3.863
    1C        C  422   3.608   4.533   3.987
    1C        C  423   3.746   4.505   3.986
    1C        C  424   3.541   4.546   4.110
    1C        C  425   3.613   4.544   4.232
    1C        C  426   3.399   4.551   4.354
    1C        C  427   3.541   4.548   4.353
    1C        C  428   3.330   4.542   4.478
    1C        C  429   3.403   4.563   4.597
    1C        C  430   3.195   4.519   4.723
    1C        C  431   3.334   4.548   4.719
    1C        C  432   3.124   4.491   4.844
    1C        C  433   3.205   4.484   4.958
    1C        C  434   4.382   4.120   2.049
    1C        C  435   4.444   3.995   2.056
    1C        C  436   4.304   4.160   2.162
    1C        C  437   4.335   4.100   2.287
    1C        C  438   4.186   4.255   2.402
    1C        C  439   4.291   4.161   2.408
    1C        C  440   4.128   4.300   2.523
    1C        C  441   4.178   4.252   2.646
    1C        C  442   4.000   4.369   2.763
    1C        C  443   4.119   4.294   2.768
    1C        C  444   3.940   4.410   2.884
    1C        C  445   3.998   4.372   3.007
    1C        C  446   3.812   4.472   3.131
    1C        C  447   3.937   4.407   3.130
    1C        C  448   3.746   4.495   3.254
    1C        C  449   3.814   4.472   3.375
    1C        C  450   3.607   4.534   3.495
    1C        C  451   3.744   4.502   3.495
    1C        C  452   3.537   4.543   3.618
    1C        C  453   3.606   4.541   3.741
    1C        C  454   3.397   4.549   3.865
    1C        C  455   3.538   4.548   3.865
    1C        C  456   3.328   4.541   3.988
    1C        C  457   3.399   4.544   4.110
    1C        C  458   3.191   4.508   4.236
    1C        C  459   3.329   4.537   4.233
    1C        C  460   3.127   4.483   4.359
    1C        C  461   3.193   4.509   4.481
    1C        C  462   2.995   4.438   4.602
    1C        C  463   3.123   4.499   4.603
    1C        C  464   2.932   4.399   4.722
    1C        C  465   2.988   4.446   4.844
    1C        C  466   2.800   4.339   4.959
    1C        C  467   2.907   4.430   4.960
    1C        C  468   4.122   4.280   2.043
    1C        C  469   4.188   4.244   2.161
    1C        C  470   4.009   4.371   2.280
    1C        C  471   4.130   4.296   2.280
    1C        C  472   3.943   4.407   2.400
    1C        C  473   4.010   4.377   2.520
    1C        C  474   3.815   4.470   2.641
    1C        C  475   3.942   4.409   2.640
    1C        C  476   3.748   4.496   2.762
    1C        C  477   3.813   4.473   2.886
    1C        C  478   3.607   4.520   3.008
    1C        C  479   3.746   4.495   3.008
    1C        C  480   3.535   4.532   3.129
    1C        C  481   3.607   4.520   3.250
    1C        C  482   3.396   4.537   3.375
    1C        C  483   3.537   4.536   3.372
    1C        C  484   3.327   4.530   3.498
    1C        C  485   3.396   4.544   3.620
    1C        C  486   3.190   4.501   3.744
    1C        C  487   3.327   4.537   3.743
    1C        C  488   3.127   4.476   3.868
    1C        C  489   3.193   4.498   3.991
    1C        C  490   3.001   4.415   4.117
    1C        C  491   3.126   4.481   4.114
    1C        C  492   2.936   4.387   4.239
    1C        C  493   2.999   4.424   4.360
    1C        C  494   2.824   4.306   4.482
    1C        C  495   2.934   4.394   4.482
    1C        C  496   2.774   4.255   4.604
    1C        C  497   2.821   4.310   4.725
    1C        C  498   2.659   4.169   4.842
    1C        C  499   2.758   4.270   4.845
    1C        C  500   2.591   4.120   4.954
    1C        C  501   4.004   4.354   2.045
    1C        C  502   3.818   4.469   2.156
    1C        C  503   3.946   4.410   2.159
    1C        C  504   3.744   4.481   2.275
    1C        C  505   3.811   4.457   2.397
    1C        C  506   3.607   4.514   2.520
    1C        C  507   3.745   4.486   2.519
    1C        C  508   3.535   4.518   2.642
    1C        C  509   3.607   4.509   2.763
    1C        C  510   3.396   4.518   2.884
    1C        C  511   3.537   4.520   2.885
    1C        C  512   3.324   4.512   3.005
    1C        C  513   3.393   4.527   3.127
    1C        C  514   3.190   4.491   3.255
    1C        C  515   3.327   4.523   3.252
    1C        C  516   3.123   4.467   3.377
    1C        C  517   3.190   4.496   3.499
    1C        C  518   2.997   4.413   3.625
    1C        C  519   3.123   4.477   3.622
    1C        C  520   2.942   4.370   3.748
    1C        C  521   3.002   4.410   3.869
    1C        C  522   2.839   4.280   3.995
    1C        C  523   2.950   4.368   3.994
    1C        C  524   2.790   4.232   4.118
    1C        C  525   2.833   4.291   4.239
    1C        C  526   2.695   4.134   4.363
    1C        C  527   2.778   4.248   4.362
    1C        C  528   2.651   4.076   4.484
    1C        C  529   2.684   4.146   4.603
    1C        C  530   2.586   3.960   4.728
    1C        C  531   2.637   4.093   4.725
    1C        C  532   2.539   3.902   4.849
    1C        C  533   2.530   3.994   4.958
    1C        C  534   3.621   4.560   2.042
    1C        C  535   3.755   4.517   2.041
    1C        C  536   3.535   4.538   2.155
    1C        C  537   3.606   4.516   2.276
    1C        C  538   3.394   4.518   2.401
    1C        C  539   3.535   4.521   2.398
    1C        C  540   3.321   4.506   2.521
    1C        C  541   3.394   4.512   2.642
    1C        C  542   3.184   4.482   2.764
    1C        C  543   3.322   4.511   2.764
    1C        C  544   3.118   4.460   2.888
    1C        C  545   3.187   4.479   3.010
    1C        C  546   2.998   4.397   3.135
    1C        C  547   3.120   4.468   3.134
    1C        C  548   2.938   4.363   3.258
    1C        C  549   2.998   4.402   3.380
    1C        C  550   2.828   4.281   3.505
    1C        C  551   2.937   4.371   3.504
    1C        C  552   2.779   4.231   3.627
    1C        C  553   2.833   4.281   3.748
    1C        C  554   2.704   4.117   3.875
    1C        C  555   2.788   4.231   3.872
    1C        C  556   2.663   4.062   3.998
    1C        C  557   2.699   4.125   4.119
    1C        C  558   2.594   3.944   4.245
    1C        C  559   2.659   4.069   4.242
    1C        C  560   2.561   3.881   4.367
    1C        C  561   2.585   3.952   4.486
    1C        C  562   2.527   3.751   4.615
    1C        C  563   2.561   3.888   4.610
    1C        C  564   2.513   3.682   4.738
    1C        C  565   2.524   3.760   4.857
    1C        C  566   2.530   3.547   4.978
    1C        C  567   2.527   3.686   4.976
    1C        C  568   3.330   4.477   2.042
    1C        C  569   3.395   4.515   2.160
    1C        C  570   3.183   4.469   2.282
    1C        C  571   3.320   4.508   2.281
    1C        C  572   3.114   4.449   2.403
    1C        C  573   3.184   4.472   2.523
    1C        C  574   2.983   4.402   2.649
    1C        C  575   3.114   4.454   2.644
    1C        C  576   2.924   4.363   2.771
    1C        C  577   2.990   4.401   2.890
    1C        C  578   2.824   4.275   3.016
    1C        C  579   2.933   4.364   3.014
    1C        C  580   2.776   4.224   3.139
    1C        C  581   2.829   4.272   3.261
    1C        C  582   2.694   4.114   3.383
    1C        C  583   2.778   4.228   3.384
    1C        C  584   2.661   4.055   3.507
    1C        C  585   2.695   4.116   3.630
    1C        C  586   2.592   3.935   3.757
    1C        C  587   2.659   4.059   3.754
    1C        C  588   2.567   3.870   3.879
    1C        C  589   2.599   3.935   4.000
    1C        C  590   2.531   3.738   4.126
    1C        C  591   2.575   3.872   4.124
    1C        C  592   2.516   3.674   4.252
    1C        C  593   2.528   3.744   4.374
    1C        C  594   2.512   3.533   4.497
    1C        C  595   2.517   3.674   4.497
    1C        C  596   2.508   3.464   4.621
    1C        C  597   2.507   3.540   4.740
    1C        C  598   2.535   3.329   4.863
    1C        C  599   2.520   3.469   4.861
    1C        C  600   2.531   3.250   4.979
    1C        C  601   3.199   4.433   2.045
    1C        C  602   2.982   4.391   2.159
    1C        C  603   3.119   4.434   2.160
    1C        C  604   2.923   4.358   2.284
    1C        C  605   2.984   4.394   2.406
    1C        C  606   2.814   4.270   2.531
    1C        C  607   2.920   4.363   2.529
    1C        C  608   2.762   4.220   2.652
    1C        C  609   2.817   4.271   2.772
    1C        C  610   2.680   4.115   2.897
    1C        C  611   2.766   4.227   2.896
    1C        C  612   2.645   4.054   3.019
    1C        C  613   2.688   4.113   3.140
    1C        C  614   2.590   3.926   3.267
    1C        C  615   2.654   4.052   3.262
    1C        C  616   2.567   3.864   3.392
    1C        C  617   2.597   3.930   3.514
    1C        C  618   2.533   3.728   3.639
    1C        C  619   2.568   3.865   3.636
    1C        C  620   2.521   3.660   3.762
    1C        C  621   2.534   3.732   3.883
    1C        C  622   2.504   3.525   4.011
    1C        C  623   2.518   3.665   4.006
    1C        C  624   2.512   3.458   4.135
    1C        C  625   2.514   3.533   4.255
    1C        C  626   2.536   3.321   4.378
    1C        C  627   2.519   3.461   4.376
    1C        C  628   2.552   3.254   4.501
    1C        C  629   2.530   3.325   4.621
    1C        C  630   2.594   3.122   4.742
    1C        C  631   2.547   3.256   4.743
    1C        C  632   2.618   3.053   4.864
    1C        C  633   2.559   3.113   4.979
    1C        C  634   2.785   4.303   2.051
    1C        C  635   2.896   4.388   2.045
    1C        C  636   2.745   4.236   2.167
    1C        C  637   2.807   4.274   2.288
    1C        C  638   2.669   4.113   2.411
    1C        C  639   2.761   4.220   2.410
    1C        C  640   2.637   4.046   2.531
    1C        C  641   2.676   4.108   2.652
    1C        C  642   2.575   3.926   2.778
    1C        C  643   2.640   4.052   2.776
    1C        C  644   2.556   3.858   2.900
    1C        C  645   2.589   3.924   3.020
    1C        C  646   2.528   3.724   3.151
    1C        C  647   2.566   3.860   3.145
    1C        C  648   2.511   3.657   3.274
    1C        C  649   2.530   3.728   3.395
    1C        C  650   2.511   3.517   3.520
    1C        C  651   2.521   3.658   3.517
    1C        C  652   2.521   3.449   3.644
    1C        C  653   2.517   3.519   3.767
    1C        C  654   2.534   3.312   3.890
    1C        C  655   2.510   3.451   3.890
    1C        C  656   2.554   3.247   4.014
    1C        C  657   2.537   3.319   4.134
    1C        C  658   2.611   3.120   4.257
    1C        C  659   2.558   3.251   4.257
    1C        C  660   2.641   3.058   4.381
    1C        C  661   2.603   3.122   4.501
    1C        C  662   2.711   2.939   4.626
    1C        C  663   2.633   3.056   4.623
    1C        C  664   2.752   2.880   4.748
    1C        C  665   2.698   2.934   4.868
    1C        C  666   2.744   2.872   4.985
    1C        C  667   2.677   4.028   2.056
    1C        C  668   2.679   4.111   2.169
    1C        C  669   2.590   3.915   2.292
    1C        C  670   2.639   4.049   2.289
    1C        C  671   2.561   3.847   2.412
    1C        C  672   2.580   3.916   2.534
    1C        C  673   2.513   3.720   2.660
    1C        C  674   2.548   3.857   2.658
    1C        C  675   2.506   3.650   2.783
    1C        C  676   2.521   3.721   2.904
    1C        C  677   2.503   3.514   3.033
    1C        C  678   2.514   3.655   3.029
    1C        C  679   2.506   3.443   3.155
    1C        C  680   2.499   3.516   3.276
    1C        C  681   2.523   3.306   3.404
    1C        C  682   2.503   3.446   3.398
    1C        C  683   2.541   3.234   3.524
    1C        C  684   2.533   3.308   3.645
    1C        C  685   2.586   3.105   3.770
    1C        C  686   2.546   3.241   3.769
    1C        C  687   2.634   3.051   3.892
    1C        C  688   2.606   3.115   4.015
    1C        C  689   2.715   2.934   4.138
    1C        C  690   2.633   3.050   4.137
    1C        C  691   2.762   2.884   4.261
    1C        C  692   2.719   2.941   4.383
    1C        C  693   2.761   2.885   4.506
    1C        C  694   2.621   3.899   2.060
    1C        C  695   2.524   3.706   2.178
    1C        C  696   2.567   3.840   2.175
    1C        C  697   2.499   3.638   2.299
    1C        C  698   2.517   3.713   2.417
    1C        C  699   2.497   3.505   2.543
    1C        C  700   2.500   3.646   2.541
    1C        C  701   2.511   3.437   2.667
    1C        C  702   2.502   3.509   2.788
    1C        C  703   2.530   3.301   2.912
    1C        C  704   2.508   3.441   2.912
    1C        C  705   2.547   3.234   3.035
    1C        C  706   2.533   3.304   3.157
    1C        C  707   2.601   3.108   3.282
    1C        C  708   2.548   3.239   3.282
    1C        C  709   2.636   3.045   3.404
    1C        C  710   2.596   3.104   3.526
    1C        C  711   2.702   2.926   3.649
    1C        C  712   2.616   3.038   3.649
    1C        C  713   2.756   2.878   3.770
    1C        C  714   2.717   2.936   3.893
    1C        C  715   2.756   2.877   4.015
    1C        C  716   2.453   3.497   2.066
    1C        C  717   2.499   3.630   2.063
    1C        C  718   2.462   3.419   2.185
    1C        C  719   2.482   3.497   2.303
    1C        C  720   2.513   3.288   2.427
    1C        C  721   2.489   3.427   2.425
    1C        C  722   2.536   3.221   2.549
    1C        C  723   2.532   3.297   2.668
    1C        C  724   2.597   3.099   2.792
    1C        C  725   2.545   3.230   2.791
    1C        C  726   2.624   3.034   2.914
    1C        C  727   2.598   3.102   3.035
    1C        C  728   2.711   2.927   3.158
    1C        C  729   2.631   3.044   3.160
    1C        C  730   2.756   2.874   3.281
    1C        C  731   2.714   2.927   3.404
    1C        C  732   2.752   2.871   3.528
    1C        C  733   2.495   3.198   2.072
    1C        C  734   2.484   3.278   2.187
    1C        C  735   2.590   3.088   2.307
    1C        C  736   2.523   3.213   2.308
    1C        C  737   2.618   3.020   2.427
    1C        C  738   2.592   3.091   2.547
    1C        C  739   2.705   2.915   2.671
    1C        C  740   2.633   3.036   2.670
    1C        C  741   2.752   2.862   2.794
    1C        C  742   2.700   2.915   2.914
    1C        C  743   2.750   2.864   3.037
    1C        C  744   2.556   3.072   2.073
    1C        C  745   2.689   2.898   2.185
    1C        C  746   2.620   3.021   2.186
    1C        C  747   2.728   2.837   2.307
    1C        C  748   2.685   2.895   2.427
    1C        C  749   2.735   2.848   2.550
    1C        C  750   2.736   2.838   2.067
    1C        C  751   3.665   2.356   1.947
    1C        O  752   3.614   2.252   1.896
    1C        O  753   3.675   2.437   1.833
    1C        C  754   4.629   3.046   1.981
    1C        O  755   4.640   3.071   1.858
    1C        O  756   4.683   2.920   2.012
    1C        C  757   4.454   4.226   1.974
    1C        O  758   4.562   4.272   2.021
    1C        O  759   4.420   4.291   1.856
    1C        C  760   3.585   4.649   1.930
    1C        O  761   3.601   4.774   1.940
    1C        O  762   3.618   4.612   1.800
    1C        C  763   2.881   4.499   1.948
    1C        O  764   2.871   4.466   1.827
    1C        O  765   2.820   4.621   1.976
    1C        C  766   2.353   3.471   1.960
    1C        O  767   2.393   3.446   1.843
    1C        O  768   2.225   3.425   1.993
    1C        C  769   4.686   3.585   5.062
    1C        O  770   4.663   3.602   5.184
    1C        O  771   4.814   3.632   5.029
    1C        C  772   4.277   4.466   5.023
    1C        O  773   4.292   4.442   5.146
    1C        O  774   4.358   4.565   4.967
    1C        C  775   4.158   2.521   5.065
    1C        O  776   4.275   2.506   5.020
    1C        O  777   4.125   2.420   5.157
    1C        C  778   2.886   4.546   5.050
    1C        O  779   2.789   4.626   5.041
    1C        O  780   2.947   4.581   5.171
    1C        C  781   2.466   3.040   5.069
    1C        O  782   2.342   3.054   5.057
    1C        O  783   2.497   3.031   5.205
    1C        C  784   2.418   3.980   5.054
    1C        O  785   2.301   3.990   5.010
    1C        O  786   2.446   3.981   5.192
    1C        C  787   2.947   2.412   2.012
    1C        O  788   2.934   2.404   1.887
    1C        O  789   2.930   2.289   2.073
    1C        C  790   3.170   2.365   5.056
    1C        O  791   3.165   2.250   5.004
    1C        O  792   3.183   2.350   5.195
    1C        H  793   4.334   2.990   5.064
    1C        H  794   4.132   2.842   5.053
    1C        H  795   4.544   3.124   5.032
    1C        H  796   4.491   3.369   5.069
    1C        H  797   4.551   3.808   5.055
    1C        H  798   4.336   3.942   5.021
    1C        H  799   4.326   4.179   5.052
    1C        H  800   4.013   4.497   5.037
    1C        H  801   3.807   4.545   5.043
    1C        H  802   3.589   4.646   5.032
    1C        H  803   3.389   4.528   5.048
    1C        H  804   3.166   4.430   5.043
    1C        H  805   3.908   2.449   5.046
    1C        H  806   3.682   2.470   5.073
    1C        H  807   3.004   2.569   5.068
    1C        H  808   3.437   2.454   5.074
    1C        H  809   2.888   2.759   5.081
    1C        H  810   2.728   2.926   5.076
    1C        H  811   2.492   3.293   5.069
    1C        H  812   2.528   3.496   5.072
    1C        H  813   2.527   3.732   5.072
    1C        H  814   2.589   4.178   5.044
    1C        H  815   2.771   4.306   5.056
    1C        H  816   2.736   2.895   1.977
    1C        H  817   2.809   2.663   1.989
    1C        H  818   3.217   2.469   1.983
    1C        H  819   3.424   2.416   1.981
    1C        H  820   3.869   2.498   1.972
    1C        H  821   4.067   2.614   1.973
    1C        H  822   4.265   2.719   1.971
    1C        H  823   4.414   2.903   1.978
    1C        H  824   4.551   3.308   1.967
    1C        H  825   4.548   3.522   1.957
    1C        H  826   4.553   3.749   1.967
    1C        H  827   3.798   4.496   1.945
    1C        H  828   3.964   4.378   1.948
    1C        H  829   4.167   4.250   1.951
    1C        H  830   4.474   3.952   1.963
    1C        H  831   2.624   3.842   1.970
    1C        H  832   2.716   4.062   1.962
    1C        H  833   2.722   4.294   1.965
    1C        H  834   3.391   4.436   1.965
    1C        H  835   3.151   4.409   1.953
    1C        H  836   2.508   2.999   2.012
    1C        H  837   2.477   3.233   1.973
    1C        H  838   2.495   3.680   1.968
    2V3OU   H29  839   2.800   3.554   3.200
    2V3OU   C27  840   2.793   3.505   3.301
    2V3OU   H27  841   2.743   3.574   3.373
    2V3OU   H28  842   2.738   3.408   3.292
    2V3OU   O11  843   2.919   3.484   3.365
    2V3OU   C15  844   2.927   3.400   3.474
    2V3OU   C13  845   3.054   3.373   3.530
    2V3OU   C14  846   3.081   3.264   3.614
    2V3OU   C16  847   2.979   3.181   3.660
    2V3OU    H6  848   2.991   3.100   3.733
    2V3OU   C12  849   3.214   3.228   3.667
    2V3OU    O2  850   3.233   3.129   3.741
    2V3OU   C10  851   3.328   3.315   3.634
    2V3OU    C8  852   3.458   3.274   3.662
    2V3OU   O10  853   3.487   3.158   3.726
    2V3OU   H26  854   3.402   3.115   3.745
    2V3OU    C6  855   3.565   3.358   3.617
    2V3OU    C5  856   3.536   3.470   3.541
    2V3OU    C4  857   3.702   3.298   3.613
    2V3OU    H4  858   3.728   3.231   3.701
    2V3OU    H5  859   3.708   3.234   3.521
    2V3OU    C2  860   3.816   3.400   3.607
    2V3OU    O6  861   3.803   3.481   3.724
    2V3OU   H21  862   3.766   3.562   3.686
    2V3OU    C3  863   3.783   3.494   3.490
    2V3OU    H2  864   3.864   3.572   3.493
    2V3OU    H3  865   3.778   3.438   3.393
    2V3OU   C25  866   3.951   3.331   3.589
    2V3OU    O7  867   3.995   3.294   3.480
    2V3OU   C26  868   4.031   3.294   3.713
    2V3OU   H22  869   4.068   3.388   3.761
    2V3OU   H23  870   4.118   3.229   3.684
    2V3OU    O8  871   3.967   3.213   3.808
    2V3OU   H24  872   3.924   3.271   3.873
    2V3OU    C1  873   3.650   3.563   3.512
    2V3OU    H1  874   3.618   3.614   3.417
    2V3OU    O3  875   3.658   3.657   3.619
    2V3OU   C19  876   3.620   3.794   3.605
    2V3OU    H9  877   3.519   3.801   3.554
    2V3OU    O4  878   3.710   3.852   3.513
    2V3OU   C20  879   3.841   3.874   3.565
    2V3OU   H10  880   3.891   3.775   3.588
    2V3OU   C24  881   3.608   3.862   3.741
    2V3OU   H16  882   3.535   3.796   3.795
    2V3OU   H17  883   3.563   3.963   3.721
    2V3OU   C23  884   3.748   3.874   3.801
    2V3OU   H15  885   3.786   3.768   3.818
    2V3OU    N1  886   3.737   3.951   3.924
    2V3OU   H19  887   3.806   3.923   3.990
    2V3OU   H20  888   3.652   3.935   3.974
    2V3OU   C21  889   3.844   3.944   3.701
    2V3OU   H11  890   3.952   3.929   3.731
    2V3OU    O5  891   3.817   4.084   3.704
    2V3OU   H18  892   3.785   4.106   3.793
    2V3OU   C22  893   3.909   3.948   3.451
    2V3OU   H12  894   3.859   4.047   3.437
    2V3OU   H13  895   3.903   3.890   3.356
    2V3OU   H14  896   4.020   3.954   3.470
    2V3OU   C11  897   3.162   3.472   3.514
    2V3OU    O1  898   3.137   3.586   3.471
    2V3OU    C9  899   3.298   3.428   3.554
    2V3OU    C7  900   3.402   3.507   3.507
    2V3OU    O9  901   3.390   3.618   3.425
    2V3OU   H25  902   3.294   3.634   3.425
    2V3OU   C17  903   2.828   3.315   3.528
    2V3OU    H7  904   2.730   3.358   3.509
    2V3OU   C18  905   2.850   3.213   3.619
    2V3OU    H8  906   2.784   3.174   3.699
    3SOL     OW  907   2.629   5.276   6.104
    3SOL    HW1  908   2.710   5.224   6.129
    3SOL    HW2  909   2.547   5.228   6.135
    4SOL     OW  910   0.014   0.145   0.671
    4SOL    HW1  911   7.015   0.231   0.718
    4SOL    HW2  912   0.084   0.096   0.722
    5SOL     OW  913   4.966   2.416   1.992
    5SOL    HW1  914   4.889   2.433   1.931
    5SOL    HW2  915   4.966   2.484   2.066
    6SOL     OW  916   4.443   2.157   2.382
    6SOL    HW1  917   4.517   2.155   2.315
    6SOL    HW2  918   4.444   2.244   2.431
    7SOL     OW  919   0.915   4.368   3.812
    7SOL    HW1  920   0.884   4.361   3.907
    7SOL    HW2  921   0.990   4.433   3.806
    8SOL     OW  922   2.351   2.297   5.918
    8SOL    HW1  923   2.338   2.253   6.007
    8SOL    HW2  924   2.441   2.340   5.915
    9SOL     OW  925   6.116   2.552   5.628
    9SOL    HW1  926   6.050   2.623   5.653
    9SOL    HW2  927   6.067   2.471   5.597
   10SOL     OW  928   3.433   5.150   4.855
   10SOL    HW1  929   3.514   5.121   4.906
   10SOL    HW2  930   3.360   5.175   4.919
   11SOL     OW  931   1.957   1.323   5.843
   11SOL    HW1  932   2.052   1.354   5.836
   11SOL    HW2  933   1.905   1.386   5.901
   12SOL     OW  934   3.107   4.874   3.745
   12SOL    HW1  935   3.163   4.866   3.827
   12SOL    HW2  936   3.079   4.783   3.715
   13SOL     OW  937   3.625   6.326   3.862
   13SOL    HW1  938   3.691   6.259   3.827
   13SOL    HW2  939   3.567   6.357   3.787
   14SOL     OW  940   4.059   4.721   6.110
   14SOL    HW1  941   4.119   4.797   6.134
   14SOL    HW2  942   3.972   4.730   6.158
   15SOL     OW  943   0.840   6.107   0.724
   15SOL    HW1  944   0.829   6.197   0.767
   15SOL    HW2  945   0.820   6.115   0.626
   16SOL     OW  946   5.313   2.761   6.464
   16SOL    HW1  947   5.229   2.710   6.443
   16SOL    HW2  948   5.355   2.723   6.546
   17SOL     OW  949   5.211   6.791   6.782
   17SOL    HW1  950   5.272   6.831   6.713
   17SOL    HW2  951   5.126   6.843   6.786
   18SOL     OW  952   3.174   0.944   4.957
   18SOL    HW1  953   3.090   0.963   4.907
   18SOL    HW2  954   3.209   1.028   4.998
   19SOL     OW  955   0.221   2.247   2.376
   19SOL    HW1  956   0.314   2.233   2.344
   19SOL    HW2  957   0.170   2.302   2.310
   20SOL     OW  958   4.422   2.480   5.411
   20SOL    HW1  959   4.453   2.464   5.505
   20SOL    HW2  960   4.465   2.562   5.374
   21SOL     OW  961   2.888   1.149   3.042
   21SOL    HW1  962   2.850   1.063   3.078
   21SOL    HW2  963   2.821   1.222   3.053
   22SOL     OW  964   1.540   6.096   0.354
   22SOL    HW1  965   1.445   6.100   0.322
   22SOL    HW2  966   1.554   6.167   0.424
   23SOL     OW  967   4.151   5.281   2.137
   23SOL    HW1  968   4.072   5.310   2.191
   23SOL    HW2  969   4.160   5.181   2.144
   24SOL     OW  970   3.352   0.458   2.471
   24SOL    HW1  971   3.439   0.461   2.422
   24SOL    HW2  972   3.283   0.510   2.420
   25SOL     OW  973   2.632   6.961   3.741
   25SOL    HW1  974   2.567   6.914   3.681
   25SOL    HW2  975   2.585   6.990   3.824
   26SOL     OW  976   6.670   2.155   0.279
   26SOL    HW1  977   6.616   2.078   0.314
   26SOL    HW2  978   6.689   2.141   0.182
   27SOL     OW  979   1.662   1.401   1.921
   27SOL    HW1  980   1.666   1.413   1.822
   27SOL    HW2  981   1.725   1.328   1.948
   28SOL     OW  982   1.339   0.548   4.980
   28SOL    HW1  983   1.283   0.615   4.931
   28SOL    HW2  984   1.411   0.515   4.919
   29SOL     OW  985   6.419   1.455   1.074
   29SOL    HW1  986   6.377   1.366   1.058
   29SOL    HW2  987   6.352   1.517   1.113
   30SOL     OW  988   4.822   0.402   4.837
   30SOL    HW1  989   4.827   0.480   4.899
   30SOL    HW2  990   4.909   0.394   4.787
   31SOL     OW  991   0.335   2.303   6.374
   31SOL    HW1  992   0.398   2.235   6.412
   31SOL    HW2  993   0.282   2.261   6.300
   32SOL     OW  994   0.927   1.900   2.480
   32SOL    HW1  995   0.957   1.822   2.426
   32SOL    HW2  996   0.871   1.961   2.423
   33SOL     OW  997   0.995   4.892   5.159
   33SOL    HW1  998   1.073   4.832   5.144
   33SOL    HW2  999   1.004   4.973   5.101
   34SOL     OW 1000   2.674   5.885   4.838
   34SOL    HW1 1001   2.726   5.818   4.785
   34SOL    HW2 1002   2.731   5.921   4.912
   35SOL     OW 1003   4.273   2.463   5.764
   35SOL    HW1 1004   4.338   2.404   5.718
   35SOL    HW2 1005   4.244   2.420   5.850
   36SOL     OW 1006   4.060   2.265   3.989
   36SOL    HW1 1007   4.108   2.262   4.077
   36SOL    HW2 1008   4.120   2.229   3.918
   37SOL     OW 1009   1.570   2.082   5.106
   37SOL    HW1 1010   1.576   2.178   5.132
   37SOL    HW2 1011   1.479   2.062   5.070
   38SOL     OW 1012   1.569   4.689   1.735
   38SOL    HW1 1013   1.498   4.738   1.685
   38SOL    HW2 1014   1.534   4.600   1.763
   39SOL     OW 1015   6.510   4.957   6.058
   39SOL    HW1 1016   6.442   5.028   6.077
   39SOL    HW2 1017   6.582   4.994   6.000
   40SOL     OW 1018   3.447   2.528   0.185
   40SOL    HW1 1019   3.447   2.483   0.095
   40SOL    HW2 1020   3.537   2.517   0.227
   41SOL     OW 1021   5.896   3.563   3.202
   41SOL    HW1 1022   5.972   3.619   3.168
   41SOL    HW2 1023   5.919   3.528   3.293
   42SOL     OW 1024   3.236   5.901   4.474
   42SOL    HW1 1025   3.231   5.991   4.517
   42SOL    HW2 1026   3.158   5.890   4.412
   43SOL     OW 1027   4.583   1.150   5.482
   43SOL    HW1 1028   4.654   1.162   5.551
   43SOL    HW2 1029   4.572   1.053   5.461
   44SOL     OW 1030   5.466   2.871   5.412
   44SOL    HW1 1031   5.553   2.918   5.397
   44SOL    HW2 1032   5.391   2.926   5.374
   45SOL     OW 1033   4.393   5.340   1.703
   45SOL    HW1 1034   4.405   5.308   1.610
   45SOL    HW2 1035   4.477   5.386   1.734
   46SOL     OW 1036   1.460   2.338   3.858
   46SOL    HW1 1037   1.504   2.258   3.899
   46SOL    HW2 1038   1.522   2.417   3.863
   47SOL     OW 1039   3.913   4.078   1.347
   47SOL    HW1 1040   3.957   4.113   1.264
   47SOL    HW2 1041   3.967   4.105   1.427
   48SOL     OW 1042   6.736   2.322   6.923
   48SOL    HW1 1043   6.641   2.330   6.892
   48SOL    HW2 1044   6.770   2.231   6.903
   49SOL     OW 1045   5.603   2.905   1.966
   49SOL    HW1 1046   5.544   2.984   1.982
   49SOL    HW2 1047   5.699   2.933   1.972
   50SOL     OW 1048   6.726   1.225   5.418
   50SOL    HW1 1049   6.825   1.237   5.404
   50SOL    HW2 1050   6.711   1.162   5.494
   51SOL     OW 1051   1.847   6.546   3.003
   51SOL    HW1 1052   1.893   6.623   3.046
   51SOL    HW2 1053   1.860   6.550   2.904
   52SOL     OW 1054   5.238   3.422   1.455
   52SOL    HW1 1055   5.305   3.353   1.482
   52SOL    HW2 1056   5.193   3.457   1.537
   53SOL     OW 1057   4.576   1.057   3.612
   53SOL    HW1 1058   4.670   1.046   3.580
   53SOL    HW2 1059   4.512   1.039   3.537
   54SOL     OW 1060   5.540   6.483   1.086
   54SOL    HW1 1061   5.638   6.464   1.093
   54SOL    HW2 1062   5.491   6.399   1.065
   55SOL     OW 1063   2.106   2.973   5.121
   55SOL    HW1 1064   2.200   3.001   5.105
   55SOL    HW2 1065   2.083   2.896   5.062
   56SOL     OW 1066   0.586   1.045   1.160
   56SOL    HW1 1067   0.664   1.001   1.206
   56SOL    HW2 1068   0.501   1.003   1.192
   57SOL     OW 1069   3.861   1.098   1.326
   57SOL    HW1 1070   3.923   1.023   1.304
   57SOL    HW2 1071   3.899   1.152   1.401
   58SOL     OW 1072   0.418   6.465   5.847
   58SOL    HW1 1073   0.474   6.438   5.925
   58SOL    HW2 1074   0.345   6.526   5.877
   59SOL     OW 1075   0.066   3.804   6.168
   59SOL    HW1 1076   0.136   3.745   6.207
   59SOL    HW2 1077   0.105   3.893   6.145
   60SOL     OW 1078   4.875   2.838   4.116
   60SOL    HW1 1079   4.930   2.827   4.198
   60SOL    HW2 1080   4.875   2.752   4.064
   61SOL     OW 1081   6.972   1.509   4.674
   61SOL    HW1 1082   6.884   1.463   4.664
   61SOL    HW2 1083   7.011   1.526   4.583
   62SOL     OW 1084   2.216   1.406   2.129
   62SOL    HW1 1085   2.223   1.317   2.083
   62SOL    HW2 1086   2.200   1.392   2.226
   63SOL     OW 1087   3.739   0.116   4.338
   63SOL    HW1 1088   3.755   0.075   4.248
   63SOL    HW2 1089   3.645   0.150   4.342
   64SOL     OW 1090   0.052   2.794   6.139
   64SOL    HW1 1091   0.137   2.836   6.167
   64SOL    HW2 1092   0.067   2.742   6.054
   65SOL     OW 1093   0.323   5.269   6.059
   65SOL    HW1 1094   0.251   5.334   6.033
   65SOL    HW2 1095   0.378   5.247   5.979
   66SOL     OW 1096   3.258   0.651   3.464
   66SOL    HW1 1097   3.317   0.597   3.524
   66SOL    HW2 1098   3.181   0.595   3.434
   67SOL     OW 1099   0.359   3.180   6.396
   67SOL    HW1 1100   0.345   3.193   6.298
   67SOL    HW2 1101   0.456   3.194   6.418
   68SOL     OW 1102   0.364   1.373   6.938
   68SOL    HW1 1103   0.359   1.435   6.861
   68SOL    HW2 1104   0.422   1.295   6.915
   69SOL     OW 1105   1.192   2.787   5.406
   69SOL    HW1 1106   1.229   2.857   5.466
   69SOL    HW2 1107   1.266   2.749   5.349
   70SOL     OW 1108   5.058   4.729   4.666
   70SOL    HW1 1109   4.965   4.741   4.631
   70SOL    HW2 1110   5.123   4.779   4.608
   71SOL     OW 1111   4.865   2.148   3.369
   71SOL    HW1 1112   4.915   2.223   3.412
   71SOL    HW2 1113   4.832   2.176   3.279
   72SOL     OW 1114   1.138   1.204   2.995
   72SOL    HW1 1115   1.187   1.243   2.917
   72SOL    HW2 1116   1.200   1.145   3.047
   73SOL     OW 1117   3.322   0.314   0.989
   73SOL    HW1 1118   3.225   0.334   0.983
   73SOL    HW2 1119   3.369   0.392   1.031
   74SOL     OW 1120   3.341   1.083   6.882
   74SOL    HW1 1121   3.266   1.077   6.948
   74SOL    HW2 1122   3.401   1.004   6.893
   75SOL     OW 1123   4.287   1.127   1.622
   75SOL    HW1 1124   4.282   1.034   1.660
   75SOL    HW2 1125   4.200   1.150   1.578
   76SOL     OW 1126   3.279   3.065   6.574
   76SOL    HW1 1127   3.235   2.975   6.571
   76SOL    HW2 1128   3.229   3.124   6.637
   77SOL     OW 1129   1.449   6.813   3.116
   77SOL    HW1 1130   1.462   6.745   3.188
   77SOL    HW2 1131   1.402   6.771   3.038
   78SOL     OW 1132   4.806   1.451   1.207
   78SOL    HW1 1133   4.718   1.407   1.189
   78SOL    HW2 1134   4.825   1.518   1.136
   79SOL     OW 1135   2.868   6.353   1.376
   79SOL    HW1 1136   2.838   6.308   1.460
   79SOL    HW2 1137   2.903   6.444   1.397
   80SOL     OW 1138   4.173   1.782   4.259
   80SOL    HW1 1139   4.131   1.737   4.337
   80SOL    HW2 1140   4.122   1.865   4.237
   81SOL     OW 1141   1.601   6.730   1.791
   81SOL    HW1 1142   1.693   6.691   1.795
   81SOL    HW2 1143   1.603   6.814   1.737
   82SOL     OW 1144   6.106   5.600   1.094
   82SOL    HW1 1145   6.179   5.665   1.115
   82SOL    HW2 1146   6.139   5.507   1.109
   83SOL     OW 1147   0.731   1.074   6.548
   83SOL    HW1 1148   0.770   0.982   6.558
   83SOL    HW2 1149   0.747   1.126   6.632
   84SOL     OW 1150   5.684   3.585   3.001
   84SOL    HW1 1151   5.743   3.576   3.081
   84SOL    HW2 1152   5.696   3.675   2.960
   85SOL     OW 1153   1.592   1.110   3.095
   85SOL    HW1 1154   1.687   1.116   3.126
   85SOL    HW2 1155   1.590   1.104   2.995
   86SOL     OW 1156   6.872   1.420   6.871
   86SOL    HW1 1157   6.869   1.458   6.964
   86SOL    HW2 1158   6.966   1.422   6.837
   87SOL     OW 1159   3.723   3.922   0.938
   87SOL    HW1 1160   3.635   3.929   0.889
   87SOL    HW2 1161   3.794   3.969   0.886
   88SOL     OW 1162   3.016   2.357   6.014
   88SOL    HW1 1163   3.091   2.339   6.078
   88SOL    HW2 1164   3.005   2.278   5.954
   89SOL     OW 1165   2.978   2.899   6.982
   89SOL    HW1 1166   2.958   2.803   6.998
   89SOL    HW2 1167   2.915   2.935   6.913
   90SOL     OW 1168   3.779   4.985   2.800
   90SOL    HW1 1169   3.680   4.973   2.812
   90SOL    HW2 1170   3.796   5.069   2.749
   91SOL     OW 1171   6.244   4.028   5.769
   91SOL    HW1 1172   6.280   4.112   5.726
   91SOL    HW2 1173   6.267   3.949   5.712
   92SOL     OW 1174   4.796   4.475   0.731
   92SOL    HW1 1175   4.746   4.560   0.744
   92SOL    HW2 1176   4.894   4.491   0.742
   93SOL     OW 1177   3.453   2.890   6.861
   93SOL    HW1 1178   3.471   2.946   6.780
   93SOL    HW2 1179   3.540   2.861   6.901
   94SOL     OW 1180   2.531   5.677   6.838
   94SOL    HW1 1181   2.574   5.691   6.927
   94SOL    HW2 1182   2.598   5.693   6.766
   95SOL     OW 1183   1.887   0.861   3.347
   95SOL    HW1 1184   1.874   0.770   3.306
   95SOL    HW2 1185   1.879   0.854   3.446
   96SOL     OW 1186   4.505   5.757   5.658
   96SOL    HW1 1187   4.565   5.817   5.607
   96SOL    HW2 1188   4.445   5.708   5.595
   97SOL     OW 1189   2.102   3.722   5.387
   97SOL    HW1 1190   2.194   3.696   5.359
   97SOL    HW2 1191   2.059   3.777   5.315
   98SOL     OW 1192   0.896   1.609   0.249
   98SOL    HW1 1193   0.929   1.678   0.313
   98SOL    HW2 1194   0.925   1.519   0.279
   99SOL     OW 1195   3.552   3.692   2.223
   99SOL    HW1 1196   3.485   3.762   2.196
   99SOL    HW2 1197   3.641   3.714   2.182
  100SOL     OW 1198   6.658   6.746   4.179
  100SOL    HW1 1199   6.741   6.716   4.226
  100SOL    HW2 1200   6.675   6.753   4.081
  101SOL     OW 1201   0.039   5.106   2.211
  101SOL    HW1 1202   0.121   5.066   2.169
  101SOL    HW2 1203   0.059   5.199   2.240
  102SOL     OW 1204   3.420   5.658   2.085
  102SOL    HW1 1205   3.407   5.562   2.107
  102SOL    HW2 1206   3.401   5.714   2.165
  103SOL     OW 1207   2.359   2.299   2.526
  103SOL    HW1 1208   2.369   2.263   2.619
  103SOL    HW2 1209   2.278   2.358   2.522
  104SOL     OW 1210   1.430   5.189   2.275
  104SOL    HW1 1211   1.352   5.204   2.214
  104SOL    HW2 1212   1.397   5.168   2.367
  105SOL     OW 1213   6.036   0.986   6.539
  105SOL    HW1 1214   6.055   1.084   6.548
  105SOL    HW2 1215   5.968   0.971   6.468
  106SOL     OW 1216   4.000   6.105   3.347
  106SOL    HW1 1217   4.045   6.179   3.298
  106SOL    HW2 1218   4.047   6.019   3.327
  107SOL     OW 1219   0.239   1.155   0.296
  107SOL    HW1 1220   0.155   1.103   0.279
  107SOL    HW2 1221   0.224   1.217   0.373
  108SOL     OW 1222   4.015   6.354   6.746
  108SOL    HW1 1223   4.027   6.367   6.845
  108SOL    HW2 1224   4.104   6.357   6.701
  109SOL     OW 1225   2.944   0.785   2.552
  109SOL    HW1 1226   3.040   0.785   2.525
  109SOL    HW2 1227   2.909   0.879   2.549
  110SOL     OW 1228   3.255   4.942   4.268
  110SOL    HW1 1229   3.201   5.010   4.318
  110SOL    HW2 1230   3.214   4.851   4.280
  111SOL     OW 1231   2.098   1.286   3.478
  111SOL    HW1 1232   2.059   1.341   3.553
  111SOL    HW2 1233   2.197   1.284   3.487
  112SOL     OW 1234   5.049   5.984   0.855
  112SOL    HW1 1235   4.997   6.045   0.915
  112SOL    HW2 1236   4.998   5.900   0.840
  113SOL     OW 1237   1.212   5.958   2.814
  113SOL    HW1 1238   1.255   5.912   2.892
  113SOL    HW2 1239   1.165   5.890   2.758
  114SOL     OW 1240   1.311   6.552   1.706
  114SOL    HW1 1241   1.348   6.460   1.705
  114SOL    HW2 1242   1.365   6.610   1.767
  115SOL     OW 1243   5.224   6.904   2.989
  115SOL    HW1 1244   5.178   6.902   3.078
  115SOL    HW2 1245   5.192   6.983   2.936
  116SOL     OW 1246   0.307   5.787   1.293
  116SOL    HW1 1247   0.275   5.876   1.259
  116SOL    HW2 1248   0.246   5.755   1.365
  117SOL     OW 1249   0.906   0.556   0.815
  117SOL    HW1 1250   0.934   0.461   0.803
  117SOL    HW2 1251   0.975   0.617   0.776
  118SOL     OW 1252   1.563   1.845   2.796
  118SOL    HW1 1253   1.565   1.921   2.861
  118SOL    HW2 1254   1.471   1.834   2.759
  119SOL     OW 1255   7.010   0.569   6.663
  119SOL    HW1 1256   6.911   0.572   6.650
  119SOL    HW2 1257   0.019   0.476   6.651
  120SOL     OW 1258   5.086   0.607   4.619
  120SOL    HW1 1259   5.058   0.516   4.649
  120SOL    HW2 1260   5.075   0.614   4.520
  121SOL     OW 1261   1.132   3.930   0.619
  121SOL    HW1 1262   1.038   3.896   0.619
  121SOL    HW2 1263   1.139   4.007   0.555
  122SOL     OW 1264   1.486   3.587   0.479
  122SOL    HW1 1265   1.514   3.641   0.400
  122SOL    HW2 1266   1.391   3.609   0.503
  123SOL     OW 1267   1.145   1.111   2.057
  123SOL    HW1 1268   1.051   1.146   2.051
  123SOL    HW2 1269   1.188   1.115   1.967
  124SOL     OW 1270   3.516   2.254   0.554
  124SOL    HW1 1271   3.476   2.332   0.603
  124SOL    HW2 1272   3.555   2.285   0.467
  125SOL     OW 1273   3.358   2.683   0.433
  125SOL    HW1 1274   3.376   2.639   0.345
  125SOL    HW2 1275   3.378   2.618   0.507
  126SOL     OW 1276   3.674   3.004   2.991
  126SOL    HW1 1277   3.656   2.970   3.084
  126SOL    HW2 1278   3.757   3.060   2.992
  127SOL     OW 1279   6.890   5.585   6.460
  127SOL    HW1 1280   6.951   5.561   6.535
  127SOL    HW2 1281   6.796   5.589   6.493
  128SOL     OW 1282   4.809   3.265   1.285
  128SOL    HW1 1283   4.714   3.294   1.273
  128SOL    HW2 1284   4.864   3.343   1.316
  129SOL     OW 1285   2.904   3.848   0.285
  129SOL    HW1 1286   2.888   3.751   0.297
  129SOL    HW2 1287   2.825   3.890   0.240
  130SOL     OW 1288   6.625   0.558   4.490
  130SOL    HW1 1289   6.667   0.588   4.576
  130SOL    HW2 1290   6.661   0.468   4.465
  131SOL     OW 1291   5.345   0.346   3.920
  131SOL    HW1 1292   5.280   0.297   3.977
  131SOL    HW2 1293   5.312   0.439   3.904
  132SOL     OW 1294   2.959   2.774   1.146
  132SOL    HW1 1295   2.880   2.732   1.103
  132SOL    HW2 1296   3.042   2.722   1.122
  133SOL     OW 1297   5.298   0.815   4.089
  133SOL    HW1 1298   5.337   0.757   4.018
  133SOL    HW2 1299   5.365   0.832   4.161
  134SOL     OW 1300   6.907   0.689   2.981
  134SOL    HW1 1301   6.825   0.744   2.996
  134SOL    HW2 1302   6.984   0.749   2.961
  135SOL     OW 1303   5.038   3.551   4.208
  135SOL    HW1 1304   5.133   3.580   4.208
  135SOL    HW2 1305   4.980   3.625   4.241
  136SOL     OW 1306   1.787   5.402   4.667
  136SOL    HW1 1307   1.688   5.399   4.652
  136SOL    HW2 1308   1.808   5.359   4.756
  137SOL     OW 1309   4.260   1.123   4.255
  137SOL    HW1 1310   4.222   1.086   4.170
  137SOL    HW2 1311   4.329   1.192   4.233
  138SOL     OW 1312   0.726   4.180   2.994
  138SOL    HW1 1313   0.672   4.114   3.047
  138SOL    HW2 1314   0.756   4.138   2.909
  139SOL     OW 1315   1.824   5.959   5.634
  139SOL    HW1 1316   1.889   5.970   5.709
  139SOL    HW2 1317   1.850   5.879   5.579
  140SOL     OW 1318   1.232   6.587   4.125
  140SOL    HW1 1319   1.306   6.649   4.096
  140SOL    HW2 1320   1.145   6.620   4.088
  141SOL     OW 1321   6.596   2.866   5.757
  141SOL    HW1 1322   6.546   2.793   5.711
  141SOL    HW2 1323   6.646   2.828   5.835
  142SOL     OW 1324   2.143   3.406   2.256
  142SOL    HW1 1325   2.192   3.450   2.180
  142SOL    HW2 1326   2.099   3.323   2.223
  143SOL     OW 1327   5.421   5.882   0.876
  143SOL    HW1 1328   5.378   5.880   0.967
  143SOL    HW2 1329   5.509   5.928   0.882
  144SOL     OW 1330   1.942   4.475   5.318
  144SOL    HW1 1331   1.861   4.534   5.323
  144SOL    HW2 1332   2.020   4.522   5.360
  145SOL     OW 1333   1.910   5.730   1.319
  145SOL    HW1 1334   1.912   5.821   1.361
  145SOL    HW2 1335   1.948   5.734   1.227
  146SOL     OW 1336   5.210   0.910   6.845
  146SOL    HW1 1337   5.232   1.008   6.841
  146SOL    HW2 1338   5.222   0.870   6.754
  147SOL     OW 1339   5.379   1.225   5.824
  147SOL    HW1 1340   5.334   1.153   5.877
  147SOL    HW2 1341   5.343   1.227   5.731
  148SOL     OW 1342   0.852   5.568   1.309
  148SOL    HW1 1343   0.831   5.659   1.272
  148SOL    HW2 1344   0.828   5.565   1.406
  149SOL     OW 1345   3.382   1.657   5.039
  149SOL    HW1 1346   3.345   1.576   4.994
  149SOL    HW2 1347   3.313   1.697   5.099
  150SOL     OW 1348   5.105   0.393   6.176
  150SOL    HW1 1349   5.196   0.364   6.145
  150SOL    HW2 1350   5.096   0.376   6.274
  151SOL     OW 1351   3.788   0.874   1.993
  151SOL    HW1 1352   3.823   0.780   1.984
  151SOL    HW2 1353   3.706   0.884   1.938
  152SOL     OW 1354   0.179   1.819   0.506
  152SOL    HW1 1355   0.269   1.838   0.545
  152SOL    HW2 1356   0.190   1.791   0.410
  153SOL     OW 1357   2.880   6.665   3.045
  153SOL    HW1 1358   2.864   6.758   3.012
  153SOL    HW2 1359   2.964   6.662   3.099
  154SOL     OW 1360   0.384   3.247   0.842
  154SOL    HW1 1361   0.349   3.196   0.921
  154SOL    HW2 1362   0.483   3.257   0.851
  155SOL     OW 1363   0.600   0.774   3.195
  155SOL    HW1 1364   0.690   0.748   3.230
  155SOL    HW2 1365   0.530   0.714   3.234
  156SOL     OW 1366   6.580   0.349   6.854
  156SOL    HW1 1367   6.678   0.329   6.845
  156SOL    HW2 1368   6.559   0.436   6.809
  157SOL     OW 1369   5.432   3.353   0.557
  157SOL    HW1 1370   5.478   3.442   0.556
  157SOL    HW2 1371   5.432   3.316   0.650
  158SOL     OW 1372   1.837   2.654   1.034
  158SOL    HW1 1373   1.840   2.555   1.020
  158SOL    HW2 1374   1.779   2.674   1.113
  159SOL     OW 1375   3.863   5.105   1.339
  159SOL    HW1 1376   3.842   5.199   1.316
  159SOL    HW2 1377   3.937   5.072   1.280
  160SOL     OW 1378   6.101   0.145   0.668
  160SOL    HW1 1379   6.079   0.125   0.573
  160SOL    HW2 1380   6.200   0.137   0.682
  161SOL     OW 1381   1.723   0.217   2.332
  161SOL    HW1 1382   1.661   0.160   2.277
  161SOL    HW2 1383   1.808   0.232   2.282
  162SOL     OW 1384   3.413   6.554   0.063
  162SOL    HW1 1385   3.421   6.573   0.161
  162SOL    HW2 1386   3.361   6.627   0.019
  163SOL     OW 1387   0.800   5.780   2.550
  163SOL    HW1 1388   0.761   5.819   2.633
  163SOL    HW2 1389   0.760   5.690   2.533
  164SOL     OW 1390   0.988   3.274   2.413
  164SOL    HW1 1391   0.891   3.294   2.428
  164SOL    HW2 1392   1.003   3.176   2.416
  165SOL     OW 1393   5.477   5.230   7.007
  165SOL    HW1 1394   5.441   5.154   0.037
  165SOL    HW2 1395   5.409   5.303   7.002
  166SOL     OW 1396   6.945   3.729   2.091
  166SOL    HW1 1397   6.857   3.747   2.134
  166SOL    HW2 1398   7.004   3.679   2.154
  167SOL     OW 1399   6.285   1.219   6.269
  167SOL    HW1 1400   6.224   1.288   6.307
  167SOL    HW2 1401   6.239   1.130   6.270
  168SOL     OW 1402   4.246   2.163   1.349
  168SOL    HW1 1403   4.292   2.193   1.265
  168SOL    HW2 1404   4.295   2.200   1.428
  169SOL     OW 1405   5.452   2.343   6.841
  169SOL    HW1 1406   5.435   2.385   6.930
  169SOL    HW2 1407   5.472   2.245   6.853
  170SOL     OW 1408   0.024   5.941   2.583
  170SOL    HW1 1409   0.018   5.909   2.678
  170SOL    HW2 1410   7.021   5.867   2.522
  171SOL     OW 1411   2.435   4.295   0.284
  171SOL    HW1 1412   2.491   4.216   0.306
  171SOL    HW2 1413   2.394   4.284   0.193
  172SOL     OW 1414   5.730   2.022   2.901
  172SOL    HW1 1415   5.755   1.935   2.944
  172SOL    HW2 1416   5.701   2.086   2.972
  173SOL     OW 1417   5.986   1.321   4.734
  173SOL    HW1 1418   5.962   1.301   4.639
  173SOL    HW2 1419   6.022   1.414   4.741
  174SOL     OW 1420   4.632   5.643   3.497
  174SOL    HW1 1421   4.640   5.659   3.596
  174SOL    HW2 1422   4.700   5.575   3.469
  175SOL     OW 1423   3.141   0.881   0.904
  175SOL    HW1 1424   3.145   0.781   0.906
  175SOL    HW2 1425   3.219   0.916   0.854
  176SOL     OW 1426   5.303   4.750   2.500
  176SOL    HW1 1427   5.270   4.677   2.561
  176SOL    HW2 1428   5.377   4.715   2.443
  177SOL     OW 1429   4.850   3.193   4.605
  177SOL    HW1 1430   4.808   3.102   4.605
  177SOL    HW2 1431   4.884   3.214   4.514
  178SOL     OW 1432   2.853   4.893   5.266
  178SOL    HW1 1433   2.772   4.939   5.303
  178SOL    HW2 1434   2.844   4.794   5.279
  179SOL     OW 1435   4.304   0.373   6.883
  179SOL    HW1 1436   4.294   0.350   6.980
  179SOL    HW2 1437   4.224   0.425   6.853
  180SOL     OW 1438   2.380   6.852   0.416
  180SOL    HW1 1439   2.407   6.912   0.491
  180SOL    HW2 1440   2.293   6.808   0.438
  181SOL     OW 1441   3.208   3.135   6.017
  181SOL    HW1 1442   3.163   3.132   5.928
  181SOL    HW2 1443   3.223   3.230   6.044
  182SOL     OW 1444   3.957   2.619   6.303
  182SOL    HW1 1445   4.050   2.652   6.292
  182SOL    HW2 1446   3.905   2.637   6.219
  183SOL     OW 1447   3.387   2.093   3.477
  183SOL    HW1 1448   3.464   2.049   3.524
  183SOL    HW2 1449   3.310   2.100   3.540
  184SOL     OW 1450   0.542   6.646   3.538
  184SOL    HW1 1451   0.639   6.654   3.561
  184SOL    HW2 1452   0.531   6.646   3.438
  185SOL     OW 1453   1.190   1.621   4.761
  185SOL    HW1 1454   1.190   1.535   4.712
  185SOL    HW2 1455   1.120   1.682   4.722
  186SOL     OW 1456   5.259   0.837   4.515
  186SOL    HW1 1457   5.222   0.754   4.556
  186SOL    HW2 1458   5.288   0.900   4.587
  187SOL     OW 1459   5.571   6.594   2.466
  187SOL    HW1 1460   5.529   6.665   2.410
  187SOL    HW2 1461   5.520   6.584   2.551
  188SOL     OW 1462   0.209   3.247   3.841
  188SOL    HW1 1463   0.214   3.256   3.941
  188SOL    HW2 1464   0.301   3.246   3.803
  189SOL     OW 1465   1.546   4.853   6.690
  189SOL    HW1 1466   1.554   4.938   6.741
  189SOL    HW2 1467   1.483   4.866   6.613
  190SOL     OW 1468   5.871   4.572   6.038
  190SOL    HW1 1469   5.888   4.644   5.970
  190SOL    HW2 1470   5.957   4.550   6.085
  191SOL     OW 1471   6.783   1.446   6.625
  191SOL    HW1 1472   6.797   1.409   6.717
  191SOL    HW2 1473   6.761   1.543   6.631
  192SOL     OW 1474   0.237   4.652   1.369
  192SOL    HW1 1475   0.209   4.557   1.354
  192SOL    HW2 1476   0.333   4.654   1.397
  193SOL     OW 1477   4.969   4.219   5.233
  193SOL    HW1 1478   5.012   4.129   5.247
  193SOL    HW2 1479   4.870   4.208   5.225
  194SOL     OW 1480   3.747   6.239   3.092
  194SOL    HW1 1481   3.709   6.227   3.184
  194SOL    HW2 1482   3.814   6.314   3.093
  195SOL     OW 1483   1.857   1.062   3.164
  195SOL    HW1 1484   1.913   1.141   3.188
  195SOL    HW2 1485   1.868   0.991   3.234
  196SOL     OW 1486   2.972   0.057   6.822
  196SOL    HW1 1487   2.962   6.982   6.803
  196SOL    HW2 1488   2.918   0.081   6.903
  197SOL     OW 1489   2.823   6.825   0.419
  197SOL    HW1 1490   2.863   6.806   0.330
  197SOL    HW2 1491   2.857   6.914   0.452
  198SOL     OW 1492   4.778   6.811   2.167
  198SOL    HW1 1493   4.763   6.895   2.116
  198SOL    HW2 1494   4.753   6.732   2.111
  199SOL     OW 1495   6.531   1.110   2.931
  199SOL    HW1 1496   6.461   1.080   2.867
  199SOL    HW2 1497   6.492   1.117   3.023
  200SOL     OW 1498   1.070   3.970   2.025
  200SOL    HW1 1499   0.982   4.001   2.061
  200SOL    HW2 1500   1.060   3.945   1.929
  201SOL     OW 1501   4.621   6.748   6.395
  201SOL    HW1 1502   4.637   6.699   6.480
  201SOL    HW2 1503   4.534   6.797   6.400
  202SOL     OW 1504   5.836   0.308   5.730
  202SOL    HW1 1505   5.852   0.387   5.672
  202SOL    HW2 1506   5.752   0.321   5.783
  203SOL     OW 1507   5.146   2.356   4.620
  203SOL    HW1 1508   5.236   2.315   4.610
  203SOL    HW2 1509   5.153   2.455   4.608
  204SOL     OW 1510   0.063   1.121   6.723
  204SOL    HW1 1511   7.008   1.061   6.712
  204SOL    HW2 1512   0.093   1.119   6.819
  205SOL     OW 1513   0.870   1.158   2.030
  205SOL    HW1 1514   0.818   1.145   1.946
  205SOL    HW2 1515   0.862   1.077   2.088
  206SOL     OW 1516   0.383   5.124   2.612
  206SOL    HW1 1517   0.363   5.124   2.710
  206SOL    HW2 1518   0.436   5.043   2.590
  207SOL     OW 1519   4.309   0.207   4.579
  207SOL    HW1 1520   4.288   0.154   4.497
  207SOL    HW2 1521   4.393   0.173   4.621
  208SOL     OW 1522   5.021   4.077   5.651
  208SOL    HW1 1523   4.988   3.987   5.679
  208SOL    HW2 1524   5.121   4.079   5.656
  209SOL     OW 1525   0.964   5.190   5.475
  209SOL    HW1 1526   1.054   5.201   5.517
  209SOL    HW2 1527   0.904   5.140   5.537
  210SOL     OW 1528   4.375   2.210   1.569
  210SOL    HW1 1529   4.441   2.237   1.639
  210SOL    HW2 1530   4.302   2.155   1.612
  211SOL     OW 1531   1.114   6.341   4.548
  211SOL    HW1 1532   1.029   6.352   4.497
  211SOL    HW2 1533   1.190   6.376   4.493
  212SOL     OW 1534   2.035   4.553   1.979
  212SOL    HW1 1535   2.024   4.626   1.912
  212SOL    HW2 1536   1.968   4.565   2.053
  213SOL     OW 1537   3.614   0.826   6.216
  213SOL    HW1 1538   3.705   0.808   6.177
  213SOL    HW2 1539   3.544   0.797   6.151
  214SOL     OW 1540   3.428   6.018   2.459
  214SOL    HW1 1541   3.461   5.947   2.521
  214SOL    HW2 1542   3.477   6.104   2.478
  215SOL     OW 1543   3.199   4.160   1.828
  215SOL    HW1 1544   3.197   4.252   1.789
  215SOL    HW2 1545   3.192   4.092   1.755
  216SOL     OW 1546   1.919   6.631   4.894
  216SOL    HW1 1547   1.957   6.683   4.970
  216SOL    HW2 1548   1.992   6.605   4.831
  217SOL     OW 1549   2.818   2.301   3.884
  217SOL    HW1 1550   2.789   2.227   3.823
  217SOL    HW2 1551   2.788   2.389   3.847
  218SOL     OW 1552   0.618   3.472   4.329
  218SOL    HW1 1553   0.652   3.422   4.250
  218SOL    HW2 1554   0.571   3.555   4.299
  219SOL     OW 1555   3.671   6.479   6.648
  219SOL    HW1 1556   3.618   6.400   6.618
  219SOL    HW2 1557   3.753   6.488   6.592
  220SOL     OW 1558   3.696   6.247   6.400
  220SOL    HW1 1559   3.692   6.296   6.313
  220SOL    HW2 1560   3.779   6.273   6.450
  221SOL     OW 1561   6.898   3.862   2.626
  221SOL    HW1 1562   6.983   3.851   2.575
  221SOL    HW2 1563   6.912   3.832   2.720
  222SOL     OW 1564   1.948   5.211   5.927
  222SOL    HW1 1565   1.946   5.300   5.881
  222SOL    HW2 1566   2.003   5.147   5.873
  223SOL     OW 1567   6.260   3.594   0.910
  223SOL    HW1 1568   6.231   3.682   0.873
  223SOL    HW2 1569   6.347   3.567   0.870
  224SOL     OW 1570   2.969   1.769   3.559
  224SOL    HW1 1571   3.050   1.798   3.609
  224SOL    HW2 1572   2.996   1.737   3.468
  225SOL     OW 1573   5.144   1.227   6.126
  225SOL    HW1 1574   5.109   1.318   6.104
  225SOL    HW2 1575   5.196   1.230   6.211
  226SOL     OW 1576   0.563   0.088   6.161
  226SOL    HW1 1577   0.640   0.130   6.209
  226SOL    HW2 1578   0.586   0.075   6.065
  227SOL     OW 1579   1.455   4.274   2.109
  227SOL    HW1 1580   1.359   4.252   2.129
  227SOL    HW2 1581   1.489   4.213   2.037
  228SOL     OW 1582   3.550   6.187   3.454
  228SOL    HW1 1583   3.538   6.274   3.407
  228SOL    HW2 1584   3.646   6.159   3.447
  229SOL     OW 1585   5.726   6.380   0.609
  229SOL    HW1 1586   5.682   6.427   0.533
  229SOL    HW2 1587   5.658   6.362   0.680
  230SOL     OW 1588   2.841   4.872   2.796
  230SOL    HW1 1589   2.805   4.921   2.717
  230SOL    HW2 1590   2.816   4.775   2.789
  231SOL     OW 1591   6.185   2.136   6.173
  231SOL    HW1 1592   6.238   2.096   6.247
  231SOL    HW2 1593   6.120   2.068   6.138
  232SOL     OW 1594   0.665   4.166   5.733
  232SOL    HW1 1595   0.676   4.078   5.686
  232SOL    HW2 1596   0.607   4.153   5.813
  233SOL     OW 1597   2.258   0.883   4.041
  233SOL    HW1 1598   2.291   0.937   3.964
  233SOL    HW2 1599   2.163   0.856   4.025
  234SOL     OW 1600   2.833   6.059   5.337
  234SOL    HW1 1601   2.849   5.964   5.367
  234SOL    HW2 1602   2.740   6.087   5.360
  235SOL     OW 1603   2.929   3.268   2.335
  235SOL    HW1 1604   2.864   3.307   2.270
  235SOL    HW2 1605   2.967   3.341   2.392
  236SOL     OW 1606   6.119   2.539   6.701
  236SOL    HW1 1607   6.052   2.533   6.627
  236SOL    HW2 1608   6.161   2.449   6.715
  237SOL     OW 1609   6.552   6.787   0.892
  237SOL    HW1 1610   6.562   6.692   0.865
  237SOL    HW2 1611   6.562   6.846   0.812
  238SOL     OW 1612   5.974   2.323   6.873
  238SOL    HW1 1613   5.890   2.351   6.827
  238SOL    HW2 1614   5.993   2.384   6.949
  239SOL     OW 1615   6.598   5.466   0.014
  239SOL    HW1 1616   6.683   5.468   0.067
  239SOL    HW2 1617   6.580   5.372   7.007
  240SOL     OW 1618   0.099   3.206   5.574
  240SOL    HW1 1619   0.126   3.295   5.611
  240SOL    HW2 1620   0.000   3.204   5.560
  241SOL     OW 1621   1.244   0.388   4.292
  241SOL    HW1 1622   1.184   0.391   4.372
  241SOL    HW2 1623   1.294   0.302   4.291
  242SOL     OW 1624   2.023   3.243   6.227
  242SOL    HW1 1625   2.091   3.316   6.218
  242SOL    HW2 1626   2.011   3.197   6.139
  243SOL     OW 1627   5.078   6.822   6.529
  243SOL    HW1 1628   5.030   6.875   6.599
  243SOL    HW2 1629   5.175   6.847   6.529
  244SOL     OW 1630   4.828   3.090   4.262
  244SOL    HW1 1631   4.863   3.035   4.186
  244SOL    HW2 1632   4.735   3.121   4.240
  245SOL     OW 1633   0.083   2.499   4.669
  245SOL    HW1 1634   0.024   2.538   4.741
  245SOL    HW2 1635   0.074   2.553   4.586
  246SOL     OW 1636   5.557   2.976   3.311
  246SOL    HW1 1637   5.552   3.030   3.227
  246SOL    HW2 1638   5.652   2.958   3.334
  247SOL     OW 1639   1.872   1.976   1.999
  247SOL    HW1 1640   1.930   1.904   2.038
  247SOL    HW2 1641   1.814   1.937   1.928
  248SOL     OW 1642   4.695   2.415   4.800
  248SOL    HW1 1643   4.710   2.415   4.899
  248SOL    HW2 1644   4.598   2.426   4.782
  249SOL     OW 1645   4.909   0.110   5.283
  249SOL    HW1 1646   4.990   0.131   5.227
  249SOL    HW2 1647   4.866   0.026   5.249
  250SOL     OW 1648   4.770   2.481   5.754
  250SOL    HW1 1649   4.785   2.398   5.808
  250SOL    HW2 1650   4.770   2.561   5.814
  251SOL     OW 1651   4.377   4.645   6.194
  251SOL    HW1 1652   4.418   4.733   6.217
  251SOL    HW2 1653   4.306   4.622   6.260
  252SOL     OW 1654   6.892   0.583   0.103
  252SOL    HW1 1655   6.912   0.500   0.155
  252SOL    HW2 1656   6.967   0.601   0.040
  253SOL     OW 1657   2.083   4.079   0.075
  253SOL    HW1 1658   2.084   4.012   0.150
  253SOL    HW2 1659   1.996   4.128   0.075
  254SOL     OW 1660   6.313   2.637   3.546
  254SOL    HW1 1661   6.256   2.654   3.626
  254SOL    HW2 1662   6.340   2.540   3.545
  255SOL     OW 1663   2.229   2.970   4.103
  255SOL    HW1 1664   2.227   2.927   4.193
  255SOL    HW2 1665   2.184   3.060   4.108
  256SOL     OW 1666   6.536   4.494   0.222
  256SOL    HW1 1667   6.624   4.517   0.181
  256SOL    HW2 1668   6.551   4.454   0.312
  257SOL     OW 1669   3.627   5.603   5.109
  257SOL    HW1 1670   3.654   5.700   5.100
  257SOL    HW2 1671   3.694   5.546   5.061
  258SOL     OW 1672   5.609   4.572   4.829
  258SOL    HW1 1673   5.640   4.528   4.913
  258SOL    HW2 1674   5.511   4.592   4.836
  259SOL     OW 1675   1.809   2.948   2.364
  259SOL    HW1 1676   1.723   2.950   2.415
  259SOL    HW2 1677   1.865   3.026   2.392
  260SOL     OW 1678   3.996   0.855   1.342
  260SOL    HW1 1679   4.090   0.842   1.372
  260SOL    HW2 1680   3.942   0.773   1.365
  261SOL     OW 1681   6.530   3.534   1.287
  261SOL    HW1 1682   6.447   3.570   1.329
  261SOL    HW2 1683   6.507   3.483   1.204
  262SOL     OW 1684   0.653   4.060   1.936
  262SOL    HW1 1685   0.671   3.992   1.866
  262SOL    HW2 1686   0.567   4.039   1.982
  263SOL     OW 1687   0.669   1.445   3.726
  263SOL    HW1 1688   0.749   1.499   3.753
  263SOL    HW2 1689   0.587   1.502   3.731
  264SOL     OW 1690   5.733   4.526   5.358
  264SOL    HW1 1691   5.824   4.554   5.326
  264SOL    HW2 1692   5.663   4.563   5.297
  265SOL     OW 1693   4.729   4.093   3.127
  265SOL    HW1 1694   4.737   4.090   3.027
  265SOL    HW2 1695   4.691   4.007   3.160
  266SOL     OW 1696   3.332   2.767   6.333
  266SOL    HW1 1697   3.400   2.763   6.406
  266SOL    HW2 1698   3.310   2.863   6.314
  267SOL     OW 1699   6.964   2.308   5.958
  267SOL    HW1 1700   6.870   2.276   5.947
  267SOL    HW2 1701   6.998   2.343   5.871
  268SOL     OW 1702   5.168   5.801   5.263
  268SOL    HW1 1703   5.142   5.713   5.304
  268SOL    HW2 1704   5.186   5.788   5.165
  269SOL     OW 1705   1.833   1.884   0.482
  269SOL    HW1 1706   1.885   1.813   0.435
  269SOL    HW2 1707   1.736   1.859   0.485
  270SOL     OW 1708   7.016   0.516   2.222
  270SOL    HW1 1709   7.017   0.536   2.124
  270SOL    HW2 1710   6.935   0.559   2.264
  271SOL     OW 1711   2.886   1.959   0.243
  271SOL    HW1 1712   2.791   1.992   0.245
  271SOL    HW2 1713   2.926   1.970   0.334
  272SOL     OW 1714   3.239   5.408   4.277
  272SOL    HW1 1715   3.318   5.398   4.217
  272SOL    HW2 1716   3.246   5.494   4.327
  273SOL     OW 1717   1.483   5.495   5.241
  273SOL    HW1 1718   1.415   5.513   5.170
  273SOL    HW2 1719   1.439   5.450   5.319
  274SOL     OW 1720   5.795   2.055   4.267
  274SOL    HW1 1721   5.710   2.035   4.218
  274SOL    HW2 1722   5.773   2.092   4.358
  275SOL     OW 1723   6.905   6.134   6.338
  275SOL    HW1 1724   6.866   6.043   6.322
  275SOL    HW2 1725   6.973   6.154   6.267
  276SOL     OW 1726   6.605   5.411   3.770
  276SOL    HW1 1727   6.588   5.315   3.749
  276SOL    HW2 1728   6.547   5.469   3.714
  277SOL     OW 1729   3.042   1.406   6.703
  277SOL    HW1 1730   2.966   1.471   6.705
  277SOL    HW2 1731   3.029   1.343   6.625
  278SOL     OW 1732   6.247   3.640   1.958
  278SOL    HW1 1733   6.226   3.563   2.018
  278SOL    HW2 1734   6.337   3.625   1.915
  279SOL     OW 1735   6.455   2.711   4.130
  279SOL    HW1 1736   6.457   2.611   4.141
  279SOL    HW2 1737   6.489   2.754   4.213
  280SOL     OW 1738   3.924   6.995   2.839
  280SOL    HW1 1739   3.955   0.059   2.801
  280SOL    HW2 1740   3.849   6.960   2.784
  281SOL     OW 1741   2.727   4.834   3.059
  281SOL    HW1 1742   2.627   4.834   3.056
  281SOL    HW2 1743   2.763   4.833   2.966
  282SOL     OW 1744   3.907   2.471   5.313
  282SOL    HW1 1745   3.972   2.441   5.243
  282SOL    HW2 1746   3.878   2.392   5.367
  283SOL     OW 1747   6.230   0.606   5.987
  283SOL    HW1 1748   6.193   0.593   5.894
  283SOL    HW2 1749   6.316   0.557   5.995
  284SOL     OW 1750   0.816   4.811   4.980
  284SOL    HW1 1751   0.743   4.747   5.004
  284SOL    HW2 1752   0.874   4.828   5.060
  285SOL     OW 1753   5.389   5.694   0.058
  285SOL    HW1 1754   5.316   5.760   0.041
  285SOL    HW2 1755   5.367   5.607   0.014
  286SOL     OW 1756   4.114   4.776   5.141
  286SOL    HW1 1757   4.024   4.807   5.171
  286SOL    HW2 1758   4.110   4.749   5.045
  287SOL     OW 1759   0.762   5.335   6.828
  287SOL    HW1 1760   0.749   5.346   6.926
  287SOL    HW2 1761   0.745   5.422   6.781
  288SOL     OW 1762   3.975   1.294   0.315
  288SOL    HW1 1763   4.051   1.340   0.270
  288SOL    HW2 1764   3.889   1.322   0.272
  289SOL     OW 1765   0.212   5.654   5.348
  289SOL    HW1 1766   0.240   5.749   5.363
  289SOL    HW2 1767   0.195   5.640   5.250
  290SOL     OW 1768   4.979   1.189   3.726
  290SOL    HW1 1769   4.945   1.133   3.651
  290SOL    HW2 1770   4.907   1.251   3.756
  291SOL     OW 1771   3.771   1.030   4.284
  291SOL    HW1 1772   3.818   0.948   4.251
  291SOL    HW2 1773   3.838   1.102   4.301
  292SOL     OW 1774   4.796   1.390   3.808
  292SOL    HW1 1775   4.790   1.359   3.903
  292SOL    HW2 1776   4.863   1.464   3.801
  293SOL     OW 1777   4.092   6.455   1.569
  293SOL    HW1 1778   4.079   6.550   1.542
  293SOL    HW2 1779   4.024   6.430   1.638
  294SOL     OW 1780   5.928   5.632   6.847
  294SOL    HW1 1781   5.876   5.633   6.761
  294SOL    HW2 1782   5.900   5.553   6.901
  295SOL     OW 1783   2.449   1.905   5.407
  295SOL    HW1 1784   2.546   1.908   5.381
  295SOL    HW2 1785   2.410   1.997   5.398
  296SOL     OW 1786   6.487   2.419   1.851
  296SOL    HW1 1787   6.578   2.461   1.847
  296SOL    HW2 1788   6.486   2.336   1.796
  297SOL     OW 1789   3.348   4.856   3.087
  297SOL    HW1 1790   3.263   4.879   3.040
  297SOL    HW2 1791   3.334   4.860   3.186
  298SOL     OW 1792   4.294   6.923   0.200
  298SOL    HW1 1793   4.262   7.014   0.175
  298SOL    HW2 1794   4.301   6.867   0.117
  299SOL     OW 1795   4.698   2.318   6.283
  299SOL    HW1 1796   4.612   2.365   6.270
  299SOL    HW2 1797   4.683   2.219   6.278
  300SOL     OW 1798   4.528   0.564   2.583
  300SOL    HW1 1799   4.502   0.469   2.600
  300SOL    HW2 1800   4.475   0.600   2.507
  301SOL     OW 1801   5.020   1.362   0.964
  301SOL    HW1 1802   5.043   1.344   0.868
  301SOL    HW2 1803   5.038   1.459   0.984
  302SOL     OW 1804   6.751   0.733   2.743
  302SOL    HW1 1805   6.652   0.750   2.739
  302SOL    HW2 1806   6.768   0.645   2.788
  303SOL     OW 1807   6.475   6.025   2.355
  303SOL    HW1 1808   6.488   5.932   2.321
  303SOL    HW2 1809   6.545   6.047   2.422
  304SOL     OW 1810   2.170   6.153   6.452
  304SOL    HW1 1811   2.171   6.251   6.472
  304SOL    HW2 1812   2.110   6.107   6.517
  305SOL     OW 1813   1.302   2.867   0.746
  305SOL    HW1 1814   1.206   2.883   0.723
  305SOL    HW2 1815   1.321   2.906   0.836
  306SOL     OW 1816   0.486   0.870   2.728
  306SOL    HW1 1817   0.517   0.946   2.787
  306SOL    HW2 1818   0.540   0.870   2.644
  307SOL     OW 1819   4.490   4.389   0.437
  307SOL    HW1 1820   4.557   4.463   0.429
  307SOL    HW2 1821   4.493   4.351   0.529
  308SOL     OW 1822   5.838   3.143   4.585
  308SOL    HW1 1823   5.900   3.124   4.661
  308SOL    HW2 1824   5.769   3.209   4.614
  309SOL     OW 1825   1.619   6.121   0.074
  309SOL    HW1 1826   1.602   6.217   0.050
  309SOL    HW2 1827   1.622   6.112   0.173
  310SOL     OW 1828   5.121   5.715   4.552
  310SOL    HW1 1829   5.049   5.729   4.483
  310SOL    HW2 1830   5.089   5.750   4.640
  311SOL     OW 1831   2.996   5.219   2.457
  311SOL    HW1 1832   2.951   5.260   2.378
  311SOL    HW2 1833   2.941   5.143   2.491
  312SOL     OW 1834   3.514   1.869   4.155
  312SOL    HW1 1835   3.545   1.792   4.212
  312SOL    HW2 1836   3.498   1.949   4.213
  313SOL     OW 1837   3.391   3.986   2.372
  313SOL    HW1 1838   3.381   3.965   2.275
  313SOL    HW2 1839   3.310   3.954   2.421
  314SOL     OW 1840   2.330   4.646   5.610
  314SOL    HW1 1841   2.409   4.707   5.619
  314SOL    HW2 1842   2.283   4.641   5.698
  315SOL     OW 1843   1.272   2.420   4.252
  315SOL    HW1 1844   1.334   2.342   4.245
  315SOL    HW2 1845   1.326   2.504   4.258
  316SOL     OW 1846   3.532   0.496   4.347
  316SOL    HW1 1847   3.467   0.463   4.416
  316SOL    HW2 1848   3.608   0.542   4.393
  317SOL     OW 1849   0.134   1.891   1.347
  317SOL    HW1 1850   0.100   1.955   1.415
  317SOL    HW2 1851   0.058   1.848   1.299
  318SOL     OW 1852   0.131   6.697   6.978
  318SOL    HW1 1853   0.163   6.781   7.022
  318SOL    HW2 1854   0.094   6.719   6.888
  319SOL     OW 1855   6.499   1.607   3.575
  319SOL    HW1 1856   6.593   1.622   3.606
  319SOL    HW2 1857   6.448   1.693   3.584
  320SOL     OW 1858   5.772   2.643   0.240
  320SOL    HW1 1859   5.762   2.563   0.299
  320SOL    HW2 1860   5.761   2.616   0.145
  321SOL     OW 1861   3.948   2.221   7.020
  321SOL    HW1 1862   3.997   2.286   6.962
  321SOL    HW2 1863   4.013   2.164   0.046
  322SOL     OW 1864   2.997   3.216   4.200
  322SOL    HW1 1865   2.978   3.265   4.285
  322SOL    HW2 1866   2.934   3.140   4.190
  323SOL     OW 1867   0.921   2.463   5.948
  323SOL    HW1 1868   0.857   2.392   5.920
  323SOL    HW2 1869   1.012   2.423   5.961
  324SOL     OW 1870   2.806   0.381   3.254
  324SOL    HW1 1871   2.852   0.371   3.165
  324SOL    HW2 1872   2.787   0.478   3.270
  325SOL     OW 1873   0.263   2.817   1.916
  325SOL    HW1 1874   0.344   2.872   1.896
  325SOL    HW2 1875   0.181   2.867   1.889
  326SOL     OW 1876   0.906   4.303   6.043
  326SOL    HW1 1877   0.831   4.274   6.102
  326SOL    HW2 1878   0.872   4.318   5.950
  327SOL     OW 1879   2.051   4.672   2.874
  327SOL    HW1 1880   2.109   4.663   2.955
  327SOL    HW2 1881   2.040   4.769   2.851
  328SOL     OW 1882   1.914   5.513   2.020
  328SOL    HW1 1883   1.869   5.581   1.962
  328SOL    HW2 1884   1.974   5.457   1.965
  329SOL     OW 1885   2.920   3.487   5.497
  329SOL    HW1 1886   2.956   3.549   5.428
  329SOL    HW2 1887   2.865   3.539   5.563
  330SOL     OW 1888   3.215   6.616   1.240
  330SOL    HW1 1889   3.205   6.669   1.156
  330SOL    HW2 1890   3.199   6.519   1.221
  331SOL     OW 1891   4.263   5.474   0.556
  331SOL    HW1 1892   4.172   5.439   0.579
  331SOL    HW2 1893   4.296   5.532   0.630
  332SOL     OW 1894   5.307   2.731   5.602
  332SOL    HW1 1895   5.355   2.744   5.516
  332SOL    HW2 1896   5.362   2.672   5.662
  333SOL     OW 1897   4.407   0.851   5.641
  333SOL    HW1 1898   4.372   0.772   5.591
  333SOL    HW2 1899   4.405   0.831   5.739
  334SOL     OW 1900   3.228   1.711   0.318
  334SOL    HW1 1901   3.224   1.807   0.346
  334SOL    HW2 1902   3.162   1.695   0.244
  335SOL     OW 1903   3.912   0.001   6.320
  335SOL    HW1 1904   3.939   0.090   6.284
  335SOL    HW2 1905   3.835   0.012   6.383
  336SOL     OW 1906   3.095   1.059   3.195
  336SOL    HW1 1907   3.145   0.980   3.160
  336SOL    HW2 1908   3.035   1.096   3.123
  337SOL     OW 1909   6.899   3.374   5.525
  337SOL    HW1 1910   6.972   3.433   5.560
  337SOL    HW2 1911   6.831   3.359   5.597
  338SOL     OW 1912   2.982   2.420   1.151
  338SOL    HW1 1913   2.969   2.430   1.250
  338SOL    HW2 1914   3.064   2.470   1.123
  339SOL     OW 1915   4.444   5.716   4.586
  339SOL    HW1 1916   4.451   5.782   4.511
  339SOL    HW2 1917   4.374   5.746   4.650
  340SOL     OW 1918   5.608   3.525   4.484
  340SOL    HW1 1919   5.686   3.586   4.468
  340SOL    HW2 1920   5.526   3.580   4.500
  341SOL     OW 1921   6.209   6.601   4.488
  341SOL    HW1 1922   6.163   6.584   4.401
  341SOL    HW2 1923   6.146   6.578   4.563
  342SOL     OW 1924   5.792   3.617   0.421
  342SOL    HW1 1925   5.744   3.592   0.505
  342SOL    HW2 1926   5.808   3.535   0.366
  343SOL     OW 1927   0.923   5.905   1.419
  343SOL    HW1 1928   0.874   5.876   1.337
  343SOL    HW2 1929   0.891   5.995   1.447
  344SOL     OW 1930   0.622   3.327   1.739
  344SOL    HW1 1931   0.715   3.303   1.763
  344SOL    HW2 1932   0.611   3.324   1.639
  345SOL     OW 1933   5.436   2.237   3.664
  345SOL    HW1 1934   5.453   2.316   3.604
  345SOL    HW2 1935   5.359   2.184   3.628
  346SOL     OW 1936   1.906   1.242   2.435
  346SOL    HW1 1937   1.949   1.157   2.405
  346SOL    HW2 1938   1.974   1.315   2.435
  347SOL     OW 1939   2.687   5.765   0.046
  347SOL    HW1 1940   2.697   5.849   7.017
  347SOL    HW2 1941   2.774   5.715   0.046
  348SOL     OW 1942   4.828   3.914   2.513
  348SOL    HW1 1943   4.857   4.009   2.497
  348SOL    HW2 1944   4.734   3.914   2.547
  349SOL     OW 1945   6.980   5.141   1.467
  349SOL    HW1 1946   6.885   5.141   1.498
  349SOL    HW2 1947   0.010   5.077   1.521
  350SOL     OW 1948   3.081   2.033   1.293
  350SOL    HW1 1949   3.069   1.974   1.373
  350SOL    HW2 1950   3.109   2.124   1.323
  351SOL     OW 1951   2.564   3.499   0.781
  351SOL    HW1 1952   2.522   3.408   0.790
  351SOL    HW2 1953   2.654   3.490   0.739
  352SOL     OW 1954   3.381   6.818   3.535
  352SOL    HW1 1955   3.324   6.898   3.513
  352SOL    HW2 1956   3.398   6.765   3.452
  353SOL     OW 1957   3.432   0.152   6.763
  353SOL    HW1 1958   3.443   0.077   6.828
  353SOL    HW2 1959   3.390   0.118   6.680
  354SOL     OW 1960   4.583   2.322   1.382
  354SOL    HW1 1961   4.673   2.350   1.416
  354SOL    HW2 1962   4.537   2.266   1.451
  355SOL     OW 1963   1.552   4.185   2.784
  355SOL    HW1 1964   1.576   4.088   2.780
  355SOL    HW2 1965   1.560   4.217   2.878
  356SOL     OW 1966   2.187   0.508   5.508
  356SOL    HW1 1967   2.221   0.590   5.555
  356SOL    HW2 1968   2.092   0.522   5.480
  357SOL     OW 1969   6.794   6.819   5.303
  357SOL    HW1 1970   6.800   6.722   5.328
  357SOL    HW2 1971   6.885   6.861   5.312
  358SOL     OW 1972   4.637   6.537   0.356
  358SOL    HW1 1973   4.557   6.517   0.300
  358SOL    HW2 1974   4.615   6.519   0.453
  359SOL     OW 1975   3.041   1.935   1.830
  359SOL    HW1 1976   2.988   1.852   1.844
  359SOL    HW2 1977   3.049   1.953   1.732
  360SOL     OW 1978   1.175   4.427   5.187
  360SOL    HW1 1979   1.185   4.491   5.263
  360SOL    HW2 1980   1.084   4.386   5.191
  361SOL     OW 1981   6.847   6.060   3.034
  361SOL    HW1 1982   6.749   6.051   3.018
  361SOL    HW2 1983   6.866   6.056   3.132
  362SOL     OW 1984   3.262   2.807   1.664
  362SOL    HW1 1985   3.187   2.777   1.606
  362SOL    HW2 1986   3.347   2.762   1.635
  363SOL     OW 1987   5.628   3.820   2.895
  363SOL    HW1 1988   5.532   3.832   2.869
  363SOL    HW2 1989   5.673   3.909   2.902
  364SOL     OW 1990   6.411   4.945   6.473
  364SOL    HW1 1991   6.474   4.879   6.514
  364SOL    HW2 1992   6.431   4.953   6.376
  365SOL     OW 1993   5.480   6.975   2.185
  365SOL    HW1 1994   5.471   0.031   2.125
  365SOL    HW2 1995   5.530   6.903   2.138
  366SOL     OW 1996   5.338   1.264   0.044
  366SOL    HW1 1997   5.419   1.211   0.068
  366SOL    HW2 1998   5.257   1.207   0.054
  367SOL     OW 1999   5.910   2.521   1.251
  367SOL    HW1 2000   5.975   2.497   1.322
  367SOL    HW2 2001   5.871   2.438   1.211
  368SOL     OW 2002   0.582   2.991   5.511
  368SOL    HW1 2003   0.667   2.996   5.458
  368SOL    HW2 2004   0.600   3.017   5.606
  369SOL     OW 2005   6.120   5.184   2.812
  369SOL    HW1 2006   6.185   5.248   2.771
  369SOL    HW2 2007   6.168   5.099   2.836
  370SOL     OW 2008   1.645   1.593   5.188
  370SOL    HW1 2009   1.596   1.554   5.110
  370SOL    HW2 2010   1.669   1.688   5.167
  371SOL     OW 2011   1.453   4.506   5.614
  371SOL    HW1 2012   1.458   4.427   5.676
  371SOL    HW2 2013   1.517   4.576   5.643
  372SOL     OW 2014   1.583   7.014   6.314
  372SOL    HW1 2015   1.542   7.001   6.224
  372SOL    HW2 2016   1.683   7.014   6.306
  373SOL     OW 2017   6.156   6.399   4.737
  373SOL    HW1 2018   6.202   6.383   4.649
  373SOL    HW2 2019   6.207   6.467   4.789
  374SOL     OW 2020   2.696   1.712   4.324
  374SOL    HW1 2021   2.697   1.697   4.225
  374SOL    HW2 2022   2.625   1.654   4.366
  375SOL     OW 2023   1.100   4.523   3.636
  375SOL    HW1 2024   1.172   4.500   3.571
  375SOL    HW2 2025   1.105   4.620   3.659
  376SOL     OW 2026   2.152   1.057   5.311
  376SOL    HW1 2027   2.190   1.123   5.375
  376SOL    HW2 2028   2.079   1.101   5.258
  377SOL     OW 2029   1.344   1.846   0.816
  377SOL    HW1 2030   1.406   1.852   0.894
  377SOL    HW2 2031   1.252   1.821   0.847
  378SOL     OW 2032   4.859   2.553   6.595
  378SOL    HW1 2033   4.866   2.537   6.496
  378SOL    HW2 2034   4.774   2.513   6.629
  379SOL     OW 2035   6.113   2.487   1.654
  379SOL    HW1 2036   6.038   2.430   1.689
  379SOL    HW2 2037   6.149   2.543   1.729
  380SOL     OW 2038   3.159   1.248   0.541
  380SOL    HW1 2039   3.202   1.330   0.580
  380SOL    HW2 2040   3.060   1.262   0.538
  381SOL     OW 2041   1.508   4.041   3.212
  381SOL    HW1 2042   1.548   4.125   3.176
  381SOL    HW2 2043   1.485   3.979   3.137
  382SOL     OW 2044   6.035   0.841   0.260
  382SOL    HW1 2045   6.021   0.881   0.170
  382SOL    HW2 2046   6.033   0.913   0.329
  383SOL     OW 2047   4.006   3.994   6.647
  383SOL    HW1 2048   3.910   4.014   6.669
  383SOL    HW2 2049   4.046   3.938   6.720
  384SOL     OW 2050   6.886   5.448   4.299
  384SOL    HW1 2051   6.789   5.471   4.308
  384SOL    HW2 2052   6.933   5.519   4.248
  385SOL     OW 2053   3.077   4.819   5.138
  385SOL    HW1 2054   3.059   4.722   5.122
  385SOL    HW2 2055   3.003   4.859   5.192
  386SOL     OW 2056   2.828   6.811   4.245
  386SOL    HW1 2057   2.887   6.890   4.229
  386SOL    HW2 2058   2.750   6.839   4.300
  387SOL     OW 2059   1.267   6.673   2.260
  387SOL    HW1 2060   1.351   6.721   2.286
  387SOL    HW2 2061   1.283   6.622   2.176
  388SOL     OW 2062   1.174   2.304   5.463
  388SOL    HW1 2063   1.104   2.375   5.470
  388SOL    HW2 2064   1.132   2.218   5.434
  389SOL     OW 2065   3.782   3.767   1.808
  389SOL    HW1 2066   3.781   3.724   1.718
  389SOL    HW2 2067   3.706   3.732   1.863
  390SOL     OW 2068   2.634   1.541   1.977
  390SOL    HW1 2069   2.701   1.498   2.037
  390SOL    HW2 2070   2.639   1.640   1.987
  391SOL     OW 2071   2.232   2.667   6.687
  391SOL    HW1 2072   2.184   2.675   6.775
  391SOL    HW2 2073   2.200   2.738   6.625
  392SOL     OW 2074   1.339   4.552   0.581
  392SOL    HW1 2075   1.419   4.522   0.529
  392SOL    HW2 2076   1.368   4.621   0.648
  393SOL     OW 2077   0.989   4.500   6.320
  393SOL    HW1 2078   0.922   4.447   6.372
  393SOL    HW2 2079   1.037   4.563   6.382
  394SOL     OW 2080   6.678   1.704   0.079
  394SOL    HW1 2081   6.768   1.662   0.084
  394SOL    HW2 2082   6.608   1.635   0.099
  395SOL     OW 2083   4.862   3.776   2.787
  395SOL    HW1 2084   4.875   3.683   2.752
  395SOL    HW2 2085   4.895   3.781   2.881
  396SOL     OW 2086   3.615   3.680   1.379
  396SOL    HW1 2087   3.649   3.745   1.311
  396SOL    HW2 2088   3.521   3.704   1.404
  397SOL     OW 2089   5.870   1.563   5.601
  397SOL    HW1 2090   5.831   1.549   5.510
  397SOL    HW2 2091   5.968   1.578   5.593
  398SOL     OW 2092   0.473   6.654   2.274
  398SOL    HW1 2093   0.450   6.607   2.359
  398SOL    HW2 2094   0.572   6.663   2.266
  399SOL     OW 2095   6.167   6.006   2.632
  399SOL    HW1 2096   6.103   6.083   2.625
  399SOL    HW2 2097   6.216   5.995   2.546
  400SOL     OW 2098   6.544   6.469   5.589
  400SOL    HW1 2099   6.613   6.400   5.612
  400SOL    HW2 2100   6.539   6.479   5.490
  401SOL     OW 2101   5.911   0.598   6.257
  401SOL    HW1 2102   5.864   0.686   6.245
  401SOL    HW2 2103   5.865   0.528   6.202
  402SOL     OW 2104   5.774   6.949   3.304
  402SOL    HW1 2105   5.702   6.880   3.288
  402SOL    HW2 2106   5.775   7.014   3.228
  403SOL     OW 2107   3.741   2.105   4.211
  403SOL    HW1 2108   3.760   2.163   4.133
  403SOL    HW2 2109   3.655   2.133   4.254
  404SOL     OW 2110   1.739   4.927   4.107
  404SOL    HW1 2111   1.689   4.874   4.176
  404SOL    HW2 2112   1.833   4.891   4.100
  405SOL     OW 2113   1.474   3.584   1.942
  405SOL    HW1 2114   1.464   3.661   1.879
  405SOL    HW2 2115   1.403   3.591   2.013
  406SOL     OW 2116   1.008   4.284   4.637
  406SOL    HW1 2117   1.015   4.364   4.696
  406SOL    HW2 2118   1.081   4.286   4.568
  407SOL     OW 2119   1.807   0.497   4.148
  407SOL    HW1 2120   1.737   0.431   4.175
  407SOL    HW2 2121   1.875   0.506   4.220
  408SOL     OW 2122   1.243   2.169   2.923
  408SOL    HW1 2123   1.178   2.180   2.998
  408SOL    HW2 2124   1.318   2.234   2.934
  409SOL     OW 2125   6.868   2.925   1.665
  409SOL    HW1 2126   6.861   3.010   1.614
  409SOL    HW2 2127   6.779   2.904   1.706
  410SOL     OW 2128   2.006   1.652   1.063
  410SOL    HW1 2129   2.026   1.750   1.054
  410SOL    HW2 2130   2.044   1.618   1.149
  411SOL     OW 2131   5.635   6.795   1.729
  411SOL    HW1 2132   5.708   6.777   1.795
  411SOL    HW2 2133   5.586   6.711   1.709
  412SOL     OW 2134   4.321   6.070   4.065
  412SOL    HW1 2135   4.309   6.106   4.157
  412SOL    HW2 2136   4.232   6.041   4.029
  413SOL     OW 2137   5.028   3.721   1.307
  413SOL    HW1 2138   4.968   3.753   1.233
  413SOL    HW2 2139   5.123   3.733   1.280
  414SOL     OW 2140   3.837   5.601   3.507
  414SOL    HW1 2141   3.924   5.579   3.462
  414SOL    HW2 2142   3.785   5.664   3.449
  415SOL     OW 2143   0.841   5.859   6.611
  415SOL    HW1 2144   0.893   5.789   6.562
  415SOL    HW2 2145   0.887   5.878   6.698
  416SOL     OW 2146   4.925   6.688   4.530
  416SOL    HW1 2147   4.949   6.779   4.494
  416SOL    HW2 2148   4.847   6.652   4.479
  417SOL     OW 2149   2.572   5.450   6.389
  417SOL    HW1 2150   2.504   5.517   6.357
  417SOL    HW2 2151   2.548   5.360   6.355
  418SOL     OW 2152   4.347   6.563   6.952
  418SOL    HW1 2153   4.385   6.528   0.014
  418SOL    HW2 2154   4.362   6.497   6.879
  419SOL     OW 2155   2.286   0.000   1.653
  419SOL    HW1 2156   2.375   6.989   1.680
  419SOL    HW2 2157   2.245   0.050   1.730
  420SOL     OW 2158   5.994   1.572   0.097
  420SOL    HW1 2159   6.037   1.528   0.019
  420SOL    HW2 2160   5.993   1.671   0.083
  421SOL     OW 2161   7.000   4.524   5.746
  421SOL    HW1 2162   6.941   4.466   5.689
  421SOL    HW2 2163   0.069   4.486   5.747
  422SOL     OW 2164   5.527   3.547   1.807
  422SOL    HW1 2165   5.514   3.632   1.757
  422SOL    HW2 2166   5.560   3.476   1.745
  423SOL     OW 2167   0.721   2.085   6.265
  423SOL    HW1 2168   0.703   2.000   6.216
  423SOL    HW2 2169   0.796   2.070   6.329
  424SOL     OW 2170   1.936   4.908   0.925
  424SOL    HW1 2171   1.938   4.896   0.825
  424SOL    HW2 2172   2.020   4.953   0.954
  425SOL     OW 2173   5.083   1.433   3.625
  425SOL    HW1 2174   5.079   1.432   3.525
  425SOL    HW2 2175   5.031   1.356   3.661
  426SOL     OW 2176   3.622   1.821   4.642
  426SOL    HW1 2177   3.583   1.826   4.550
  426SOL    HW2 2178   3.551   1.842   4.709
  427SOL     OW 2179   5.551   6.490   3.832
  427SOL    HW1 2180   5.646   6.457   3.834
  427SOL    HW2 2181   5.550   6.586   3.803
  428SOL     OW 2182   4.513   0.472   4.264
  428SOL    HW1 2183   4.532   0.375   4.247
  428SOL    HW2 2184   4.435   0.479   4.327
  429SOL     OW 2185   1.302   4.516   1.239
  429SOL    HW1 2186   1.204   4.499   1.244
  429SOL    HW2 2187   1.349   4.432   1.212
  430SOL     OW 2188   0.681   0.435   4.792
  430SOL    HW1 2189   0.615   0.360   4.786
  430SOL    HW2 2190   0.657   0.495   4.867
  431SOL     OW 2191   2.485   0.387   0.887
  431SOL    HW1 2192   2.460   0.449   0.961
  431SOL    HW2 2193   2.410   0.381   0.822
  432SOL     OW 2194   6.364   1.907   0.926
  432SOL    HW1 2195   6.416   1.968   0.867
  432SOL    HW2 2196   6.276   1.886   0.883
  433SOL     OW 2197   2.513   6.567   4.741
  433SOL    HW1 2198   2.598   6.615   4.719
  433SOL    HW2 2199   2.485   6.591   4.834
  434SOL     OW 2200   3.301   5.489   2.876
  434SOL    HW1 2201   3.287   5.425   2.801
  434SOL    HW2 2202   3.243   5.463   2.953
  435SOL     OW 2203   5.154   2.911   6.697
  435SOL    HW1 2204   5.068   2.875   6.662
  435SOL    HW2 2205   5.209   2.837   6.735
  436SOL     OW 2206   3.252   5.889   1.945
  436SOL    HW1 2207   3.348   5.865   1.961
  436SOL    HW2 2208   3.241   5.918   1.850
  437SOL     OW 2209   0.926   1.353   0.363
  437SOL    HW1 2210   0.959   1.263   0.337
  437SOL    HW2 2211   0.830   1.347   0.392
  438SOL     OW 2212   2.114   4.029   3.658
  438SOL    HW1 2213   2.042   4.052   3.592
  438SOL    HW2 2214   2.135   4.109   3.713
  439SOL     OW 2215   5.717   5.136   2.434
  439SOL    HW1 2216   5.809   5.115   2.402
  439SOL    HW2 2217   5.710   5.117   2.532
  440SOL     OW 2218   2.172   1.467   4.894
  440SOL    HW1 2219   2.269   1.447   4.880
  440SOL    HW2 2220   2.130   1.490   4.806
  441SOL     OW 2221   0.495   3.096   4.128
  441SOL    HW1 2222   0.411   3.142   4.160
  441SOL    HW2 2223   0.509   3.116   4.031
  442SOL     OW 2224   3.982   5.421   5.759
  442SOL    HW1 2225   3.932   5.474   5.828
  442SOL    HW2 2226   3.925   5.410   5.678
  443SOL     OW 2227   6.141   4.554   3.693
  443SOL    HW1 2228   6.150   4.559   3.593
  443SOL    HW2 2229   6.050   4.586   3.720
  444SOL     OW 2230   4.759   0.875   6.380
  444SOL    HW1 2231   4.766   0.779   6.409
  444SOL    HW2 2232   4.846   0.905   6.342
  445SOL     OW 2233   1.056   5.756   2.709
  445SOL    HW1 2234   1.095   5.671   2.673
  445SOL    HW2 2235   0.969   5.775   2.664
  446SOL     OW 2236   3.193   5.367   3.915
  446SOL    HW1 2237   3.248   5.284   3.901
  446SOL    HW2 2238   3.253   5.446   3.927
  447SOL     OW 2239   0.284   2.912   6.267
  447SOL    HW1 2240   0.383   2.907   6.255
  447SOL    HW2 2241   0.253   3.005   6.250
  448SOL     OW 2242   2.119   0.358   3.575
  448SOL    HW1 2243   2.048   0.380   3.641
  448SOL    HW2 2244   2.208   0.352   3.621
  449SOL     OW 2245   3.474   1.228   3.755
  449SOL    HW1 2246   3.477   1.247   3.657
  449SOL    HW2 2247   3.553   1.173   3.782
  450SOL     OW 2248   1.471   5.175   2.788
  450SOL    HW1 2249   1.475   5.142   2.693
  450SOL    HW2 2250   1.438   5.270   2.788
  451SOL     OW 2251   1.560   2.219   3.596
  451SOL    HW1 2252   1.512   2.218   3.684
  451SOL    HW2 2253   1.494   2.233   3.522
  452SOL     OW 2254   5.505   6.662   0.731
  452SOL    HW1 2255   5.438   6.654   0.657
  452SOL    HW2 2256   5.589   6.701   0.695
  453SOL     OW 2257   4.392   0.457   6.213
  453SOL    HW1 2258   4.491   0.460   6.200
  453SOL    HW2 2259   4.370   0.482   6.307
  454SOL     OW 2260   6.356   4.327   6.021
  454SOL    HW1 2261   6.420   4.403   6.024
  454SOL    HW2 2262   6.362   4.282   5.932
  455SOL     OW 2263   5.970   2.264   4.070
  455SOL    HW1 2264   5.909   2.225   4.139
  455SOL    HW2 2265   5.925   2.262   3.981
  456SOL     OW 2266   6.520   6.485   3.942
  456SOL    HW1 2267   6.503   6.502   4.039
  456SOL    HW2 2268   6.439   6.443   3.901
  457SOL     OW 2269   2.069   2.628   3.869
  457SOL    HW1 2270   2.056   2.547   3.812
  457SOL    HW2 2271   2.082   2.600   3.965
  458SOL     OW 2272   4.278   5.830   2.995
  458SOL    HW1 2273   4.360   5.872   3.032
  458SOL    HW2 2274   4.197   5.880   3.027
  459SOL     OW 2275   1.918   6.977   5.828
  459SOL    HW1 2276   1.933   6.978   5.729
  459SOL    HW2 2277   1.893   6.884   5.856
  460SOL     OW 2278   2.677   6.636   4.064
  460SOL    HW1 2279   2.733   6.666   3.986
  460SOL    HW2 2280   2.725   6.564   4.114
  461SOL     OW 2281   6.760   5.906   6.296
  461SOL    HW1 2282   6.780   5.834   6.229
  461SOL    HW2 2283   6.676   5.883   6.346
  462SOL     OW 2284   4.171   3.411   0.300
  462SOL    HW1 2285   4.254   3.414   0.355
  462SOL    HW2 2286   4.095   3.449   0.353
  463SOL     OW 2287   5.695   5.984   3.275
  463SOL    HW1 2288   5.662   5.971   3.368
  463SOL    HW2 2289   5.638   5.931   3.212
  464SOL     OW 2290   2.611   1.541   5.507
  464SOL    HW1 2291   2.552   1.492   5.442
  464SOL    HW2 2292   2.574   1.632   5.523
  465SOL     OW 2293   0.613   2.859   0.451
  465SOL    HW1 2294   0.657   2.835   0.365
  465SOL    HW2 2295   0.521   2.821   0.453
  466SOL     OW 2296   1.254   6.218   3.557
  466SOL    HW1 2297   1.260   6.240   3.460
  466SOL    HW2 2298   1.264   6.119   3.569
  467SOL     OW 2299   1.541   1.044   0.895
  467SOL    HW1 2300   1.586   0.989   0.965
  467SOL    HW2 2301   1.470   0.989   0.849
  468SOL     OW 2302   3.756   6.798   6.022
  468SOL    HW1 2303   3.696   6.834   6.094
  468SOL    HW2 2304   3.841   6.851   6.021
  469SOL     OW 2305   2.807   3.347   6.631
  469SOL    HW1 2306   2.809   3.417   6.702
  469SOL    HW2 2307   2.794   3.390   6.542
  470SOL     OW 2308   4.514   6.295   1.479
  470SOL    HW1 2309   4.537   6.262   1.570
  470SOL    HW2 2310   4.580   6.260   1.413
  471SOL     OW 2311   2.663   2.421   3.651
  471SOL    HW1 2312   2.720   2.422   3.569
  471SOL    HW2 2313   2.641   2.326   3.675
  472SOL     OW 2314   4.285   3.448   0.016
  472SOL    HW1 2315   4.213   3.468   0.082
  472SOL    HW2 2316   4.355   3.392   0.060
  473SOL     OW 2317   1.772   2.219   2.512
  473SOL    HW1 2318   1.801   2.151   2.443
  473SOL    HW2 2319   1.676   2.204   2.535
  474SOL     OW 2320   5.652   5.610   4.352
  474SOL    HW1 2321   5.690   5.548   4.283
  474SOL    HW2 2322   5.582   5.562   4.405
  475SOL     OW 2323   6.044   1.328   6.424
  475SOL    HW1 2324   6.006   1.416   6.394
  475SOL    HW2 2325   6.048   1.326   6.523
  476SOL     OW 2326   0.488   3.309   2.707
  476SOL    HW1 2327   0.493   3.328   2.805
  476SOL    HW2 2328   0.559   3.243   2.682
  477SOL     OW 2329   2.772   6.186   2.984
  477SOL    HW1 2330   2.870   6.190   2.962
  477SOL    HW2 2331   2.726   6.265   2.945
  478SOL     OW 2332   3.544   6.536   2.650
  478SOL    HW1 2333   3.553   6.476   2.730
  478SOL    HW2 2334   3.624   6.524   2.591
  479SOL     OW 2335   4.160   2.368   5.992
  479SOL    HW1 2336   4.070   2.351   5.951
  479SOL    HW2 2337   4.172   2.309   6.072
  480SOL     OW 2338   2.982   0.215   0.244
  480SOL    HW1 2339   3.008   0.305   0.280
  480SOL    HW2 2340   2.943   0.160   0.317
  481SOL     OW 2341   2.048   6.694   1.324
  481SOL    HW1 2342   2.111   6.650   1.260
  481SOL    HW2 2343   2.085   6.782   1.353
  482SOL     OW 2344   4.025   4.749   2.101
  482SOL    HW1 2345   3.932   4.772   2.128
  482SOL    HW2 2346   4.070   4.702   2.177
  483SOL     OW 2347   6.216   1.892   2.334
  483SOL    HW1 2348   6.297   1.841   2.360
  483SOL    HW2 2349   6.144   1.877   2.403
  484SOL     OW 2350   1.628   3.341   5.156
  484SOL    HW1 2351   1.567   3.417   5.179
  484SOL    HW2 2352   1.723   3.370   5.164
  485SOL     OW 2353   3.909   5.328   2.960
  485SOL    HW1 2354   3.864   5.264   3.023
  485SOL    HW2 2355   3.938   5.279   2.878
  486SOL     OW 2356   6.622   1.919   0.401
  486SOL    HW1 2357   6.657   1.966   0.482
  486SOL    HW2 2358   6.697   1.868   0.358
  487SOL     OW 2359   0.963   0.358   3.003
  487SOL    HW1 2360   0.991   0.354   3.099
  487SOL    HW2 2361   0.868   0.328   2.995
  488SOL     OW 2362   0.824   1.189   1.763
  488SOL    HW1 2363   0.852   1.284   1.754
  488SOL    HW2 2364   0.767   1.163   1.685
  489SOL     OW 2365   4.334   5.830   5.874
  489SOL    HW1 2366   4.377   5.794   5.792
  489SOL    HW2 2367   4.377   5.789   5.955
  490SOL     OW 2368   0.636   5.981   3.092
  490SOL    HW1 2369   0.664   6.071   3.126
  490SOL    HW2 2370   0.538   5.981   3.075
  491SOL     OW 2371   1.142   3.954   2.344
  491SOL    HW1 2372   1.203   3.990   2.273
  491SOL    HW2 2373   1.174   3.863   2.372
  492SOL     OW 2374   1.337   0.510   5.250
  492SOL    HW1 2375   1.315   0.416   5.276
  492SOL    HW2 2376   1.371   0.512   5.156
  493SOL     OW 2377   4.642   6.356   5.473
  493SOL    HW1 2378   4.677   6.433   5.527
  493SOL    HW2 2379   4.675   6.363   5.379
  494SOL     OW 2380   0.670   6.688   6.754
  494SOL    HW1 2381   0.584   6.643   6.732
  494SOL    HW2 2382   0.700   6.660   6.845
  495SOL     OW 2383   4.805   5.941   3.533
  495SOL    HW1 2384   4.712   5.911   3.555
  495SOL    HW2 2385   4.869   5.903   3.600
  496SOL     OW 2386   4.965   2.667   1.773
  496SOL    HW1 2387   4.899   2.627   1.836
  496SOL    HW2 2388   5.021   2.595   1.733
  497SOL     OW 2389   2.666   1.761   4.910
  497SOL    HW1 2390   2.765   1.766   4.901
  497SOL    HW2 2391   2.624   1.774   4.820
  498SOL     OW 2392   0.774   4.550   1.335
  498SOL    HW1 2393   0.712   4.563   1.257
  498SOL    HW2 2394   0.819   4.636   1.356
  499SOL     OW 2395   1.455   5.727   4.210
  499SOL    HW1 2396   1.481   5.815   4.249
  499SOL    HW2 2397   1.355   5.721   4.203
  500SOL     OW 2398   6.964   2.007   6.023
  500SOL    HW1 2399   6.979   2.029   6.119
  500SOL    HW2 2400   6.939   2.091   5.974
  501SOL     OW 2401   3.031   0.287   0.600
  501SOL    HW1 2402   3.123   0.322   0.581
  501SOL    HW2 2403   2.965   0.334   0.543
  502SOL     OW 2404   1.061   3.711   6.237
  502SOL    HW1 2405   1.136   3.754   6.288
  502SOL    HW2 2406   0.977   3.762   6.252
  503SOL     OW 2407   7.013   4.952   6.884
  503SOL    HW1 2408   0.068   4.893   6.869
  503SOL    HW2 2409   6.942   4.902   6.934
  504SOL     OW 2410   0.924   4.885   2.457
  504SOL    HW1 2411   0.888   4.821   2.525
  504SOL    HW2 2412   1.022   4.895   2.470
  505SOL     OW 2413   3.013   5.750   4.666
  505SOL    HW1 2414   3.088   5.747   4.732
  505SOL    HW2 2415   3.034   5.818   4.596
  506SOL     OW 2416   3.185   4.919   3.991
  506SOL    HW1 2417   3.236   4.943   4.074
  506SOL    HW2 2418   3.087   4.930   4.008
  507SOL     OW 2419   3.454   6.867   3.228
  507SOL    HW1 2420   3.382   6.905   3.170
  507SOL    HW2 2421   3.525   6.936   3.244
  508SOL     OW 2422   6.678   3.841   2.918
  508SOL    HW1 2423   6.618   3.818   2.841
  508SOL    HW2 2424   6.769   3.801   2.903
  509SOL     OW 2425   2.633   1.435   1.495
  509SOL    HW1 2426   2.548   1.451   1.546
  509SOL    HW2 2427   2.699   1.507   1.517
  510SOL     OW 2428   6.073   3.809   6.590
  510SOL    HW1 2429   6.170   3.789   6.580
  510SOL    HW2 2430   6.059   3.862   6.673
  511SOL     OW 2431   1.010   2.495   6.249
  511SOL    HW1 2432   1.096   2.547   6.252
  511SOL    HW2 2433   0.976   2.494   6.155
  512SOL     OW 2434   6.767   3.041   6.150
  512SOL    HW1 2435   6.781   2.943   6.164
  512SOL    HW2 2436   6.726   3.081   6.233
  513SOL     OW 2437   5.603   6.772   3.783
  513SOL    HW1 2438   5.696   6.797   3.754
  513SOL    HW2 2439   5.537   6.830   3.735
  514SOL     OW 2440   6.169   0.948   4.305
  514SOL    HW1 2441   6.091   0.904   4.261
  514SOL    HW2 2442   6.147   1.043   4.324
  515SOL     OW 2443   1.079   6.275   0.391
  515SOL    HW1 2444   1.052   6.281   0.295
  515SOL    HW2 2445   1.100   6.180   0.414
  516SOL     OW 2446   2.822   4.748   2.237
  516SOL    HW1 2447   2.757   4.820   2.212
  516SOL    HW2 2448   2.831   4.683   2.161
  517SOL     OW 2449   4.015   5.244   1.555
  517SOL    HW1 2450   3.960   5.326   1.570
  517SOL    HW2 2451   4.040   5.205   1.644
  518SOL     OW 2452   2.567   1.989   3.443
  518SOL    HW1 2453   2.510   2.052   3.495
  518SOL    HW2 2454   2.535   1.895   3.455
  519SOL     OW 2455   0.404   6.208   4.216
  519SOL    HW1 2456   0.478   6.209   4.283
  519SOL    HW2 2457   0.400   6.297   4.169
  520SOL     OW 2458   6.058   3.506   6.892
  520SOL    HW1 2459   6.012   3.469   6.811
  520SOL    HW2 2460   5.991   3.537   6.958
  521SOL     OW 2461   6.339   5.725   5.154
  521SOL    HW1 2462   6.322   5.626   5.159
  521SOL    HW2 2463   6.288   5.771   5.227
  522SOL     OW 2464   3.353   3.285   4.773
  522SOL    HW1 2465   3.304   3.351   4.717
  522SOL    HW2 2466   3.309   3.195   4.764
  523SOL     OW 2467   1.190   5.561   1.284
  523SOL    HW1 2468   1.280   5.572   1.327
  523SOL    HW2 2469   1.119   5.559   1.354
  524SOL     OW 2470   0.611   1.799   2.610
  524SOL    HW1 2471   0.548   1.872   2.639
  524SOL    HW2 2472   0.599   1.720   2.670
  525SOL     OW 2473   1.856   4.236   6.008
  525SOL    HW1 2474   1.861   4.136   5.997
  525SOL    HW2 2475   1.858   4.280   5.919
  526SOL     OW 2476   4.016   5.491   3.832
  526SOL    HW1 2477   3.918   5.472   3.844
  526SOL    HW2 2478   4.030   5.543   3.748
  527SOL     OW 2479   6.237   2.963   0.525
  527SOL    HW1 2480   6.317   2.992   0.472
  527SOL    HW2 2481   6.159   2.952   0.463
  528SOL     OW 2482   1.240   2.551   3.864
  528SOL    HW1 2483   1.169   2.546   3.794
  528SOL    HW2 2484   1.288   2.463   3.870
  529SOL     OW 2485   1.569   6.516   4.664
  529SOL    HW1 2486   1.518   6.473   4.589
  529SOL    HW2 2487   1.661   6.476   4.668
  530SOL     OW 2488   3.466   3.278   4.079
  530SOL    HW1 2489   3.447   3.183   4.056
  530SOL    HW2 2490   3.396   3.337   4.037
  531SOL     OW 2491   0.467   1.919   3.026
  531SOL    HW1 2492   0.413   1.917   3.110
  531SOL    HW2 2493   0.432   1.990   2.966
  532SOL     OW 2494   0.769   2.981   6.904
  532SOL    HW1 2495   0.867   2.981   6.886
  532SOL    HW2 2496   0.745   2.904   6.963
  533SOL     OW 2497   3.942   6.809   4.421
  533SOL    HW1 2498   3.917   6.723   4.376
  533SOL    HW2 2499   3.990   6.789   4.507
  534SOL     OW 2500   5.342   6.122   1.989
  534SOL    HW1 2501   5.398   6.051   1.946
  534SOL    HW2 2502   5.267   6.080   2.039
  535SOL     OW 2503   6.791   3.458   4.316
  535SOL    HW1 2504   6.848   3.488   4.239
  535SOL    HW2 2505   6.715   3.404   4.282
  536SOL     OW 2506   6.091   4.862   2.251
  536SOL    HW1 2507   6.174   4.870   2.305
  536SOL    HW2 2508   6.059   4.768   2.252
  537SOL     OW 2509   2.740   6.558   4.435
  537SOL    HW1 2510   2.756   6.596   4.526
  537SOL    HW2 2511   2.766   6.626   4.366
  538SOL     OW 2512   1.516   5.450   3.900
  538SOL    HW1 2513   1.527   5.371   3.838
  538SOL    HW2 2514   1.442   5.432   3.964
  539SOL     OW 2515   2.049   5.717   1.055
  539SOL    HW1 2516   2.025   5.809   1.023
  539SOL    HW2 2517   2.079   5.662   0.978
  540SOL     OW 2518   1.683   1.455   3.175
  540SOL    HW1 2519   1.664   1.551   3.154
  540SOL    HW2 2520   1.752   1.420   3.111
  541SOL     OW 2521   4.801   5.429   3.377
  541SOL    HW1 2522   4.876   5.424   3.311
  541SOL    HW2 2523   4.830   5.391   3.464
  542SOL     OW 2524   5.872   6.234   6.576
  542SOL    HW1 2525   5.909   6.256   6.486
  542SOL    HW2 2526   5.772   6.246   6.574
  543SOL     OW 2527   0.752   3.313   4.857
  543SOL    HW1 2528   0.852   3.321   4.854
  543SOL    HW2 2529   0.722   3.316   4.952
  544SOL     OW 2530   1.991   4.829   6.952
  544SOL    HW1 2531   1.956   4.920   6.973
  544SOL    HW2 2532   2.071   4.811   7.008
  545SOL     OW 2533   3.348   1.472   1.600
  545SOL    HW1 2534   3.446   1.456   1.590
  545SOL    HW2 2535   3.325   1.561   1.562
  546SOL     OW 2536   1.839   3.210   0.483
  546SOL    HW1 2537   1.856   3.307   0.500
  546SOL    HW2 2538   1.749   3.185   0.519
  547SOL     OW 2539   3.201   0.855   0.394
  547SOL    HW1 2540   3.261   0.933   0.377
  547SOL    HW2 2541   3.112   0.887   0.426
  548SOL     OW 2542   3.695   3.461   2.106
  548SOL    HW1 2543   3.718   3.500   2.195
  548SOL    HW2 2544   3.637   3.380   2.120
  549SOL     OW 2545   5.470   3.008   1.054
  549SOL    HW1 2546   5.477   2.932   0.989
  549SOL    HW2 2547   5.374   3.032   1.068
  550SOL     OW 2548   1.291   5.437   4.038
  550SOL    HW1 2549   1.239   5.522   4.041
  550SOL    HW2 2550   1.261   5.384   3.958
  551SOL     OW 2551   1.334   0.872   2.512
  551SOL    HW1 2552   1.340   0.775   2.537
  551SOL    HW2 2553   1.303   0.880   2.417
  552SOL     OW 2554   5.873   4.457   0.086
  552SOL    HW1 2555   5.796   4.408   0.127
  552SOL    HW2 2556   5.909   4.524   0.152
  553SOL     OW 2557   2.542   6.676   2.664
  553SOL    HW1 2558   2.554   6.622   2.747
  553SOL    HW2 2559   2.575   6.770   2.681
  554SOL     OW 2560   5.642   0.014   6.943
  554SOL    HW1 2561   5.716   0.082   6.946
  554SOL    HW2 2562   5.680   6.946   6.948
  555SOL     OW 2563   2.014   4.500   4.150
  555SOL    HW1 2564   1.972   4.412   4.127
  555SOL    HW2 2565   1.993   4.523   4.245
  556SOL     OW 2566   3.851   2.129   3.622
  556SOL    HW1 2567   3.794   2.075   3.560
  556SOL    HW2 2568   3.818   2.118   3.716
  557SOL     OW 2569   0.184   5.339   0.941
  557SOL    HW1 2570   0.179   5.384   1.030
  557SOL    HW2 2571   0.244   5.392   0.880
  558SOL     OW 2572   2.951   3.318   4.449
  558SOL    HW1 2573   2.904   3.303   4.536
  558SOL    HW2 2574   3.044   3.351   4.466
  559SOL     OW 2575   6.719   6.147   0.546
  559SOL    HW1 2576   6.738   6.092   0.465
  559SOL    HW2 2577   6.647   6.213   0.525
  560SOL     OW 2578   4.987   4.653   6.538
  560SOL    HW1 2579   5.076   4.698   6.534
  560SOL    HW2 2580   4.925   4.695   6.472
  561SOL     OW 2581   0.916   1.619   1.697
  561SOL    HW1 2582   0.829   1.581   1.727
  561SOL    HW2 2583   0.988   1.590   1.760
  562SOL     OW 2584   4.935   0.981   5.897
  562SOL    HW1 2585   4.935   1.064   5.842
  562SOL    HW2 2586   4.943   0.901   5.837
  563SOL     OW 2587   2.640   0.572   3.612
  563SOL    HW1 2588   2.548   0.569   3.572
  563SOL    HW2 2589   2.648   0.500   3.681
  564SOL     OW 2590   1.716   1.682   0.215
  564SOL    HW1 2591   1.738   1.599   0.164
  564SOL    HW2 2592   1.738   1.762   0.159
  565SOL     OW 2593   3.148   3.285   5.210
  565SOL    HW1 2594   3.191   3.223   5.144
  565SOL    HW2 2595   3.067   3.241   5.250
  566SOL     OW 2596   7.009   4.949   3.453
  566SOL    HW1 2597   0.059   4.882   3.461
  566SOL    HW2 2598   0.002   5.008   3.374
  567SOL     OW 2599   2.862   2.476   1.381
  567SOL    HW1 2600   2.785   2.540   1.378
  567SOL    HW2 2601   2.946   2.525   1.402
  568SOL     OW 2602   4.958   1.432   0.137
  568SOL    HW1 2603   4.940   1.529   0.121
  568SOL    HW2 2604   4.901   1.377   0.076
  569SOL     OW 2605   1.664   3.169   6.193
  569SOL    HW1 2606   1.710   3.222   6.264
  569SOL    HW2 2607   1.612   3.230   6.133
  570SOL     OW 2608   3.652   6.648   6.862
  570SOL    HW1 2609   3.636   6.587   6.784
  570SOL    HW2 2610   3.580   6.634   6.930
  571SOL     OW 2611   2.928   0.045   1.981
  571SOL    HW1 2612   2.864   0.120   1.969
  571SOL    HW2 2613   2.958   0.012   1.891
  572SOL     OW 2614   2.337   4.968   5.701
  572SOL    HW1 2615   2.405   4.941   5.770
  572SOL    HW2 2616   2.349   5.064   5.679
  573SOL     OW 2617   5.788   1.850   5.581
  573SOL    HW1 2618   5.791   1.752   5.561
  573SOL    HW2 2619   5.811   1.901   5.498
  574SOL     OW 2620   3.271   1.718   4.067
  574SOL    HW1 2621   3.330   1.784   4.114
  574SOL    HW2 2622   3.175   1.743   4.080
  575SOL     OW 2623   5.151   3.938   6.821
  575SOL    HW1 2624   5.123   3.969   6.912
  575SOL    HW2 2625   5.250   3.941   6.813
  576SOL     OW 2626   0.663   2.288   2.906
  576SOL    HW1 2627   0.757   2.307   2.877
  576SOL    HW2 2628   0.655   2.303   3.004
  577SOL     OW 2629   1.521   1.073   2.555
  577SOL    HW1 2630   1.472   1.151   2.516
  577SOL    HW2 2631   1.470   0.989   2.534
  578SOL     OW 2632   5.906   5.894   3.538
  578SOL    HW1 2633   5.856   5.909   3.452
  578SOL    HW2 2634   5.936   5.982   3.574
  579SOL     OW 2635   2.146   2.995   2.728
  579SOL    HW1 2636   2.085   2.916   2.731
  579SOL    HW2 2637   2.187   3.009   2.818
  580SOL     OW 2638   6.168   5.197   0.551
  580SOL    HW1 2639   6.219   5.275   0.588
  580SOL    HW2 2640   6.151   5.131   0.625
  581SOL     OW 2641   2.623   3.235   1.257
  581SOL    HW1 2642   2.663   3.295   1.326
  581SOL    HW2 2643   2.682   3.235   1.175
  582SOL     OW 2644   4.364   6.874   1.866
  582SOL    HW1 2645   4.415   6.953   1.900
  582SOL    HW2 2646   4.342   6.888   1.769
  583SOL     OW 2647   2.885   5.113   5.732
  583SOL    HW1 2648   2.799   5.154   5.701
  583SOL    HW2 2649   2.907   5.034   5.674
  584SOL     OW 2650   2.927   4.122   6.440
  584SOL    HW1 2651   2.898   4.085   6.351
  584SOL    HW2 2652   2.855   4.105   6.507
  585SOL     OW 2653   5.710   2.950   6.334
  585SOL    HW1 2654   5.653   3.016   6.383
  585SOL    HW2 2655   5.652   2.878   6.295
  586SOL     OW 2656   3.849   1.734   5.662
  586SOL    HW1 2657   3.942   1.708   5.690
  586SOL    HW2 2658   3.786   1.659   5.684
  587SOL     OW 2659   4.401   1.856   5.732
  587SOL    HW1 2660   4.313   1.903   5.744
  587SOL    HW2 2661   4.413   1.832   5.635
  588SOL     OW 2662   1.922   4.401   1.662
  588SOL    HW1 2663   1.848   4.335   1.669
  588SOL    HW2 2664   1.935   4.447   1.750
  589SOL     OW 2665   3.171   4.567   1.336
  589SOL    HW1 2666   3.125   4.656   1.345
  589SOL    HW2 2667   3.264   4.574   1.372
  590SOL     OW 2668   4.853   3.313   3.327
  590SOL    HW1 2669   4.776   3.290   3.267
  590SOL    HW2 2670   4.867   3.239   3.393
  591SOL     OW 2671   3.863   5.839   3.913
  591SOL    HW1 2672   3.812   5.847   3.999
  591SOL    HW2 2673   3.811   5.784   3.848
  592SOL     OW 2674   3.307   0.943   1.211
  592SOL    HW1 2675   3.341   1.022   1.161
  592SOL    HW2 2676   3.325   0.860   1.159
  593SOL     OW 2677   4.781   2.540   3.354
  593SOL    HW1 2678   4.850   2.610   3.339
  593SOL    HW2 2679   4.705   2.554   3.291
  594SOL     OW 2680   6.241   2.125   6.804
  594SOL    HW1 2681   6.240   2.157   6.899
  594SOL    HW2 2682   6.268   2.028   6.802
  595SOL     OW 2683   6.009   6.861   3.107
  595SOL    HW1 2684   5.959   6.937   3.147
  595SOL    HW2 2685   6.107   6.872   3.124
  596SOL     OW 2686   1.446   4.842   3.352
  596SOL    HW1 2687   1.539   4.826   3.319
  596SOL    HW2 2688   1.385   4.857   3.274
  597SOL     OW 2689   3.760   0.363   0.172
  597SOL    HW1 2690   3.725   0.433   0.110
  597SOL    HW2 2691   3.818   0.300   0.122
  598SOL     OW 2692   4.218   4.996   5.662
  598SOL    HW1 2693   4.267   4.955   5.586
  598SOL    HW2 2694   4.134   5.039   5.629
  599SOL     OW 2695   2.369   6.333   1.970
  599SOL    HW1 2696   2.410   6.374   1.889
  599SOL    HW2 2697   2.380   6.394   2.048
  600SOL     OW 2698   0.658   1.454   0.383
  600SOL    HW1 2699   0.674   1.525   0.314
  600SOL    HW2 2700   0.580   1.398   0.357
  601SOL     OW 2701   2.747   0.226   4.130
  601SOL    HW1 2702   2.737   0.243   4.032
  601SOL    HW2 2703   2.669   0.265   4.178
  602SOL     OW 2704   1.870   2.840   6.519
  602SOL    HW1 2705   1.839   2.874   6.608
  602SOL    HW2 2706   1.969   2.852   6.512
  603SOL     OW 2707   2.894   2.141   4.599
  603SOL    HW1 2708   2.876   2.162   4.695
  603SOL    HW2 2709   2.837   2.065   4.570
  604SOL     OW 2710   1.018   3.245   1.516
  604SOL    HW1 2711   1.061   3.300   1.587
  604SOL    HW2 2712   0.960   3.176   1.559
  605SOL     OW 2713   6.855   6.653   2.262
  605SOL    HW1 2714   6.817   6.582   2.204
  605SOL    HW2 2715   6.848   6.742   2.216
  606SOL     OW 2716   4.682   0.221   6.877
  606SOL    HW1 2717   4.689   0.146   6.811
  606SOL    HW2 2718   4.749   0.292   6.854
  607SOL     OW 2719   6.713   6.969   6.132
  607SOL    HW1 2720   6.660   7.013   6.205
  607SOL    HW2 2721   6.687   7.009   6.044
  608SOL     OW 2722   3.021   6.488   6.292
  608SOL    HW1 2723   3.054   6.472   6.199
  608SOL    HW2 2724   3.066   6.425   6.355
  609SOL     OW 2725   4.108   3.307   3.117
  609SOL    HW1 2726   4.069   3.371   3.051
  609SOL    HW2 2727   4.151   3.358   3.191
  610SOL     OW 2728   4.931   3.197   2.334
  610SOL    HW1 2729   4.896   3.288   2.353
  610SOL    HW2 2730   4.905   3.169   2.242
  611SOL     OW 2731   3.910   0.161   0.543
  611SOL    HW1 2732   3.830   0.221   0.538
  611SOL    HW2 2733   3.993   0.217   0.550
  612SOL     OW 2734   4.115   6.827   5.710
  612SOL    HW1 2735   4.129   6.729   5.695
  612SOL    HW2 2736   4.200   6.868   5.743
  613SOL     OW 2737   4.100   0.141   5.677
  613SOL    HW1 2738   4.105   0.041   5.673
  613SOL    HW2 2739   4.034   0.168   5.746
  614SOL     OW 2740   4.619   4.485   1.397
  614SOL    HW1 2741   4.594   4.572   1.440
  614SOL    HW2 2742   4.547   4.458   1.333
  615SOL     OW 2743   6.778   2.784   1.986
  615SOL    HW1 2744   6.755   2.881   1.978
  615SOL    HW2 2745   6.801   2.764   2.081
  616SOL     OW 2746   0.757   1.948   4.000
  616SOL    HW1 2747   0.688   1.984   4.063
  616SOL    HW2 2748   0.847   1.953   4.043
  617SOL     OW 2749   6.321   4.155   6.259
  617SOL    HW1 2750   6.358   4.230   6.204
  617SOL    HW2 2751   6.258   4.101   6.203
  618SOL     OW 2752   6.599   2.553   6.619
  618SOL    HW1 2753   6.583   2.567   6.522
  618SOL    HW2 2754   6.546   2.620   6.672
  619SOL     OW 2755   4.279   1.095   6.781
  619SOL    HW1 2756   4.337   1.017   6.806
  619SOL    HW2 2757   4.323   1.147   6.708
  620SOL     OW 2758   4.515   3.414   1.594
  620SOL    HW1 2759   4.460   3.426   1.676
  620SOL    HW2 2760   4.593   3.478   1.596
  621SOL     OW 2761   2.489   6.206   6.428
  621SOL    HW1 2762   2.583   6.240   6.438
  621SOL    HW2 2763   2.437   6.227   6.511
  622SOL     OW 2764   1.416   0.873   4.833
  622SOL    HW1 2765   1.392   0.969   4.849
  622SOL    HW2 2766   1.333   0.818   4.825
  623SOL     OW 2767   0.821   5.723   5.880
  623SOL    HW1 2768   0.909   5.686   5.851
  623SOL    HW2 2769   0.785   5.783   5.809
  624SOL     OW 2770   7.003   1.955   1.916
  624SOL    HW1 2771   6.945   2.031   1.887
  624SOL    HW2 2772   0.016   1.908   1.836
  625SOL     OW 2773   0.993   1.730   2.064
  625SOL    HW1 2774   1.071   1.750   2.123
  625SOL    HW2 2775   1.023   1.676   1.985
  626SOL     OW 2776   1.044   6.025   3.102
  626SOL    HW1 2777   1.140   6.020   3.127
  626SOL    HW2 2778   1.021   6.119   3.076
  627SOL     OW 2779   6.221   6.465   0.922
  627SOL    HW1 2780   6.276   6.413   0.988
  627SOL    HW2 2781   6.178   6.402   0.858
  628SOL     OW 2782   5.761   5.897   5.862
  628SOL    HW1 2783   5.805   5.858   5.942
  628SOL    HW2 2784   5.769   5.834   5.785
  629SOL     OW 2785   0.332   1.095   6.659
  629SOL    HW1 2786   0.315   1.019   6.597
  629SOL    HW2 2787   0.249   1.114   6.712
  630SOL     OW 2788   0.396   1.512   1.079
  630SOL    HW1 2789   0.315   1.571   1.076
  630SOL    HW2 2790   0.417   1.479   0.987
  631SOL     OW 2791   4.154   1.207   5.172
  631SOL    HW1 2792   4.169   1.139   5.244
  631SOL    HW2 2793   4.148   1.298   5.213
  632SOL     OW 2794   4.203   1.640   1.493
  632SOL    HW1 2795   4.243   1.655   1.584
  632SOL    HW2 2796   4.134   1.567   1.499
  633SOL     OW 2797   3.640   3.462   6.707
  633SOL    HW1 2798   3.679   3.375   6.738
  633SOL    HW2 2799   3.639   3.464   6.607
  634SOL     OW 2800   3.995   3.283   2.501
  634SOL    HW1 2801   4.007   3.273   2.402
  634SOL    HW2 2802   3.970   3.194   2.540
  635SOL     OW 2803   4.279   5.132   0.763
  635SOL    HW1 2804   4.276   5.224   0.803
  635SOL    HW2 2805   4.267   5.064   0.836
  636SOL     OW 2806   2.870   6.408   0.366
  636SOL    HW1 2807   2.831   6.469   0.296
  636SOL    HW2 2808   2.817   6.416   0.450
  637SOL     OW 2809   6.926   3.176   2.834
  637SOL    HW1 2810   6.840   3.226   2.839
  637SOL    HW2 2811   6.999   3.232   2.873
  638SOL     OW 2812   5.734   2.360   3.496
  638SOL    HW1 2813   5.749   2.440   3.555
  638SOL    HW2 2814   5.642   2.324   3.512
  639SOL     OW 2815   4.887   3.505   3.130
  639SOL    HW1 2816   4.897   3.415   3.171
  639SOL    HW2 2817   4.791   3.520   3.105
  640SOL     OW 2818   0.322   5.313   3.971
  640SOL    HW1 2819   0.371   5.319   4.058
  640SOL    HW2 2820   0.224   5.308   3.988
  641SOL     OW 2821   0.210   4.959   5.155
  641SOL    HW1 2822   0.153   4.877   5.143
  641SOL    HW2 2823   0.296   4.947   5.107
  642SOL     OW 2824   6.797   3.116   3.723
  642SOL    HW1 2825   6.753   3.040   3.771
  642SOL    HW2 2826   6.896   3.108   3.730
  643SOL     OW 2827   5.559   5.827   6.185
  643SOL    HW1 2828   5.504   5.894   6.136
  643SOL    HW2 2829   5.630   5.874   6.237
  644SOL     OW 2830   1.788   6.653   4.521
  644SOL    HW1 2831   1.787   6.571   4.579
  644SOL    HW2 2832   1.761   6.628   4.428
  645SOL     OW 2833   4.588   0.277   4.759
  645SOL    HW1 2834   4.634   0.199   4.715
  645SOL    HW2 2835   4.657   0.340   4.795
  646SOL     OW 2836   3.526   0.848   4.318
  646SOL    HW1 2837   3.622   0.824   4.306
  646SOL    HW2 2838   3.506   0.933   4.268
  647SOL     OW 2839   5.768   1.943   5.309
  647SOL    HW1 2840   5.730   1.863   5.262
  647SOL    HW2 2841   5.764   2.022   5.248
  648SOL     OW 2842   0.864   3.307   3.252
  648SOL    HW1 2843   0.766   3.286   3.251
  648SOL    HW2 2844   0.886   3.356   3.336
  649SOL     OW 2845   2.358   4.199   0.736
  649SOL    HW1 2846   2.286   4.222   0.671
  649SOL    HW2 2847   2.447   4.215   0.694
  650SOL     OW 2848   5.729   4.181   0.093
  650SOL    HW1 2849   5.743   4.227   0.181
  650SOL    HW2 2850   5.810   4.126   0.072
  651SOL     OW 2851   0.670   6.495   6.142
  651SOL    HW1 2852   0.731   6.418   6.124
  651SOL    HW2 2853   0.656   6.504   6.241
  652SOL     OW 2854   5.000   0.296   3.900
  652SOL    HW1 2855   4.912   0.259   3.873
  652SOL    HW2 2856   4.994   0.396   3.908
  653SOL     OW 2857   0.579   5.753   6.638
  653SOL    HW1 2858   0.497   5.806   6.617
  653SOL    HW2 2859   0.660   5.804   6.608
  654SOL     OW 2860   0.470   5.256   6.745
  654SOL    HW1 2861   0.402   5.208   6.800
  654SOL    HW2 2862   0.562   5.229   6.774
  655SOL     OW 2863   0.145   5.586   1.820
  655SOL    HW1 2864   0.122   5.502   1.771
  655SOL    HW2 2865   0.083   5.597   1.898
  656SOL     OW 2866   1.621   6.338   1.207
  656SOL    HW1 2867   1.626   6.328   1.306
  656SOL    HW2 2868   1.670   6.421   1.179
  657SOL     OW 2869   2.437   3.694   1.713
  657SOL    HW1 2870   2.443   3.689   1.614
  657SOL    HW2 2871   2.435   3.601   1.751
  658SOL     OW 2872   2.449   3.684   6.714
  658SOL    HW1 2873   2.476   3.724   6.626
  658SOL    HW2 2874   2.438   3.758   6.781
  659SOL     OW 2875   1.424   5.794   5.238
  659SOL    HW1 2876   1.357   5.863   5.212
  659SOL    HW2 2877   1.414   5.714   5.177
  660SOL     OW 2878   5.434   3.620   2.323
  660SOL    HW1 2879   5.389   3.531   2.335
  660SOL    HW2 2880   5.486   3.620   2.238
  661SOL     OW 2881   4.806   4.402   2.919
  661SOL    HW1 2882   4.738   4.411   2.847
  661SOL    HW2 2883   4.772   4.444   3.003
  662SOL     OW 2884   4.313   0.489   4.464
  662SOL    HW1 2885   4.348   0.528   4.550
  662SOL    HW2 2886   4.322   0.390   4.467
  663SOL     OW 2887   1.414   3.825   6.725
  663SOL    HW1 2888   1.317   3.799   6.729
  663SOL    HW2 2889   1.470   3.743   6.718
  664SOL     OW 2890   6.763   5.197   6.571
  664SOL    HW1 2891   6.849   5.151   6.594
  664SOL    HW2 2892   6.776   5.296   6.577
  665SOL     OW 2893   4.704   4.842   1.296
  665SOL    HW1 2894   4.694   4.781   1.375
  665SOL    HW2 2895   4.615   4.881   1.273
  666SOL     OW 2896   5.011   1.679   2.879
  666SOL    HW1 2897   4.915   1.657   2.898
  666SOL    HW2 2898   5.034   1.648   2.787
  667SOL     OW 2899   6.532   3.567   3.597
  667SOL    HW1 2900   6.548   3.616   3.512
  667SOL    HW2 2901   6.570   3.475   3.591
  668SOL     OW 2902   4.500   5.688   6.744
  668SOL    HW1 2903   4.562   5.613   6.767
  668SOL    HW2 2904   4.507   5.708   6.646
  669SOL     OW 2905   3.828   6.173   3.524
  669SOL    HW1 2906   3.899   6.146   3.459
  669SOL    HW2 2907   3.861   6.250   3.579
  670SOL     OW 2908   2.360   3.146   1.244
  670SOL    HW1 2909   2.453   3.182   1.250
  670SOL    HW2 2910   2.335   3.102   1.330
  671SOL     OW 2911   2.510   5.778   0.256
  671SOL    HW1 2912   2.429   5.810   0.207
  671SOL    HW2 2913   2.581   5.755   0.190
  672SOL     OW 2914   1.016   4.931   1.996
  672SOL    HW1 2915   1.075   4.860   1.956
  672SOL    HW2 2916   1.009   4.917   2.094
  673SOL     OW 2917   0.053   0.704   1.668
  673SOL    HW1 2918   0.095   0.708   1.577
  673SOL    HW2 2919   7.010   0.629   1.671
  674SOL     OW 2920   0.062   2.933   4.539
  674SOL    HW1 2921   0.043   2.994   4.616
  674SOL    HW2 2922   7.009   2.868   4.529
  675SOL     OW 2923   0.820   0.532   4.396
  675SOL    HW1 2924   0.749   0.478   4.441
  675SOL    HW2 2925   0.782   0.619   4.367
  676SOL     OW 2926   4.070   5.848   2.736
  676SOL    HW1 2927   4.079   5.800   2.824
  676SOL    HW2 2928   4.097   5.943   2.748
  677SOL     OW 2929   6.344   1.520   6.673
  677SOL    HW1 2930   6.401   1.450   6.630
  677SOL    HW2 2931   6.291   1.479   6.747
  678SOL     OW 2932   1.867   0.951   4.815
  678SOL    HW1 2933   1.818   0.923   4.732
  678SOL    HW2 2934   1.875   0.873   4.877
  679SOL     OW 2935   4.637   1.625   4.533
  679SOL    HW1 2936   4.547   1.659   4.506
  679SOL    HW2 2937   4.696   1.702   4.557
  680SOL     OW 2938   6.199   5.466   5.778
  680SOL    HW1 2939   6.188   5.505   5.687
  680SOL    HW2 2940   6.267   5.520   5.828
  681SOL     OW 2941   5.245   5.776   1.692
  681SOL    HW1 2942   5.150   5.786   1.722
  681SOL    HW2 2943   5.267   5.849   1.627
  682SOL     OW 2944   1.548   0.762   0.612
  682SOL    HW1 2945   1.608   0.754   0.692
  682SOL    HW2 2946   1.454   0.774   0.643
  683SOL     OW 2947   3.975   3.053   6.803
  683SOL    HW1 2948   3.991   3.125   6.870
  683SOL    HW2 2949   3.914   2.984   6.841
  684SOL     OW 2950   6.699   1.013   0.193
  684SOL    HW1 2951   6.608   1.053   0.205
  684SOL    HW2 2952   6.749   1.065   0.124
  685SOL     OW 2953   5.014   1.221   4.181
  685SOL    HW1 2954   4.977   1.130   4.159
  685SOL    HW2 2955   5.108   1.211   4.213
  686SOL     OW 2956   5.578   2.006   3.890
  686SOL    HW1 2957   5.512   2.070   3.850
  686SOL    HW2 2958   5.620   1.952   3.818
  687SOL     OW 2959   0.830   2.382   4.266
  687SOL    HW1 2960   0.849   2.292   4.306
  687SOL    HW2 2961   0.829   2.451   4.339
  688SOL     OW 2962   0.994   2.625   0.455
  688SOL    HW1 2963   0.973   2.579   0.541
  688SOL    HW2 2964   1.085   2.666   0.460
  689SOL     OW 2965   0.517   4.033   5.975
  689SOL    HW1 2966   0.570   3.959   5.933
  689SOL    HW2 2967   0.420   4.020   5.953
  690SOL     OW 2968   0.587   4.042   3.228
  690SOL    HW1 2969   0.505   4.047   3.286
  690SOL    HW2 2970   0.658   4.102   3.265
  691SOL     OW 2971   2.846   0.281   6.330
  691SOL    HW1 2972   2.821   0.357   6.390
  691SOL    HW2 2973   2.913   0.223   6.376
  692SOL     OW 2974   4.123   5.996   3.902
  692SOL    HW1 2975   4.054   5.930   3.930
  692SOL    HW2 2976   4.146   5.981   3.805
  693SOL     OW 2977   6.363   0.447   3.359
  693SOL    HW1 2978   6.323   0.465   3.268
  693SOL    HW2 2979   6.393   0.534   3.399
  694SOL     OW 2980   3.961   6.234   2.357
  694SOL    HW1 2981   4.042   6.185   2.324
  694SOL    HW2 2982   3.977   6.266   2.451
  695SOL     OW 2983   4.402   6.056   4.948
  695SOL    HW1 2984   4.322   6.058   5.007
  695SOL    HW2 2985   4.376   6.023   4.857
  696SOL     OW 2986   3.360   5.449   2.236
  696SOL    HW1 2987   3.316   5.501   2.309
  696SOL    HW2 2988   3.298   5.377   2.204
  697SOL     OW 2989   1.815   2.865   3.647
  697SOL    HW1 2990   1.749   2.906   3.584
  697SOL    HW2 2991   1.894   2.926   3.657
  698SOL     OW 2992   5.588   6.629   0.092
  698SOL    HW1 2993   5.588   6.686   0.174
  698SOL    HW2 2994   5.525   6.667   0.025
  699SOL     OW 2995   1.936   3.739   6.125
  699SOL    HW1 2996   1.921   3.707   6.219
  699SOL    HW2 2997   1.945   3.660   6.064
  700SOL     OW 2998   2.567   1.514   3.413
  700SOL    HW1 2999   2.500   1.440   3.408
  700SOL    HW2 3000   2.646   1.492   3.356
  701SOL     OW 3001   5.918   3.528   4.970
  701SOL    HW1 3002   5.882   3.497   5.058
  701SOL    HW2 3003   6.018   3.536   4.976
  702SOL     OW 3004   0.511   6.169   5.771
  702SOL    HW1 3005   0.482   6.264   5.761
  702SOL    HW2 3006   0.609   6.166   5.794
  703SOL     OW 3007   3.197   4.560   6.487
  703SOL    HW1 3008   3.238   4.617   6.416
  703SOL    HW2 3009   3.166   4.473   6.447
  704SOL     OW 3010   1.320   1.279   0.200
  704SOL    HW1 3011   1.344   1.375   0.185
  704SOL    HW2 3012   1.348   1.252   0.293
  705SOL     OW 3013   6.123   6.100   2.987
  705SOL    HW1 3014   6.213   6.137   2.963
  705SOL    HW2 3015   6.063   6.108   2.907
  706SOL     OW 3016   4.807   2.535   4.111
  706SOL    HW1 3017   4.841   2.452   4.068
  706SOL    HW2 3018   4.707   2.538   4.104
  707SOL     OW 3019   5.223   6.687   2.339
  707SOL    HW1 3020   5.175   6.643   2.415
  707SOL    HW2 3021   5.229   6.623   2.262
  708SOL     OW 3022   3.665   0.729   1.519
  708SOL    HW1 3023   3.699   0.814   1.560
  708SOL    HW2 3024   3.742   0.672   1.491
  709SOL     OW 3025   1.132   5.320   1.148
  709SOL    HW1 3026   1.153   5.349   1.241
  709SOL    HW2 3027   1.210   5.340   1.089
  710SOL     OW 3028   3.637   2.920   2.715
  710SOL    HW1 3029   3.659   2.921   2.812
  710SOL    HW2 3030   3.572   2.994   2.695
  711SOL     OW 3031   0.103   2.544   5.376
  711SOL    HW1 3032   0.170   2.553   5.302
  711SOL    HW2 3033   0.150   2.519   5.461
  712SOL     OW 3034   4.031   3.752   1.198
  712SOL    HW1 3035   4.108   3.730   1.257
  712SOL    HW2 3036   3.945   3.728   1.244
  713SOL     OW 3037   4.167   3.044   6.039
  713SOL    HW1 3038   4.129   2.965   5.992
  713SOL    HW2 3039   4.125   3.052   6.130
  714SOL     OW 3040   6.587   4.302   3.906
  714SOL    HW1 3041   6.508   4.349   3.868
  714SOL    HW2 3042   6.559   4.213   3.942
  715SOL     OW 3043   5.750   5.403   0.207
  715SOL    HW1 3044   5.804   5.420   0.289
  715SOL    HW2 3045   5.808   5.410   0.126
  716SOL     OW 3046   1.167   0.133   0.830
  716SOL    HW1 3047   1.211   0.183   0.904
  716SOL    HW2 3048   1.129   0.048   0.866
  717SOL     OW 3049   6.176   4.866   5.937
  717SOL    HW1 3050   6.252   4.883   5.874
  717SOL    HW2 3051   6.203   4.795   6.003
  718SOL     OW 3052   5.136   2.406   6.098
  718SOL    HW1 3053   5.177   2.467   6.030
  718SOL    HW2 3054   5.177   2.422   6.187
  719SOL     OW 3055   6.410   0.347   2.075
  719SOL    HW1 3056   6.334   0.412   2.077
  719SOL    HW2 3057   6.420   0.310   1.983
  720SOL     OW 3058   3.424   1.029   6.567
  720SOL    HW1 3059   3.366   0.956   6.605
  720SOL    HW2 3060   3.385   1.118   6.592
  721SOL     OW 3061   2.965   0.829   4.173
  721SOL    HW1 3062   2.992   0.856   4.265
  721SOL    HW2 3063   3.046   0.805   4.120
  722SOL     OW 3064   3.095   0.655   4.925
  722SOL    HW1 3065   3.002   0.618   4.923
  722SOL    HW2 3066   3.093   0.747   4.966
  723SOL     OW 3067   1.806   3.746   3.039
  723SOL    HW1 3068   1.844   3.671   2.985
  723SOL    HW2 3069   1.854   3.751   3.127
  724SOL     OW 3070   1.093   3.289   4.275
  724SOL    HW1 3071   1.106   3.253   4.183
  724SOL    HW2 3072   1.091   3.214   4.341
  725SOL     OW 3073   3.568   5.681   0.573
  725SOL    HW1 3074   3.598   5.766   0.618
  725SOL    HW2 3075   3.585   5.604   0.633
  726SOL     OW 3076   3.981   4.728   0.795
  726SOL    HW1 3077   4.026   4.662   0.735
  726SOL    HW2 3078   3.985   4.696   0.890
  727SOL     OW 3079   5.637   4.825   6.022
  727SOL    HW1 3080   5.736   4.817   6.010
  727SOL    HW2 3081   5.590   4.793   5.940
  728SOL     OW 3082   6.835   3.287   4.541
  728SOL    HW1 3083   6.811   3.323   4.451
  728SOL    HW2 3084   6.927   3.318   4.565
  729SOL     OW 3085   1.397   2.169   1.188
  729SOL    HW1 3086   1.428   2.236   1.119
  729SOL    HW2 3087   1.313   2.202   1.231
  730SOL     OW 3088   5.529   0.852   3.163
  730SOL    HW1 3089   5.599   0.819   3.226
  730SOL    HW2 3090   5.457   0.897   3.215
  731SOL     OW 3091   5.205   4.394   5.727
  731SOL    HW1 3092   5.240   4.302   5.744
  731SOL    HW2 3093   5.155   4.395   5.640
  732SOL     OW 3094   6.866   2.186   1.849
  732SOL    HW1 3095   6.947   2.210   1.796
  732SOL    HW2 3096   6.833   2.267   1.898
  733SOL     OW 3097   5.978   6.145   5.596
  733SOL    HW1 3098   5.881   6.146   5.622
  733SOL    HW2 3099   6.033   6.118   5.674
  734SOL     OW 3100   0.309   4.785   2.683
  734SOL    HW1 3101   0.399   4.826   2.669
  734SOL    HW2 3102   0.310   4.731   2.767
  735SOL     OW 3103   3.613   1.962   0.319
  735SOL    HW1 3104   3.568   1.872   0.319
  735SOL    HW2 3105   3.615   1.997   0.225
  736SOL     OW 3106   0.824   0.688   3.346
  736SOL    HW1 3107   0.878   0.773   3.343
  736SOL    HW2 3108   0.862   0.628   3.416
  737SOL     OW 3109   4.679   2.299   5.957
  737SOL    HW1 3110   4.666   2.338   6.048
  737SOL    HW2 3111   4.638   2.208   5.953
  738SOL     OW 3112   1.920   4.060   1.711
  738SOL    HW1 3113   1.960   4.079   1.622
  738SOL    HW2 3114   1.834   4.110   1.721
  739SOL     OW 3115   4.265   0.262   3.966
  739SOL    HW1 3116   4.266   0.259   3.866
  739SOL    HW2 3117   4.323   0.337   3.998
  740SOL     OW 3118   5.679   0.348   1.306
  740SOL    HW1 3119   5.735   0.326   1.385
  740SOL    HW2 3120   5.604   0.407   1.333
  741SOL     OW 3121   2.515   6.233   3.427
  741SOL    HW1 3122   2.561   6.255   3.513
  741SOL    HW2 3123   2.581   6.194   3.363
  742SOL     OW 3124   2.690   6.705   2.352
  742SOL    HW1 3125   2.634   6.638   2.303
  742SOL    HW2 3126   2.739   6.763   2.287
  743SOL     OW 3127   0.283   3.739   3.864
  743SOL    HW1 3128   0.228   3.658   3.883
  743SOL    HW2 3129   0.351   3.750   3.936
  744SOL     OW 3130   5.838   0.518   6.923
  744SOL    HW1 3131   5.768   0.541   6.990
  744SOL    HW2 3132   5.835   0.584   6.847
  745SOL     OW 3133   0.884   5.710   4.929
  745SOL    HW1 3134   0.934   5.632   4.967
  745SOL    HW2 3135   0.924   5.735   4.841
  746SOL     OW 3136   0.117   4.719   6.076
  746SOL    HW1 3137   0.107   4.817   6.092
  746SOL    HW2 3138   0.176   4.704   5.997
  747SOL     OW 3139   3.801   6.417   4.576
  747SOL    HW1 3140   3.826   6.486   4.645
  747SOL    HW2 3141   3.819   6.326   4.613
  748SOL     OW 3142   3.828   4.851   2.246
  748SOL    HW1 3143   3.838   4.911   2.325
  748SOL    HW2 3144   3.739   4.869   2.203
  749SOL     OW 3145   6.457   4.585   4.654
  749SOL    HW1 3146   6.380   4.523   4.642
  749SOL    HW2 3147   6.500   4.603   4.565
  750SOL     OW 3148   1.635   2.022   1.266
  750SOL    HW1 3149   1.552   2.078   1.258
  750SOL    HW2 3150   1.657   1.983   1.176
  751SOL     OW 3151   4.079   2.572   6.724
  751SOL    HW1 3152   4.091   2.653   6.781
  751SOL    HW2 3153   4.047   2.600   6.634
  752SOL     OW 3154   3.627   1.257   2.360
  752SOL    HW1 3155   3.567   1.289   2.433
  752SOL    HW2 3156   3.618   1.318   2.281
  753SOL     OW 3157   2.073   3.466   5.496
  753SOL    HW1 3158   2.053   3.554   5.453
  753SOL    HW2 3159   2.167   3.438   5.474
  754SOL     OW 3160   5.068   2.646   5.641
  754SOL    HW1 3161   5.163   2.654   5.612
  754SOL    HW2 3162   5.007   2.663   5.563
  755SOL     OW 3163   1.310   4.268   4.973
  755SOL    HW1 3164   1.242   4.297   5.041
  755SOL    HW2 3165   1.388   4.227   5.020
  756SOL     OW 3166   3.250   6.392   0.228
  756SOL    HW1 3167   3.201   6.446   0.159
  756SOL    HW2 3168   3.319   6.335   0.184
  757SOL     OW 3169   1.090   0.151   3.805
  757SOL    HW1 3170   1.036   0.129   3.886
  757SOL    HW2 3171   1.052   0.104   3.726
  758SOL     OW 3172   3.587   0.072   1.830
  758SOL    HW1 3173   3.655   0.039   1.895
  758SOL    HW2 3174   3.627   0.079   1.739
  759SOL     OW 3175   0.323   1.493   1.357
  759SOL    HW1 3176   0.370   1.574   1.320
  759SOL    HW2 3177   0.384   1.445   1.420
  760SOL     OW 3178   5.546   0.326   5.842
  760SOL    HW1 3179   5.533   0.230   5.867
  760SOL    HW2 3180   5.533   0.337   5.743
  761SOL     OW 3181   5.679   3.119   5.794
  761SOL    HW1 3182   5.626   3.201   5.772
  761SOL    HW2 3183   5.626   3.038   5.772
  762SOL     OW 3184   2.438   0.731   4.762
  762SOL    HW1 3185   2.481   0.645   4.737
  762SOL    HW2 3186   2.473   0.805   4.705
  763SOL     OW 3187   4.146   5.349   6.436
  763SOL    HW1 3188   4.145   5.379   6.340
  763SOL    HW2 3189   4.056   5.364   6.476
  764SOL     OW 3190   5.488   2.148   5.314
  764SOL    HW1 3191   5.538   2.181   5.394
  764SOL    HW2 3192   5.511   2.051   5.299
  765SOL     OW 3193   1.066   6.145   1.601
  765SOL    HW1 3194   1.127   6.094   1.541
  765SOL    HW2 3195   0.974   6.148   1.560
  766SOL     OW 3196   2.417   3.352   6.660
  766SOL    HW1 3197   2.482   3.287   6.698
  766SOL    HW2 3198   2.380   3.409   6.734
  767SOL     OW 3199   6.185   5.756   1.702
  767SOL    HW1 3200   6.127   5.726   1.778
  767SOL    HW2 3201   6.149   5.719   1.616
  768SOL     OW 3202   1.995   6.286   1.824
  768SOL    HW1 3203   2.029   6.318   1.913
  768SOL    HW2 3204   2.012   6.188   1.815
  769SOL     OW 3205   3.351   0.881   4.775
  769SOL    HW1 3206   3.280   0.907   4.841
  769SOL    HW2 3207   3.431   0.940   4.787
  770SOL     OW 3208   1.929   4.423   2.858
  770SOL    HW1 3209   1.852   4.421   2.921
  770SOL    HW2 3210   1.971   4.514   2.859
  771SOL     OW 3211   2.516   5.190   2.580
  771SOL    HW1 3212   2.580   5.262   2.551
  771SOL    HW2 3213   2.446   5.178   2.509
  772SOL     OW 3214   5.732   5.123   0.182
  772SOL    HW1 3215   5.742   5.221   0.204
  772SOL    HW2 3216   5.648   5.110   0.130
  773SOL     OW 3217   0.151   3.618   4.766
  773SOL    HW1 3218   0.152   3.568   4.853
  773SOL    HW2 3219   0.238   3.603   4.719
  774SOL     OW 3220   1.175   1.581   1.433
  774SOL    HW1 3221   1.088   1.552   1.472
  774SOL    HW2 3222   1.249   1.564   1.499
  775SOL     OW 3223   0.448   2.144   2.869
  775SOL    HW1 3224   0.379   2.206   2.907
  775SOL    HW2 3225   0.538   2.186   2.876
  776SOL     OW 3226   1.109   0.566   6.273
  776SOL    HW1 3227   1.130   0.543   6.178
  776SOL    HW2 3228   1.012   0.587   6.282
  777SOL     OW 3229   2.248   4.943   1.543
  777SOL    HW1 3230   2.338   4.984   1.560
  777SOL    HW2 3231   2.238   4.861   1.598
  778SOL     OW 3232   2.563   1.205   2.101
  778SOL    HW1 3233   2.512   1.270   2.045
  778SOL    HW2 3234   2.588   1.248   2.188
  779SOL     OW 3235   6.779   2.733   2.282
  779SOL    HW1 3236   6.859   2.706   2.336
  779SOL    HW2 3237   6.710   2.661   2.287
  780SOL     OW 3238   6.335   3.654   3.770
  780SOL    HW1 3239   6.399   3.696   3.835
  780SOL    HW2 3240   6.387   3.613   3.695
  781SOL     OW 3241   5.622   1.128   0.115
  781SOL    HW1 3242   5.622   1.085   0.205
  781SOL    HW2 3243   5.707   1.180   0.103
  782SOL     OW 3244   1.391   4.366   6.583
  782SOL    HW1 3245   1.328   4.334   6.512
  782SOL    HW2 3246   1.408   4.292   6.649
  783SOL     OW 3247   4.296   4.916   0.950
  783SOL    HW1 3248   4.249   4.862   1.020
  783SOL    HW2 3249   4.394   4.896   0.953
  784SOL     OW 3250   5.227   5.691   0.526
  784SOL    HW1 3251   5.169   5.747   0.467
  784SOL    HW2 3252   5.313   5.670   0.480
  785SOL     OW 3253   0.506   2.447   3.295
  785SOL    HW1 3254   0.567   2.524   3.312
  785SOL    HW2 3255   0.559   2.367   3.268
  786SOL     OW 3256   1.582   0.800   1.707
  786SOL    HW1 3257   1.599   0.869   1.637
  786SOL    HW2 3258   1.640   0.720   1.691
  787SOL     OW 3259   2.779   0.576   6.896
  787SOL    HW1 3260   2.767   0.505   6.827
  787SOL    HW2 3261   2.711   0.563   6.969
  788SOL     OW 3262   3.706   3.304   5.604
  788SOL    HW1 3263   3.775   3.232   5.593
  788SOL    HW2 3264   3.687   3.317   5.702
  789SOL     OW 3265   5.368   3.925   0.841
  789SOL    HW1 3266   5.292   3.899   0.901
  789SOL    HW2 3267   5.334   3.935   0.747
  790SOL     OW 3268   2.322   1.077   3.849
  790SOL    HW1 3269   2.393   1.144   3.826
  790SOL    HW2 3270   2.241   1.094   3.794
  791SOL     OW 3271   3.234   5.814   4.142
  791SOL    HW1 3272   3.236   5.904   4.099
  791SOL    HW2 3273   3.153   5.806   4.201
  792SOL     OW 3274   1.097   6.901   0.925
  792SOL    HW1 3275   1.010   6.893   0.875
  792SOL    HW2 3276   1.161   6.832   0.892
  793SOL     OW 3277   4.965   4.996   3.547
  793SOL    HW1 3278   4.998   5.028   3.636
  793SOL    HW2 3279   4.910   4.914   3.560
  794SOL     OW 3280   3.446   3.663   5.063
  794SOL    HW1 3281   3.510   3.717   5.118
  794SOL    HW2 3282   3.394   3.602   5.123
  795SOL     OW 3283   3.398   6.696   4.040
  795SOL    HW1 3284   3.367   6.695   3.945
  795SOL    HW2 3285   3.331   6.744   4.097
  796SOL     OW 3286   0.211   1.831   6.659
  796SOL    HW1 3287   0.227   1.753   6.598
  796SOL    HW2 3288   0.297   1.856   6.704
  797SOL     OW 3289   5.681   2.981   0.636
  797SOL    HW1 3290   5.739   3.033   0.699
  797SOL    HW2 3291   5.733   2.905   0.598
  798SOL     OW 3292   3.864   0.500   2.582
  798SOL    HW1 3293   3.803   0.563   2.629
  798SOL    HW2 3294   3.814   0.416   2.558
  799SOL     OW 3295   6.984   0.222   5.784
  799SOL    HW1 3296   6.976   0.315   5.750
  799SOL    HW2 3297   0.026   0.219   5.860
  800SOL     OW 3298   5.465   2.266   2.586
  800SOL    HW1 3299   5.484   2.180   2.539
  800SOL    HW2 3300   5.544   2.326   2.580
  801SOL     OW 3301   1.295   3.637   4.363
  801SOL    HW1 3302   1.219   3.573   4.378
  801SOL    HW2 3303   1.345   3.648   4.449
  802SOL     OW 3304   3.934   1.813   1.116
  802SOL    HW1 3305   3.878   1.885   1.158
  802SOL    HW2 3306   3.928   1.821   1.016
  803SOL     OW 3307   0.426   6.886   5.459
  803SOL    HW1 3308   0.426   6.788   5.482
  803SOL    HW2 3309   0.391   6.938   5.537
  804SOL     OW 3310   5.321   5.448   6.965
  804SOL    HW1 3311   5.300   5.494   6.879
  804SOL    HW2 3312   5.237   5.425   7.013
  805SOL     OW 3313   3.829   6.983   5.294
  805SOL    HW1 3314   3.871   6.938   5.373
  805SOL    HW2 3315   3.855   0.056   5.292
  806SOL     OW 3316   5.347   1.073   4.654
  806SOL    HW1 3317   5.405   1.127   4.715
  806SOL    HW2 3318   5.283   1.133   4.607
  807SOL     OW 3319   1.797   1.932   4.153
  807SOL    HW1 3320   1.836   1.841   4.135
  807SOL    HW2 3321   1.836   1.969   4.237
  808SOL     OW 3322   4.751   3.538   6.385
  808SOL    HW1 3323   4.810   3.618   6.371
  808SOL    HW2 3324   4.757   3.478   6.305
  809SOL     OW 3325   6.730   5.101   1.096
  809SOL    HW1 3326   6.776   5.034   1.155
  809SOL    HW2 3327   6.657   5.055   1.044
  810SOL     OW 3328   3.285   3.127   1.655
  810SOL    HW1 3329   3.344   3.161   1.728
  810SOL    HW2 3330   3.321   3.041   1.619
  811SOL     OW 3331   4.198   5.508   5.077
  811SOL    HW1 3332   4.267   5.578   5.093
  811SOL    HW2 3333   4.107   5.549   5.082
  812SOL     OW 3334   0.663   1.436   2.331
  812SOL    HW1 3335   0.577   1.403   2.371
  812SOL    HW2 3336   0.732   1.365   2.338
  813SOL     OW 3337   3.311   6.275   5.179
  813SOL    HW1 3338   3.229   6.231   5.216
  813SOL    HW2 3339   3.374   6.206   5.145
  814SOL     OW 3340   6.697   6.121   2.467
  814SOL    HW1 3341   6.770   6.105   2.400
  814SOL    HW2 3342   6.721   6.199   2.524
  815SOL     OW 3343   0.518   3.444   2.973
  815SOL    HW1 3344   0.451   3.492   3.030
  815SOL    HW2 3345   0.593   3.507   2.950
  816SOL     OW 3346   6.284   6.714   0.808
  816SOL    HW1 3347   6.262   6.625   0.848
  816SOL    HW2 3348   6.378   6.740   0.834
  817SOL     OW 3349   2.052   4.449   0.489
  817SOL    HW1 3350   2.147   4.471   0.465
  817SOL    HW2 3351   2.013   4.524   0.541
  818SOL     OW 3352   6.130   3.012   2.259
  818SOL    HW1 3353   6.033   3.032   2.270
  818SOL    HW2 3354   6.158   2.946   2.329
  819SOL     OW 3355   5.594   2.492   3.219
  819SOL    HW1 3356   5.616   2.564   3.152
  819SOL    HW2 3357   5.667   2.486   3.286
  820SOL     OW 3358   3.052   2.530   5.364
  820SOL    HW1 3359   3.086   2.480   5.284
  820SOL    HW2 3360   3.073   2.627   5.353
  821SOL     OW 3361   1.768   4.734   1.550
  821SOL    HW1 3362   1.701   4.690   1.610
  821SOL    HW2 3363   1.777   4.830   1.574
  822SOL     OW 3364   1.901   4.649   3.812
  822SOL    HW1 3365   1.860   4.609   3.894
  822SOL    HW2 3366   1.845   4.627   3.732
  823SOL     OW 3367   5.223   3.789   6.528
  823SOL    HW1 3368   5.130   3.816   6.551
  823SOL    HW2 3369   5.258   3.849   6.455
  824SOL     OW 3370   5.868   1.076   5.908
  824SOL    HW1 3371   5.797   1.137   5.871
  824SOL    HW2 3372   5.958   1.111   5.881
  825SOL     OW 3373   0.568   4.164   1.369
  825SOL    HW1 3374   0.601   4.230   1.437
  825SOL    HW2 3375   0.642   4.142   1.306
  826SOL     OW 3376   5.415   3.281   5.490
  826SOL    HW1 3377   5.404   3.380   5.478
  826SOL    HW2 3378   5.398   3.257   5.585
  827SOL     OW 3379   2.635   4.978   5.446
  827SOL    HW1 3380   2.626   4.900   5.507
  827SOL    HW2 3381   2.563   4.976   5.376
  828SOL     OW 3382   5.717   6.867   6.591
  828SOL    HW1 3383   5.739   6.827   6.680
  828SOL    HW2 3384   5.630   6.830   6.559
  829SOL     OW 3385   3.260   4.096   2.658
  829SOL    HW1 3386   3.344   4.092   2.604
  829SOL    HW2 3387   3.201   4.169   2.624
  830SOL     OW 3388   5.076   5.031   6.683
  830SOL    HW1 3389   5.101   4.949   6.631
  830SOL    HW2 3390   4.977   5.044   6.677
  831SOL     OW 3391   6.423   0.605   0.076
  831SOL    HW1 3392   6.449   0.509   0.069
  831SOL    HW2 3393   6.499   0.657   0.116
  832SOL     OW 3394   3.105   0.745   1.824
  832SOL    HW1 3395   3.164   0.807   1.771
  832SOL    HW2 3396   3.088   0.785   1.914
  833SOL     OW 3397   0.546   4.067   5.427
  833SOL    HW1 3398   0.635   4.029   5.453
  833SOL    HW2 3399   0.521   4.031   5.337
  834SOL     OW 3400   4.007   3.864   0.324
  834SOL    HW1 3401   3.946   3.834   0.251
  834SOL    HW2 3402   3.987   3.959   0.348
  835SOL     OW 3403   3.910   0.208   5.327
  835SOL    HW1 3404   3.862   0.279   5.276
  835SOL    HW2 3405   3.960   0.249   5.403
  836SOL     OW 3406   3.495   6.280   6.586
  836SOL    HW1 3407   3.522   6.209   6.652
  836SOL    HW2 3408   3.535   6.260   6.497
  837SOL     OW 3409   5.442   0.709   0.620
  837SOL    HW1 3410   5.419   0.801   0.654
  837SOL    HW2 3411   5.530   0.712   0.573
  838SOL     OW 3412   2.264   0.464   4.567
  838SOL    HW1 3413   2.314   0.399   4.625
  838SOL    HW2 3414   2.214   0.528   4.625
  839SOL     OW 3415   1.687   2.852   2.134
  839SOL    HW1 3416   1.764   2.887   2.187
  839SOL    HW2 3417   1.687   2.752   2.136
  840SOL     OW 3418   6.203   6.499   0.252
  840SOL    HW1 3419   6.243   6.571   0.308
  840SOL    HW2 3420   6.200   6.414   0.304
  841SOL     OW 3421   4.119   4.940   6.414
  841SOL    HW1 3422   4.166   5.018   6.455
  841SOL    HW2 3423   4.027   4.932   6.454
  842SOL     OW 3424   4.249   0.075   5.118
  842SOL    HW1 3425   4.279   0.141   5.050
  842SOL    HW2 3426   4.195   0.003   5.075
  843SOL     OW 3427   1.277   1.621   1.015
  843SOL    HW1 3428   1.245   1.672   1.095
  843SOL    HW2 3429   1.377   1.613   1.019
  844SOL     OW 3430   6.297   0.729   0.800
  844SOL    HW1 3431   6.230   0.696   0.733
  844SOL    HW2 3432   6.321   0.824   0.778
  845SOL     OW 3433   5.304   4.478   5.238
  845SOL    HW1 3434   5.325   4.401   5.299
  845SOL    HW2 3435   5.248   4.544   5.287
  846SOL     OW 3436   1.719   2.076   6.813
  846SOL    HW1 3437   1.818   2.066   6.829
  846SOL    HW2 3438   1.694   2.173   6.813
  847SOL     OW 3439   1.588   3.301   1.572
  847SOL    HW1 3440   1.666   3.249   1.606
  847SOL    HW2 3441   1.517   3.306   1.643
  848SOL     OW 3442   6.216   0.608   6.335
  848SOL    HW1 3443   6.117   0.619   6.334
  848SOL    HW2 3444   6.239   0.511   6.329
  849SOL     OW 3445   0.690   4.164   6.170
  849SOL    HW1 3446   0.644   4.109   6.100
  849SOL    HW2 3447   0.648   4.147   6.259
  850SOL     OW 3448   4.777   0.202   3.435
  850SOL    HW1 3449   4.853   0.266   3.423
  850SOL    HW2 3450   4.691   0.248   3.414
  851SOL     OW 3451   0.065   1.403   2.750
  851SOL    HW1 3452   0.134   1.382   2.819
  851SOL    HW2 3453   7.011   1.341   2.760
  852SOL     OW 3454   1.440   2.963   6.739
  852SOL    HW1 3455   1.501   3.015   6.799
  852SOL    HW2 3456   1.456   2.990   6.644
  853SOL     OW 3457   1.612   4.636   2.089
  853SOL    HW1 3458   1.634   4.732   2.076
  853SOL    HW2 3459   1.558   4.602   2.012
  854SOL     OW 3460   4.526   6.003   1.361
  854SOL    HW1 3461   4.435   5.966   1.348
  854SOL    HW2 3462   4.535   6.038   1.455
  855SOL     OW 3463   0.268   0.295   1.913
  855SOL    HW1 3464   0.295   0.379   1.960
  855SOL    HW2 3465   0.256   0.222   1.981
  856SOL     OW 3466   1.274   2.421   5.231
  856SOL    HW1 3467   1.223   2.412   5.317
  856SOL    HW2 3468   1.223   2.377   5.157
  857SOL     OW 3469   5.916   4.554   1.801
  857SOL    HW1 3470   5.991   4.491   1.826
  857SOL    HW2 3471   5.922   4.636   1.858
  858SOL     OW 3472   2.723   3.501   1.075
  858SOL    HW1 3473   2.755   3.412   1.108
  858SOL    HW2 3474   2.661   3.488   0.999
  859SOL     OW 3475   5.405   5.896   5.686
  859SOL    HW1 3476   5.357   5.907   5.598
  859SOL    HW2 3477   5.338   5.898   5.760
  860SOL     OW 3478   5.044   3.663   0.186
  860SOL    HW1 3479   5.080   3.674   0.093
  860SOL    HW2 3480   5.081   3.578   0.225
  861SOL     OW 3481   2.808   6.063   3.661
  861SOL    HW1 3482   2.747   5.985   3.653
  861SOL    HW2 3483   2.866   6.051   3.742
  862SOL     OW 3484   0.801   4.471   4.893
  862SOL    HW1 3485   0.795   4.503   4.987
  862SOL    HW2 3486   0.869   4.526   4.844
  863SOL     OW 3487   6.266   0.358   1.251
  863SOL    HW1 3488   6.338   0.420   1.221
  863SOL    HW2 3489   6.303   0.296   1.321
  864SOL     OW 3490   4.123   4.786   3.683
  864SOL    HW1 3491   4.082   4.788   3.774
  864SOL    HW2 3492   4.068   4.840   3.620
  865SOL     OW 3493   0.518   6.061   6.060
  865SOL    HW1 3494   0.508   6.094   5.966
  865SOL    HW2 3495   0.435   6.013   6.087
  866SOL     OW 3496   1.841   2.023   1.551
  866SOL    HW1 3497   1.885   2.105   1.587
  866SOL    HW2 3498   1.756   2.048   1.505
  867SOL     OW 3499   4.346   3.998   0.908
  867SOL    HW1 3500   4.292   3.917   0.884
  867SOL    HW2 3501   4.386   4.037   0.825
  868SOL     OW 3502   5.957   0.662   1.024
  868SOL    HW1 3503   5.878   0.605   0.999
  868SOL    HW2 3504   6.039   0.604   1.030
  869SOL     OW 3505   7.002   5.388   3.213
  869SOL    HW1 3506   6.976   5.332   3.135
  869SOL    HW2 3507   6.965   5.348   3.297
  870SOL     OW 3508   4.128   3.484   0.761
  870SOL    HW1 3509   4.162   3.403   0.714
  870SOL    HW2 3510   4.078   3.542   0.696
  871SOL     OW 3511   4.773   2.977   3.426
  871SOL    HW1 3512   4.734   2.894   3.466
  871SOL    HW2 3513   4.779   2.967   3.327
  872SOL     OW 3514   5.135   3.951   4.056
  872SOL    HW1 3515   5.072   4.000   3.995
  872SOL    HW2 3516   5.143   4.002   4.142
  873SOL     OW 3517   5.579   6.764   4.065
  873SOL    HW1 3518   5.485   6.775   4.098
  873SOL    HW2 3519   5.579   6.759   3.965
  874SOL     OW 3520   1.090   4.102   5.990
  874SOL    HW1 3521   1.074   4.099   5.891
  874SOL    HW2 3522   1.012   4.147   6.034
  875SOL     OW 3523   3.312   2.939   0.567
  875SOL    HW1 3524   3.314   2.851   0.520
  875SOL    HW2 3525   3.382   2.999   0.529
  876SOL     OW 3526   0.562   4.971   2.882
  876SOL    HW1 3527   0.543   4.883   2.926
  876SOL    HW2 3528   0.540   5.045   2.945
  877SOL     OW 3529   4.137   3.884   6.860
  877SOL    HW1 3530   4.236   3.879   6.876
  877SOL    HW2 3531   4.089   3.850   6.941
  878SOL     OW 3532   4.036   6.001   5.377
  878SOL    HW1 3533   4.029   6.057   5.459
  878SOL    HW2 3534   4.128   6.009   5.339
  879SOL     OW 3535   2.921   2.248   1.646
  879SOL    HW1 3536   2.825   2.275   1.649
  879SOL    HW2 3537   2.967   2.282   1.728
  880SOL     OW 3538   3.320   4.286   5.567
  880SOL    HW1 3539   3.251   4.234   5.517
  880SOL    HW2 3540   3.321   4.257   5.662
  881SOL     OW 3541   4.711   4.112   5.214
  881SOL    HW1 3542   4.647   4.185   5.190
  881SOL    HW2 3543   4.737   4.063   5.131
  882SOL     OW 3544   1.034   1.718   4.237
  882SOL    HW1 3545   1.076   1.804   4.208
  882SOL    HW2 3546   0.939   1.715   4.206
  883SOL     OW 3547   4.728   5.590   5.986
  883SOL    HW1 3548   4.795   5.664   5.989
  883SOL    HW2 3549   4.756   5.523   5.917
  884SOL     OW 3550   6.974   4.091   0.291
  884SOL    HW1 3551   0.037   4.042   0.305
  884SOL    HW2 3552   6.990   4.169   0.230
  885SOL     OW 3553   4.662   5.464   6.729
  885SOL    HW1 3554   4.680   5.409   6.648
  885SOL    HW2 3555   4.746   5.478   6.780
  886SOL     OW 3556   3.800   0.760   1.115
  886SOL    HW1 3557   3.844   0.816   1.185
  886SOL    HW2 3558   3.869   0.722   1.054
  887SOL     OW 3559   3.580   6.922   3.936
  887SOL    HW1 3560   3.615   6.902   3.845
  887SOL    HW2 3561   3.537   6.840   3.974
  888SOL     OW 3562   5.663   6.360   3.331
  888SOL    HW1 3563   5.636   6.393   3.240
  888SOL    HW2 3564   5.755   6.321   3.326
  889SOL     OW 3565   1.670   6.714   5.983
  889SOL    HW1 3566   1.631   6.751   5.899
  889SOL    HW2 3567   1.765   6.688   5.967
  890SOL     OW 3568   2.235   5.059   1.954
  890SOL    HW1 3569   2.331   5.069   1.977
  890SOL    HW2 3570   2.196   4.983   2.006
  891SOL     OW 3571   6.110   4.486   0.555
  891SOL    HW1 3572   6.175   4.541   0.502
  891SOL    HW2 3573   6.151   4.460   0.643
  892SOL     OW 3574   3.673   4.086   5.429
  892SOL    HW1 3575   3.771   4.096   5.411
  892SOL    HW2 3576   3.629   4.039   5.353
  893SOL     OW 3577   1.856   1.197   1.941
  893SOL    HW1 3578   1.892   1.105   1.928
  893SOL    HW2 3579   1.919   1.250   1.998
  894SOL     OW 3580   1.625   2.059   2.955
  894SOL    HW1 3581   1.591   2.040   3.047
  894SOL    HW2 3582   1.686   2.138   2.957
  895SOL     OW 3583   1.086   5.455   4.465
  895SOL    HW1 3584   1.118   5.550   4.456
  895SOL    HW2 3585   0.986   5.454   4.472
  896SOL     OW 3586   6.521   6.283   1.810
  896SOL    HW1 3587   6.531   6.257   1.714
  896SOL    HW2 3588   6.424   6.283   1.834
  897SOL     OW 3589   4.473   0.902   0.142
  897SOL    HW1 3590   4.402   0.936   0.204
  897SOL    HW2 3591   4.529   0.834   0.188
  898SOL     OW 3592   3.905   6.015   2.991
  898SOL    HW1 3593   3.984   6.063   2.953
  898SOL    HW2 3594   3.850   6.080   3.044
  899SOL     OW 3595   0.165   5.022   0.535
  899SOL    HW1 3596   0.159   5.111   0.488
  899SOL    HW2 3597   0.256   4.983   0.521
  900SOL     OW 3598   4.252   6.418   0.652
  900SOL    HW1 3599   4.333   6.469   0.681
  900SOL    HW2 3600   4.256   6.401   0.554
  901SOL     OW 3601   0.921   1.129   5.471
  901SOL    HW1 3602   0.870   1.044   5.482
  901SOL    HW2 3603   1.012   1.120   5.513
  902SOL     OW 3604   0.534   2.459   0.773
  902SOL    HW1 3605   0.493   2.424   0.689
  902SOL    HW2 3606   0.630   2.429   0.779
  903SOL     OW 3607   6.845   4.093   5.736
  903SOL    HW1 3608   6.819   4.075   5.831
  903SOL    HW2 3609   6.837   4.191   5.718
  904SOL     OW 3610   2.057   2.358   3.131
  904SOL    HW1 3611   1.971   2.400   3.162
  904SOL    HW2 3612   2.115   2.429   3.090
  905SOL     OW 3613   4.774   3.842   6.151
  905SOL    HW1 3614   4.776   3.784   6.070
  905SOL    HW2 3615   4.679   3.868   6.170
  906SOL     OW 3616   0.576   3.238   5.977
  906SOL    HW1 3617   0.618   3.314   6.027
  906SOL    HW2 3618   0.601   3.244   5.881
  907SOL     OW 3619   5.841   2.716   2.831
  907SOL    HW1 3620   5.927   2.733   2.783
  907SOL    HW2 3621   5.816   2.620   2.822
  908SOL     OW 3622   1.637   5.939   3.329
  908SOL    HW1 3623   1.643   5.843   3.302
  908SOL    HW2 3624   1.619   5.995   3.248
  909SOL     OW 3625   2.737   6.070   2.092
  909SOL    HW1 3626   2.774   5.989   2.048
  909SOL    HW2 3627   2.743   6.061   2.191
  910SOL     OW 3628   2.938   1.014   0.753
  910SOL    HW1 3629   2.998   0.946   0.796
  910SOL    HW2 3630   2.986   1.101   0.744
  911SOL     OW 3631   6.994   5.215   0.879
  911SOL    HW1 3632   0.057   5.260   0.899
  911SOL    HW2 3633   6.938   5.211   0.961
  912SOL     OW 3634   5.965   0.441   3.964
  912SOL    HW1 3635   6.025   0.489   3.900
  912SOL    HW2 3636   6.015   0.364   4.005
  913SOL     OW 3637   1.831   0.908   2.906
  913SOL    HW1 3638   1.853   0.977   2.837
  913SOL    HW2 3639   1.810   0.952   2.993
  914SOL     OW 3640   2.434   6.012   4.903
  914SOL    HW1 3641   2.408   6.062   4.820
  914SOL    HW2 3642   2.518   5.961   4.886
  915SOL     OW 3643   1.261   3.540   6.998
  915SOL    HW1 3644   1.266   3.572   0.069
  915SOL    HW2 3645   1.334   3.582   6.944
  916SOL     OW 3646   1.121   2.665   2.044
  916SOL    HW1 3647   1.146   2.699   1.953
  916SOL    HW2 3648   1.185   2.594   2.072
  917SOL     OW 3649   5.801   0.255   2.181
  917SOL    HW1 3650   5.706   0.287   2.187
  917SOL    HW2 3651   5.852   0.286   2.261
  918SOL     OW 3652   2.990   6.754   6.913
  918SOL    HW1 3653   3.025   6.719   6.826
  918SOL    HW2 3654   2.911   6.700   6.942
  919SOL     OW 3655   6.593   5.200   2.504
  919SOL    HW1 3656   6.597   5.209   2.603
  919SOL    HW2 3657   6.670   5.145   2.472
  920SOL     OW 3658   2.291   5.906   3.215
  920SOL    HW1 3659   2.355   5.952   3.153
  920SOL    HW2 3660   2.247   5.974   3.273
  921SOL     OW 3661   4.720   4.304   3.450
  921SOL    HW1 3662   4.819   4.292   3.444
  921SOL    HW2 3663   4.681   4.235   3.511
  922SOL     OW 3664   3.300   3.144   5.568
  922SOL    HW1 3665   3.341   3.139   5.659
  922SOL    HW2 3666   3.370   3.124   5.499
  923SOL     OW 3667   2.659   4.414   6.181
  923SOL    HW1 3668   2.630   4.436   6.274
  923SOL    HW2 3669   2.726   4.483   6.151
  924SOL     OW 3670   6.331   2.535   2.420
  924SOL    HW1 3671   6.259   2.541   2.350
  924SOL    HW2 3672   6.321   2.611   2.485
  925SOL     OW 3673   6.986   2.140   6.550
  925SOL    HW1 3674   6.946   2.160   6.639
  925SOL    HW2 3675   7.011   2.043   6.546
  926SOL     OW 3676   5.947   1.569   0.700
  926SOL    HW1 3677   5.963   1.576   0.798
  926SOL    HW2 3678   5.987   1.483   0.666
  927SOL     OW 3679   5.741   3.727   3.345
  927SOL    HW1 3680   5.790   3.681   3.271
  927SOL    HW2 3681   5.715   3.660   3.414
  928SOL     OW 3682   1.212   6.323   0.787
  928SOL    HW1 3683   1.213   6.343   0.689
  928SOL    HW2 3684   1.168   6.235   0.803
  929SOL     OW 3685   0.459   0.747   1.411
  929SOL    HW1 3686   0.464   0.753   1.311
  929SOL    HW2 3687   0.550   0.733   1.448
  930SOL     OW 3688   5.692   6.041   4.696
  930SOL    HW1 3689   5.630   5.976   4.653
  930SOL    HW2 3690   5.645   6.128   4.709
  931SOL     OW 3691   5.662   2.719   3.078
  931SOL    HW1 3692   5.691   2.777   3.154
  931SOL    HW2 3693   5.692   2.759   2.992
  932SOL     OW 3694   3.282   6.863   2.794
  932SOL    HW1 3695   3.366   6.811   2.803
  932SOL    HW2 3696   3.204   6.801   2.783
  933SOL     OW 3697   0.916   5.501   3.393
  933SOL    HW1 3698   0.927   5.404   3.374
  933SOL    HW2 3699   0.822   5.529   3.372
  934SOL     OW 3700   1.778   0.548   4.888
  934SOL    HW1 3701   1.761   0.557   4.986
  934SOL    HW2 3702   1.725   0.617   4.838
  935SOL     OW 3703   5.093   4.425   5.087
  935SOL    HW1 3704   5.062   4.354   5.151
  935SOL    HW2 3705   5.170   4.474   5.127
  936SOL     OW 3706   1.905   0.479   6.722
  936SOL    HW1 3707   1.970   0.467   6.797
  936SOL    HW2 3708   1.941   0.436   6.639
  937SOL     OW 3709   4.898   1.485   5.046
  937SOL    HW1 3710   4.931   1.576   5.072
  937SOL    HW2 3711   4.934   1.417   5.111
  938SOL     OW 3712   0.196   5.539   6.047
  938SOL    HW1 3713   0.145   5.597   6.110
  938SOL    HW2 3714   0.290   5.572   6.039
  939SOL     OW 3715   5.764   0.619   5.895
  939SOL    HW1 3716   5.754   0.704   5.946
  939SOL    HW2 3717   5.782   0.543   5.958
  940SOL     OW 3718   0.701   2.688   2.224
  940SOL    HW1 3719   0.610   2.646   2.224
  940SOL    HW2 3720   0.692   2.788   2.221
  941SOL     OW 3721   6.428   0.903   5.210
  941SOL    HW1 3722   6.389   0.915   5.301
  941SOL    HW2 3723   6.353   0.887   5.145
  942SOL     OW 3724   4.616   0.000   3.599
  942SOL    HW1 3725   4.560   6.957   3.551
  942SOL    HW2 3726   4.686   0.037   3.537
  943SOL     OW 3727   1.913   3.238   3.628
  943SOL    HW1 3728   1.888   3.200   3.717
  943SOL    HW2 3729   1.882   3.333   3.622
  944SOL     OW 3730   6.801   4.031   5.460
  944SOL    HW1 3731   6.719   3.977   5.440
  944SOL    HW2 3732   6.816   4.033   5.559
  945SOL     OW 3733   6.433   4.524   5.382
  945SOL    HW1 3734   6.423   4.530   5.283
  945SOL    HW2 3735   6.457   4.430   5.407
  946SOL     OW 3736   4.681   3.070   5.936
  946SOL    HW1 3737   4.617   3.112   5.872
  946SOL    HW2 3738   4.631   3.011   5.999
  947SOL     OW 3739   3.498   2.889   4.313
  947SOL    HW1 3740   3.578   2.944   4.338
  947SOL    HW2 3741   3.417   2.926   4.358
  948SOL     OW 3742   4.307   0.231   0.786
  948SOL    HW1 3743   4.397   0.231   0.830
  948SOL    HW2 3744   4.236   0.213   0.854
  949SOL     OW 3745   1.005   6.556   6.142
  949SOL    HW1 3746   0.955   6.635   6.105
  949SOL    HW2 3747   1.023   6.572   6.240
  950SOL     OW 3748   4.409   4.822   1.766
  950SOL    HW1 3749   4.331   4.783   1.815
  950SOL    HW2 3750   4.468   4.870   1.831
  951SOL     OW 3751   2.141   0.425   3.213
  951SOL    HW1 3752   2.158   0.513   3.256
  951SOL    HW2 3753   2.227   0.373   3.208
  952SOL     OW 3754   5.398   2.039   2.953
  952SOL    HW1 3755   5.412   2.016   2.856
  952SOL    HW2 3756   5.422   2.136   2.967
  953SOL     OW 3757   5.050   5.364   4.372
  953SOL    HW1 3758   5.131   5.422   4.377
  953SOL    HW2 3759   4.978   5.412   4.322
  954SOL     OW 3760   4.849   5.944   0.426
  954SOL    HW1 3761   4.836   6.032   0.472
  954SOL    HW2 3762   4.783   5.878   0.462
  955SOL     OW 3763   6.902   4.246   2.838
  955SOL    HW1 3764   6.866   4.153   2.847
  955SOL    HW2 3765   6.942   4.274   2.926
  956SOL     OW 3766   6.915   2.304   2.681
  956SOL    HW1 3767   6.905   2.300   2.780
  956SOL    HW2 3768   6.824   2.300   2.639
  957SOL     OW 3769   0.708   5.135   4.899
  957SOL    HW1 3770   0.736   5.046   4.863
  957SOL    HW2 3771   0.608   5.140   4.903
  958SOL     OW 3772   4.375   1.680   3.130
  958SOL    HW1 3773   4.412   1.610   3.069
  958SOL    HW2 3774   4.394   1.656   3.225
  959SOL     OW 3775   3.622   5.186   3.038
  959SOL    HW1 3776   3.643   5.093   3.067
  959SOL    HW2 3777   3.639   5.250   3.114
  960SOL     OW 3778   0.912   5.899   3.440
  960SOL    HW1 3779   0.904   5.842   3.358
  960SOL    HW2 3780   0.843   5.972   3.437
  961SOL     OW 3781   4.105   0.120   3.413
  961SOL    HW1 3782   4.035   0.174   3.461
  961SOL    HW2 3783   4.163   0.182   3.360
  962SOL     OW 3784   1.333   1.132   4.383
  962SOL    HW1 3785   1.425   1.170   4.396
  962SOL    HW2 3786   1.266   1.206   4.379
  963SOL     OW 3787   0.016   2.374   6.193
  963SOL    HW1 3788   7.015   2.330   6.107
  963SOL    HW2 3789   6.962   2.370   6.256
  964SOL     OW 3790   6.273   4.460   6.784
  964SOL    HW1 3791   6.351   4.406   6.816
  964SOL    HW2 3792   6.198   4.452   6.849
  965SOL     OW 3793   5.872   1.817   1.026
  965SOL    HW1 3794   5.925   1.896   1.055
  965SOL    HW2 3795   5.782   1.819   1.070
  966SOL     OW 3796   5.227   2.708   1.854
  966SOL    HW1 3797   5.130   2.716   1.829
  966SOL    HW2 3798   5.284   2.727   1.774
  967SOL     OW 3799   2.323   4.493   1.653
  967SOL    HW1 3800   2.374   4.458   1.732
  967SOL    HW2 3801   2.255   4.425   1.624
  968SOL     OW 3802   3.772   1.734   2.067
  968SOL    HW1 3803   3.758   1.690   2.156
  968SOL    HW2 3804   3.739   1.828   2.071
  969SOL     OW 3805   3.403   5.804   6.230
  969SOL    HW1 3806   3.399   5.737   6.304
  969SOL    HW2 3807   3.312   5.815   6.190
  970SOL     OW 3808   4.923   0.839   6.146
  970SOL    HW1 3809   4.994   0.769   6.136
  970SOL    HW2 3810   4.919   0.894   6.063
  971SOL     OW 3811   6.556   2.010   3.262
  971SOL    HW1 3812   6.483   2.045   3.203
  971SOL    HW2 3813   6.618   2.084   3.286
  972SOL     OW 3814   5.748   3.793   1.603
  972SOL    HW1 3815   5.810   3.714   1.605
  972SOL    HW2 3816   5.719   3.810   1.509
  973SOL     OW 3817   6.821   4.626   6.872
  973SOL    HW1 3818   6.857   4.695   6.936
  973SOL    HW2 3819   6.745   4.665   6.821
  974SOL     OW 3820   5.787   6.726   2.639
  974SOL    HW1 3821   5.697   6.770   2.630
  974SOL    HW2 3822   5.775   6.628   2.650
  975SOL     OW 3823   1.700   5.481   6.527
  975SOL    HW1 3824   1.742   5.552   6.583
  975SOL    HW2 3825   1.768   5.446   6.462
  976SOL     OW 3826   0.124   3.553   2.924
  976SOL    HW1 3827   0.208   3.552   2.979
  976SOL    HW2 3828   0.144   3.590   2.834
  977SOL     OW 3829   1.487   0.675   2.801
  977SOL    HW1 3830   1.400   0.697   2.757
  977SOL    HW2 3831   1.562   0.690   2.736
  978SOL     OW 3832   4.744   4.135   5.485
  978SOL    HW1 3833   4.734   4.103   5.390
  978SOL    HW2 3834   4.808   4.075   5.533
  979SOL     OW 3835   6.862   2.187   1.239
  979SOL    HW1 3836   6.878   2.235   1.152
  979SOL    HW2 3837   6.773   2.142   1.235
  980SOL     OW 3838   4.495   2.505   4.022
  980SOL    HW1 3839   4.474   2.407   4.027
  980SOL    HW2 3840   4.412   2.557   4.043
  981SOL     OW 3841   1.098   2.069   5.336
  981SOL    HW1 3842   1.075   1.974   5.317
  981SOL    HW2 3843   1.146   2.108   5.258
  982SOL     OW 3844   2.400   2.190   3.551
  982SOL    HW1 3845   2.334   2.165   3.480
  982SOL    HW2 3846   2.400   2.289   3.564
  983SOL     OW 3847   5.827   2.148   4.880
  983SOL    HW1 3848   5.883   2.181   4.804
  983SOL    HW2 3849   5.731   2.147   4.852
  984SOL     OW 3850   2.888   1.548   4.408
  984SOL    HW1 3851   2.826   1.611   4.361
  984SOL    HW2 3852   2.963   1.600   4.449
  985SOL     OW 3853   4.995   4.754   5.871
  985SOL    HW1 3854   4.971   4.820   5.800
  985SOL    HW2 3855   4.912   4.726   5.919
  986SOL     OW 3856   5.399   4.248   0.639
  986SOL    HW1 3857   5.354   4.232   0.727
  986SOL    HW2 3858   5.493   4.214   0.643
  987SOL     OW 3859   4.391   0.175   1.980
  987SOL    HW1 3860   4.302   0.135   1.958
  987SOL    HW2 3861   4.392   0.201   2.077
  988SOL     OW 3862   3.292   3.430   3.210
  988SOL    HW1 3863   3.330   3.337   3.211
  988SOL    HW2 3864   3.351   3.490   3.264
  989SOL     OW 3865   6.681   0.654   5.201
  989SOL    HW1 3866   6.662   0.699   5.114
  989SOL    HW2 3867   6.751   0.705   5.251
  990SOL     OW 3868   4.121   0.082   1.933
  990SOL    HW1 3869   4.074   0.031   2.006
  990SOL    HW2 3870   4.059   0.148   1.893
  991SOL     OW 3871   1.434   2.702   5.241
  991SOL    HW1 3872   1.374   2.623   5.248
  991SOL    HW2 3873   1.518   2.676   5.192
  992SOL     OW 3874   6.871   2.316   2.146
  992SOL    HW1 3875   6.780   2.356   2.159
  992SOL    HW2 3876   6.883   2.239   2.209
  993SOL     OW 3877   1.559   4.127   1.902
  993SOL    HW1 3878   1.499   4.049   1.886
  993SOL    HW2 3879   1.623   4.105   1.976
  994SOL     OW 3880   3.369   3.859   2.117
  994SOL    HW1 3881   3.269   3.854   2.120
  994SOL    HW2 3882   3.402   3.817   2.033
  995SOL     OW 3883   3.570   2.922   5.328
  995SOL    HW1 3884   3.589   2.908   5.425
  995SOL    HW2 3885   3.640   2.876   5.273
  996SOL     OW 3886   2.896   4.778   4.032
  996SOL    HW1 3887   2.901   4.732   4.120
  996SOL    HW2 3888   2.875   4.875   4.046
  997SOL     OW 3889   1.392   0.827   3.029
  997SOL    HW1 3890   1.425   0.785   2.944
  997SOL    HW2 3891   1.462   0.819   3.100
  998SOL     OW 3892   4.514   0.189   4.291
  998SOL    HW1 3893   4.580   0.159   4.360
  998SOL    HW2 3894   4.464   0.109   4.257
  999SOL     OW 3895   5.235   4.494   2.251
  999SOL    HW1 3896   5.318   4.438   2.245
  999SOL    HW2 3897   5.202   4.496   2.346
 1000SOL     OW 3898   2.089   1.056   2.216
 1000SOL    HW1 3899   2.062   1.013   2.303
 1000SOL    HW2 3900   2.187   1.076   2.218
 1001SOL     OW 3901   5.354   6.235   0.440
 1001SOL    HW1 3902   5.447   6.271   0.430
 1001SOL    HW2 3903   5.353   6.167   0.513
 1002SOL     OW 3904   6.099   1.797   0.532
 1002SOL    HW1 3905   6.067   1.744   0.611
 1002SOL    HW2 3906   6.195   1.774   0.514
 1003SOL     OW 3907   2.222   6.023   1.359
 1003SOL    HW1 3908   2.238   6.112   1.401
 1003SOL    HW2 3909   2.240   6.028   1.261
 1004SOL     OW 3910   0.363   0.534   1.988
 1004SOL    HW1 3911   0.354   0.605   1.918
 1004SOL    HW2 3912   0.439   0.557   2.049
 1005SOL     OW 3913   1.373   2.636   3.483
 1005SOL    HW1 3914   1.400   2.724   3.444
 1005SOL    HW2 3915   1.380   2.641   3.583
 1006SOL     OW 3916   1.520   4.681   1.148
 1006SOL    HW1 3917   1.613   4.666   1.182
 1006SOL    HW2 3918   1.499   4.615   1.077
 1007SOL     OW 3919   5.018   0.484   5.192
 1007SOL    HW1 3920   5.036   0.423   5.114
 1007SOL    HW2 3921   5.102   0.498   5.243
 1008SOL     OW 3922   1.730   2.817   4.907
 1008SOL    HW1 3923   1.797   2.777   4.970
 1008SOL    HW2 3924   1.653   2.854   4.959
 1009SOL     OW 3925   6.968   5.921   4.823
 1009SOL    HW1 3926   6.904   5.996   4.837
 1009SOL    HW2 3927   6.984   5.909   4.725
 1010SOL     OW 3928   3.463   2.490   6.022
 1010SOL    HW1 3929   3.482   2.446   5.934
 1010SOL    HW2 3930   3.441   2.420   6.090
 1011SOL     OW 3931   2.196   4.952   2.355
 1011SOL    HW1 3932   2.175   4.985   2.447
 1011SOL    HW2 3933   2.230   4.858   2.360
 1012SOL     OW 3934   6.380   0.725   1.476
 1012SOL    HW1 3935   6.444   0.753   1.547
 1012SOL    HW2 3936   6.347   0.806   1.427
 1013SOL     OW 3937   0.773   1.230   5.780
 1013SOL    HW1 3938   0.736   1.194   5.866
 1013SOL    HW2 3939   0.754   1.167   5.706
 1014SOL     OW 3940   5.222   5.676   6.794
 1014SOL    HW1 3941   5.190   5.748   6.856
 1014SOL    HW2 3942   5.145   5.643   6.739
 1015SOL     OW 3943   2.452   6.850   5.645
 1015SOL    HW1 3944   2.365   6.896   5.662
 1015SOL    HW2 3945   2.525   6.896   5.696
 1016SOL     OW 3946   3.857   3.626   6.823
 1016SOL    HW1 3947   3.778   3.614   6.763
 1016SOL    HW2 3948   3.941   3.622   6.769
 1017SOL     OW 3949   3.892   2.728   1.443
 1017SOL    HW1 3950   3.816   2.669   1.416
 1017SOL    HW2 3951   3.928   2.696   1.531
 1018SOL     OW 3952   0.747   3.404   4.090
 1018SOL    HW1 3953   0.750   3.457   4.006
 1018SOL    HW2 3954   0.796   3.318   4.077
 1019SOL     OW 3955   6.824   0.207   1.685
 1019SOL    HW1 3956   6.736   0.190   1.642
 1019SOL    HW2 3957   6.811   0.226   1.782
 1020SOL     OW 3958   1.070   6.915   1.194
 1020SOL    HW1 3959   0.970   6.908   1.194
 1020SOL    HW2 3960   1.102   6.924   1.100
 1021SOL     OW 3961   4.911   0.158   1.480
 1021SOL    HW1 3962   4.984   0.131   1.417
 1021SOL    HW2 3963   4.855   0.230   1.438
 1022SOL     OW 3964   3.702   5.050   5.953
 1022SOL    HW1 3965   3.713   5.030   6.050
 1022SOL    HW2 3966   3.791   5.053   5.909
 1023SOL     OW 3967   0.985   6.697   2.946
 1023SOL    HW1 3968   1.079   6.722   2.971
 1023SOL    HW2 3969   0.967   6.728   2.852
 1024SOL     OW 3970   0.108   2.898   4.158
 1024SOL    HW1 3971   0.140   2.940   4.073
 1024SOL    HW2 3972   0.174   2.916   4.231
 1025SOL     OW 3973   2.631   2.808   0.487
 1025SOL    HW1 3974   2.554   2.788   0.426
 1025SOL    HW2 3975   2.633   2.741   0.561
 1026SOL     OW 3976   2.593   2.602   1.416
 1026SOL    HW1 3977   2.580   2.595   1.514
 1026SOL    HW2 3978   2.626   2.694   1.393
 1027SOL     OW 3979   3.046   6.542   1.478
 1027SOL    HW1 3980   3.127   6.520   1.424
 1027SOL    HW2 3981   3.066   6.527   1.575
 1028SOL     OW 3982   2.988   6.167   0.446
 1028SOL    HW1 3983   2.967   6.258   0.411
 1028SOL    HW2 3984   2.905   6.125   0.483
 1029SOL     OW 3985   1.923   0.277   0.268
 1029SOL    HW1 3986   1.931   0.344   0.194
 1029SOL    HW2 3987   1.831   0.279   0.305
 1030SOL     OW 3988   3.196   3.544   1.813
 1030SOL    HW1 3989   3.115   3.562   1.757
 1030SOL    HW2 3990   3.169   3.497   1.897
 1031SOL     OW 3991   4.715   5.095   0.860
 1031SOL    HW1 3992   4.766   5.098   0.775
 1031SOL    HW2 3993   4.659   5.177   0.869
 1032SOL     OW 3994   2.224   1.847   4.787
 1032SOL    HW1 3995   2.310   1.813   4.825
 1032SOL    HW2 3996   2.158   1.859   4.861
 1033SOL     OW 3997   1.550   6.226   0.820
 1033SOL    HW1 3998   1.571   6.138   0.863
 1033SOL    HW2 3999   1.518   6.290   0.890
 1034SOL     OW 4000   0.451   5.696   5.121
 1034SOL    HW1 4001   0.413   5.633   5.190
 1034SOL    HW2 4002   0.425   5.790   5.144
 1035SOL     OW 4003   1.100   1.027   4.735
 1035SOL    HW1 4004   1.023   1.073   4.779
 1035SOL    HW2 4005   1.069   0.987   4.648
 1036SOL     OW 4006   3.202   0.973   2.051
 1036SOL    HW1 4007   3.238   0.945   1.962
 1036SOL    HW2 4008   3.272   0.958   2.121
 1037SOL     OW 4009   1.418   0.700   1.904
 1037SOL    HW1 4010   1.439   0.739   1.814
 1037SOL    HW2 4011   1.453   0.606   1.909
 1038SOL     OW 4012   1.531   0.049   5.636
 1038SOL    HW1 4013   1.467   0.124   5.653
 1038SOL    HW2 4014   1.568   0.016   5.723
 1039SOL     OW 4015   3.428   3.120   5.796
 1039SOL    HW1 4016   3.371   3.106   5.877
 1039SOL    HW2 4017   3.509   3.062   5.801
 1040SOL     OW 4018   4.699   2.761   2.827
 1040SOL    HW1 4019   4.799   2.767   2.833
 1040SOL    HW2 4020   4.671   2.767   2.732
 1041SOL     OW 4021   6.450   6.822   4.353
 1041SOL    HW1 4022   6.536   6.822   4.301
 1041SOL    HW2 4023   6.433   6.730   4.388
 1042SOL     OW 4024   4.220   4.976   2.380
 1042SOL    HW1 4025   4.231   4.890   2.431
 1042SOL    HW2 4026   4.272   5.048   2.425
 1043SOL     OW 4027   3.746   1.481   4.803
 1043SOL    HW1 4028   3.827   1.539   4.799
 1043SOL    HW2 4029   3.702   1.491   4.892
 1044SOL     OW 4030   5.012   4.291   2.248
 1044SOL    HW1 4031   4.917   4.272   2.226
 1044SOL    HW2 4032   5.070   4.263   2.171
 1045SOL     OW 4033   4.229   6.424   2.104
 1045SOL    HW1 4034   4.306   6.436   2.166
 1045SOL    HW2 4035   4.263   6.406   2.012
 1046SOL     OW 4036   1.050   0.353   0.420
 1046SOL    HW1 4037   1.050   0.447   0.384
 1046SOL    HW2 4038   0.957   0.327   0.446
 1047SOL     OW 4039   1.894   0.499   3.355
 1047SOL    HW1 4040   1.982   0.451   3.361
 1047SOL    HW2 4041   1.890   0.548   3.268
 1048SOL     OW 4042   5.836   6.228   4.566
 1048SOL    HW1 4043   5.806   6.146   4.615
 1048SOL    HW2 4044   5.769   6.252   4.496
 1049SOL     OW 4045   6.605   5.470   4.345
 1049SOL    HW1 4046   6.525   5.412   4.332
 1049SOL    HW2 4047   6.587   5.561   4.308
 1050SOL     OW 4048   4.365   5.231   1.183
 1050SOL    HW1 4049   4.405   5.241   1.092
 1050SOL    HW2 4050   4.265   5.233   1.176
 1051SOL     OW 4051   2.256   6.012   1.091
 1051SOL    HW1 4052   2.187   5.985   1.024
 1051SOL    HW2 4053   2.276   6.109   1.081
 1052SOL     OW 4054   3.963   0.654   4.667
 1052SOL    HW1 4055   3.876   0.653   4.717
 1052SOL    HW2 4056   4.007   0.565   4.675
 1053SOL     OW 4057   6.070   4.871   3.036
 1053SOL    HW1 4058   6.160   4.827   3.034
 1053SOL    HW2 4059   5.999   4.801   3.045
 1054SOL     OW 4060   2.514   3.994   5.891
 1054SOL    HW1 4061   2.599   3.966   5.936
 1054SOL    HW2 4062   2.527   3.991   5.791
 1055SOL     OW 4063   5.055   6.604   4.264
 1055SOL    HW1 4064   5.035   6.606   4.362
 1055SOL    HW2 4065   5.090   6.693   4.236
 1056SOL     OW 4066   2.041   4.979   5.810
 1056SOL    HW1 4067   2.008   4.974   5.715
 1056SOL    HW2 4068   2.141   4.985   5.810
 1057SOL     OW 4069   3.239   3.126   2.483
 1057SOL    HW1 4070   3.258   3.219   2.454
 1057SOL    HW2 4071   3.277   3.061   2.417
 1058SOL     OW 4072   4.529   1.344   3.421
 1058SOL    HW1 4073   4.537   1.314   3.516
 1058SOL    HW2 4074   4.513   1.265   3.362
 1059SOL     OW 4075   2.135   0.040   1.168
 1059SOL    HW1 4076   2.161   0.020   1.262
 1059SOL    HW2 4077   2.175   0.127   1.139
 1060SOL     OW 4078   7.008   4.404   4.351
 1060SOL    HW1 4079   0.033   4.326   4.313
 1060SOL    HW2 4080   6.915   4.377   4.376
 1061SOL     OW 4081   5.564   3.836   1.359
 1061SOL    HW1 4082   5.638   3.798   1.302
 1061SOL    HW2 4083   5.521   3.763   1.411
 1062SOL     OW 4084   5.859   3.609   6.551
 1062SOL    HW1 4085   5.796   3.637   6.479
 1062SOL    HW2 4086   5.913   3.688   6.581
 1063SOL     OW 4087   1.969   4.685   1.725
 1063SOL    HW1 4088   1.942   4.691   1.629
 1063SOL    HW2 4089   2.035   4.757   1.746
 1064SOL     OW 4090   1.995   3.870   1.892
 1064SOL    HW1 4091   2.090   3.898   1.907
 1064SOL    HW2 4092   1.965   3.904   1.803
 1065SOL     OW 4093   4.261   6.844   3.979
 1065SOL    HW1 4094   4.293   6.936   3.956
 1065SOL    HW2 4095   4.337   6.780   3.971
 1066SOL     OW 4096   4.693   0.406   3.867
 1066SOL    HW1 4097   4.714   0.504   3.862
 1066SOL    HW2 4098   4.708   0.374   3.961
 1067SOL     OW 4099   0.635   3.242   0.957
 1067SOL    HW1 4100   0.624   3.242   1.057
 1067SOL    HW2 4101   0.663   3.151   0.927
 1068SOL     OW 4102   5.526   4.859   2.813
 1068SOL    HW1 4103   5.580   4.775   2.810
 1068SOL    HW2 4104   5.577   4.933   2.769
 1069SOL     OW 4105   4.711   4.682   0.994
 1069SOL    HW1 4106   4.683   4.680   1.091
 1069SOL    HW2 4107   4.809   4.696   0.988
 1070SOL     OW 4108   0.083   0.179   2.342
 1070SOL    HW1 4109   0.046   0.138   2.425
 1070SOL    HW2 4110   0.124   0.268   2.364
 1071SOL     OW 4111   1.699   0.116   3.330
 1071SOL    HW1 4112   1.703   0.190   3.398
 1071SOL    HW2 4113   1.703   0.156   3.238
 1072SOL     OW 4114   1.751   0.556   0.952
 1072SOL    HW1 4115   1.709   0.638   0.913
 1072SOL    HW2 4116   1.849   0.570   0.963
 1073SOL     OW 4117   4.677   6.842   1.776
 1073SOL    HW1 4118   4.758   6.873   1.727
 1073SOL    HW2 4119   4.600   6.833   1.712
 1074SOL     OW 4120   2.701   5.223   0.728
 1074SOL    HW1 4121   2.788   5.242   0.773
 1074SOL    HW2 4122   2.657   5.309   0.702
 1075SOL     OW 4123   4.529   6.891   4.186
 1075SOL    HW1 4124   4.453   6.953   4.170
 1075SOL    HW2 4125   4.496   6.796   4.186
 1076SOL     OW 4126   6.547   3.619   5.609
 1076SOL    HW1 4127   6.638   3.620   5.651
 1076SOL    HW2 4128   6.500   3.534   5.634
 1077SOL     OW 4129   5.350   0.311   0.996
 1077SOL    HW1 4130   5.316   0.341   0.907
 1077SOL    HW2 4131   5.349   0.388   1.060
 1078SOL     OW 4132   0.946   1.612   2.306
 1078SOL    HW1 4133   0.958   1.612   2.207
 1078SOL    HW2 4134   0.853   1.583   2.329
 1079SOL     OW 4135   1.845   6.137   2.160
 1079SOL    HW1 4136   1.941   6.113   2.163
 1079SOL    HW2 4137   1.799   6.083   2.089
 1080SOL     OW 4138   1.461   4.496   3.639
 1080SOL    HW1 4139   1.432   4.567   3.702
 1080SOL    HW2 4140   1.414   4.411   3.660
 1081SOL     OW 4141   0.334   6.181   6.384
 1081SOL    HW1 4142   0.307   6.121   6.308
 1081SOL    HW2 4143   0.433   6.183   6.391
 1082SOL     OW 4144   3.848   1.972   5.535
 1082SOL    HW1 4145   3.848   1.885   5.585
 1082SOL    HW2 4146   3.798   1.961   5.449
 1083SOL     OW 4147   4.165   4.004   0.601
 1083SOL    HW1 4148   4.168   3.950   0.516
 1083SOL    HW2 4149   4.200   4.095   0.583
 1084SOL     OW 4150   6.207   5.737   0.275
 1084SOL    HW1 4151   6.185   5.828   0.242
 1084SOL    HW2 4152   6.275   5.695   0.214
 1085SOL     OW 4153   1.151   3.740   4.158
 1085SOL    HW1 4154   1.203   3.806   4.104
 1085SOL    HW2 4155   1.199   3.722   4.244
 1086SOL     OW 4156   6.372   6.396   1.504
 1086SOL    HW1 4157   6.288   6.423   1.457
 1086SOL    HW2 4158   6.429   6.476   1.520
 1087SOL     OW 4159   6.013   2.756   5.445
 1087SOL    HW1 4160   6.032   2.709   5.358
 1087SOL    HW2 4161   6.098   2.797   5.479
 1088SOL     OW 4162   6.535   4.401   3.554
 1088SOL    HW1 4163   6.471   4.439   3.486
 1088SOL    HW2 4164   6.581   4.321   3.516
 1089SOL     OW 4165   1.485   6.354   4.435
 1089SOL    HW1 4166   1.562   6.296   4.410
 1089SOL    HW2 4167   1.413   6.345   4.366
 1090SOL     OW 4168   2.222   1.694   3.553
 1090SOL    HW1 4169   2.262   1.621   3.608
 1090SOL    HW2 4170   2.164   1.654   3.482
 1091SOL     OW 4171   2.467   2.576   5.510
 1091SOL    HW1 4172   2.444   2.478   5.514
 1091SOL    HW2 4173   2.520   2.594   5.428
 1092SOL     OW 4174   1.701   4.157   0.851
 1092SOL    HW1 4175   1.705   4.193   0.944
 1092SOL    HW2 4176   1.792   4.161   0.810
 1093SOL     OW 4177   1.221   1.774   2.190
 1093SOL    HW1 4178   1.314   1.787   2.155
 1093SOL    HW2 4179   1.221   1.699   2.256
 1094SOL     OW 4180   0.953   6.471   3.751
 1094SOL    HW1 4181   0.873   6.527   3.733
 1094SOL    HW2 4182   0.983   6.429   3.665
 1095SOL     OW 4183   0.598   2.858   6.503
 1095SOL    HW1 4184   0.505   2.872   6.537
 1095SOL    HW2 4185   0.660   2.843   6.580
 1096SOL     OW 4186   3.302   4.379   1.608
 1096SOL    HW1 4187   3.373   4.312   1.627
 1096SOL    HW2 4188   3.338   4.451   1.550
 1097SOL     OW 4189   2.151   4.200   4.376
 1097SOL    HW1 4190   2.170   4.106   4.404
 1097SOL    HW2 4191   2.066   4.203   4.322
 1098SOL     OW 4192   4.544   3.469   0.712
 1098SOL    HW1 4193   4.459   3.475   0.765
 1098SOL    HW2 4194   4.612   3.416   0.763
 1099SOL     OW 4195   4.226   1.622   5.108
 1099SOL    HW1 4196   4.196   1.717   5.102
 1099SOL    HW2 4197   4.152   1.565   5.143
 1100SOL     OW 4198   3.255   1.934   6.233
 1100SOL    HW1 4199   3.305   1.999   6.290
 1100SOL    HW2 4200   3.319   1.875   6.185
 1101SOL     OW 4201   6.130   2.036   0.414
 1101SOL    HW1 4202   6.067   2.094   0.361
 1101SOL    HW2 4203   6.080   1.959   0.453
 1102SOL     OW 4204   0.823   5.718   4.265
 1102SOL    HW1 4205   0.738   5.738   4.313
 1102SOL    HW2 4206   0.804   5.657   4.187
 1103SOL     OW 4207   3.598   2.195   0.891
 1103SOL    HW1 4208   3.621   2.290   0.870
 1103SOL    HW2 4209   3.510   2.172   0.851
 1104SOL     OW 4210   2.316   3.446   5.215
 1104SOL    HW1 4211   2.339   3.525   5.272
 1104SOL    HW2 4212   2.325   3.362   5.268
 1105SOL     OW 4213   6.433   3.862   5.062
 1105SOL    HW1 4214   6.446   3.915   5.146
 1105SOL    HW2 4215   6.514   3.872   5.003
 1106SOL     OW 4216   1.013   2.044   1.606
 1106SOL    HW1 4217   0.974   2.125   1.561
 1106SOL    HW2 4218   1.110   2.059   1.625
 1107SOL     OW 4219   2.434   0.391   6.550
 1107SOL    HW1 4220   2.376   0.398   6.468
 1107SOL    HW2 4221   2.490   0.474   6.558
 1108SOL     OW 4222   3.603   0.748   5.515
 1108SOL    HW1 4223   3.650   0.829   5.481
 1108SOL    HW2 4224   3.544   0.772   5.592
 1109SOL     OW 4225   4.988   6.984   4.613
 1109SOL    HW1 4226   4.985   0.012   4.527
 1109SOL    HW2 4227   5.038   0.014   4.682
 1110SOL     OW 4228   2.592   2.137   3.206
 1110SOL    HW1 4229   2.609   2.069   3.278
 1110SOL    HW2 4230   2.623   2.100   3.118
 1111SOL     OW 4231   5.197   5.155   6.101
 1111SOL    HW1 4232   5.159   5.186   6.013
 1111SOL    HW2 4233   5.294   5.179   6.106
 1112SOL     OW 4234   5.226   1.332   2.284
 1112SOL    HW1 4235   5.233   1.347   2.186
 1112SOL    HW2 4236   5.311   1.291   2.318
 1113SOL     OW 4237   6.971   3.508   2.503
 1113SOL    HW1 4238   0.009   3.429   2.501
 1113SOL    HW2 4239   6.878   3.479   2.479
 1114SOL     OW 4240   4.167   2.232   6.241
 1114SOL    HW1 4241   4.225   2.168   6.291
 1114SOL    HW2 4242   4.090   2.258   6.299
 1115SOL     OW 4243   4.404   3.515   0.387
 1115SOL    HW1 4244   4.373   3.606   0.357
 1115SOL    HW2 4245   4.461   3.525   0.468
 1116SOL     OW 4246   5.400   6.275   5.132
 1116SOL    HW1 4247   5.456   6.357   5.148
 1116SOL    HW2 4248   5.406   6.250   5.035
 1117SOL     OW 4249   1.265   2.395   1.549
 1117SOL    HW1 4250   1.301   2.322   1.491
 1117SOL    HW2 4251   1.181   2.431   1.508
 1118SOL     OW 4252   2.543   4.296   1.390
 1118SOL    HW1 4253   2.498   4.374   1.347
 1118SOL    HW2 4254   2.576   4.323   1.481
 1119SOL     OW 4255   4.247   4.109   0.273
 1119SOL    HW1 4256   4.166   4.145   0.225
 1119SOL    HW2 4257   4.295   4.045   0.213
 1120SOL     OW 4258   6.086   0.028   4.844
 1120SOL    HW1 4259   6.022   0.040   4.769
 1120SOL    HW2 4260   6.111   0.117   4.881
 1121SOL     OW 4261   4.761   5.163   2.867
 1121SOL    HW1 4262   4.763   5.144   2.769
 1121SOL    HW2 4263   4.809   5.091   2.916
 1122SOL     OW 4264   4.924   3.509   6.891
 1122SOL    HW1 4265   4.891   3.428   6.843
 1122SOL    HW2 4266   4.847   3.568   6.914
 1123SOL     OW 4267   5.367   1.321   3.417
 1123SOL    HW1 4268   5.309   1.297   3.339
 1123SOL    HW2 4269   5.338   1.269   3.497
 1124SOL     OW 4270   6.519   4.004   5.384
 1124SOL    HW1 4271   6.451   4.016   5.456
 1124SOL    HW2 4272   6.540   3.907   5.373
 1125SOL     OW 4273   3.128   1.382   5.114
 1125SOL    HW1 4274   3.184   1.413   5.037
 1125SOL    HW2 4275   3.056   1.321   5.081
 1126SOL     OW 4276   5.775   5.331   6.600
 1126SOL    HW1 4277   5.732   5.308   6.687
 1126SOL    HW2 4278   5.858   5.277   6.588
 1127SOL     OW 4279   4.721   5.107   4.308
 1127SOL    HW1 4280   4.776   5.025   4.317
 1127SOL    HW2 4281   4.624   5.083   4.310
 1128SOL     OW 4282   5.676   2.035   5.749
 1128SOL    HW1 4283   5.739   1.968   5.710
 1128SOL    HW2 4284   5.582   2.003   5.737
 1129SOL     OW 4285   3.348   0.393   6.831
 1129SOL    HW1 4286   3.303   0.442   6.757
 1129SOL    HW2 4287   3.385   0.307   6.797
 1130SOL     OW 4288   2.215   4.874   0.508
 1130SOL    HW1 4289   2.228   4.835   0.599
 1130SOL    HW2 4290   2.301   4.872   0.458
 1131SOL     OW 4291   0.337   6.484   6.390
 1131SOL    HW1 4292   0.319   6.392   6.356
 1131SOL    HW2 4293   0.304   6.493   6.484
 1132SOL     OW 4294   5.121   0.222   1.232
 1132SOL    HW1 4295   5.075   0.226   1.143
 1132SOL    HW2 4296   5.204   0.168   1.223
 1133SOL     OW 4297   1.035   0.377   1.239
 1133SOL    HW1 4298   0.955   0.342   1.190
 1133SOL    HW2 4299   1.009   0.457   1.293
 1134SOL     OW 4300   5.001   1.430   1.689
 1134SOL    HW1 4301   4.974   1.452   1.596
 1134SOL    HW2 4302   5.063   1.501   1.723
 1135SOL     OW 4303   2.156   1.408   2.700
 1135SOL    HW1 4304   2.088   1.481   2.709
 1135SOL    HW2 4305   2.115   1.321   2.727
 1136SOL     OW 4306   3.074   4.993   4.675
 1136SOL    HW1 4307   3.032   5.004   4.765
 1136SOL    HW2 4308   3.161   4.946   4.683
 1137SOL     OW 4309   1.465   1.245   5.883
 1137SOL    HW1 4310   1.420   1.333   5.894
 1137SOL    HW2 4311   1.437   1.184   5.957
 1138SOL     OW 4312   0.669   1.488   6.744
 1138SOL    HW1 4313   0.731   1.413   6.766
 1138SOL    HW2 4314   0.720   1.562   6.699
 1139SOL     OW 4315   3.304   5.687   1.513
 1139SOL    HW1 4316   3.400   5.711   1.497
 1139SOL    HW2 4317   3.255   5.768   1.547
 1140SOL     OW 4318   4.100   0.899   1.994
 1140SOL    HW1 4319   4.093   0.823   2.059
 1140SOL    HW2 4320   4.024   0.962   2.009
 1141SOL     OW 4321   0.493   6.839   6.221
 1141SOL    HW1 4322   0.564   6.802   6.281
 1141SOL    HW2 4323   0.519   6.931   6.190
 1142SOL     OW 4324   2.720   0.009   4.597
 1142SOL    HW1 4325   2.692   6.987   4.681
 1142SOL    HW2 4326   2.714   6.968   4.520
 1143SOL     OW 4327   1.604   3.581   2.494
 1143SOL    HW1 4328   1.536   3.549   2.561
 1143SOL    HW2 4329   1.610   3.515   2.419
 1144SOL     OW 4330   6.594   4.945   5.411
 1144SOL    HW1 4331   6.675   4.927   5.356
 1144SOL    HW2 4332   6.536   5.011   5.365
 1145SOL     OW 4333   0.150   4.044   2.309
 1145SOL    HW1 4334   0.155   4.007   2.216
 1145SOL    HW2 4335   0.215   4.119   2.319
 1146SOL     OW 4336   6.146   0.788   1.903
 1146SOL    HW1 4337   6.110   0.782   1.809
 1146SOL    HW2 4338   6.237   0.828   1.901
 1147SOL     OW 4339   1.650   5.352   1.231
 1147SOL    HW1 4340   1.733   5.304   1.262
 1147SOL    HW2 4341   1.570   5.313   1.278
 1148SOL     OW 4342   5.084   7.008   0.172
 1148SOL    HW1 4343   5.016   6.965   0.113
 1148SOL    HW2 4344   5.174   6.999   0.130
 1149SOL     OW 4345   6.319   4.203   2.472
 1149SOL    HW1 4346   6.389   4.232   2.406
 1149SOL    HW2 4347   6.334   4.107   2.497
 1150SOL     OW 4348   2.631   4.072   0.381
 1150SOL    HW1 4349   2.652   4.032   0.292
 1150SOL    HW2 4350   2.595   4.002   0.442
 1151SOL     OW 4351   4.032   5.070   6.691
 1151SOL    HW1 4352   4.037   4.974   6.717
 1151SOL    HW2 4353   4.122   5.101   6.659
 1152SOL     OW 4354   6.552   5.401   5.987
 1152SOL    HW1 4355   6.460   5.362   5.985
 1152SOL    HW2 4356   6.574   5.432   6.079
 1153SOL     OW 4357   2.387   0.030   2.213
 1153SOL    HW1 4358   2.296   7.010   2.211
 1153SOL    HW2 4359   2.417   0.048   2.119
 1154SOL     OW 4360   0.944   4.177   1.623
 1154SOL    HW1 4361   0.929   4.269   1.587
 1154SOL    HW2 4362   0.965   4.115   1.547
 1155SOL     OW 4363   2.099   5.461   6.775
 1155SOL    HW1 4364   2.186   5.509   6.774
 1155SOL    HW2 4365   2.107   5.377   6.721
 1156SOL     OW 4366   2.988   1.054   4.754
 1156SOL    HW1 4367   2.912   1.015   4.701
 1156SOL    HW2 4368   3.018   1.140   4.713
 1157SOL     OW 4369   5.964   0.633   5.268
 1157SOL    HW1 4370   5.906   0.691   5.323
 1157SOL    HW2 4371   5.997   0.684   5.189
 1158SOL     OW 4372   0.097   6.229   5.375
 1158SOL    HW1 4373   0.012   6.224   5.428
 1158SOL    HW2 4374   0.076   6.223   5.277
 1159SOL     OW 4375   5.995   6.550   4.339
 1159SOL    HW1 4376   5.925   6.604   4.387
 1159SOL    HW2 4377   5.950   6.486   4.276
 1160SOL     OW 4378   3.727   3.414   1.074
 1160SOL    HW1 4379   3.656   3.464   1.122
 1160SOL    HW2 4380   3.772   3.474   1.008
 1161SOL     OW 4381   6.195   0.452   6.610
 1161SOL    HW1 4382   6.233   0.539   6.642
 1161SOL    HW2 4383   6.268   0.395   6.573
 1162SOL     OW 4384   2.482   2.054   6.296
 1162SOL    HW1 4385   2.520   2.012   6.379
 1162SOL    HW2 4386   2.522   2.144   6.283
 1163SOL     OW 4387   6.707   3.300   1.331
 1163SOL    HW1 4388   6.698   3.392   1.292
 1163SOL    HW2 4389   6.618   3.254   1.328
 1164SOL     OW 4390   5.318   2.784   5.046
 1164SOL    HW1 4391   5.308   2.846   5.125
 1164SOL    HW2 4392   5.231   2.779   4.997
 1165SOL     OW 4393   2.760   4.679   3.790
 1165SOL    HW1 4394   2.810   4.711   3.870
 1165SOL    HW2 4395   2.792   4.727   3.709
 1166SOL     OW 4396   4.053   6.830   0.002
 1166SOL    HW1 4397   4.020   6.851   0.094
 1166SOL    HW2 4398   4.056   6.731   7.012
 1167SOL     OW 4399   4.453   6.504   6.524
 1167SOL    HW1 4400   4.551   6.523   6.537
 1167SOL    HW2 4401   4.427   6.426   6.581
 1168SOL     OW 4402   5.626   1.689   4.070
 1168SOL    HW1 4403   5.717   1.726   4.051
 1168SOL    HW2 4404   5.608   1.693   4.168
 1169SOL     OW 4405   5.409   2.309   5.995
 1169SOL    HW1 4406   5.335   2.312   6.062
 1169SOL    HW2 4407   5.377   2.264   5.912
 1170SOL     OW 4408   5.337   1.219   2.834
 1170SOL    HW1 4409   5.313   1.230   2.931
 1170SOL    HW2 4410   5.372   1.126   2.819
 1171SOL     OW 4411   3.056   6.191   0.127
 1171SOL    HW1 4412   3.135   6.132   0.108
 1171SOL    HW2 4413   3.022   6.171   0.219
 1172SOL     OW 4414   3.452   4.130   1.984
 1172SOL    HW1 4415   3.385   4.144   1.911
 1172SOL    HW2 4416   3.407   4.089   2.063
 1173SOL     OW 4417   3.641   0.426   6.178
 1173SOL    HW1 4418   3.662   0.463   6.268
 1173SOL    HW2 4419   3.687   0.480   6.107
 1174SOL     OW 4420   3.196   3.944   6.847
 1174SOL    HW1 4421   3.295   3.951   6.835
 1174SOL    HW2 4422   3.175   3.933   6.944
 1175SOL     OW 4423   3.960   3.418   6.531
 1175SOL    HW1 4424   3.993   3.504   6.571
 1175SOL    HW2 4425   4.025   3.387   6.462
 1176SOL     OW 4426   5.985   4.640   0.277
 1176SOL    HW1 4427   5.915   4.706   0.305
 1176SOL    HW2 4428   6.075   4.672   0.305
 1177SOL     OW 4429   6.711   1.803   6.271
 1177SOL    HW1 4430   6.674   1.820   6.180
 1177SOL    HW2 4431   6.731   1.705   6.281
 1178SOL     OW 4432   3.375   3.340   1.435
 1178SOL    HW1 4433   3.337   3.271   1.497
 1178SOL    HW2 4434   3.301   3.383   1.384
 1179SOL     OW 4435   3.039   6.491   0.625
 1179SOL    HW1 4436   3.128   6.490   0.580
 1179SOL    HW2 4437   3.019   6.400   0.662
 1180SOL     OW 4438   2.518   5.777   3.834
 1180SOL    HW1 4439   2.513   5.714   3.757
 1180SOL    HW2 4440   2.438   5.765   3.893
 1181SOL     OW 4441   0.116   2.870   5.074
 1181SOL    HW1 4442   0.098   2.845   5.170
 1181SOL    HW2 4443   0.030   2.883   5.026
 1182SOL     OW 4444   3.206   5.280   3.554
 1182SOL    HW1 4445   3.126   5.337   3.573
 1182SOL    HW2 4446   3.262   5.322   3.483
 1183SOL     OW 4447   3.839   6.104   1.794
 1183SOL    HW1 4448   3.753   6.128   1.838
 1183SOL    HW2 4449   3.837   6.132   1.698
 1184SOL     OW 4450   4.964   6.967   6.730
 1184SOL    HW1 4451   5.010   0.032   6.734
 1184SOL    HW2 4452   4.866   6.981   6.720
 1185SOL     OW 4453   0.874   0.716   1.083
 1185SOL    HW1 4454   0.959   0.717   1.032
 1185SOL    HW2 4455   0.809   0.652   1.040
 1186SOL     OW 4456   5.718   6.287   6.094
 1186SOL    HW1 4457   5.808   6.294   6.050
 1186SOL    HW2 4458   5.672   6.375   6.090
 1187SOL     OW 4459   5.827   6.853   5.222
 1187SOL    HW1 4460   5.751   6.901   5.177
 1187SOL    HW2 4461   5.803   6.833   5.317
 1188SOL     OW 4462   3.767   5.951   6.032
 1188SOL    HW1 4463   3.771   5.995   5.942
 1188SOL    HW2 4464   3.678   5.968   6.073
 1189SOL     OW 4465   6.250   0.564   2.102
 1189SOL    HW1 4466   6.179   0.625   2.065
 1189SOL    HW2 4467   6.312   0.617   2.160
 1190SOL     OW 4468   3.421   5.348   3.381
 1190SOL    HW1 4469   3.426   5.428   3.321
 1190SOL    HW2 4470   3.426   5.264   3.326
 1191SOL     OW 4471   3.073   6.173   4.334
 1191SOL    HW1 4472   3.025   6.105   4.389
 1191SOL    HW2 4473   3.076   6.261   4.383
 1192SOL     OW 4474   5.397   6.208   2.982
 1192SOL    HW1 4475   5.342   6.258   3.049
 1192SOL    HW2 4476   5.365   6.114   2.976
 1193SOL     OW 4477   0.523   0.738   5.516
 1193SOL    HW1 4478   0.470   0.660   5.483
 1193SOL    HW2 4479   0.620   0.721   5.502
 1194SOL     OW 4480   0.139   1.624   1.046
 1194SOL    HW1 4481   0.093   1.668   1.123
 1194SOL    HW2 4482   0.070   1.594   0.979
 1195SOL     OW 4483   6.378   3.848   1.034
 1195SOL    HW1 4484   6.349   3.755   1.014
 1195SOL    HW2 4485   6.422   3.887   0.953
 1196SOL     OW 4486   5.789   4.560   2.623
 1196SOL    HW1 4487   5.753   4.544   2.531
 1196SOL    HW2 4488   5.847   4.484   2.650
 1197SOL     OW 4489   4.740   6.570   4.338
 1197SOL    HW1 4490   4.673   6.506   4.378
 1197SOL    HW2 4491   4.793   6.522   4.268
 1198SOL     OW 4492   1.107   3.670   2.664
 1198SOL    HW1 4493   1.011   3.697   2.653
 1198SOL    HW2 4494   1.164   3.724   2.602
 1199SOL     OW 4495   3.756   3.598   2.777
 1199SOL    HW1 4496   3.785   3.527   2.841
 1199SOL    HW2 4497   3.834   3.629   2.723
 1200SOL     OW 4498   4.018   3.893   4.056
 1200SOL    HW1 4499   4.031   3.826   3.983
 1200SOL    HW2 4500   4.098   3.954   4.059
 1201SOL     OW 4501   0.073   1.205   4.452
 1201SOL    HW1 4502   0.032   1.205   4.543
 1201SOL    HW2 4503   0.172   1.220   4.460
 1202SOL     OW 4504   6.514   0.233   5.954
 1202SOL    HW1 4505   6.597   0.194   5.916
 1202SOL    HW2 4506   6.435   0.200   5.902
 1203SOL     OW 4507   0.228   6.776   1.196
 1203SOL    HW1 4508   0.215   6.726   1.282
 1203SOL    HW2 4509   0.212   6.715   1.119
 1204SOL     OW 4510   4.654   1.700   1.801
 1204SOL    HW1 4511   4.675   1.656   1.714
 1204SOL    HW2 4512   4.620   1.632   1.866
 1205SOL     OW 4513   3.734   3.340   7.005
 1205SOL    HW1 4514   3.691   3.266   0.032
 1205SOL    HW2 4515   3.829   3.315   6.983
 1206SOL     OW 4516   1.176   3.131   4.521
 1206SOL    HW1 4517   1.271   3.155   4.541
 1206SOL    HW2 4518   1.136   3.084   4.600
 1207SOL     OW 4519   0.354   0.743   0.449
 1207SOL    HW1 4520   0.398   0.825   0.486
 1207SOL    HW2 4521   0.256   0.746   0.468
 1208SOL     OW 4522   3.488   3.522   1.178
 1208SOL    HW1 4523   3.531   3.554   1.263
 1208SOL    HW2 4524   3.391   3.507   1.193
 1209SOL     OW 4525   5.578   0.520   4.243
 1209SOL    HW1 4526   5.608   0.503   4.149
 1209SOL    HW2 4527   5.656   0.515   4.305
 1210SOL     OW 4528   4.864   6.608   3.667
 1210SOL    HW1 4529   4.933   6.538   3.649
 1210SOL    HW2 4530   4.873   6.682   3.600
 1211SOL     OW 4531   0.893   3.169   2.990
 1211SOL    HW1 4532   0.854   3.220   2.914
 1211SOL    HW2 4533   0.872   3.215   3.076
 1212SOL     OW 4534   6.617   0.925   5.946
 1212SOL    HW1 4535   6.717   0.923   5.956
 1212SOL    HW2 4536   6.576   0.954   6.032
 1213SOL     OW 4537   5.498   1.888   2.736
 1213SOL    HW1 4538   5.485   1.931   2.647
 1213SOL    HW2 4539   5.581   1.925   2.779
 1214SOL     OW 4540   0.501   2.558   6.456
 1214SOL    HW1 4541   0.566   2.517   6.520
 1214SOL    HW2 4542   0.451   2.631   6.501
 1215SOL     OW 4543   2.158   4.912   2.657
 1215SOL    HW1 4544   2.149   4.994   2.713
 1215SOL    HW2 4545   2.071   4.895   2.610
 1216SOL     OW 4546   6.510   1.656   0.886
 1216SOL    HW1 4547   6.443   1.725   0.912
 1216SOL    HW2 4548   6.506   1.579   0.950
 1217SOL     OW 4549   2.769   4.812   0.447
 1217SOL    HW1 4550   2.774   4.784   0.351
 1217SOL    HW2 4551   2.723   4.901   0.453
 1218SOL     OW 4552   1.439   3.584   5.562
 1218SOL    HW1 4553   1.383   3.628   5.492
 1218SOL    HW2 4554   1.440   3.486   5.547
 1219SOL     OW 4555   5.330   5.613   1.332
 1219SOL    HW1 4556   5.303   5.541   1.396
 1219SOL    HW2 4557   5.265   5.616   1.255
 1220SOL     OW 4558   6.850   3.706   2.352
 1220SOL    HW1 4559   6.832   3.768   2.428
 1220SOL    HW2 4560   6.907   3.630   2.382
 1221SOL     OW 4561   5.665   3.404   6.190
 1221SOL    HW1 4562   5.567   3.411   6.173
 1221SOL    HW2 4563   5.700   3.317   6.154
 1222SOL     OW 4564   0.498   1.143   6.883
 1222SOL    HW1 4565   0.436   1.110   6.812
 1222SOL    HW2 4566   0.491   1.083   6.963
 1223SOL     OW 4567   3.583   1.448   0.407
 1223SOL    HW1 4568   3.532   1.491   0.482
 1223SOL    HW2 4569   3.631   1.368   0.443
 1224SOL     OW 4570   3.376   5.746   6.678
 1224SOL    HW1 4571   3.419   5.832   6.651
 1224SOL    HW2 4572   3.319   5.761   6.758
 1225SOL     OW 4573   4.107   2.829   0.068
 1225SOL    HW1 4574   4.113   2.807   6.994
 1225SOL    HW2 4575   4.178   2.895   0.092
 1226SOL     OW 4576   3.952   6.087   0.648
 1226SOL    HW1 4577   3.874   6.100   0.710
 1226SOL    HW2 4578   3.926   6.115   0.556
 1227SOL     OW 4579   4.985   5.697   5.713
 1227SOL    HW1 4580   5.049   5.681   5.788
 1227SOL    HW2 4581   4.958   5.610   5.673
 1228SOL     OW 4582   3.474   2.420   6.473
 1228SOL    HW1 4583   3.484   2.393   6.378
 1228SOL    HW2 4584   3.399   2.368   6.515
 1229SOL     OW 4585   1.494   5.208   0.187
 1229SOL    HW1 4586   1.593   5.202   0.202
 1229SOL    HW2 4587   1.467   5.140   0.119
 1230SOL     OW 4588   5.971   5.844   2.158
 1230SOL    HW1 4589   5.899   5.800   2.211
 1230SOL    HW2 4590   6.060   5.817   2.195
 1231SOL     OW 4591   1.757   1.796   5.517
 1231SOL    HW1 4592   1.775   1.811   5.420
 1231SOL    HW2 4593   1.676   1.847   5.544
 1232SOL     OW 4594   6.606   1.510   4.991
 1232SOL    HW1 4595   6.610   1.579   4.918
 1232SOL    HW2 4596   6.514   1.472   4.995
 1233SOL     OW 4597   0.585   5.606   4.380
 1233SOL    HW1 4598   0.516   5.586   4.450
 1233SOL    HW2 4599   0.541   5.641   4.298
 1234SOL     OW 4600   6.165   2.129   5.238
 1234SOL    HW1 4601   6.245   2.097   5.289
 1234SOL    HW2 4602   6.192   2.152   5.145
 1235SOL     OW 4603   6.113   4.874   1.622
 1235SOL    HW1 4604   6.181   4.865   1.695
 1235SOL    HW2 4605   6.036   4.928   1.655
 1236SOL     OW 4606   4.364   1.308   1.829
 1236SOL    HW1 4607   4.337   1.239   1.763
 1236SOL    HW2 4608   4.288   1.369   1.848
 1237SOL     OW 4609   1.227   4.752   5.128
 1237SOL    HW1 4610   1.305   4.812   5.107
 1237SOL    HW2 4611   1.255   4.683   5.194
 1238SOL     OW 4612   1.146   0.476   6.030
 1238SOL    HW1 4613   1.076   0.408   6.051
 1238SOL    HW2 4614   1.120   0.526   5.947
 1239SOL     OW 4615   0.302   0.117   6.092
 1239SOL    HW1 4616   0.263   0.027   6.112
 1239SOL    HW2 4617   0.388   0.128   6.141
 1240SOL     OW 4618   5.762   5.924   1.177
 1240SOL    HW1 4619   5.759   5.968   1.087
 1240SOL    HW2 4620   5.843   5.955   1.226
 1241SOL     OW 4621   6.045   4.746   5.653
 1241SOL    HW1 4622   6.112   4.818   5.673
 1241SOL    HW2 4623   5.969   4.784   5.600
 1242SOL     OW 4624   2.134   4.514   1.005
 1242SOL    HW1 4625   2.185   4.597   0.981
 1242SOL    HW2 4626   2.193   4.434   0.991
 1243SOL     OW 4627   0.973   0.861   4.934
 1243SOL    HW1 4628   0.948   0.940   4.991
 1243SOL    HW2 4629   0.945   0.878   4.840
 1244SOL     OW 4630   5.088   5.821   4.804
 1244SOL    HW1 4631   5.006   5.849   4.854
 1244SOL    HW2 4632   5.155   5.895   4.806
 1245SOL     OW 4633   5.420   3.964   6.847
 1245SOL    HW1 4634   5.450   3.964   6.752
 1245SOL    HW2 4635   5.499   3.966   6.908
 1246SOL     OW 4636   3.094   1.499   1.860
 1246SOL    HW1 4637   3.156   1.445   1.804
 1246SOL    HW2 4638   3.003   1.458   1.858
 1247SOL     OW 4639   6.803   6.729   6.242
 1247SOL    HW1 4640   6.882   6.783   6.272
 1247SOL    HW2 4641   6.745   6.785   6.182
 1248SOL     OW 4642   1.817   6.298   3.569
 1248SOL    HW1 4643   1.739   6.285   3.631
 1248SOL    HW2 4644   1.798   6.374   3.507
 1249SOL     OW 4645   0.143   2.509   2.257
 1249SOL    HW1 4646   0.108   2.484   2.167
 1249SOL    HW2 4647   0.184   2.601   2.252
 1250SOL     OW 4648   5.525   5.154   3.414
 1250SOL    HW1 4649   5.497   5.241   3.374
 1250SOL    HW2 4650   5.449   5.115   3.467
 1251SOL     OW 4651   2.097   0.786   2.712
 1251SOL    HW1 4652   2.076   0.698   2.669
 1251SOL    HW2 4653   2.091   0.776   2.812
 1252SOL     OW 4654   3.807   4.584   6.864
 1252SOL    HW1 4655   3.816   4.682   6.851
 1252SOL    HW2 4656   3.714   4.562   6.891
 1253SOL     OW 4657   3.921   6.313   2.623
 1253SOL    HW1 4658   3.879   6.400   2.598
 1253SOL    HW2 4659   3.862   6.264   2.687
 1254SOL     OW 4660   0.492   2.251   3.758
 1254SOL    HW1 4661   0.547   2.326   3.722
 1254SOL    HW2 4662   0.502   2.171   3.698
 1255SOL     OW 4663   5.930   1.414   6.089
 1255SOL    HW1 4664   5.833   1.401   6.111
 1255SOL    HW2 4665   5.986   1.364   6.155
 1256SOL     OW 4666   0.365   6.667   4.225
 1256SOL    HW1 4667   0.398   6.595   4.164
 1256SOL    HW2 4668   0.443   6.719   4.260
 1257SOL     OW 4669   0.240   5.477   4.831
 1257SOL    HW1 4670   0.151   5.432   4.833
 1257SOL    HW2 4671   0.228   5.573   4.804
 1258SOL     OW 4672   1.962   5.067   2.814
 1258SOL    HW1 4673   2.034   5.128   2.779
 1258SOL    HW2 4674   1.885   5.067   2.750
 1259SOL     OW 4675   4.074   0.100   4.740
 1259SOL    HW1 4676   4.123   0.029   4.689
 1259SOL    HW2 4677   4.134   0.178   4.754
 1260SOL     OW 4678   3.507   1.861   0.576
 1260SOL    HW1 4679   3.490   1.925   0.501
 1260SOL    HW2 4680   3.514   1.912   0.662
 1261SOL     OW 4681   6.621   5.561   6.547
 1261SOL    HW1 4682   6.612   5.616   6.630
 1261SOL    HW2 4683   6.571   5.475   6.559
 1262SOL     OW 4684   5.293   4.818   1.375
 1262SOL    HW1 4685   5.200   4.781   1.376
 1262SOL    HW2 4686   5.357   4.746   1.350
 1263SOL     OW 4687   6.960   2.078   1.479
 1263SOL    HW1 4688   6.943   2.117   1.389
 1263SOL    HW2 4689   6.922   2.139   1.549
 1264SOL     OW 4690   0.115   3.707   1.627
 1264SOL    HW1 4691   0.184   3.779   1.628
 1264SOL    HW2 4692   0.110   3.664   1.717
 1265SOL     OW 4693   5.377   5.729   3.201
 1265SOL    HW1 4694   5.377   5.791   3.122
 1265SOL    HW2 4695   5.340   5.777   3.281
 1266SOL     OW 4696   0.804   1.184   4.073
 1266SOL    HW1 4697   0.876   1.214   4.136
 1266SOL    HW2 4698   0.717   1.228   4.098
 1267SOL     OW 4699   5.331   6.263   1.060
 1267SOL    HW1 4700   5.321   6.261   1.159
 1267SOL    HW2 4701   5.270   6.331   1.021
 1268SOL     OW 4702   4.071   3.094   0.353
 1268SOL    HW1 4703   4.099   2.998   0.349
 1268SOL    HW2 4704   4.060   3.129   0.260
 1269SOL     OW 4705   5.336   6.274   5.749
 1269SOL    HW1 4706   5.269   6.214   5.793
 1269SOL    HW2 4707   5.313   6.284   5.652
 1270SOL     OW 4708   2.401   4.378   4.110
 1270SOL    HW1 4709   2.405   4.279   4.092
 1270SOL    HW2 4710   2.486   4.421   4.079
 1271SOL     OW 4711   2.954   2.253   4.106
 1271SOL    HW1 4712   2.885   2.278   4.038
 1271SOL    HW2 4713   2.914   2.260   4.198
 1272SOL     OW 4714   5.434   5.656   0.336
 1272SOL    HW1 4715   5.451   5.680   0.240
 1272SOL    HW2 4716   5.471   5.727   0.395
 1273SOL     OW 4717   0.375   4.505   6.785
 1273SOL    HW1 4718   0.315   4.481   6.709
 1273SOL    HW2 4719   0.450   4.439   6.791
 1274SOL     OW 4720   6.317   3.957   1.755
 1274SOL    HW1 4721   6.367   4.044   1.762
 1274SOL    HW2 4722   6.362   3.888   1.812
 1275SOL     OW 4723   3.330   1.499   4.448
 1275SOL    HW1 4724   3.261   1.426   4.452
 1275SOL    HW2 4725   3.391   1.492   4.527
 1276SOL     OW 4726   0.031   0.181   4.579
 1276SOL    HW1 4727   6.983   0.185   4.509
 1276SOL    HW2 4728   0.117   0.216   4.541
 1277SOL     OW 4729   0.885   6.319   6.110
 1277SOL    HW1 4730   0.942   6.396   6.138
 1277SOL    HW2 4731   0.904   6.241   6.169
 1278SOL     OW 4732   1.289   0.277   5.398
 1278SOL    HW1 4733   1.320   0.267   5.493
 1278SOL    HW2 4734   1.321   0.200   5.344
 1279SOL     OW 4735   3.305   6.486   0.503
 1279SOL    HW1 4736   3.399   6.517   0.499
 1279SOL    HW2 4737   3.286   6.425   0.425
 1280SOL     OW 4738   3.016   6.375   4.507
 1280SOL    HW1 4739   2.968   6.437   4.445
 1280SOL    HW2 4740   3.047   6.425   4.587
 1281SOL     OW 4741   1.273   6.645   3.631
 1281SOL    HW1 4742   1.255   6.584   3.554
 1281SOL    HW2 4743   1.345   6.606   3.689
 1282SOL     OW 4744   0.605   1.899   6.792
 1282SOL    HW1 4745   0.565   1.984   6.826
 1282SOL    HW2 4746   0.607   1.901   6.692
 1283SOL     OW 4747   6.600   3.083   4.964
 1283SOL    HW1 4748   6.655   3.075   5.048
 1283SOL    HW2 4749   6.507   3.111   4.988
 1284SOL     OW 4750   4.851   1.505   2.003
 1284SOL    HW1 4751   4.867   1.408   2.018
 1284SOL    HW2 4752   4.788   1.517   1.927
 1285SOL     OW 4753   4.951   2.218   6.179
 1285SOL    HW1 4754   4.862   2.253   6.208
 1285SOL    HW2 4755   5.018   2.292   6.181
 1286SOL     OW 4756   4.915   3.724   2.314
 1286SOL    HW1 4757   4.866   3.755   2.396
 1286SOL    HW2 4758   4.922   3.800   2.249
 1287SOL     OW 4759   5.238   5.359   5.255
 1287SOL    HW1 4760   5.313   5.322   5.201
 1287SOL    HW2 4761   5.151   5.329   5.217
 1288SOL     OW 4762   4.535   3.608   6.798
 1288SOL    HW1 4763   4.471   3.547   6.751
 1288SOL    HW2 4764   4.580   3.558   6.872
 1289SOL     OW 4765   0.875   6.082   2.068
 1289SOL    HW1 4766   0.916   6.107   1.981
 1289SOL    HW2 4767   0.789   6.033   2.051
 1290SOL     OW 4768   0.892   6.527   6.675
 1290SOL    HW1 4769   0.954   6.605   6.669
 1290SOL    HW2 4770   0.800   6.559   6.698
 1291SOL     OW 4771   0.017   3.921   5.356
 1291SOL    HW1 4772   0.056   3.932   5.447
 1291SOL    HW2 4773   6.943   3.943   5.357
 1292SOL     OW 4774   0.414   6.096   2.483
 1292SOL    HW1 4775   0.398   6.014   2.538
 1292SOL    HW2 4776   0.327   6.126   2.444
 1293SOL     OW 4777   1.568   1.790   0.423
 1293SOL    HW1 4778   1.473   1.820   0.413
 1293SOL    HW2 4779   1.594   1.736   0.343
 1294SOL     OW 4780   1.001   3.464   6.942
 1294SOL    HW1 4781   1.093   3.493   6.969
 1294SOL    HW2 4782   0.953   3.427   7.021
 1295SOL     OW 4783   0.140   3.620   2.666
 1295SOL    HW1 4784   0.138   3.706   2.615
 1295SOL    HW2 4785   0.080   3.554   2.622
 1296SOL     OW 4786   3.544   0.132   5.504
 1296SOL    HW1 4787   3.590   0.214   5.536
 1296SOL    HW2 4788   3.584   0.051   5.547
 1297SOL     OW 4789   6.529   0.888   1.041
 1297SOL    HW1 4790   6.472   0.924   0.967
 1297SOL    HW2 4791   6.544   0.790   1.027
 1298SOL     OW 4792   6.014   4.828   2.756
 1298SOL    HW1 4793   5.921   4.793   2.748
 1298SOL    HW2 4794   6.015   4.907   2.818
 1299SOL     OW 4795   1.279   3.659   3.110
 1299SOL    HW1 4796   1.335   3.623   3.184
 1299SOL    HW2 4797   1.195   3.605   3.102
 1300SOL     OW 4798   3.612   3.016   2.088
 1300SOL    HW1 4799   3.703   3.027   2.047
 1300SOL    HW2 4800   3.566   2.938   2.047
 1301SOL     OW 4801   0.788   5.805   1.210
 1301SOL    HW1 4802   0.697   5.823   1.247
 1301SOL    HW2 4803   0.791   5.836   1.115
 1302SOL     OW 4804   4.661   0.544   5.529
 1302SOL    HW1 4805   4.722   0.623   5.530
 1302SOL    HW2 4806   4.678   0.490   5.446
 1303SOL     OW 4807   4.460   1.561   2.302
 1303SOL    HW1 4808   4.553   1.528   2.286
 1303SOL    HW2 4809   4.405   1.488   2.344
 1304SOL     OW 4810   1.885   0.945   6.513
 1304SOL    HW1 4811   1.921   0.953   6.420
 1304SOL    HW2 4812   1.876   0.848   6.538
 1305SOL     OW 4813   5.176   3.013   0.028
 1305SOL    HW1 4814   5.112   3.057   0.091
 1305SOL    HW2 4815   5.255   3.074   0.013
 1306SOL     OW 4816   0.362   4.570   4.375
 1306SOL    HW1 4817   0.268   4.583   4.406
 1306SOL    HW2 4818   0.420   4.642   4.413
 1307SOL     OW 4819   0.567   3.856   4.311
 1307SOL    HW1 4820   0.480   3.876   4.355
 1307SOL    HW2 4821   0.634   3.831   4.381
 1308SOL     OW 4822   5.836   6.372   5.087
 1308SOL    HW1 4823   5.813   6.280   5.119
 1308SOL    HW2 4824   5.876   6.367   4.996
 1309SOL     OW 4825   5.150   3.460   5.427
 1309SOL    HW1 4826   5.075   3.489   5.368
 1309SOL    HW2 4827   5.236   3.501   5.395
 1310SOL     OW 4828   6.987   3.581   4.175
 1310SOL    HW1 4829   7.017   3.508   4.237
 1310SOL    HW2 4830   0.031   3.655   4.175
 1311SOL     OW 4831   0.609   6.725   4.892
 1311SOL    HW1 4832   0.552   6.653   4.931
 1311SOL    HW2 4833   0.647   6.694   4.805
 1312SOL     OW 4834   1.781   0.313   6.415
 1312SOL    HW1 4835   1.820   0.316   6.323
 1312SOL    HW2 4836   1.686   0.345   6.412
 1313SOL     OW 4837   0.804   3.947   3.925
 1313SOL    HW1 4838   0.712   3.956   3.886
 1313SOL    HW2 4839   0.872   3.954   3.852
 1314SOL     OW 4840   4.185   0.830   6.035
 1314SOL    HW1 4841   4.201   0.774   5.954
 1314SOL    HW2 4842   4.109   0.892   6.019
 1315SOL     OW 4843   0.247   1.281   1.201
 1315SOL    HW1 4844   0.267   1.258   1.297
 1315SOL    HW2 4845   0.268   1.377   1.185
 1316SOL     OW 4846   2.308   6.409   5.031
 1316SOL    HW1 4847   2.319   6.509   5.024
 1316SOL    HW2 4848   2.290   6.370   4.941
 1317SOL     OW 4849   2.021   4.336   6.218
 1317SOL    HW1 4850   1.997   4.427   6.251
 1317SOL    HW2 4851   1.959   4.310   6.144
 1318SOL     OW 4852   1.250   1.386   1.243
 1318SOL    HW1 4853   1.263   1.453   1.170
 1318SOL    HW2 4854   1.223   1.434   1.327
 1319SOL     OW 4855   6.830   0.989   6.685
 1319SOL    HW1 4856   6.764   1.058   6.653
 1319SOL    HW2 4857   6.827   0.909   6.625
 1320SOL     OW 4858   5.149   3.673   0.853
 1320SOL    HW1 4859   5.080   3.743   0.871
 1320SOL    HW2 4860   5.164   3.666   0.755
 1321SOL     OW 4861   5.465   1.579   6.247
 1321SOL    HW1 4862   5.421   1.569   6.336
 1321SOL    HW2 4863   5.496   1.674   6.236
 1322SOL     OW 4864   3.771   0.637   4.039
 1322SOL    HW1 4865   3.712   0.597   3.969
 1322SOL    HW2 4866   3.817   0.565   4.090
 1323SOL     OW 4867   4.872   1.340   5.556
 1323SOL    HW1 4868   4.822   1.263   5.596
 1323SOL    HW2 4869   4.865   1.419   5.617
 1324SOL     OW 4870   1.250   3.259   0.561
 1324SOL    HW1 4871   1.233   3.355   0.539
 1324SOL    HW2 4872   1.337   3.230   0.521
 1325SOL     OW 4873   2.199   6.940   2.415
 1325SOL    HW1 4874   2.155   6.859   2.456
 1325SOL    HW2 4875   2.274   6.970   2.473
 1326SOL     OW 4876   5.053   3.260   5.024
 1326SOL    HW1 4877   5.055   3.339   5.086
 1326SOL    HW2 4878   5.003   3.186   5.067
 1327SOL     OW 4879   1.384   4.886   1.942
 1327SOL    HW1 4880   1.396   4.906   1.845
 1327SOL    HW2 4881   1.472   4.893   1.990
 1328SOL     OW 4882   1.402   2.981   0.998
 1328SOL    HW1 4883   1.494   2.986   1.036
 1328SOL    HW2 4884   1.383   3.063   0.944
 1329SOL     OW 4885   0.324   2.072   1.401
 1329SOL    HW1 4886   0.309   2.156   1.349
 1329SOL    HW2 4887   0.268   1.998   1.363
 1330SOL     OW 4888   0.084   1.380   1.874
 1330SOL    HW1 4889   0.060   1.338   1.961
 1330SOL    HW2 4890   0.113   1.474   1.889
 1331SOL     OW 4891   4.953   2.769   3.650
 1331SOL    HW1 4892   4.857   2.779   3.624
 1331SOL    HW2 4893   4.969   2.677   3.685
 1332SOL     OW 4894   3.220   6.746   0.042
 1332SOL    HW1 4895   3.134   6.747   7.015
 1332SOL    HW2 4896   3.200   6.753   0.140
 1333SOL     OW 4897   3.574   4.002   5.183
 1333SOL    HW1 4898   3.667   3.974   5.159
 1333SOL    HW2 4899   3.557   4.094   5.148
 1334SOL     OW 4900   6.565   2.132   4.220
 1334SOL    HW1 4901   6.531   2.204   4.280
 1334SOL    HW2 4902   6.665   2.131   4.223
 1335SOL     OW 4903   2.274   1.561   3.271
 1335SOL    HW1 4904   2.312   1.640   3.222
 1335SOL    HW2 4905   2.178   1.579   3.294
 1336SOL     OW 4906   1.706   2.496   5.498
 1336SOL    HW1 4907   1.774   2.446   5.552
 1336SOL    HW2 4908   1.640   2.431   5.460
 1337SOL     OW 4909   2.049   1.943   4.974
 1337SOL    HW1 4910   1.956   1.977   4.959
 1337SOL    HW2 4911   2.055   1.901   5.065
 1338SOL     OW 4912   5.911   2.209   5.306
 1338SOL    HW1 4913   5.997   2.160   5.288
 1338SOL    HW2 4914   5.888   2.265   5.226
 1339SOL     OW 4915   1.060   1.763   6.238
 1339SOL    HW1 4916   0.997   1.744   6.163
 1339SOL    HW2 4917   1.090   1.676   6.279
 1340SOL     OW 4918   0.231   1.633   2.465
 1340SOL    HW1 4919   0.276   1.663   2.381
 1340SOL    HW2 4920   0.246   1.700   2.537
 1341SOL     OW 4921   5.151   0.113   5.954
 1341SOL    HW1 4922   5.082   0.104   5.882
 1341SOL    HW2 4923   5.165   0.210   5.975
 1342SOL     OW 4924   1.734   5.353   6.140
 1342SOL    HW1 4925   1.791   5.310   6.069
 1342SOL    HW2 4926   1.653   5.296   6.156
 1343SOL     OW 4927   4.859   6.018   3.274
 1343SOL    HW1 4928   4.789   5.978   3.215
 1343SOL    HW2 4929   4.846   5.985   3.368
 1344SOL     OW 4930   6.809   4.687   4.154
 1344SOL    HW1 4931   6.871   4.669   4.078
 1344SOL    HW2 4932   6.858   4.679   4.241
 1345SOL     OW 4933   2.053   0.351   2.799
 1345SOL    HW1 4934   2.012   0.310   2.881
 1345SOL    HW2 4935   2.149   0.322   2.792
 1346SOL     OW 4936   0.643   6.152   4.380
 1346SOL    HW1 4937   0.723   6.174   4.437
 1346SOL    HW2 4938   0.589   6.082   4.426
 1347SOL     OW 4939   6.443   5.934   4.389
 1347SOL    HW1 4940   6.454   5.917   4.487
 1347SOL    HW2 4941   6.349   5.913   4.362
 1348SOL     OW 4942   5.252   5.147   2.515
 1348SOL    HW1 4943   5.255   5.099   2.602
 1348SOL    HW2 4944   5.163   5.192   2.505
 1349SOL     OW 4945   4.540   2.528   6.254
 1349SOL    HW1 4946   4.537   2.561   6.349
 1349SOL    HW2 4947   4.447   2.521   6.218
 1350SOL     OW 4948   5.080   4.425   6.223
 1350SOL    HW1 4949   5.096   4.519   6.252
 1350SOL    HW2 4950   5.067   4.367   6.303
 1351SOL     OW 4951   6.494   1.087   3.495
 1351SOL    HW1 4952   6.555   1.088   3.573
 1351SOL    HW2 4953   6.497   1.177   3.449
 1352SOL     OW 4954   7.005   6.794   3.116
 1352SOL    HW1 4955   0.000   6.717   3.055
 1352SOL    HW2 4956   6.928   6.847   3.081
 1353SOL     OW 4957   6.943   3.874   6.421
 1353SOL    HW1 4958   6.927   3.839   6.513
 1353SOL    HW2 4959   0.014   3.855   6.394
 1354SOL     OW 4960   0.651   3.085   0.600
 1354SOL    HW1 4961   0.617   3.000   0.560
 1354SOL    HW2 4962   0.663   3.072   0.698
 1355SOL     OW 4963   6.859   2.474   5.340
 1355SOL    HW1 4964   6.816   2.400   5.393
 1355SOL    HW2 4965   6.954   2.484   5.369
 1356SOL     OW 4966   2.956   3.658   2.626
 1356SOL    HW1 4967   2.934   3.624   2.717
 1356SOL    HW2 4968   3.003   3.746   2.633
 1357SOL     OW 4969   1.036   3.588   5.003
 1357SOL    HW1 4970   0.953   3.577   5.058
 1357SOL    HW2 4971   1.114   3.608   5.064
 1358SOL     OW 4972   3.721   1.124   5.957
 1358SOL    HW1 4973   3.626   1.131   5.924
 1358SOL    HW2 4974   3.729   1.172   6.044
 1359SOL     OW 4975   5.807   4.720   2.041
 1359SOL    HW1 4976   5.796   4.800   1.980
 1359SOL    HW2 4977   5.847   4.750   2.127
 1360SOL     OW 4978   3.961   2.632   0.428
 1360SOL    HW1 4979   3.947   2.545   0.476
 1360SOL    HW2 4980   3.908   2.704   0.473
 1361SOL     OW 4981   0.261   5.904   5.466
 1361SOL    HW1 4982   0.174   5.913   5.514
 1361SOL    HW2 4983   0.268   5.975   5.396
 1362SOL     OW 4984   3.331   3.977   4.399
 1362SOL    HW1 4985   3.249   4.016   4.443
 1362SOL    HW2 4986   3.412   4.024   4.433
 1363SOL     OW 4987   6.874   5.633   3.650
 1363SOL    HW1 4988   6.958   5.605   3.695
 1363SOL    HW2 4989   6.816   5.553   3.635
 1364SOL     OW 4990   6.490   2.374   1.293
 1364SOL    HW1 4991   6.397   2.400   1.265
 1364SOL    HW2 4992   6.485   2.296   1.356
 1365SOL     OW 4993   0.701   2.729   5.885
 1365SOL    HW1 4994   0.767   2.765   5.818
 1365SOL    HW2 4995   0.608   2.748   5.854
 1366SOL     OW 4996   0.514   4.761   0.362
 1366SOL    HW1 4997   0.576   4.687   0.389
 1366SOL    HW2 4998   0.488   4.814   0.443
 1367SOL     OW 4999   1.412   6.584   2.635
 1367SOL    HW1 5000   1.354   6.504   2.617
 1367SOL    HW2 5001   1.355   6.665   2.648
 1368SOL     OW 5002   6.980   0.431   4.037
 1368SOL    HW1 5003   0.017   0.377   4.096
 1368SOL    HW2 5004   6.889   0.437   4.079
 1369SOL     OW 5005   2.284   0.272   2.310
 1369SOL    HW1 5006   2.361   0.219   2.274
 1369SOL    HW2 5007   2.235   0.218   2.378
 1370SOL     OW 5008   4.326   1.337   2.377
 1370SOL    HW1 5009   4.268   1.329   2.296
 1370SOL    HW2 5010   4.272   1.377   2.452
 1371SOL     OW 5011   6.331   1.480   4.622
 1371SOL    HW1 5012   6.410   1.533   4.592
 1371SOL    HW2 5013   6.360   1.411   4.688
 1372SOL     OW 5014   1.204   2.842   0.443
 1372SOL    HW1 5015   1.235   2.908   0.374
 1372SOL    HW2 5016   1.126   2.879   0.492
 1373SOL     OW 5017   4.407   2.616   6.703
 1373SOL    HW1 5018   4.425   2.646   6.796
 1373SOL    HW2 5019   4.330   2.552   6.703
 1374SOL     OW 5020   4.581   2.159   0.438
 1374SOL    HW1 5021   4.582   2.110   0.351
 1374SOL    HW2 5022   4.527   2.107   0.504
 1375SOL     OW 5023   0.172   5.357   6.560
 1375SOL    HW1 5024   0.114   5.376   6.480
 1375SOL    HW2 5025   0.267   5.349   6.532
 1376SOL     OW 5026   4.467   4.722   5.139
 1376SOL    HW1 5027   4.565   4.700   5.132
 1376SOL    HW2 5028   4.416   4.672   5.069
 1377SOL     OW 5029   0.199   3.164   5.332
 1377SOL    HW1 5030   0.203   3.069   5.301
 1377SOL    HW2 5031   0.156   3.168   5.422
 1378SOL     OW 5032   6.115   1.557   4.768
 1378SOL    HW1 5033   6.067   1.642   4.749
 1378SOL    HW2 5034   6.198   1.552   4.713
 1379SOL     OW 5035   3.970   6.400   3.085
 1379SOL    HW1 5036   4.006   6.356   3.003
 1379SOL    HW2 5037   4.040   6.398   3.157
 1380SOL     OW 5038   0.946   0.311   3.533
 1380SOL    HW1 5039   0.977   0.372   3.606
 1380SOL    HW2 5040   0.968   0.216   3.557
 1381SOL     OW 5041   5.988   2.078   6.990
 1381SOL    HW1 5042   6.066   2.102   0.024
 1381SOL    HW2 5043   5.943   2.161   6.958
 1382SOL     OW 5044   5.011   3.371   0.742
 1382SOL    HW1 5045   5.014   3.419   0.654
 1382SOL    HW2 5046   5.091   3.312   0.751
 1383SOL     OW 5047   0.657   0.446   2.395
 1383SOL    HW1 5048   0.656   0.448   2.495
 1383SOL    HW2 5049   0.735   0.499   2.361
 1384SOL     OW 5050   4.679   0.626   1.979
 1384SOL    HW1 5051   4.716   0.539   2.014
 1384SOL    HW2 5052   4.754   0.691   1.967
 1385SOL     OW 5053   2.153   4.346   3.480
 1385SOL    HW1 5054   2.079   4.413   3.477
 1385SOL    HW2 5055   2.166   4.314   3.574
 1386SOL     OW 5056   3.171   0.391   4.316
 1386SOL    HW1 5057   3.217   0.477   4.339
 1386SOL    HW2 5058   3.105   0.408   4.243
 1387SOL     OW 5059   3.421   5.949   2.911
 1387SOL    HW1 5060   3.429   6.039   2.953
 1387SOL    HW2 5061   3.512   5.909   2.899
 1388SOL     OW 5062   0.496   0.533   3.229
 1388SOL    HW1 5063   0.492   0.548   3.328
 1388SOL    HW2 5064   0.564   0.462   3.209
 1389SOL     OW 5065   6.772   1.650   4.378
 1389SOL    HW1 5066   6.869   1.635   4.397
 1389SOL    HW2 5067   6.763   1.690   4.287
 1390SOL     OW 5068   6.533   3.333   6.139
 1390SOL    HW1 5069   6.484   3.412   6.178
 1390SOL    HW2 5070   6.631   3.350   6.141
 1391SOL     OW 5071   5.830   0.056   5.535
 1391SOL    HW1 5072   5.805   6.988   5.567
 1391SOL    HW2 5073   5.881   0.104   5.606
 1392SOL     OW 5074   6.060   6.634   5.454
 1392SOL    HW1 5075   6.054   6.614   5.356
 1392SOL    HW2 5076   6.152   6.664   5.477
 1393SOL     OW 5077   6.660   4.383   6.073
 1393SOL    HW1 5078   6.712   4.305   6.038
 1393SOL    HW2 5079   6.708   4.468   6.050
 1394SOL     OW 5080   3.288   5.929   5.292
 1394SOL    HW1 5081   3.243   5.843   5.267
 1394SOL    HW2 5082   3.236   5.973   5.365
 1395SOL     OW 5083   1.867   4.284   4.832
 1395SOL    HW1 5084   1.903   4.324   4.916
 1395SOL    HW2 5085   1.942   4.244   4.780
 1396SOL     OW 5086   0.254   1.105   5.038
 1396SOL    HW1 5087   0.284   1.010   5.046
 1396SOL    HW2 5088   0.257   1.133   4.942
 1397SOL     OW 5089   0.245   6.442   4.809
 1397SOL    HW1 5090   0.173   6.386   4.768
 1397SOL    HW2 5091   0.238   6.535   4.774
 1398SOL     OW 5092   2.968   0.746   6.458
 1398SOL    HW1 5093   3.041   0.814   6.450
 1398SOL    HW2 5094   2.883   0.791   6.485
 1399SOL     OW 5095   3.840   5.383   0.552
 1399SOL    HW1 5096   3.844   5.297   0.603
 1399SOL    HW2 5097   3.882   5.370   0.462
 1400SOL     OW 5098   0.463   1.788   4.185
 1400SOL    HW1 5099   0.463   1.784   4.085
 1400SOL    HW2 5100   0.555   1.766   4.219
 1401SOL     OW 5101   5.748   0.340   4.446
 1401SOL    HW1 5102   5.786   0.383   4.528
 1401SOL    HW2 5103   5.805   0.364   4.367
 1402SOL     OW 5104   5.483   4.446   6.302
 1402SOL    HW1 5105   5.574   4.408   6.320
 1402SOL    HW2 5106   5.492   4.544   6.283
 1403SOL     OW 5107   2.416   1.926   0.851
 1403SOL    HW1 5108   2.416   1.911   0.950
 1403SOL    HW2 5109   2.428   1.838   0.805
 1404SOL     OW 5110   6.655   0.741   0.144
 1404SOL    HW1 5111   6.742   0.711   0.104
 1404SOL    HW2 5112   6.666   0.833   0.181
 1405SOL     OW 5113   2.552   3.900   0.598
 1405SOL    HW1 5114   2.636   3.852   0.624
 1405SOL    HW2 5115   2.475   3.864   0.651
 1406SOL     OW 5116   1.460   5.772   0.668
 1406SOL    HW1 5117   1.420   5.861   0.690
 1406SOL    HW2 5118   1.526   5.747   0.739
 1407SOL     OW 5119   0.889   3.807   3.489
 1407SOL    HW1 5120   0.959   3.781   3.422
 1407SOL    HW2 5121   0.851   3.896   3.464
 1408SOL     OW 5122   5.375   0.569   6.709
 1408SOL    HW1 5123   5.473   0.586   6.717
 1408SOL    HW2 5124   5.357   0.472   6.722
 1409SOL     OW 5125   0.447   0.346   5.260
 1409SOL    HW1 5126   0.419   0.255   5.291
 1409SOL    HW2 5127   0.527   0.337   5.201
 1410SOL     OW 5128   1.421   4.242   6.333
 1410SOL    HW1 5129   1.501   4.284   6.290
 1410SOL    HW2 5130   1.339   4.262   6.278
 1411SOL     OW 5131   3.493   6.207   0.389
 1411SOL    HW1 5132   3.417   6.143   0.391
 1411SOL    HW2 5133   3.513   6.231   0.294
 1412SOL     OW 5134   0.876   3.757   1.401
 1412SOL    HW1 5135   0.931   3.705   1.336
 1412SOL    HW2 5136   0.869   3.707   1.487
 1413SOL     OW 5137   2.282   1.162   4.306
 1413SOL    HW1 5138   2.283   1.186   4.210
 1413SOL    HW2 5139   2.338   1.080   4.321
 1414SOL     OW 5140   2.259   1.577   1.763
 1414SOL    HW1 5141   2.194   1.520   1.712
 1414SOL    HW2 5142   2.210   1.631   1.831
 1415SOL     OW 5143   2.490   1.300   3.762
 1415SOL    HW1 5144   2.513   1.350   3.846
 1415SOL    HW2 5145   2.569   1.299   3.701
 1416SOL     OW 5146   4.344   6.524   5.127
 1416SOL    HW1 5147   4.421   6.487   5.075
 1416SOL    HW2 5148   4.347   6.624   5.125
 1417SOL     OW 5149   2.982   2.381   0.082
 1417SOL    HW1 5150   3.063   2.436   0.061
 1417SOL    HW2 5151   2.933   2.361   7.020
 1418SOL     OW 5152   2.925   3.492   1.720
 1418SOL    HW1 5153   2.907   3.446   1.633
 1418SOL    HW2 5154   2.892   3.434   1.795
 1419SOL     OW 5155   3.663   6.155   4.419
 1419SOL    HW1 5156   3.628   6.227   4.359
 1419SOL    HW2 5157   3.617   6.069   4.397
 1420SOL     OW 5158   3.667   5.935   3.264
 1420SOL    HW1 5159   3.631   6.019   3.225
 1420SOL    HW2 5160   3.598   5.892   3.322
 1421SOL     OW 5161   1.683   4.354   4.227
 1421SOL    HW1 5162   1.623   4.276   4.241
 1421SOL    HW2 5163   1.706   4.395   4.315
 1422SOL     OW 5164   1.977   4.103   6.390
 1422SOL    HW1 5165   1.878   4.099   6.390
 1422SOL    HW2 5166   2.008   4.183   6.340
 1423SOL     OW 5167   4.478   6.945   4.480
 1423SOL    HW1 5168   4.379   6.958   4.491
 1423SOL    HW2 5169   4.495   6.890   4.398
 1424SOL     OW 5170   6.800   3.802   6.639
 1424SOL    HW1 5171   6.769   3.810   6.734
 1424SOL    HW2 5172   6.830   3.707   6.622
 1425SOL     OW 5173   1.928   5.488   5.533
 1425SOL    HW1 5174   1.844   5.535   5.561
 1425SOL    HW2 5175   1.996   5.556   5.506
 1426SOL     OW 5176   2.510   2.358   6.879
 1426SOL    HW1 5177   2.438   2.289   6.881
 1426SOL    HW2 5178   2.511   2.402   6.789
 1427SOL     OW 5179   6.738   6.844   4.513
 1427SOL    HW1 5180   6.734   6.883   4.605
 1427SOL    HW2 5181   6.805   6.894   4.458
 1428SOL     OW 5182   0.743   2.450   1.206
 1428SOL    HW1 5183   0.748   2.387   1.284
 1428SOL    HW2 5184   0.826   2.441   1.151
 1429SOL     OW 5185   5.046   1.676   0.505
 1429SOL    HW1 5186   5.094   1.688   0.418
 1429SOL    HW2 5187   5.002   1.587   0.507
 1430SOL     OW 5188   2.057   5.127   3.894
 1430SOL    HW1 5189   2.054   5.027   3.889
 1430SOL    HW2 5190   1.967   5.162   3.922
 1431SOL     OW 5191   2.843   2.327   6.865
 1431SOL    HW1 5192   2.872   2.297   6.774
 1431SOL    HW2 5193   2.744   2.340   6.866
 1432SOL     OW 5194   3.170   1.320   1.072
 1432SOL    HW1 5195   3.122   1.233   1.067
 1432SOL    HW2 5196   3.171   1.363   0.982
 1433SOL     OW 5197   5.305   0.767   5.515
 1433SOL    HW1 5198   5.325   0.865   5.515
 1433SOL    HW2 5199   5.390   0.715   5.510
 1434SOL     OW 5200   0.837   0.810   6.518
 1434SOL    HW1 5201   0.856   0.716   6.548
 1434SOL    HW2 5202   0.917   0.867   6.536
 1435SOL     OW 5203   7.000   0.170   3.078
 1435SOL    HW1 5204   6.932   0.097   3.090
 1435SOL    HW2 5205   0.004   0.205   3.167
 1436SOL     OW 5206   5.480   4.387   6.829
 1436SOL    HW1 5207   5.500   4.289   6.827
 1436SOL    HW2 5208   5.485   4.424   6.736
 1437SOL     OW 5209   3.404   1.804   5.862
 1437SOL    HW1 5210   3.401   1.874   5.791
 1437SOL    HW2 5211   3.366   1.719   5.827
 1438SOL     OW 5212   2.475   0.111   1.962
 1438SOL    HW1 5213   2.570   0.140   1.962
 1438SOL    HW2 5214   2.419   0.180   1.915
 1439SOL     OW 5215   6.849   4.805   0.845
 1439SOL    HW1 5216   6.939   4.846   0.857
 1439SOL    HW2 5217   6.843   4.722   0.899
 1440SOL     OW 5218   3.620   2.921   5.905
 1440SOL    HW1 5219   3.668   2.981   5.969
 1440SOL    HW2 5220   3.618   2.828   5.942
 1441SOL     OW 5221   6.126   2.561   3.830
 1441SOL    HW1 5222   6.045   2.540   3.885
 1441SOL    HW2 5223   6.128   2.501   3.750
 1442SOL     OW 5224   6.100   5.017   6.840
 1442SOL    HW1 5225   6.099   4.962   6.923
 1442SOL    HW2 5226   6.120   4.959   6.761
 1443SOL     OW 5227   0.769   3.159   4.606
 1443SOL    HW1 5228   0.780   3.212   4.690
 1443SOL    HW2 5229   0.697   3.091   4.620
 1444SOL     OW 5230   3.757   6.012   1.255
 1444SOL    HW1 5231   3.814   5.950   1.308
 1444SOL    HW2 5232   3.811   6.050   1.179
 1445SOL     OW 5233   0.258   2.533   1.906
 1445SOL    HW1 5234   0.276   2.631   1.904
 1445SOL    HW2 5235   0.172   2.516   1.953
 1446SOL     OW 5236   4.736   2.513   6.975
 1446SOL    HW1 5237   4.804   2.577   6.940
 1446SOL    HW2 5238   4.783   2.434   7.016
 1447SOL     OW 5239   6.104   6.826   5.809
 1447SOL    HW1 5240   6.156   6.749   5.771
 1447SOL    HW2 5241   6.155   6.911   5.794
 1448SOL     OW 5242   6.394   2.992   6.849
 1448SOL    HW1 5243   6.316   3.052   6.865
 1448SOL    HW2 5244   6.361   2.901   6.823
 1449SOL     OW 5245   0.175   1.149   6.981
 1449SOL    HW1 5246   0.133   1.140   0.048
 1449SOL    HW2 5247   0.250   1.215   6.986
 1450SOL     OW 5248   0.697   1.984   1.810
 1450SOL    HW1 5249   0.784   2.017   1.772
 1450SOL    HW2 5250   0.715   1.905   1.868
 1451SOL     OW 5251   2.351   0.359   2.620
 1451SOL    HW1 5252   2.331   0.409   2.536
 1451SOL    HW2 5253   2.391   0.270   2.597
 1452SOL     OW 5254   4.450   0.538   4.698
 1452SOL    HW1 5255   4.486   0.618   4.745
 1452SOL    HW2 5256   4.503   0.457   4.722
 1453SOL     OW 5257   0.171   4.233   5.246
 1453SOL    HW1 5258   0.093   4.231   5.184
 1453SOL    HW2 5259   0.139   4.237   5.341
 1454SOL     OW 5260   6.544   2.957   2.401
 1454SOL    HW1 5261   6.614   2.903   2.448
 1454SOL    HW2 5262   6.538   2.928   2.305
 1455SOL     OW 5263   1.024   0.249   2.046
 1455SOL    HW1 5264   1.033   0.248   2.146
 1455SOL    HW2 5265   1.098   0.196   2.006
 1456SOL     OW 5266   6.309   6.716   5.541
 1456SOL    HW1 5267   6.380   6.785   5.523
 1456SOL    HW2 5268   6.351   6.637   5.585
 1457SOL     OW 5269   1.328   6.740   1.165
 1457SOL    HW1 5270   1.321   6.641   1.151
 1457SOL    HW2 5271   1.244   6.773   1.209
 1458SOL     OW 5272   5.735   5.569   3.180
 1458SOL    HW1 5273   5.756   5.627   3.102
 1458SOL    HW2 5274   5.642   5.589   3.213
 1459SOL     OW 5275   2.907   5.200   5.403
 1459SOL    HW1 5276   2.854   5.119   5.378
 1459SOL    HW2 5277   2.848   5.281   5.399
 1460SOL     OW 5278   0.661   5.470   5.474
 1460SOL    HW1 5279   0.591   5.540   5.492
 1460SOL    HW2 5280   0.750   5.506   5.501
 1461SOL     OW 5281   0.268   5.074   3.724
 1461SOL    HW1 5282   0.297   5.036   3.636
 1461SOL    HW2 5283   0.347   5.091   3.782
 1462SOL     OW 5284   1.056   0.958   6.543
 1462SOL    HW1 5285   1.126   0.914   6.486
 1462SOL    HW2 5286   1.087   0.959   6.638
 1463SOL     OW 5287   6.945   5.424   6.717
 1463SOL    HW1 5288   0.010   5.412   6.671
 1463SOL    HW2 5289   6.928   5.345   6.777
 1464SOL     OW 5290   5.728   6.896   0.834
 1464SOL    HW1 5291   5.670   6.840   0.894
 1464SOL    HW2 5292   5.782   6.959   0.889
 1465SOL     OW 5293   1.659   1.004   3.591
 1465SOL    HW1 5294   1.634   1.009   3.494
 1465SOL    HW2 5295   1.618   1.080   3.641
 1466SOL     OW 5296   1.232   1.564   2.344
 1466SOL    HW1 5297   1.133   1.577   2.353
 1466SOL    HW2 5298   1.250   1.485   2.286
 1467SOL     OW 5299   2.068   1.891   2.173
 1467SOL    HW1 5300   2.059   1.988   2.150
 1467SOL    HW2 5301   2.111   1.883   2.263
 1468SOL     OW 5302   5.523   5.634   2.802
 1468SOL    HW1 5303   5.449   5.569   2.814
 1468SOL    HW2 5304   5.513   5.680   2.714
 1469SOL     OW 5305   0.641   0.947   2.378
 1469SOL    HW1 5306   0.638   1.016   2.450
 1469SOL    HW2 5307   0.714   0.970   2.313
 1470SOL     OW 5308   1.451   1.695   2.444
 1470SOL    HW1 5309   1.361   1.664   2.413
 1470SOL    HW2 5310   1.458   1.684   2.543
 1471SOL     OW 5311   0.900   0.065   0.403
 1471SOL    HW1 5312   0.995   0.087   0.427
 1471SOL    HW2 5313   0.880   0.100   0.312
 1472SOL     OW 5314   3.817   6.125   5.047
 1472SOL    HW1 5315   3.751   6.194   5.018
 1472SOL    HW2 5316   3.812   6.114   5.146
 1473SOL     OW 5317   5.278   5.972   4.466
 1473SOL    HW1 5318   5.238   5.882   4.484
 1473SOL    HW2 5319   5.298   5.980   4.368
 1474SOL     OW 5320   5.533   5.334   2.774
 1474SOL    HW1 5321   5.486   5.323   2.862
 1474SOL    HW2 5322   5.625   5.369   2.790
 1475SOL     OW 5323   6.101   6.933   1.983
 1475SOL    HW1 5324   6.091   6.844   2.028
 1475SOL    HW2 5325   6.107   6.919   1.884
 1476SOL     OW 5326   2.204   1.134   1.682
 1476SOL    HW1 5327   2.150   1.112   1.601
 1476SOL    HW2 5328   2.301   1.132   1.660
 1477SOL     OW 5329   3.336   0.483   6.529
 1477SOL    HW1 5330   3.256   0.424   6.517
 1477SOL    HW2 5331   3.327   0.564   6.471
 1478SOL     OW 5332   6.038   5.371   0.358
 1478SOL    HW1 5333   6.102   5.397   0.285
 1478SOL    HW2 5334   6.090   5.335   0.436
 1479SOL     OW 5335   1.389   3.352   0.189
 1479SOL    HW1 5336   1.415   3.319   0.280
 1479SOL    HW2 5337   1.335   3.436   0.197
 1480SOL     OW 5338   3.522   0.463   5.830
 1480SOL    HW1 5339   3.471   0.425   5.908
 1480SOL    HW2 5340   3.576   0.390   5.788
 1481SOL     OW 5341   6.463   2.444   5.228
 1481SOL    HW1 5342   6.538   2.509   5.217
 1481SOL    HW2 5343   6.405   2.445   5.146
 1482SOL     OW 5344   4.829   2.443   1.453
 1482SOL    HW1 5345   4.883   2.422   1.535
 1482SOL    HW2 5346   4.877   2.511   1.398
 1483SOL     OW 5347   5.214   1.749   6.468
 1483SOL    HW1 5348   5.273   1.824   6.498
 1483SOL    HW2 5349   5.195   1.758   6.370
 1484SOL     OW 5350   5.901   4.628   3.570
 1484SOL    HW1 5351   5.809   4.607   3.537
 1484SOL    HW2 5352   5.966   4.618   3.495
 1485SOL     OW 5353   3.416   1.792   3.286
 1485SOL    HW1 5354   3.456   1.878   3.253
 1485SOL    HW2 5355   3.365   1.809   3.370
 1486SOL     OW 5356   4.867   1.689   3.216
 1486SOL    HW1 5357   4.964   1.715   3.223
 1486SOL    HW2 5358   4.855   1.630   3.136
 1487SOL     OW 5359   6.619   2.531   6.329
 1487SOL    HW1 5360   6.681   2.596   6.285
 1487SOL    HW2 5361   6.668   2.445   6.346
 1488SOL     OW 5362   5.529   1.372   3.747
 1488SOL    HW1 5363   5.431   1.389   3.762
 1488SOL    HW2 5364   5.570   1.336   3.831
 1489SOL     OW 5365   4.051   5.303   4.066
 1489SOL    HW1 5366   3.982   5.368   4.098
 1489SOL    HW2 5367   4.126   5.352   4.023
 1490SOL     OW 5368   1.063   2.796   1.763
 1490SOL    HW1 5369   1.043   2.811   1.667
 1490SOL    HW2 5370   0.985   2.825   1.819
 1491SOL     OW 5371   6.535   3.925   3.736
 1491SOL    HW1 5372   6.535   3.861   3.813
 1491SOL    HW2 5373   6.485   4.008   3.763
 1492SOL     OW 5374   5.637   0.771   2.183
 1492SOL    HW1 5375   5.630   0.861   2.140
 1492SOL    HW2 5376   5.660   0.703   2.114
 1493SOL     OW 5377   4.558   6.374   4.509
 1493SOL    HW1 5378   4.619   6.356   4.586
 1493SOL    HW2 5379   4.478   6.425   4.541
 1494SOL     OW 5380   5.731   1.971   6.064
 1494SOL    HW1 5381   5.772   2.058   6.092
 1494SOL    HW2 5382   5.696   1.979   5.971
 1495SOL     OW 5383   6.644   2.508   4.835
 1495SOL    HW1 5384   6.649   2.409   4.851
 1495SOL    HW2 5385   6.550   2.539   4.846
 1496SOL     OW 5386   0.557   1.328   1.633
 1496SOL    HW1 5387   0.566   1.409   1.574
 1496SOL    HW2 5388   0.520   1.355   1.721
 1497SOL     OW 5389   6.591   2.857   2.984
 1497SOL    HW1 5390   6.572   2.952   2.959
 1497SOL    HW2 5391   6.688   2.848   3.008
 1498SOL     OW 5392   1.866   5.009   6.215
 1498SOL    HW1 5393   1.919   4.945   6.159
 1498SOL    HW2 5394   1.882   4.988   6.312
 1499SOL     OW 5395   1.181   3.266   6.476
 1499SOL    HW1 5396   1.217   3.222   6.394
 1499SOL    HW2 5397   1.244   3.338   6.505
 1500SOL     OW 5398   6.613   6.398   0.110
 1500SOL    HW1 5399   6.690   6.336   0.122
 1500SOL    HW2 5400   6.533   6.363   0.160
 1501SOL     OW 5401   5.690   1.905   6.500
 1501SOL    HW1 5402   5.751   1.899   6.421
 1501SOL    HW2 5403   5.715   1.983   6.556
 1502SOL     OW 5404   5.312   0.937   0.744
 1502SOL    HW1 5405   5.260   0.972   0.666
 1502SOL    HW2 5406   5.266   0.856   0.781
 1503SOL     OW 5407   1.625   2.753   1.635
 1503SOL    HW1 5408   1.606   2.833   1.579
 1503SOL    HW2 5409   1.616   2.776   1.732
 1504SOL     OW 5410   0.731   0.316   5.473
 1504SOL    HW1 5411   0.828   0.315   5.497
 1504SOL    HW2 5412   0.721   0.342   5.377
 1505SOL     OW 5413   5.846   1.047   5.613
 1505SOL    HW1 5414   5.846   1.137   5.658
 1505SOL    HW2 5415   5.925   0.994   5.643
 1506SOL     OW 5416   1.742   5.597   1.120
 1506SOL    HW1 5417   1.774   5.668   1.183
 1506SOL    HW2 5418   1.725   5.513   1.171
 1507SOL     OW 5419   0.908   1.815   5.633
 1507SOL    HW1 5420   0.903   1.761   5.717
 1507SOL    HW2 5421   1.001   1.815   5.598
 1508SOL     OW 5422   6.682   0.636   2.098
 1508SOL    HW1 5423   6.741   0.651   2.178
 1508SOL    HW2 5424   6.587   0.629   2.128
 1509SOL     OW 5425   4.302   2.751   5.907
 1509SOL    HW1 5426   4.227   2.742   5.841
 1509SOL    HW2 5427   4.362   2.827   5.880
 1510SOL     OW 5428   5.092   2.757   4.874
 1510SOL    HW1 5429   5.025   2.699   4.920
 1510SOL    HW2 5430   5.121   2.712   4.789
 1511SOL     OW 5431   3.070   3.158   1.915
 1511SOL    HW1 5432   3.119   3.180   1.830
 1511SOL    HW2 5433   3.047   3.060   1.914
 1512SOL     OW 5434   0.980   5.094   1.167
 1512SOL    HW1 5435   0.990   5.016   1.105
 1512SOL    HW2 5436   1.059   5.155   1.158
 1513SOL     OW 5437   3.014   0.486   3.652
 1513SOL    HW1 5438   3.100   0.513   3.694
 1513SOL    HW2 5439   3.012   0.518   3.557
 1514SOL     OW 5440   4.220   2.084   5.851
 1514SOL    HW1 5441   4.248   2.157   5.913
 1514SOL    HW2 5442   4.180   2.009   5.904
 1515SOL     OW 5443   5.887   2.288   4.548
 1515SOL    HW1 5444   5.821   2.216   4.530
 1515SOL    HW2 5445   5.841   2.377   4.546
 1516SOL     OW 5446   6.777   0.288   0.682
 1516SOL    HW1 5447   6.708   0.306   0.612
 1516SOL    HW2 5448   6.844   0.222   0.647
 1517SOL     OW 5449   4.542   6.103   3.894
 1517SOL    HW1 5450   4.443   6.111   3.909
 1517SOL    HW2 5451   4.580   6.194   3.877
 1518SOL     OW 5452   0.934   3.344   0.156
 1518SOL    HW1 5453   0.835   3.331   0.154
 1518SOL    HW2 5454   0.965   3.350   0.251
 1519SOL     OW 5455   6.125   4.997   2.006
 1519SOL    HW1 5456   6.200   4.953   1.957
 1519SOL    HW2 5457   6.110   4.950   2.093
 1520SOL     OW 5458   0.628   3.874   2.278
 1520SOL    HW1 5459   0.719   3.902   2.311
 1520SOL    HW2 5460   0.559   3.906   2.342
 1521SOL     OW 5461   1.511   4.297   6.927
 1521SOL    HW1 5462   1.429   4.339   6.886
 1521SOL    HW2 5463   1.575   4.369   6.954
 1522SOL     OW 5464   6.279   7.004   5.354
 1522SOL    HW1 5465   6.213   0.031   5.410
 1522SOL    HW2 5466   6.233   6.966   5.274
 1523SOL     OW 5467   5.290   4.820   0.304
 1523SOL    HW1 5468   5.278   4.850   0.398
 1523SOL    HW2 5469   5.375   4.859   0.267
 1524SOL     OW 5470   1.543   2.315   2.095
 1524SOL    HW1 5471   1.547   2.237   2.158
 1524SOL    HW2 5472   1.617   2.379   2.116
 1525SOL     OW 5473   6.484   2.696   0.067
 1525SOL    HW1 5474   6.560   2.758   0.048
 1525SOL    HW2 5475   6.415   2.705   7.019
 1526SOL     OW 5476   7.002   6.579   0.192
 1526SOL    HW1 5477   7.009   6.481   0.211
 1526SOL    HW2 5478   0.023   6.600   0.106
 1527SOL     OW 5479   3.542   1.478   5.438
 1527SOL    HW1 5480   3.448   1.451   5.420
 1527SOL    HW2 5481   3.574   1.538   5.365
 1528SOL     OW 5482   4.729   6.189   2.548
 1528SOL    HW1 5483   4.663   6.114   2.547
 1528SOL    HW2 5484   4.774   6.196   2.459
 1529SOL     OW 5485   3.629   0.481   0.530
 1529SOL    HW1 5486   3.643   0.395   0.579
 1529SOL    HW2 5487   3.554   0.471   0.465
 1530SOL     OW 5488   3.567   1.562   1.909
 1530SOL    HW1 5489   3.468   1.576   1.916
 1530SOL    HW2 5490   3.608   1.570   2.000
 1531SOL     OW 5491   4.595   0.664   4.890
 1531SOL    HW1 5492   4.530   0.634   4.959
 1531SOL    HW2 5493   4.687   0.635   4.916
 1532SOL     OW 5494   2.735   3.800   6.058
 1532SOL    HW1 5495   2.743   3.876   6.122
 1532SOL    HW2 5496   2.665   3.736   6.089
 1533SOL     OW 5497   6.531   3.304   0.061
 1533SOL    HW1 5498   6.460   3.337   0.124
 1533SOL    HW2 5499   6.578   3.226   0.101
 1534SOL     OW 5500   1.675   4.728   6.253
 1534SOL    HW1 5501   1.615   4.651   6.232
 1534SOL    HW2 5502   1.692   4.781   6.170
 1535SOL     OW 5503   4.868   6.232   3.927
 1535SOL    HW1 5504   4.865   6.321   3.973
 1535SOL    HW2 5505   4.843   6.243   3.831
 1536SOL     OW 5506   4.184   4.220   5.264
 1536SOL    HW1 5507   4.263   4.217   5.326
 1536SOL    HW2 5508   4.207   4.275   5.184
 1537SOL     OW 5509   4.310   6.334   3.825
 1537SOL    HW1 5510   4.216   6.351   3.797
 1537SOL    HW2 5511   4.319   6.350   3.923
 1538SOL     OW 5512   4.043   6.542   5.726
 1538SOL    HW1 5513   4.057   6.504   5.635
 1538SOL    HW2 5514   4.128   6.535   5.778
 1539SOL     OW 5515   4.159   3.906   1.826
 1539SOL    HW1 5516   4.101   3.901   1.745
 1539SOL    HW2 5517   4.231   3.974   1.812
 1540SOL     OW 5518   1.902   6.426   6.077
 1540SOL    HW1 5519   1.892   6.416   5.978
 1540SOL    HW2 5520   1.869   6.343   6.122
 1541SOL     OW 5521   3.596   2.850   2.434
 1541SOL    HW1 5522   3.505   2.810   2.423
 1541SOL    HW2 5523   3.627   2.838   2.529
 1542SOL     OW 5524   6.496   5.755   2.280
 1542SOL    HW1 5525   6.595   5.762   2.293
 1542SOL    HW2 5526   6.474   5.677   2.222
 1543SOL     OW 5527   3.582   4.228   5.058
 1543SOL    HW1 5528   3.623   4.212   4.968
 1543SOL    HW2 5529   3.651   4.265   5.120
 1544SOL     OW 5530   3.201   3.706   2.886
 1544SOL    HW1 5531   3.188   3.764   2.806
 1544SOL    HW2 5532   3.229   3.761   2.964
 1545SOL     OW 5533   4.859   0.712   4.244
 1545SOL    HW1 5534   4.949   0.756   4.241
 1545SOL    HW2 5535   4.788   0.781   4.236
 1546SOL     OW 5536   4.390   6.671   6.111
 1546SOL    HW1 5537   4.343   6.593   6.152
 1546SOL    HW2 5538   4.486   6.646   6.094
 1547SOL     OW 5539   1.509   3.785   3.050
 1547SOL    HW1 5540   1.577   3.725   3.009
 1547SOL    HW2 5541   1.423   3.735   3.064
 1548SOL     OW 5542   4.557   4.173   5.792
 1548SOL    HW1 5543   4.645   4.138   5.761
 1548SOL    HW2 5544   4.555   4.175   5.892
 1549SOL     OW 5545   3.939   1.038   3.210
 1549SOL    HW1 5546   3.964   1.008   3.118
 1549SOL    HW2 5547   3.995   0.989   3.278
 1550SOL     OW 5548   2.216   4.980   6.156
 1550SOL    HW1 5549   2.306   4.941   6.172
 1550SOL    HW2 5550   2.184   5.027   6.239
 1551SOL     OW 5551   2.233   4.011   6.863
 1551SOL    HW1 5552   2.202   4.047   6.951
 1551SOL    HW2 5553   2.157   4.008   6.798
 1552SOL     OW 5554   0.236   6.962   0.579
 1552SOL    HW1 5555   0.191   6.896   0.518
 1552SOL    HW2 5556   0.209   0.031   0.553
 1553SOL     OW 5557   0.431   1.253   5.765
 1553SOL    HW1 5558   0.448   1.156   5.746
 1553SOL    HW2 5559   0.394   1.263   5.857
 1554SOL     OW 5560   4.198   1.507   3.569
 1554SOL    HW1 5561   4.103   1.527   3.543
 1554SOL    HW2 5562   4.257   1.522   3.490
 1555SOL     OW 5563   4.868   2.240   0.446
 1555SOL    HW1 5564   4.785   2.192   0.419
 1555SOL    HW2 5565   4.912   2.191   0.521
 1556SOL     OW 5566   2.886   1.265   0.548
 1556SOL    HW1 5567   2.835   1.179   0.551
 1556SOL    HW2 5568   2.833   1.337   0.593
 1557SOL     OW 5569   2.100   1.261   6.326
 1557SOL    HW1 5570   2.121   1.234   6.232
 1557SOL    HW2 5571   2.033   1.336   6.325
 1558SOL     OW 5572   5.259   1.121   4.261
 1558SOL    HW1 5573   5.322   1.049   4.290
 1558SOL    HW2 5574   5.278   1.146   4.166
 1559SOL     OW 5575   0.117   2.561   0.028
 1559SOL    HW1 5576   0.022   2.541   0.007
 1559SOL    HW2 5577   0.177   2.505   6.993
 1560SOL     OW 5578   2.831   2.068   5.915
 1560SOL    HW1 5579   2.866   2.109   5.831
 1560SOL    HW2 5580   2.899   2.006   5.953
 1561SOL     OW 5581   6.949   6.313   2.961
 1561SOL    HW1 5582   6.971   6.326   2.864
 1561SOL    HW2 5583   6.910   6.223   2.975
 1562SOL     OW 5584   3.988   5.780   1.686
 1562SOL    HW1 5585   4.070   5.728   1.709
 1562SOL    HW2 5586   3.957   5.831   1.767
 1563SOL     OW 5587   2.452   1.025   5.925
 1563SOL    HW1 5588   2.395   1.105   5.944
 1563SOL    HW2 5589   2.445   0.962   6.002
 1564SOL     OW 5590   1.082   2.720   2.678
 1564SOL    HW1 5591   1.086   2.664   2.761
 1564SOL    HW2 5592   1.118   2.667   2.601
 1565SOL     OW 5593   4.253   5.235   4.271
 1565SOL    HW1 5594   4.258   5.282   4.183
 1565SOL    HW2 5595   4.161   5.198   4.283
 1566SOL     OW 5596   5.625   5.121   4.166
 1566SOL    HW1 5597   5.578   5.052   4.221
 1566SOL    HW2 5598   5.658   5.079   4.081
 1567SOL     OW 5599   6.175   6.228   0.288
 1567SOL    HW1 5600   6.080   6.202   0.304
 1567SOL    HW2 5601   6.216   6.166   0.221
 1568SOL     OW 5602   2.200   5.615   1.339
 1568SOL    HW1 5603   2.183   5.678   1.415
 1568SOL    HW2 5604   2.131   5.630   1.268
 1569SOL     OW 5605   2.743   6.739   3.412
 1569SOL    HW1 5606   2.786   6.661   3.457
 1569SOL    HW2 5607   2.697   6.709   3.329
 1570SOL     OW 5608   2.235   6.824   0.689
 1570SOL    HW1 5609   2.269   6.797   0.779
 1570SOL    HW2 5610   2.187   6.746   0.647
 1571SOL     OW 5611   6.097   1.442   2.661
 1571SOL    HW1 5612   6.071   1.347   2.679
 1571SOL    HW2 5613   6.193   1.455   2.685
 1572SOL     OW 5614   1.196   5.997   0.487
 1572SOL    HW1 5615   1.254   6.016   0.566
 1572SOL    HW2 5616   1.231   6.047   0.408
 1573SOL     OW 5617   6.035   3.284   2.227
 1573SOL    HW1 5618   5.981   3.359   2.266
 1573SOL    HW2 5619   6.131   3.297   2.250
 1574SOL     OW 5620   0.005   1.187   3.302
 1574SOL    HW1 5621   6.987   1.276   3.285
 1574SOL    HW2 5622   0.048   1.154   3.218
 1575SOL     OW 5623   2.222   2.518   1.527
 1575SOL    HW1 5624   2.203   2.551   1.620
 1575SOL    HW2 5625   2.288   2.443   1.532
 1576SOL     OW 5626   0.960   0.859   3.080
 1576SOL    HW1 5627   1.006   0.895   3.161
 1576SOL    HW2 5628   0.938   0.763   3.094
 1577SOL     OW 5629   2.796   0.666   5.591
 1577SOL    HW1 5630   2.791   0.749   5.536
 1577SOL    HW2 5631   2.773   0.688   5.686
 1578SOL     OW 5632   5.637   2.672   5.911
 1578SOL    HW1 5633   5.720   2.726   5.924
 1578SOL    HW2 5634   5.564   2.709   5.968
 1579SOL     OW 5635   0.217   1.933   2.278
 1579SOL    HW1 5636   0.293   1.985   2.319
 1579SOL    HW2 5637   0.135   1.946   2.333
 1580SOL     OW 5638   3.522   4.185   3.922
 1580SOL    HW1 5639   3.522   4.254   3.994
 1580SOL    HW2 5640   3.581   4.109   3.948
 1581SOL     OW 5641   6.454   4.572   5.111
 1581SOL    HW1 5642   6.529   4.515   5.076
 1581SOL    HW2 5643   6.396   4.600   5.035
 1582SOL     OW 5644   2.168   6.633   4.154
 1582SOL    HW1 5645   2.153   6.541   4.119
 1582SOL    HW2 5646   2.266   6.648   4.168
 1583SOL     OW 5647   0.698   5.313   2.349
 1583SOL    HW1 5648   0.701   5.226   2.397
 1583SOL    HW2 5649   0.736   5.301   2.257
 1584SOL     OW 5650   0.616   6.269   6.422
 1584SOL    HW1 5651   0.677   6.267   6.501
 1584SOL    HW2 5652   0.626   6.184   6.370
 1585SOL     OW 5653   4.633   1.922   3.728
 1585SOL    HW1 5654   4.543   1.898   3.690
 1585SOL    HW2 5655   4.701   1.920   3.655
 1586SOL     OW 5656   3.394   4.703   1.702
 1586SOL    HW1 5657   3.475   4.655   1.736
 1586SOL    HW2 5658   3.345   4.744   1.779
 1587SOL     OW 5659   2.891   6.143   6.034
 1587SOL    HW1 5660   2.934   6.232   6.055
 1587SOL    HW2 5661   2.933   6.104   5.953
 1588SOL     OW 5662   3.652   1.163   2.658
 1588SOL    HW1 5663   3.651   1.159   2.757
 1588SOL    HW2 5664   3.610   1.248   2.627
 1589SOL     OW 5665   6.470   3.278   1.644
 1589SOL    HW1 5666   6.388   3.265   1.588
 1589SOL    HW2 5667   6.518   3.191   1.654
 1590SOL     OW 5668   4.396   0.276   4.984
 1590SOL    HW1 5669   4.468   0.276   4.914
 1590SOL    HW2 5670   4.336   0.354   4.970
 1591SOL     OW 5671   6.844   5.344   1.692
 1591SOL    HW1 5672   6.769   5.315   1.634
 1591SOL    HW2 5673   6.815   5.421   1.750
 1592SOL     OW 5674   1.750   3.666   7.005
 1592SOL    HW1 5675   1.773   3.760   0.007
 1592SOL    HW2 5676   1.676   3.666   6.938
 1593SOL     OW 5677   1.314   6.258   5.590
 1593SOL    HW1 5678   1.229   6.212   5.613
 1593SOL    HW2 5679   1.320   6.271   5.491
 1594SOL     OW 5680   0.611   6.272   1.852
 1594SOL    HW1 5681   0.649   6.184   1.827
 1594SOL    HW2 5682   0.549   6.304   1.779
 1595SOL     OW 5683   1.794   4.682   0.302
 1595SOL    HW1 5684   1.770   4.636   0.387
 1595SOL    HW2 5685   1.758   4.776   0.303
 1596SOL     OW 5686   0.084   2.216   4.004
 1596SOL    HW1 5687   0.022   2.269   3.947
 1596SOL    HW2 5688   0.175   2.217   3.964
 1597SOL     OW 5689   1.478   6.526   0.159
 1597SOL    HW1 5690   1.478   6.513   0.060
 1597SOL    HW2 5691   1.393   6.569   0.187
 1598SOL     OW 5692   0.261   4.387   5.732
 1598SOL    HW1 5693   0.326   4.456   5.765
 1598SOL    HW2 5694   0.291   4.354   5.642
 1599SOL     OW 5695   4.638   5.255   4.846
 1599SOL    HW1 5696   4.617   5.176   4.788
 1599SOL    HW2 5697   4.666   5.332   4.789
 1600SOL     OW 5698   3.793   1.436   3.128
 1600SOL    HW1 5699   3.737   1.398   3.202
 1600SOL    HW2 5700   3.823   1.528   3.152
 1601SOL     OW 5701   6.788   5.730   4.429
 1601SOL    HW1 5702   6.757   5.678   4.509
 1601SOL    HW2 5703   6.722   5.719   4.354
 1602SOL     OW 5704   4.022   6.353   3.902
 1602SOL    HW1 5705   4.034   6.424   3.971
 1602SOL    HW2 5706   3.953   6.287   3.933
 1603SOL     OW 5707   1.431   5.955   3.541
 1603SOL    HW1 5708   1.487   5.950   3.458
 1603SOL    HW2 5709   1.340   5.918   3.523
 1604SOL     OW 5710   5.791   4.398   1.569
 1604SOL    HW1 5711   5.718   4.331   1.580
 1604SOL    HW2 5712   5.814   4.438   1.658
 1605SOL     OW 5713   6.307   5.067   1.514
 1605SOL    HW1 5714   6.229   5.004   1.515
 1605SOL    HW2 5715   6.392   5.014   1.523
 1606SOL     OW 5716   4.018   0.876   5.667
 1606SOL    HW1 5717   3.947   0.889   5.737
 1606SOL    HW2 5718   4.023   0.779   5.642
 1607SOL     OW 5719   4.392   1.091   1.213
 1607SOL    HW1 5720   4.396   1.142   1.300
 1607SOL    HW2 5721   4.305   1.108   1.168
 1608SOL     OW 5722   1.265   1.225   3.393
 1608SOL    HW1 5723   1.199   1.259   3.460
 1608SOL    HW2 5724   1.216   1.199   3.309
 1609SOL     OW 5725   4.300   0.311   0.392
 1609SOL    HW1 5726   4.319   0.258   0.475
 1609SOL    HW2 5727   4.313   0.408   0.412
 1610SOL     OW 5728   6.176   4.542   6.507
 1610SOL    HW1 5729   6.163   4.450   6.471
 1610SOL    HW2 5730   6.190   4.538   6.606
 1611SOL     OW 5731   2.261   3.888   1.142
 1611SOL    HW1 5732   2.303   3.903   1.053
 1611SOL    HW2 5733   2.281   3.966   1.202
 1612SOL     OW 5734   2.684   6.907   6.813
 1612SOL    HW1 5735   2.709   6.887   6.907
 1612SOL    HW2 5736   2.629   6.991   6.810
 1613SOL     OW 5737   1.147   5.929   1.852
 1613SOL    HW1 5738   1.247   5.916   1.855
 1613SOL    HW2 5739   1.120   5.999   1.918
 1614SOL     OW 5740   5.347   3.075   6.734
 1614SOL    HW1 5741   5.265   3.023   6.711
 1614SOL    HW2 5742   5.327   3.173   6.728
 1615SOL     OW 5743   5.816   5.600   0.576
 1615SOL    HW1 5744   5.854   5.625   0.487
 1615SOL    HW2 5745   5.745   5.531   0.564
 1616SOL     OW 5746   3.271   1.405   5.364
 1616SOL    HW1 5747   3.223   1.371   5.283
 1616SOL    HW2 5748   3.262   1.339   5.438
 1617SOL     OW 5749   5.698   6.538   2.897
 1617SOL    HW1 5750   5.733   6.578   2.982
 1617SOL    HW2 5751   5.693   6.438   2.907
 1618SOL     OW 5752   1.697   5.152   2.200
 1618SOL    HW1 5753   1.601   5.176   2.216
 1618SOL    HW2 5754   1.721   5.073   2.255
 1619SOL     OW 5755   0.968   3.878   1.746
 1619SOL    HW1 5756   0.965   3.944   1.672
 1619SOL    HW2 5757   0.877   3.838   1.759
 1620SOL     OW 5758   2.748   4.731   1.731
 1620SOL    HW1 5759   2.754   4.830   1.716
 1620SOL    HW2 5760   2.783   4.709   1.823
 1621SOL     OW 5761   0.036   1.321   0.765
 1621SOL    HW1 5762   0.089   1.279   0.839
 1621SOL    HW2 5763   0.009   1.414   0.791
 1622SOL     OW 5764   0.664   2.849   4.859
 1622SOL    HW1 5765   0.583   2.890   4.818
 1622SOL    HW2 5766   0.635   2.781   4.928
 1623SOL     OW 5767   2.191   3.248   4.959
 1623SOL    HW1 5768   2.217   3.313   5.030
 1623SOL    HW2 5769   2.232   3.159   4.978
 1624SOL     OW 5770   3.120   1.124   5.176
 1624SOL    HW1 5771   3.053   1.144   5.248
 1624SOL    HW2 5772   3.159   1.210   5.143
 1625SOL     OW 5773   1.406   4.845   0.276
 1625SOL    HW1 5774   1.498   4.834   0.315
 1625SOL    HW2 5775   1.411   4.908   0.199
 1626SOL     OW 5776   4.315   1.883   6.977
 1626SOL    HW1 5777   4.362   1.819   0.015
 1626SOL    HW2 5778   4.326   1.976   7.012
 1627SOL     OW 5779   6.539   3.405   3.276
 1627SOL    HW1 5780   6.557   3.466   3.199
 1627SOL    HW2 5781   6.620   3.349   3.293
 1628SOL     OW 5782   5.109   4.300   6.850
 1628SOL    HW1 5783   5.172   4.261   6.783
 1628SOL    HW2 5784   5.070   4.384   6.814
 1629SOL     OW 5785   3.190   0.715   4.051
 1629SOL    HW1 5786   3.220   0.803   4.016
 1629SOL    HW2 5787   3.242   0.691   4.133
 1630SOL     OW 5788   1.474   4.925   5.551
 1630SOL    HW1 5789   1.449   4.869   5.629
 1630SOL    HW2 5790   1.523   4.869   5.483
 1631SOL     OW 5791   1.102   3.143   0.040
 1631SOL    HW1 5792   1.121   3.204   6.986
 1631SOL    HW2 5793   1.027   3.180   0.094
 1632SOL     OW 5794   6.394   2.433   0.577
 1632SOL    HW1 5795   6.363   2.371   0.505
 1632SOL    HW2 5796   6.493   2.446   0.568
 1633SOL     OW 5797   5.462   3.931   4.363
 1633SOL    HW1 5798   5.448   3.859   4.431
 1633SOL    HW2 5799   5.380   3.988   4.358
 1634SOL     OW 5800   4.189   5.659   4.774
 1634SOL    HW1 5801   4.238   5.572   4.778
 1634SOL    HW2 5802   4.124   5.665   4.850
 1635SOL     OW 5803   6.993   5.066   6.650
 1635SOL    HW1 5804   7.022   5.032   6.739
 1635SOL    HW2 5805   0.046   5.064   6.586
 1636SOL     OW 5806   2.657   4.435   1.614
 1636SOL    HW1 5807   2.650   4.524   1.569
 1636SOL    HW2 5808   2.715   4.443   1.695
 1637SOL     OW 5809   1.070   0.527   2.790
 1637SOL    HW1 5810   1.090   0.456   2.722
 1637SOL    HW2 5811   1.029   0.484   2.871
 1638SOL     OW 5812   0.030   4.277   3.350
 1638SOL    HW1 5813   0.092   4.208   3.389
 1638SOL    HW2 5814   6.980   4.296   3.414
 1639SOL     OW 5815   5.172   6.959   2.266
 1639SOL    HW1 5816   5.216   6.870   2.280
 1639SOL    HW2 5817   5.242   0.006   2.259
 1640SOL     OW 5818   6.323   0.797   0.265
 1640SOL    HW1 5819   6.392   0.747   0.213
 1640SOL    HW2 5820   6.233   0.780   0.226
 1641SOL     OW 5821   4.819   1.945   3.166
 1641SOL    HW1 5822   4.824   1.847   3.184
 1641SOL    HW2 5823   4.838   1.995   3.250
 1642SOL     OW 5824   6.187   3.631   6.374
 1642SOL    HW1 5825   6.254   3.616   6.447
 1642SOL    HW2 5826   6.096   3.606   6.406
 1643SOL     OW 5827   2.960   4.886   4.907
 1643SOL    HW1 5828   3.009   4.882   4.995
 1643SOL    HW2 5829   2.952   4.793   4.870
 1644SOL     OW 5830   6.268   3.584   0.423
 1644SOL    HW1 5831   6.348   3.642   0.436
 1644SOL    HW2 5832   6.197   3.635   0.375
 1645SOL     OW 5833   3.034   4.865   5.912
 1645SOL    HW1 5834   3.091   4.814   5.849
 1645SOL    HW2 5835   2.979   4.932   5.861
 1646SOL     OW 5836   2.977   6.423   7.011
 1646SOL    HW1 5837   3.009   6.330   0.006
 1646SOL    HW2 5838   2.940   6.463   0.071
 1647SOL     OW 5839   5.656   3.027   4.915
 1647SOL    HW1 5840   5.587   3.023   4.843
 1647SOL    HW2 5841   5.649   2.946   4.973
 1648SOL     OW 5842   5.328   5.223   0.676
 1648SOL    HW1 5843   5.296   5.286   0.605
 1648SOL    HW2 5844   5.255   5.209   0.743
 1649SOL     OW 5845   3.309   1.105   4.304
 1649SOL    HW1 5846   3.325   1.134   4.398
 1649SOL    HW2 5847   3.212   1.083   4.292
 1650SOL     OW 5848   1.908   6.369   5.821
 1650SOL    HW1 5849   1.982   6.369   5.754
 1650SOL    HW2 5850   1.831   6.315   5.787
 1651SOL     OW 5851   0.379   1.595   1.980
 1651SOL    HW1 5852   0.437   1.634   2.052
 1651SOL    HW2 5853   0.355   1.666   1.915
 1652SOL     OW 5854   0.864   3.704   2.541
 1652SOL    HW1 5855   0.910   3.668   2.460
 1652SOL    HW2 5856   0.770   3.669   2.544
 1653SOL     OW 5857   0.799   6.994   1.224
 1653SOL    HW1 5858   0.746   7.001   1.308
 1653SOL    HW2 5859   0.747   6.942   1.156
 1654SOL     OW 5860   0.689   3.843   1.736
 1654SOL    HW1 5861   0.710   3.745   1.727
 1654SOL    HW2 5862   0.631   3.871   1.659
 1655SOL     OW 5863   0.839   2.165   5.138
 1655SOL    HW1 5864   0.812   2.082   5.090
 1655SOL    HW2 5865   0.804   2.163   5.231
 1656SOL     OW 5866   2.423   4.511   2.250
 1656SOL    HW1 5867   2.511   4.515   2.299
 1656SOL    HW2 5868   2.430   4.565   2.166
 1657SOL     OW 5869   0.321   1.200   3.713
 1657SOL    HW1 5870   0.288   1.287   3.675
 1657SOL    HW2 5871   0.410   1.214   3.756
 1658SOL     OW 5872   0.178   6.023   1.213
 1658SOL    HW1 5873   0.177   6.009   1.114
 1658SOL    HW2 5874   0.139   6.112   1.235
 1659SOL     OW 5875   4.083   6.783   6.313
 1659SOL    HW1 5876   4.030   6.868   6.309
 1659SOL    HW2 5877   4.174   6.798   6.274
 1660SOL     OW 5878   1.173   5.377   3.777
 1660SOL    HW1 5879   1.233   5.351   3.702
 1660SOL    HW2 5880   1.079   5.387   3.743
 1661SOL     OW 5881   2.443   0.313   1.401
 1661SOL    HW1 5882   2.355   0.269   1.380
 1661SOL    HW2 5883   2.501   0.249   1.450
 1662SOL     OW 5884   6.341   0.909   4.522
 1662SOL    HW1 5885   6.287   0.920   4.439
 1662SOL    HW2 5886   6.438   0.914   4.500
 1663SOL     OW 5887   4.489   6.082   3.012
 1663SOL    HW1 5888   4.535   6.167   2.987
 1663SOL    HW2 5889   4.557   6.014   3.042
 1664SOL     OW 5890   1.892   0.233   4.856
 1664SOL    HW1 5891   1.890   0.333   4.853
 1664SOL    HW2 5892   1.800   0.197   4.841
 1665SOL     OW 5893   6.957   1.644   2.856
 1665SOL    HW1 5894   6.904   1.716   2.812
 1665SOL    HW2 5895   6.998   1.585   2.786
 1666SOL     OW 5896   5.472   2.067   6.861
 1666SOL    HW1 5897   5.501   2.021   6.945
 1666SOL    HW2 5898   5.378   2.039   6.839
 1667SOL     OW 5899   6.728   6.030   1.294
 1667SOL    HW1 5900   6.814   5.980   1.294
 1667SOL    HW2 5901   6.652   5.965   1.288
 1668SOL     OW 5902   5.576   6.466   4.847
 1668SOL    HW1 5903   5.484   6.475   4.884
 1668SOL    HW2 5904   5.643   6.470   4.921
 1669SOL     OW 5905   6.122   5.705   6.644
 1669SOL    HW1 5906   6.026   5.678   6.649
 1669SOL    HW2 5907   6.168   5.680   6.729
 1670SOL     OW 5908   0.086   3.991   5.610
 1670SOL    HW1 5909   0.168   3.938   5.630
 1670SOL    HW2 5910   0.034   4.003   5.694
 1671SOL     OW 5911   5.196   1.614   1.844
 1671SOL    HW1 5912   5.138   1.684   1.886
 1671SOL    HW2 5913   5.279   1.657   1.807
 1672SOL     OW 5914   1.739   3.339   1.049
 1672SOL    HW1 5915   1.691   3.256   1.023
 1672SOL    HW2 5916   1.699   3.376   1.133
 1673SOL     OW 5917   1.494   1.298   4.019
 1673SOL    HW1 5918   1.452   1.208   4.033
 1673SOL    HW2 5919   1.448   1.344   3.944
 1674SOL     OW 5920   0.626   2.976   2.176
 1674SOL    HW1 5921   0.579   3.055   2.137
 1674SOL    HW2 5922   0.619   2.978   2.275
 1675SOL     OW 5923   5.343   6.962   0.070
 1675SOL    HW1 5924   5.337   7.015   7.009
 1675SOL    HW2 5925   5.335   6.864   0.049
 1676SOL     OW 5926   2.179   2.494   2.201
 1676SOL    HW1 5927   2.196   2.480   2.299
 1676SOL    HW2 5928   2.264   2.479   2.150
 1677SOL     OW 5929   3.210   3.419   4.395
 1677SOL    HW1 5930   3.237   3.486   4.464
 1677SOL    HW2 5931   3.289   3.364   4.369
 1678SOL     OW 5932   5.109   4.116   4.290
 1678SOL    HW1 5933   5.015   4.099   4.320
 1678SOL    HW2 5934   5.167   4.132   4.369
 1679SOL     OW 5935   2.379   2.326   4.290
 1679SOL    HW1 5936   2.415   2.402   4.344
 1679SOL    HW2 5937   2.410   2.334   4.196
 1680SOL     OW 5938   6.905   2.843   4.957
 1680SOL    HW1 5939   6.895   2.762   4.899
 1680SOL    HW2 5940   6.836   2.840   5.030
 1681SOL     OW 5941   6.742   5.810   0.541
 1681SOL    HW1 5942   6.709   5.870   0.613
 1681SOL    HW2 5943   6.664   5.768   0.495
 1682SOL     OW 5944   1.694   1.040   4.344
 1682SOL    HW1 5945   1.774   1.035   4.284
 1682SOL    HW2 5946   1.679   1.136   4.370
 1683SOL     OW 5947   4.998   5.165   1.415
 1683SOL    HW1 5948   5.089   5.127   1.400
 1683SOL    HW2 5949   5.003   5.265   1.421
 1684SOL     OW 5950   1.119   5.912   2.167
 1684SOL    HW1 5951   1.043   5.976   2.154
 1684SOL    HW2 5952   1.126   5.887   2.264
 1685SOL     OW 5953   2.803   0.901   4.612
 1685SOL    HW1 5954   2.823   0.805   4.629
 1685SOL    HW2 5955   2.707   0.919   4.634
 1686SOL     OW 5956   2.918   5.986   4.497
 1686SOL    HW1 5957   2.944   6.050   4.570
 1686SOL    HW2 5958   2.835   5.937   4.525
 1687SOL     OW 5959   2.010   3.454   1.456
 1687SOL    HW1 5960   2.029   3.363   1.421
 1687SOL    HW2 5961   2.092   3.491   1.500
 1688SOL     OW 5962   2.333   2.683   4.092
 1688SOL    HW1 5963   2.353   2.780   4.102
 1688SOL    HW2 5964   2.386   2.646   4.015
 1689SOL     OW 5965   5.869   1.270   2.878
 1689SOL    HW1 5966   5.947   1.309   2.928
 1689SOL    HW2 5967   5.840   1.334   2.807
 1690SOL     OW 5968   1.455   2.702   3.763
 1690SOL    HW1 5969   1.374   2.679   3.816
 1690SOL    HW2 5970   1.529   2.639   3.786
 1691SOL     OW 5971   6.333   3.547   3.383
 1691SOL    HW1 5972   6.385   3.494   3.315
 1691SOL    HW2 5973   6.396   3.579   3.454
 1692SOL     OW 5974   5.600   6.256   1.402
 1692SOL    HW1 5975   5.509   6.289   1.380
 1692SOL    HW2 5976   5.620   6.274   1.499
 1693SOL     OW 5977   6.849   2.004   2.146
 1693SOL    HW1 5978   6.886   2.031   2.234
 1693SOL    HW2 5979   6.924   1.992   2.081
 1694SOL     OW 5980   5.535   0.415   2.159
 1694SOL    HW1 5981   5.593   0.469   2.098
 1694SOL    HW2 5982   5.507   0.471   2.236
 1695SOL     OW 5983   3.838   0.987   5.159
 1695SOL    HW1 5984   3.901   1.026   5.092
 1695SOL    HW2 5985   3.890   0.939   5.230
 1696SOL     OW 5986   4.641   4.626   0.416
 1696SOL    HW1 5987   4.586   4.703   0.384
 1696SOL    HW2 5988   4.644   4.626   0.516
 1697SOL     OW 5989   5.660   0.371   0.769
 1697SOL    HW1 5990   5.715   0.353   0.688
 1697SOL    HW2 5991   5.668   0.294   0.833
 1698SOL     OW 5992   4.375   0.548   0.454
 1698SOL    HW1 5993   4.422   0.611   0.392
 1698SOL    HW2 5994   4.433   0.531   0.534
 1699SOL     OW 5995   1.542   0.719   1.270
 1699SOL    HW1 5996   1.465   0.667   1.310
 1699SOL    HW2 5997   1.625   0.664   1.277
 1700SOL     OW 5998   5.719   2.680   3.930
 1700SOL    HW1 5999   5.787   2.611   3.955
 1700SOL    HW2 6000   5.684   2.724   4.012
 1701SOL     OW 6001   4.585   4.345   6.359
 1701SOL    HW1 6002   4.629   4.302   6.438
 1701SOL    HW2 6003   4.494   4.378   6.385
 1702SOL     OW 6004   6.638   2.344   0.457
 1702SOL    HW1 6005   6.658   2.274   0.388
 1702SOL    HW2 6006   6.718   2.357   0.515
 1703SOL     OW 6007   2.949   2.628   1.760
 1703SOL    HW1 6008   2.925   2.540   1.800
 1703SOL    HW2 6009   3.032   2.618   1.705
 1704SOL     OW 6010   1.213   2.503   1.227
 1704SOL    HW1 6011   1.296   2.468   1.182
 1704SOL    HW2 6012   1.160   2.558   1.162
 1705SOL     OW 6013   3.303   1.764   1.577
 1705SOL    HW1 6014   3.388   1.800   1.538
 1705SOL    HW2 6015   3.279   1.817   1.658
 1706SOL     OW 6016   4.877   1.002   2.326
 1706SOL    HW1 6017   4.881   0.981   2.228
 1706SOL    HW2 6018   4.922   1.090   2.343
 1707SOL     OW 6019   4.952   2.195   2.392
 1707SOL    HW1 6020   4.944   2.095   2.388
 1707SOL    HW2 6021   4.972   2.231   2.301
 1708SOL     OW 6022   4.752   5.386   1.498
 1708SOL    HW1 6023   4.849   5.411   1.496
 1708SOL    HW2 6024   4.722   5.376   1.592
 1709SOL     OW 6025   2.981   6.082   2.460
 1709SOL    HW1 6026   2.901   6.137   2.437
 1709SOL    HW2 6027   3.060   6.143   2.473
 1710SOL     OW 6028   5.275   4.900   4.054
 1710SOL    HW1 6029   5.247   4.994   4.074
 1710SOL    HW2 6030   5.195   4.845   4.030
 1711SOL     OW 6031   1.392   4.599   4.150
 1711SOL    HW1 6032   1.366   4.529   4.083
 1711SOL    HW2 6033   1.368   4.689   4.114
 1712SOL     OW 6034   6.702   2.352   5.572
 1712SOL    HW1 6035   6.718   2.417   5.647
 1712SOL    HW2 6036   6.627   2.290   5.597
 1713SOL     OW 6037   4.438   2.551   1.562
 1713SOL    HW1 6038   4.480   2.466   1.532
 1713SOL    HW2 6039   4.345   2.556   1.526
 1714SOL     OW 6040   3.289   1.635   5.675
 1714SOL    HW1 6041   3.312   1.630   5.578
 1714SOL    HW2 6042   3.290   1.542   5.714
 1715SOL     OW 6043   0.506   5.707   2.959
 1715SOL    HW1 6044   0.441   5.773   2.922
 1715SOL    HW2 6045   0.498   5.705   3.059
 1716SOL     OW 6046   4.867   6.706   3.255
 1716SOL    HW1 6047   4.805   6.749   3.189
 1716SOL    HW2 6048   4.820   6.629   3.300
 1717SOL     OW 6049   2.466   6.570   5.717
 1717SOL    HW1 6050   2.455   6.669   5.709
 1717SOL    HW2 6051   2.559   6.544   5.689
 1718SOL     OW 6052   2.389   1.990   1.545
 1718SOL    HW1 6053   2.305   2.041   1.562
 1718SOL    HW2 6054   2.422   1.949   1.631
 1719SOL     OW 6055   1.380   3.456   0.938
 1719SOL    HW1 6056   1.442   3.514   0.991
 1719SOL    HW2 6057   1.317   3.513   0.885
 1720SOL     OW 6058   0.185   3.344   0.153
 1720SOL    HW1 6059   0.099   3.390   0.131
 1720SOL    HW2 6060   0.168   3.272   0.220
 1721SOL     OW 6061   1.544   6.257   1.502
 1721SOL    HW1 6062   1.597   6.248   1.586
 1721SOL    HW2 6063   1.494   6.344   1.503
 1722SOL     OW 6064   3.711   1.352   3.612
 1722SOL    HW1 6065   3.795   1.381   3.567
 1722SOL    HW2 6066   3.681   1.422   3.677
 1723SOL     OW 6067   6.123   2.488   2.796
 1723SOL    HW1 6068   6.181   2.411   2.820
 1723SOL    HW2 6069   6.179   2.562   2.758
 1724SOL     OW 6070   6.705   2.569   1.805
 1724SOL    HW1 6071   6.716   2.631   1.883
 1724SOL    HW2 6072   6.795   2.549   1.765
 1725SOL     OW 6073   1.937   4.916   6.473
 1725SOL    HW1 6074   1.952   4.834   6.529
 1725SOL    HW2 6075   1.888   4.984   6.527
 1726SOL     OW 6076   5.895   4.644   4.706
 1726SOL    HW1 6077   5.831   4.591   4.762
 1726SOL    HW2 6078   5.914   4.732   4.750
 1727SOL     OW 6079   3.447   2.991   4.057
 1727SOL    HW1 6080   3.458   2.942   4.143
 1727SOL    HW2 6081   3.356   3.032   4.053
 1728SOL     OW 6082   4.952   4.826   5.259
 1728SOL    HW1 6083   4.914   4.867   5.177
 1728SOL    HW2 6084   4.954   4.895   5.332
 1729SOL     OW 6085   2.164   4.235   2.991
 1729SOL    HW1 6086   2.095   4.303   2.967
 1729SOL    HW2 6087   2.198   4.253   3.083
 1730SOL     OW 6088   1.309   6.794   5.809
 1730SOL    HW1 6089   1.378   6.758   5.747
 1730SOL    HW2 6090   1.288   6.726   5.880
 1731SOL     OW 6091   6.676   4.091   2.996
 1731SOL    HW1 6092   6.648   3.996   2.987
 1731SOL    HW2 6093   6.760   4.097   3.050
 1732SOL     OW 6094   2.541   5.433   5.442
 1732SOL    HW1 6095   2.486   5.354   5.413
 1732SOL    HW2 6096   2.620   5.401   5.495
 1733SOL     OW 6097   1.973   4.584   1.437
 1733SOL    HW1 6098   1.885   4.631   1.447
 1733SOL    HW2 6099   1.989   4.526   1.517
 1734SOL     OW 6100   4.520   3.203   0.902
 1734SOL    HW1 6101   4.535   3.291   0.946
 1734SOL    HW2 6102   4.440   3.159   0.941
 1735SOL     OW 6103   5.089   5.847   0.340
 1735SOL    HW1 6104   5.145   5.920   0.300
 1735SOL    HW2 6105   5.010   5.887   0.386
 1736SOL     OW 6106   3.118   3.154   0.480
 1736SOL    HW1 6107   3.128   3.254   0.481
 1736SOL    HW2 6108   3.199   3.112   0.520
 1737SOL     OW 6109   3.012   1.134   4.308
 1737SOL    HW1 6110   3.020   1.177   4.217
 1737SOL    HW2 6111   2.958   1.050   4.300
 1738SOL     OW 6112   2.112   2.549   4.124
 1738SOL    HW1 6113   2.200   2.596   4.114
 1738SOL    HW2 6114   2.083   2.551   4.220
 1739SOL     OW 6115   0.299   2.388   5.527
 1739SOL    HW1 6116   0.340   2.392   5.436
 1739SOL    HW2 6117   0.348   2.321   5.583
 1740SOL     OW 6118   0.020   1.842   5.648
 1740SOL    HW1 6119   0.108   1.798   5.668
 1740SOL    HW2 6120   6.980   1.774   5.611
 1741SOL     OW 6121   2.383   0.558   3.473
 1741SOL    HW1 6122   2.327   0.636   3.502
 1741SOL    HW2 6123   2.342   0.473   3.505
 1742SOL     OW 6124   5.936   0.460   6.535
 1742SOL    HW1 6125   6.029   0.426   6.549
 1742SOL    HW2 6126   5.936   0.528   6.462
 1743SOL     OW 6127   0.984   2.317   1.483
 1743SOL    HW1 6128   1.012   2.411   1.466
 1743SOL    HW2 6129   0.885   2.310   1.481
 1744SOL     OW 6130   6.415   1.736   2.441
 1744SOL    HW1 6131   6.509   1.739   2.406
 1744SOL    HW2 6132   6.378   1.644   2.430
 1745SOL     OW 6133   5.917   5.839   2.544
 1745SOL    HW1 6134   5.880   5.839   2.637
 1745SOL    HW2 6135   6.004   5.790   2.543
 1746SOL     OW 6136   0.953   4.048   4.499
 1746SOL    HW1 6137   0.938   4.119   4.567
 1746SOL    HW2 6138   1.018   3.981   4.534
 1747SOL     OW 6139   4.907   1.404   3.335
 1747SOL    HW1 6140   4.978   1.474   3.347
 1747SOL    HW2 6141   4.828   1.427   3.393
 1748SOL     OW 6142   1.247   0.829   5.373
 1748SOL    HW1 6143   1.254   0.775   5.456
 1748SOL    HW2 6144   1.181   0.787   5.311
 1749SOL     OW 6145   2.618   0.563   4.660
 1749SOL    HW1 6146   2.711   0.594   4.643
 1749SOL    HW2 6147   2.617   0.463   4.667
 1750SOL     OW 6148   5.438   6.356   4.198
 1750SOL    HW1 6149   5.484   6.397   4.277
 1750SOL    HW2 6150   5.376   6.422   4.157
 1751SOL     OW 6151   3.925   6.496   4.865
 1751SOL    HW1 6152   3.854   6.544   4.916
 1751SOL    HW2 6153   3.999   6.472   4.927
 1752SOL     OW 6154   6.638   2.172   1.704
 1752SOL    HW1 6155   6.614   2.079   1.734
 1752SOL    HW2 6156   6.711   2.207   1.762
 1753SOL     OW 6157   0.233   1.121   0.975
 1753SOL    HW1 6158   0.229   1.181   1.054
 1753SOL    HW2 6159   0.316   1.141   0.922
 1754SOL     OW 6160   1.144   4.537   6.931
 1754SOL    HW1 6161   1.110   4.482   6.855
 1754SOL    HW2 6162   1.092   4.516   7.013
 1755SOL     OW 6163   6.882   6.067   2.220
 1755SOL    HW1 6164   6.945   6.137   2.185
 1755SOL    HW2 6165   6.916   5.977   2.195
 1756SOL     OW 6166   4.028   5.941   5.831
 1756SOL    HW1 6167   3.944   5.947   5.776
 1756SOL    HW2 6168   4.042   5.846   5.860
 1757SOL     OW 6169   2.592   5.420   4.727
 1757SOL    HW1 6170   2.546   5.391   4.811
 1757SOL    HW2 6171   2.659   5.491   4.748
 1758SOL     OW 6172   2.132   0.056   4.068
 1758SOL    HW1 6173   2.082   0.008   4.140
 1758SOL    HW2 6174   2.113   0.013   3.979
 1759SOL     OW 6175   1.561   5.892   6.327
 1759SOL    HW1 6176   1.556   5.992   6.323
 1759SOL    HW2 6177   1.595   5.857   6.240
 1760SOL     OW 6178   5.286   1.347   3.078
 1760SOL    HW1 6179   5.383   1.370   3.083
 1760SOL    HW2 6180   5.234   1.430   3.059
 1761SOL     OW 6181   0.342   0.534   0.775
 1761SOL    HW1 6182   0.372   0.628   0.794
 1761SOL    HW2 6183   0.381   0.473   0.843
 1762SOL     OW 6184   0.639   0.951   4.914
 1762SOL    HW1 6185   0.682   0.877   4.967
 1762SOL    HW2 6186   0.539   0.941   4.919
 1763SOL     OW 6187   1.435   3.875   3.974
 1763SOL    HW1 6188   1.355   3.832   3.931
 1763SOL    HW2 6189   1.470   3.947   3.914
 1764SOL     OW 6190   2.122   3.450   2.542
 1764SOL    HW1 6191   2.175   3.476   2.461
 1764SOL    HW2 6192   2.101   3.353   2.538
 1765SOL     OW 6193   3.420   1.000   0.811
 1765SOL    HW1 6194   3.456   1.076   0.758
 1765SOL    HW2 6195   3.428   0.915   0.758
 1766SOL     OW 6196   4.970   4.160   2.495
 1766SOL    HW1 6197   5.053   4.122   2.536
 1766SOL    HW2 6198   4.993   4.206   2.409
 1767SOL     OW 6199   0.657   3.567   2.749
 1767SOL    HW1 6200   0.724   3.497   2.771
 1767SOL    HW2 6201   0.592   3.532   2.681
 1768SOL     OW 6202   3.968   2.046   6.059
 1768SOL    HW1 6203   3.884   1.999   6.087
 1768SOL    HW2 6204   3.981   2.128   6.115
 1769SOL     OW 6205   4.169   1.839   5.972
 1769SOL    HW1 6206   4.180   1.741   5.957
 1769SOL    HW2 6207   4.118   1.855   6.056
 1770SOL     OW 6208   6.971   4.502   4.647
 1770SOL    HW1 6209   6.879   4.468   4.667
 1770SOL    HW2 6210   7.002   4.464   4.559
 1771SOL     OW 6211   1.803   5.178   0.138
 1771SOL    HW1 6212   1.836   5.138   0.052
 1771SOL    HW2 6213   1.810   5.278   0.132
 1772SOL     OW 6214   3.285   0.190   3.363
 1772SOL    HW1 6215   3.259   0.241   3.281
 1772SOL    HW2 6216   3.265   0.093   3.350
 1773SOL     OW 6217   3.064   3.587   6.530
 1773SOL    HW1 6218   3.102   3.560   6.619
 1773SOL    HW2 6219   3.076   3.685   6.517
 1774SOL     OW 6220   4.432   0.320   1.735
 1774SOL    HW1 6221   4.515   0.294   1.685
 1774SOL    HW2 6222   4.440   0.287   1.829
 1775SOL     OW 6223   1.749   5.507   5.139
 1775SOL    HW1 6224   1.797   5.575   5.194
 1775SOL    HW2 6225   1.657   5.492   5.176
 1776SOL     OW 6226   4.625   1.061   6.185
 1776SOL    HW1 6227   4.675   0.981   6.218
 1776SOL    HW2 6228   4.550   1.031   6.126
 1777SOL     OW 6229   2.812   5.897   5.636
 1777SOL    HW1 6230   2.829   5.839   5.556
 1777SOL    HW2 6231   2.873   5.869   5.710
 1778SOL     OW 6232   4.323   2.113   4.467
 1778SOL    HW1 6233   4.416   2.077   4.469
 1778SOL    HW2 6234   4.320   2.199   4.519
 1779SOL     OW 6235   3.924   1.728   4.432
 1779SOL    HW1 6236   3.928   1.819   4.393
 1779SOL    HW2 6237   3.834   1.687   4.412
 1780SOL     OW 6238   2.089   4.256   5.612
 1780SOL    HW1 6239   2.073   4.355   5.612
 1780SOL    HW2 6240   2.183   4.237   5.583
 1781SOL     OW 6241   5.212   5.089   3.448
 1781SOL    HW1 6242   5.116   5.064   3.462
 1781SOL    HW2 6243   5.223   5.187   3.462
 1782SOL     OW 6244   2.971   1.690   3.284
 1782SOL    HW1 6245   3.048   1.640   3.245
 1782SOL    HW2 6246   2.886   1.642   3.264
 1783SOL     OW 6247   2.177   3.464   5.841
 1783SOL    HW1 6248   2.213   3.395   5.905
 1783SOL    HW2 6249   2.212   3.444   5.749
 1784SOL     OW 6250   2.854   1.044   2.589
 1784SOL    HW1 6251   2.791   1.070   2.662
 1784SOL    HW2 6252   2.883   1.125   2.539
 1785SOL     OW 6253   5.374   5.433   3.567
 1785SOL    HW1 6254   5.470   5.404   3.563
 1785SOL    HW2 6255   5.369   5.526   3.603
 1786SOL     OW 6256   0.907   3.611   0.683
 1786SOL    HW1 6257   0.824   3.665   0.697
 1786SOL    HW2 6258   0.906   3.532   0.744
 1787SOL     OW 6259   2.339   0.879   5.244
 1787SOL    HW1 6260   2.280   0.957   5.263
 1787SOL    HW2 6261   2.388   0.853   5.327
 1788SOL     OW 6262   3.413   3.725   0.012
 1788SOL    HW1 6263   3.371   3.717   0.103
 1788SOL    HW2 6264   3.420   3.634   6.994
 1789SOL     OW 6265   6.049   2.375   2.544
 1789SOL    HW1 6266   6.013   2.286   2.571
 1789SOL    HW2 6267   6.071   2.428   2.626
 1790SOL     OW 6268   4.005   6.767   4.672
 1790SOL    HW1 6269   4.077   6.720   4.723
 1790SOL    HW2 6270   3.920   6.763   4.723
 1791SOL     OW 6271   0.727   1.445   4.406
 1791SOL    HW1 6272   0.821   1.452   4.441
 1791SOL    HW2 6273   0.666   1.415   4.479
 1792SOL     OW 6274   0.965   1.270   4.309
 1792SOL    HW1 6275   1.002   1.181   4.284
 1792SOL    HW2 6276   0.925   1.265   4.400
 1793SOL     OW 6277   6.561   0.282   3.374
 1793SOL    HW1 6278   6.624   0.294   3.297
 1793SOL    HW2 6279   6.492   0.355   3.372
 1794SOL     OW 6280   5.071   6.565   6.340
 1794SOL    HW1 6281   5.076   6.660   6.310
 1794SOL    HW2 6282   5.104   6.558   6.434
 1795SOL     OW 6283   6.722   4.719   1.656
 1795SOL    HW1 6284   6.772   4.725   1.743
 1795SOL    HW2 6285   6.641   4.662   1.668
 1796SOL     OW 6286   2.245   1.262   4.049
 1796SOL    HW1 6287   2.290   1.346   4.020
 1796SOL    HW2 6288   2.277   1.185   3.993
 1797SOL     OW 6289   1.494   6.962   6.052
 1797SOL    HW1 6290   1.549   6.989   5.973
 1797SOL    HW2 6291   1.409   6.919   6.020
 1798SOL     OW 6292   4.903   2.963   5.528
 1798SOL    HW1 6293   4.972   3.035   5.539
 1798SOL    HW2 6294   4.937   2.895   5.463
 1799SOL     OW 6295   5.476   2.241   6.498
 1799SOL    HW1 6296   5.393   2.288   6.531
 1799SOL    HW2 6297   5.533   2.306   6.447
 1800SOL     OW 6298   5.275   4.196   3.515
 1800SOL    HW1 6299   5.320   4.276   3.556
 1800SOL    HW2 6300   5.345   4.133   3.482
 1801SOL     OW 6301   1.115   1.554   3.158
 1801SOL    HW1 6302   1.034   1.534   3.103
 1801SOL    HW2 6303   1.191   1.496   3.128
 1802SOL     OW 6304   5.999   5.607   2.864
 1802SOL    HW1 6305   5.903   5.633   2.874
 1802SOL    HW2 6306   6.056   5.690   2.861
 1803SOL     OW 6307   6.627   6.426   1.261
 1803SOL    HW1 6308   6.690   6.496   1.293
 1803SOL    HW2 6309   6.564   6.402   1.335
 1804SOL     OW 6310   3.566   3.565   5.363
 1804SOL    HW1 6311   3.472   3.541   5.339
 1804SOL    HW2 6312   3.629   3.503   5.315
 1805SOL     OW 6313   0.875   4.333   5.763
 1805SOL    HW1 6314   0.793   4.279   5.741
 1805SOL    HW2 6315   0.956   4.282   5.735
 1806SOL     OW 6316   1.582   2.234   1.808
 1806SOL    HW1 6317   1.671   2.229   1.854
 1806SOL    HW2 6318   1.519   2.289   1.862
 1807SOL     OW 6319   6.094   2.391   6.257
 1807SOL    HW1 6320   6.106   2.467   6.193
 1807SOL    HW2 6321   6.140   2.310   6.220
 1808SOL     OW 6322   5.885   4.754   4.458
 1808SOL    HW1 6323   5.830   4.837   4.462
 1808SOL    HW2 6324   5.879   4.705   4.545
 1809SOL     OW 6325   2.459   2.358   4.855
 1809SOL    HW1 6326   2.447   2.272   4.807
 1809SOL    HW2 6327   2.557   2.379   4.863
 1810SOL     OW 6328   1.877   6.825   5.312
 1810SOL    HW1 6329   1.939   6.825   5.233
 1810SOL    HW2 6330   1.851   6.731   5.334
 1811SOL     OW 6331   4.469   4.507   3.355
 1811SOL    HW1 6332   4.534   4.443   3.315
 1811SOL    HW2 6333   4.494   4.600   3.330
 1812SOL     OW 6334   4.939   0.153   5.763
 1812SOL    HW1 6335   4.996   0.205   5.699
 1812SOL    HW2 6336   4.850   0.136   5.721
 1813SOL     OW 6337   4.459   4.977   1.264
 1813SOL    HW1 6338   4.390   4.906   1.250
 1813SOL    HW2 6339   4.434   5.058   1.212
 1814SOL     OW 6340   6.591   0.631   0.855
 1814SOL    HW1 6341   6.679   0.657   0.817
 1814SOL    HW2 6342   6.526   0.614   0.781
 1815SOL     OW 6343   6.135   0.633   2.560
 1815SOL    HW1 6344   6.156   0.599   2.469
 1815SOL    HW2 6345   6.038   0.618   2.580
 1816SOL     OW 6346   2.530   4.817   0.592
 1816SOL    HW1 6347   2.476   4.750   0.642
 1816SOL    HW2 6348   2.546   4.897   0.650
 1817SOL     OW 6349   3.711   6.865   2.991
 1817SOL    HW1 6350   3.789   6.900   2.939
 1817SOL    HW2 6351   3.688   6.930   3.063
 1818SOL     OW 6352   2.405   5.821   1.234
 1818SOL    HW1 6353   2.330   5.758   1.254
 1818SOL    HW2 6354   2.367   5.905   1.195
 1819SOL     OW 6355   0.770   6.497   1.886
 1819SOL    HW1 6356   0.833   6.487   1.809
 1819SOL    HW2 6357   0.721   6.411   1.901
 1820SOL     OW 6358   3.174   0.072   2.139
 1820SOL    HW1 6359   3.090   0.087   2.087
 1820SOL    HW2 6360   3.154   0.071   2.237
 1821SOL     OW 6361   2.504   0.859   1.491
 1821SOL    HW1 6362   2.596   0.859   1.452
 1821SOL    HW2 6363   2.448   0.928   1.444
 1822SOL     OW 6364   1.019   2.833   1.494
 1822SOL    HW1 6365   1.070   2.907   1.450
 1822SOL    HW2 6366   0.921   2.856   1.495
 1823SOL     OW 6367   3.375   5.554   3.211
 1823SOL    HW1 6368   3.279   5.540   3.187
 1823SOL    HW2 6369   3.424   5.589   3.131
 1824SOL     OW 6370   3.918   3.486   0.384
 1824SOL    HW1 6371   3.845   3.463   0.450
 1824SOL    HW2 6372   3.877   3.524   0.302
 1825SOL     OW 6373   1.720   2.217   4.571
 1825SOL    HW1 6374   1.773   2.298   4.596
 1825SOL    HW2 6375   1.632   2.245   4.532
 1826SOL     OW 6376   3.608   1.791   1.471
 1826SOL    HW1 6377   3.629   1.866   1.408
 1826SOL    HW2 6378   3.583   1.709   1.419
 1827SOL     OW 6379   6.628   5.328   1.364
 1827SOL    HW1 6380   6.533   5.296   1.356
 1827SOL    HW2 6381   6.661   5.356   1.274
 1828SOL     OW 6382   1.717   2.599   0.384
 1828SOL    HW1 6383   1.686   2.506   0.405
 1828SOL    HW2 6384   1.639   2.660   0.377
 1829SOL     OW 6385   3.366   0.556   3.121
 1829SOL    HW1 6386   3.330   0.585   3.032
 1829SOL    HW2 6387   3.357   0.457   3.129
 1830SOL     OW 6388   5.842   5.835   4.501
 1830SOL    HW1 6389   5.872   5.769   4.432
 1830SOL    HW2 6390   5.742   5.828   4.512
 1831SOL     OW 6391   5.835   6.858   1.547
 1831SOL    HW1 6392   5.877   6.770   1.525
 1831SOL    HW2 6393   5.765   6.846   1.617
 1832SOL     OW 6394   4.290   2.224   1.072
 1832SOL    HW1 6395   4.336   2.213   0.984
 1832SOL    HW2 6396   4.214   2.158   1.079
 1833SOL     OW 6397   5.236   0.716   0.904
 1833SOL    HW1 6398   5.191   0.672   0.982
 1833SOL    HW2 6399   5.302   0.652   0.864
 1834SOL     OW 6400   1.975   3.781   0.856
 1834SOL    HW1 6401   2.011   3.750   0.944
 1834SOL    HW2 6402   2.030   3.742   0.782
 1835SOL     OW 6403   0.063   4.429   1.605
 1835SOL    HW1 6404   0.071   4.528   1.593
 1835SOL    HW2 6405   7.016   4.393   1.544
 1836SOL     OW 6406   5.254   2.357   1.451
 1836SOL    HW1 6407   5.224   2.262   1.446
 1836SOL    HW2 6408   5.338   2.368   1.398
 1837SOL     OW 6409   0.746   6.986   4.886
 1837SOL    HW1 6410   0.839   6.952   4.905
 1837SOL    HW2 6411   0.682   6.910   4.890
 1838SOL     OW 6412   6.795   1.401   5.765
 1838SOL    HW1 6413   6.835   1.429   5.852
 1838SOL    HW2 6414   6.866   1.405   5.694
 1839SOL     OW 6415   0.399   1.416   5.353
 1839SOL    HW1 6416   0.413   1.370   5.265
 1839SOL    HW2 6417   0.381   1.348   5.423
 1840SOL     OW 6418   3.770   0.281   1.448
 1840SOL    HW1 6419   3.691   0.321   1.494
 1840SOL    HW2 6420   3.740   0.218   1.377
 1841SOL     OW 6421   2.414   1.301   3.412
 1841SOL    HW1 6422   2.380   1.308   3.318
 1841SOL    HW2 6423   2.416   1.205   3.439
 1842SOL     OW 6424   1.327   5.685   0.220
 1842SOL    HW1 6425   1.297   5.774   0.185
 1842SOL    HW2 6426   1.318   5.617   0.148
 1843SOL     OW 6427   6.281   1.238   4.471
 1843SOL    HW1 6428   6.370   1.194   4.483
 1843SOL    HW2 6429   6.281   1.326   4.517
 1844SOL     OW 6430   3.219   6.521   5.181
 1844SOL    HW1 6431   3.247   6.425   5.187
 1844SOL    HW2 6432   3.127   6.532   5.219
 1845SOL     OW 6433   3.091   6.892   4.981
 1845SOL    HW1 6434   3.107   6.906   5.078
 1845SOL    HW2 6435   3.153   6.950   4.928
 1846SOL     OW 6436   3.505   1.226   2.079
 1846SOL    HW1 6437   3.449   1.194   2.155
 1846SOL    HW2 6438   3.602   1.208   2.099
 1847SOL     OW 6439   1.208   0.786   6.377
 1847SOL    HW1 6440   1.164   0.713   6.325
 1847SOL    HW2 6441   1.301   0.800   6.343
 1848SOL     OW 6442   2.250   6.140   3.400
 1848SOL    HW1 6443   2.201   6.149   3.487
 1848SOL    HW2 6444   2.335   6.192   3.405
 1849SOL     OW 6445   4.058   2.808   1.696
 1849SOL    HW1 6446   4.149   2.808   1.654
 1849SOL    HW2 6447   4.028   2.714   1.710
 1850SOL     OW 6448   0.082   2.496   2.712
 1850SOL    HW1 6449   0.016   2.421   2.721
 1850SOL    HW2 6450   0.175   2.458   2.706
 1851SOL     OW 6451   0.697   3.300   6.673
 1851SOL    HW1 6452   0.794   3.291   6.651
 1851SOL    HW2 6453   0.683   3.278   6.769
 1852SOL     OW 6454   6.628   4.479   2.443
 1852SOL    HW1 6455   6.550   4.540   2.460
 1852SOL    HW2 6456   6.710   4.516   2.485
 1853SOL     OW 6457   0.678   2.447   3.656
 1853SOL    HW1 6458   0.617   2.521   3.627
 1853SOL    HW2 6459   0.739   2.422   3.581
 1854SOL     OW 6460   2.436   5.556   3.045
 1854SOL    HW1 6461   2.492   5.613   2.985
 1854SOL    HW2 6462   2.339   5.577   3.030
 1855SOL     OW 6463   5.306   4.019   5.212
 1855SOL    HW1 6464   5.337   3.965   5.134
 1855SOL    HW2 6465   5.208   4.004   5.225
 1856SOL     OW 6466   5.303   4.044   6.019
 1856SOL    HW1 6467   5.263   4.061   5.929
 1856SOL    HW2 6468   5.342   4.128   6.055
 1857SOL     OW 6469   4.035   2.321   6.773
 1857SOL    HW1 6470   3.946   2.302   6.731
 1857SOL    HW2 6471   4.053   2.419   6.769
 1858SOL     OW 6472   5.463   3.468   3.162
 1858SOL    HW1 6473   5.475   3.491   3.258
 1858SOL    HW2 6474   5.529   3.520   3.107
 1859SOL     OW 6475   4.815   1.799   4.304
 1859SOL    HW1 6476   4.816   1.889   4.259
 1859SOL    HW2 6477   4.776   1.732   4.241
 1860SOL     OW 6478   0.607   0.591   5.032
 1860SOL    HW1 6479   0.654   0.511   5.070
 1860SOL    HW2 6480   0.509   0.582   5.048
 1861SOL     OW 6481   6.468   6.817   2.208
 1861SOL    HW1 6482   6.557   6.846   2.175
 1861SOL    HW2 6483   6.432   6.746   2.148
 1862SOL     OW 6484   2.892   0.452   6.131
 1862SOL    HW1 6485   2.866   0.369   6.180
 1862SOL    HW2 6486   2.969   0.432   6.070
 1863SOL     OW 6487   0.298   2.420   3.467
 1863SOL    HW1 6488   0.297   2.493   3.536
 1863SOL    HW2 6489   0.373   2.436   3.403
 1864SOL     OW 6490   1.736   6.371   5.013
 1864SOL    HW1 6491   1.677   6.356   5.092
 1864SOL    HW2 6492   1.724   6.465   4.980
 1865SOL     OW 6493   4.222   0.101   0.035
 1865SOL    HW1 6494   4.156   0.060   6.996
 1865SOL    HW2 6495   4.270   0.175   7.012
 1866SOL     OW 6496   6.083   4.865   3.621
 1866SOL    HW1 6497   6.043   4.846   3.531
 1866SOL    HW2 6498   6.178   4.893   3.610
 1867SOL     OW 6499   0.978   3.913   0.302
 1867SOL    HW1 6500   0.904   3.872   0.355
 1867SOL    HW2 6501   0.985   4.010   0.324
 1868SOL     OW 6502   4.713   3.796   6.643
 1868SOL    HW1 6503   4.655   3.836   6.572
 1868SOL    HW2 6504   4.671   3.713   6.678
 1869SOL     OW 6505   0.048   3.396   4.620
 1869SOL    HW1 6506   0.137   3.367   4.584
 1869SOL    HW2 6507   0.063   3.464   4.692
 1870SOL     OW 6508   1.508   2.923   5.007
 1870SOL    HW1 6509   1.538   2.964   5.093
 1870SOL    HW2 6510   1.427   2.970   4.974
 1871SOL     OW 6511   0.575   0.750   6.423
 1871SOL    HW1 6512   0.666   0.766   6.462
 1871SOL    HW2 6513   0.542   0.660   6.453
 1872SOL     OW 6514   4.589   2.062   0.157
 1872SOL    HW1 6515   4.505   2.093   0.111
 1872SOL    HW2 6516   4.657   2.037   0.088
 1873SOL     OW 6517   6.313   1.268   5.745
 1873SOL    HW1 6518   6.386   1.336   5.739
 1873SOL    HW2 6519   6.231   1.309   5.784
 1874SOL     OW 6520   2.146   1.094   6.853
 1874SOL    HW1 6521   2.127   1.145   6.769
 1874SOL    HW2 6522   2.216   1.025   6.835
 1875SOL     OW 6523   6.856   1.097   1.177
 1875SOL    HW1 6524   6.933   1.033   1.177
 1875SOL    HW2 6525   6.866   1.161   1.253
 1876SOL     OW 6526   3.558   6.408   5.881
 1876SOL    HW1 6527   3.643   6.458   5.867
 1876SOL    HW2 6528   3.565   6.317   5.840
 1877SOL     OW 6529   0.350   1.617   3.717
 1877SOL    HW1 6530   0.305   1.697   3.677
 1877SOL    HW2 6531   0.353   1.543   3.650
 1878SOL     OW 6532   6.897   2.804   4.228
 1878SOL    HW1 6533   6.850   2.767   4.148
 1878SOL    HW2 6534   6.983   2.846   4.200
 1879SOL     OW 6535   2.046   5.590   3.613
 1879SOL    HW1 6536   2.032   5.672   3.557
 1879SOL    HW2 6537   1.975   5.585   3.683
 1880SOL     OW 6538   0.359   1.594   4.005
 1880SOL    HW1 6539   0.293   1.525   4.034
 1880SOL    HW2 6540   0.338   1.621   3.911
 1881SOL     OW 6541   1.407   2.416   3.039
 1881SOL    HW1 6542   1.474   2.367   3.094
 1881SOL    HW2 6543   1.419   2.515   3.052
 1882SOL     OW 6544   1.050   3.975   6.509
 1882SOL    HW1 6545   0.960   3.967   6.466
 1882SOL    HW2 6546   1.038   4.006   6.604
 1883SOL     OW 6547   0.917   3.099   3.652
 1883SOL    HW1 6548   0.963   3.030   3.708
 1883SOL    HW2 6549   0.969   3.184   3.656
 1884SOL     OW 6550   6.223   2.591   0.227
 1884SOL    HW1 6551   6.163   2.647   0.283
 1884SOL    HW2 6552   6.304   2.644   0.201
 1885SOL     OW 6553   0.025   2.312   6.943
 1885SOL    HW1 6554   0.100   2.327   6.879
 1885SOL    HW2 6555   6.966   2.285   6.892
 1886SOL     OW 6556   2.299   1.385   1.108
 1886SOL    HW1 6557   2.268   1.297   1.071
 1886SOL    HW2 6558   2.358   1.430   1.041
 1887SOL     OW 6559   0.750   5.621   6.784
 1887SOL    HW1 6560   0.768   5.654   6.877
 1887SOL    HW2 6561   0.687   5.683   6.738
 1888SOL     OW 6562   2.747   2.118   6.603
 1888SOL    HW1 6563   2.835   2.128   6.555
 1888SOL    HW2 6564   2.763   2.078   6.693
 1889SOL     OW 6565   5.482   2.785   6.245
 1889SOL    HW1 6566   5.442   2.838   6.171
 1889SOL    HW2 6567   5.420   2.785   6.324
 1890SOL     OW 6568   1.508   5.823   5.497
 1890SOL    HW1 6569   1.510   5.817   5.397
 1890SOL    HW2 6570   1.418   5.854   5.527
 1891SOL     OW 6571   5.761   2.567   3.697
 1891SOL    HW1 6572   5.832   2.612   3.645
 1891SOL    HW2 6573   5.739   2.621   3.778
 1892SOL     OW 6574   3.827   0.836   0.559
 1892SOL    HW1 6575   3.835   0.737   0.557
 1892SOL    HW2 6576   3.903   0.877   0.508
 1893SOL     OW 6577   2.922   2.225   6.389
 1893SOL    HW1 6578   2.836   2.221   6.337
 1893SOL    HW2 6579   2.999   2.216   6.326
 1894SOL     OW 6580   3.545   3.592   3.048
 1894SOL    HW1 6581   3.569   3.638   2.962
 1894SOL    HW2 6582   3.498   3.507   3.028
 1895SOL     OW 6583   5.466   0.860   2.577
 1895SOL    HW1 6584   5.429   0.848   2.669
 1895SOL    HW2 6585   5.555   0.904   2.582
 1896SOL     OW 6586   0.901   0.793   2.640
 1896SOL    HW1 6587   0.886   0.697   2.665
 1896SOL    HW2 6588   0.918   0.847   2.722
 1897SOL     OW 6589   0.691   5.020   2.416
 1897SOL    HW1 6590   0.666   5.002   2.321
 1897SOL    HW2 6591   0.782   4.983   2.434
 1898SOL     OW 6592   3.398   4.918   2.400
 1898SOL    HW1 6593   3.315   4.901   2.453
 1898SOL    HW2 6594   3.478   4.892   2.454
 1899SOL     OW 6595   0.627   2.210   2.598
 1899SOL    HW1 6596   0.583   2.266   2.668
 1899SOL    HW2 6597   0.693   2.148   2.641
 1900SOL     OW 6598   1.323   0.242   5.679
 1900SOL    HW1 6599   1.295   0.187   5.758
 1900SOL    HW2 6600   1.306   0.338   5.698
 1901SOL     OW 6601   1.706   1.162   1.729
 1901SOL    HW1 6602   1.754   1.160   1.817
 1901SOL    HW2 6603   1.612   1.130   1.741
 1902SOL     OW 6604   2.239   2.398   5.170
 1902SOL    HW1 6605   2.168   2.402   5.241
 1902SOL    HW2 6606   2.248   2.305   5.137
 1903SOL     OW 6607   6.123   2.992   3.433
 1903SOL    HW1 6608   6.125   3.062   3.505
 1903SOL    HW2 6609   6.082   3.031   3.350
 1904SOL     OW 6610   5.906   6.641   4.748
 1904SOL    HW1 6611   5.850   6.639   4.666
 1904SOL    HW2 6612   5.927   6.547   4.778
 1905SOL     OW 6613   1.989   0.752   4.056
 1905SOL    HW1 6614   1.969   0.837   4.105
 1905SOL    HW2 6615   1.904   0.714   4.020
 1906SOL     OW 6616   2.604   0.104   5.138
 1906SOL    HW1 6617   2.618   0.196   5.174
 1906SOL    HW2 6618   2.671   0.086   5.066
 1907SOL     OW 6619   3.266   6.975   3.087
 1907SOL    HW1 6620   3.250   6.936   2.996
 1907SOL    HW2 6621   3.179   6.988   3.134
 1908SOL     OW 6622   4.170   0.461   4.949
 1908SOL    HW1 6623   4.104   0.402   4.995
 1908SOL    HW2 6624   4.169   0.441   4.851
 1909SOL     OW 6625   1.103   4.139   2.576
 1909SOL    HW1 6626   1.192   4.175   2.603
 1909SOL    HW2 6627   1.115   4.054   2.524
 1910SOL     OW 6628   0.207   2.749   6.498
 1910SOL    HW1 6629   0.241   2.779   6.408
 1910SOL    HW2 6630   0.133   2.684   6.486
 1911SOL     OW 6631   5.664   3.595   4.961
 1911SOL    HW1 6632   5.756   3.557   4.976
 1911SOL    HW2 6633   5.668   3.664   4.889
 1912SOL     OW 6634   2.836   0.149   1.082
 1912SOL    HW1 6635   2.852   0.166   0.985
 1912SOL    HW2 6636   2.905   0.085   1.116
 1913SOL     OW 6637   1.203   5.811   5.042
 1913SOL    HW1 6638   1.179   5.865   4.962
 1913SOL    HW2 6639   1.130   5.818   5.110
 1914SOL     OW 6640   3.624   2.940   6.338
 1914SOL    HW1 6641   3.543   2.979   6.293
 1914SOL    HW2 6642   3.599   2.854   6.383
 1915SOL     OW 6643   3.457   2.017   5.384
 1915SOL    HW1 6644   3.396   2.079   5.336
 1915SOL    HW2 6645   3.548   2.021   5.342
 1916SOL     OW 6646   3.120   5.609   1.260
 1916SOL    HW1 6647   3.140   5.674   1.333
 1916SOL    HW2 6648   3.147   5.517   1.289
 1917SOL     OW 6649   3.010   3.285   4.741
 1917SOL    HW1 6650   2.969   3.373   4.765
 1917SOL    HW2 6651   3.031   3.234   4.824
 1918SOL     OW 6652   0.992   1.481   6.337
 1918SOL    HW1 6653   1.081   1.482   6.291
 1918SOL    HW2 6654   0.922   1.449   6.273
 1919SOL     OW 6655   2.612   0.506   1.310
 1919SOL    HW1 6656   2.526   0.454   1.313
 1919SOL    HW2 6657   2.634   0.539   1.401
 1920SOL     OW 6658   1.876   4.797   2.605
 1920SOL    HW1 6659   1.822   4.873   2.642
 1920SOL    HW2 6660   1.899   4.816   2.509
 1921SOL     OW 6661   1.233   4.958   0.453
 1921SOL    HW1 6662   1.328   4.954   0.422
 1921SOL    HW2 6663   1.185   5.032   0.406
 1922SOL     OW 6664   2.590   4.250   0.603
 1922SOL    HW1 6665   2.637   4.337   0.585
 1922SOL    HW2 6666   2.614   4.184   0.532
 1923SOL     OW 6667   3.189   0.778   5.780
 1923SOL    HW1 6668   3.151   0.763   5.689
 1923SOL    HW2 6669   3.114   0.793   5.845
 1924SOL     OW 6670   4.842   5.200   1.868
 1924SOL    HW1 6671   4.865   5.159   1.780
 1924SOL    HW2 6672   4.831   5.128   1.936
 1925SOL     OW 6673   1.491   4.162   0.438
 1925SOL    HW1 6674   1.474   4.064   0.449
 1925SOL    HW2 6675   1.493   4.207   0.527
 1926SOL     OW 6676   1.713   6.330   2.799
 1926SOL    HW1 6677   1.761   6.407   2.755
 1926SOL    HW2 6678   1.698   6.351   2.895
 1927SOL     OW 6679   3.162   4.281   6.385
 1927SOL    HW1 6680   3.089   4.217   6.410
 1927SOL    HW2 6681   3.145   4.316   6.293
 1928SOL     OW 6682   6.438   4.554   5.840
 1928SOL    HW1 6683   6.365   4.573   5.774
 1928SOL    HW2 6684   6.424   4.609   5.922
 1929SOL     OW 6685   1.280   5.242   1.440
 1929SOL    HW1 6686   1.217   5.303   1.488
 1929SOL    HW2 6687   1.243   5.150   1.439
 1930SOL     OW 6688   3.717   3.988   6.723
 1930SOL    HW1 6689   3.672   3.977   6.634
 1930SOL    HW2 6690   3.675   3.926   6.790
 1931SOL     OW 6691   0.579   2.960   2.431
 1931SOL    HW1 6692   0.576   2.863   2.454
 1931SOL    HW2 6693   0.496   3.004   2.465
 1932SOL     OW 6694   5.068   3.396   3.618
 1932SOL    HW1 6695   5.021   3.460   3.679
 1932SOL    HW2 6696   5.009   3.317   3.601
 1933SOL     OW 6697   2.308   4.516   0.419
 1933SOL    HW1 6698   2.351   4.437   0.375
 1933SOL    HW2 6699   2.348   4.529   0.510
 1934SOL     OW 6700   0.776   0.407   5.154
 1934SOL    HW1 6701   0.847   0.456   5.206
 1934SOL    HW2 6702   0.811   0.317   5.128
 1935SOL     OW 6703   4.131   6.692   4.201
 1935SOL    HW1 6704   4.107   6.781   4.240
 1935SOL    HW2 6705   4.075   6.674   4.120
 1936SOL     OW 6706   6.234   3.885   3.666
 1936SOL    HW1 6707   6.299   3.941   3.718
 1936SOL    HW2 6708   6.249   3.788   3.687
 1937SOL     OW 6709   4.115   0.141   1.002
 1937SOL    HW1 6710   4.093   0.085   0.922
 1937SOL    HW2 6711   4.030   0.172   1.045
 1938SOL     OW 6712   2.153   1.550   1.275
 1938SOL    HW1 6713   2.237   1.500   1.252
 1938SOL    HW2 6714   2.169   1.604   1.358
 1939SOL     OW 6715   6.776   0.613   4.717
 1939SOL    HW1 6716   6.748   0.687   4.779
 1939SOL    HW2 6717   6.874   0.621   4.699
 1940SOL     OW 6718   5.056   4.899   0.646
 1940SOL    HW1 6719   5.152   4.869   0.641
 1940SOL    HW2 6720   5.034   4.921   0.741
 1941SOL     OW 6721   0.451   4.455   3.591
 1941SOL    HW1 6722   0.507   4.413   3.663
 1941SOL    HW2 6723   0.360   4.413   3.591
 1942SOL     OW 6724   5.380   0.561   1.095
 1942SOL    HW1 6725   5.381   0.581   1.193
 1942SOL    HW2 6726   5.455   0.609   1.050
 1943SOL     OW 6727   2.962   6.357   2.594
 1943SOL    HW1 6728   3.046   6.332   2.546
 1943SOL    HW2 6729   2.976   6.352   2.692
 1944SOL     OW 6730   6.307   2.294   0.363
 1944SOL    HW1 6731   6.238   2.223   0.348
 1944SOL    HW2 6732   6.389   2.272   0.310
 1945SOL     OW 6733   3.197   5.907   1.679
 1945SOL    HW1 6734   3.113   5.860   1.652
 1945SOL    HW2 6735   3.208   5.990   1.624
 1946SOL     OW 6736   6.242   6.803   1.476
 1946SOL    HW1 6737   6.234   6.705   1.462
 1946SOL    HW2 6738   6.331   6.834   1.442
 1947SOL     OW 6739   5.313   6.529   4.882
 1947SOL    HW1 6740   5.299   6.580   4.797
 1947SOL    HW2 6741   5.284   6.585   4.959
 1948SOL     OW 6742   5.369   5.396   3.983
 1948SOL    HW1 6743   5.306   5.355   3.917
 1948SOL    HW2 6744   5.441   5.445   3.934
 1949SOL     OW 6745   3.219   4.696   6.255
 1949SOL    HW1 6746   3.168   4.781   6.267
 1949SOL    HW2 6747   3.273   4.702   6.171
 1950SOL     OW 6748   3.989   4.383   6.973
 1950SOL    HW1 6749   3.940   4.302   6.941
 1950SOL    HW2 6750   3.941   4.466   6.943
 1951SOL     OW 6751   6.204   3.196   6.920
 1951SOL    HW1 6752   6.172   3.103   6.938
 1951SOL    HW2 6753   6.134   3.262   6.949
 1952SOL     OW 6754   5.128   2.845   0.424
 1952SOL    HW1 6755   5.106   2.784   0.348
 1952SOL    HW2 6756   5.191   2.798   0.487
 1953SOL     OW 6757   6.422   1.546   6.004
 1953SOL    HW1 6758   6.378   1.606   5.937
 1953SOL    HW2 6759   6.354   1.510   6.067
 1954SOL     OW 6760   5.490   0.487   3.673
 1954SOL    HW1 6761   5.527   0.400   3.639
 1954SOL    HW2 6762   5.416   0.517   3.614
 1955SOL     OW 6763   0.712   1.813   3.059
 1955SOL    HW1 6764   0.783   1.835   2.992
 1955SOL    HW2 6765   0.635   1.876   3.048
 1956SOL     OW 6766   5.010   6.668   2.793
 1956SOL    HW1 6767   4.918   6.648   2.826
 1956SOL    HW2 6768   5.069   6.692   2.871
 1957SOL     OW 6769   5.959   4.821   3.858
 1957SOL    HW1 6770   5.935   4.907   3.903
 1957SOL    HW2 6771   6.030   4.837   3.790
 1958SOL     OW 6772   4.749   2.421   2.457
 1958SOL    HW1 6773   4.761   2.387   2.364
 1958SOL    HW2 6774   4.818   2.380   2.517
 1959SOL     OW 6775   0.700   0.814   5.135
 1959SOL    HW1 6776   0.672   0.729   5.090
 1959SOL    HW2 6777   0.759   0.793   5.213
 1960SOL     OW 6778   6.769   4.663   2.209
 1960SOL    HW1 6779   6.776   4.568   2.178
 1960SOL    HW2 6780   6.860   4.700   2.224
 1961SOL     OW 6781   6.046   4.181   3.947
 1961SOL    HW1 6782   6.029   4.201   3.851
 1961SOL    HW2 6783   5.961   4.152   3.990
 1962SOL     OW 6784   1.553   6.173   4.048
 1962SOL    HW1 6785   1.593   6.257   4.083
 1962SOL    HW2 6786   1.501   6.127   4.120
 1963SOL     OW 6787   0.717   1.834   1.282
 1963SOL    HW1 6788   0.764   1.843   1.371
 1963SOL    HW2 6789   0.686   1.740   1.270
 1964SOL     OW 6790   4.585   4.664   0.678
 1964SOL    HW1 6791   4.537   4.749   0.654
 1964SOL    HW2 6792   4.539   4.622   0.757
 1965SOL     OW 6793   1.330   3.103   4.858
 1965SOL    HW1 6794   1.239   3.063   4.845
 1965SOL    HW2 6795   1.394   3.061   4.794
 1966SOL     OW 6796   6.557   6.542   0.768
 1966SOL    HW1 6797   6.603   6.529   0.680
 1966SOL    HW2 6798   6.522   6.455   0.802
 1967SOL     OW 6799   5.292   2.175   5.769
 1967SOL    HW1 6800   5.202   2.219   5.771
 1967SOL    HW2 6801   5.310   2.141   5.677
 1968SOL     OW 6802   2.067   6.978   6.473
 1968SOL    HW1 6803   1.982   6.977   6.420
 1968SOL    HW2 6804   2.048   7.007   6.566
 1969SOL     OW 6805   0.711   1.557   1.857
 1969SOL    HW1 6806   0.641   1.501   1.901
 1969SOL    HW2 6807   0.759   1.611   1.926
 1970SOL     OW 6808   2.557   6.420   6.023
 1970SOL    HW1 6809   2.639   6.471   5.995
 1970SOL    HW2 6810   2.578   6.323   6.027
 1971SOL     OW 6811   0.349   0.555   5.432
 1971SOL    HW1 6812   0.385   0.472   5.389
 1971SOL    HW2 6813   0.259   0.536   5.471
 1972SOL     OW 6814   5.430   2.163   2.031
 1972SOL    HW1 6815   5.412   2.070   2.063
 1972SOL    HW2 6816   5.347   2.218   2.036
 1973SOL     OW 6817   3.444   2.436   6.923
 1973SOL    HW1 6818   3.380   2.494   6.872
 1973SOL    HW2 6819   3.446   2.344   6.882
 1974SOL     OW 6820   6.120   6.875   5.139
 1974SOL    HW1 6821   6.032   6.893   5.182
 1974SOL    HW2 6822   6.106   6.830   5.051
 1975SOL     OW 6823   2.297   1.449   3.614
 1975SOL    HW1 6824   2.320   1.402   3.528
 1975SOL    HW2 6825   2.331   1.395   3.691
 1976SOL     OW 6826   0.208   6.670   0.302
 1976SOL    HW1 6827   0.160   6.748   0.342
 1976SOL    HW2 6828   0.144   6.596   0.285
 1977SOL     OW 6829   0.913   2.898   4.946
 1977SOL    HW1 6830   0.884   2.964   5.016
 1977SOL    HW2 6831   0.834   2.869   4.893
 1978SOL     OW 6832   1.883   6.550   2.721
 1978SOL    HW1 6833   1.858   6.647   2.717
 1978SOL    HW2 6834   1.951   6.530   2.651
 1979SOL     OW 6835   6.178   4.498   6.164
 1979SOL    HW1 6836   6.223   4.457   6.085
 1979SOL    HW2 6837   6.242   4.559   6.210
 1980SOL     OW 6838   3.282   0.020   4.810
 1980SOL    HW1 6839   3.251   0.112   4.790
 1980SOL    HW2 6840   3.329   7.006   4.729
 1981SOL     OW 6841   6.885   2.167   2.374
 1981SOL    HW1 6842   6.954   2.142   2.443
 1981SOL    HW2 6843   6.809   2.214   2.418
 1982SOL     OW 6844   7.022   4.318   5.009
 1982SOL    HW1 6845   0.081   4.370   5.030
 1982SOL    HW2 6846   6.945   4.380   4.999
 1983SOL     OW 6847   1.167   1.040   2.640
 1983SOL    HW1 6848   1.248   0.990   2.607
 1983SOL    HW2 6849   1.192   1.136   2.656
 1984SOL     OW 6850   5.632   1.744   5.182
 1984SOL    HW1 6851   5.581   1.697   5.254
 1984SOL    HW2 6852   5.581   1.825   5.152
 1985SOL     OW 6853   1.336   6.359   2.022
 1985SOL    HW1 6854   1.303   6.321   1.936
 1985SOL    HW2 6855   1.366   6.284   2.082
 1986SOL     OW 6856   2.004   1.750   6.928
 1986SOL    HW1 6857   1.921   1.779   6.976
 1986SOL    HW2 6858   2.020   1.653   6.945
 1987SOL     OW 6859   1.888   2.452   2.484
 1987SOL    HW1 6860   1.814   2.385   2.474
 1987SOL    HW2 6861   1.862   2.537   2.438
 1988SOL     OW 6862   6.217   4.235   1.065
 1988SOL    HW1 6863   6.268   4.300   1.122
 1988SOL    HW2 6864   6.123   4.227   1.099
 1989SOL     OW 6865   2.129   5.411   5.329
 1989SOL    HW1 6866   2.038   5.398   5.369
 1989SOL    HW2 6867   2.121   5.429   5.231
 1990SOL     OW 6868   3.771   6.125   0.406
 1990SOL    HW1 6869   3.825   6.181   0.343
 1990SOL    HW2 6870   3.676   6.157   0.407
 1991SOL     OW 6871   3.420   5.220   6.745
 1991SOL    HW1 6872   3.505   5.269   6.724
 1991SOL    HW2 6873   3.416   5.199   6.843
 1992SOL     OW 6874   0.754   0.556   0.282
 1992SOL    HW1 6875   0.736   0.497   0.361
 1992SOL    HW2 6876   0.852   0.573   0.275
 1993SOL     OW 6877   3.618   2.645   5.478
 1993SOL    HW1 6878   3.615   2.547   5.499
 1993SOL    HW2 6879   3.525   2.679   5.464
 1994SOL     OW 6880   0.822   1.606   0.654
 1994SOL    HW1 6881   0.775   1.524   0.687
 1994SOL    HW2 6882   0.917   1.584   0.631
 1995SOL     OW 6883   5.305   2.294   3.905
 1995SOL    HW1 6884   5.269   2.386   3.922
 1995SOL    HW2 6885   5.349   2.291   3.815
 1996SOL     OW 6886   1.717   3.759   0.928
 1996SOL    HW1 6887   1.808   3.790   0.902
 1996SOL    HW2 6888   1.657   3.757   0.848
 1997SOL     OW 6889   3.475   1.206   4.506
 1997SOL    HW1 6890   3.554   1.234   4.451
 1997SOL    HW2 6891   3.495   1.221   4.603
 1998SOL     OW 6892   2.218   4.208   6.523
 1998SOL    HW1 6893   2.149   4.149   6.481
 1998SOL    HW2 6894   2.172   4.282   6.572
 1999SOL     OW 6895   2.467   6.753   6.661
 1999SOL    HW1 6896   2.399   6.697   6.708
 1999SOL    HW2 6897   2.521   6.804   6.728
 2000SOL     OW 6898   4.215   2.306   5.390
 2000SOL    HW1 6899   4.286   2.374   5.411
 2000SOL    HW2 6900   4.150   2.345   5.325
 2001SOL     OW 6901   3.428   0.707   1.669
 2001SOL    HW1 6902   3.378   0.627   1.703
 2001SOL    HW2 6903   3.497   0.679   1.603
 2002SOL     OW 6904   0.224   4.780   6.719
 2002SOL    HW1 6905   0.219   4.705   6.653
 2002SOL    HW2 6906   0.217   4.867   6.670
 2003SOL     OW 6907   6.268   5.650   2.735
 2003SOL    HW1 6908   6.355   5.699   2.733
 2003SOL    HW2 6909   6.198   5.707   2.779
 2004SOL     OW 6910   5.270   1.299   5.447
 2004SOL    HW1 6911   5.323   1.299   5.362
 2004SOL    HW2 6912   5.250   1.393   5.474
 2005SOL     OW 6913   0.285   5.240   0.326
 2005SOL    HW1 6914   0.332   5.310   0.273
 2005SOL    HW2 6915   0.194   5.271   0.351
 2006SOL     OW 6916   5.136   6.653   3.933
 2006SOL    HW1 6917   5.154   6.659   3.834
 2006SOL    HW2 6918   5.080   6.730   3.962
 2007SOL     OW 6919   4.994   4.709   0.959
 2007SOL    HW1 6920   5.005   4.659   1.045
 2007SOL    HW2 6921   5.026   4.652   0.883
 2008SOL     OW 6922   2.623   5.060   3.925
 2008SOL    HW1 6923   2.684   5.123   3.972
 2008SOL    HW2 6924   2.575   5.004   3.992
 2009SOL     OW 6925   5.952   0.819   2.128
 2009SOL    HW1 6926   6.017   0.804   2.054
 2009SOL    HW2 6927   6.002   0.836   2.213
 2010SOL     OW 6928   1.958   1.963   1.052
 2010SOL    HW1 6929   2.003   1.941   0.966
 2010SOL    HW2 6930   1.859   1.969   1.038
 2011SOL     OW 6931   6.808   6.156   4.755
 2011SOL    HW1 6932   6.737   6.223   4.732
 2011SOL    HW2 6933   6.780   6.066   4.721
 2012SOL     OW 6934   1.464   3.995   2.370
 2012SOL    HW1 6935   1.510   4.083   2.357
 2012SOL    HW2 6936   1.505   3.947   2.447
 2013SOL     OW 6937   6.344   2.334   3.057
 2013SOL    HW1 6938   6.306   2.304   2.970
 2013SOL    HW2 6939   6.275   2.322   3.129
 2014SOL     OW 6940   2.559   5.589   3.639
 2014SOL    HW1 6941   2.634   5.552   3.584
 2014SOL    HW2 6942   2.472   5.554   3.604
 2015SOL     OW 6943   2.056   0.733   6.834
 2015SOL    HW1 6944   1.958   0.748   6.823
 2015SOL    HW2 6945   2.082   0.752   6.929
 2016SOL     OW 6946   1.368   6.074   5.885
 2016SOL    HW1 6947   1.284   6.121   5.860
 2016SOL    HW2 6948   1.348   5.978   5.906
 2017SOL     OW 6949   3.430   6.760   4.757
 2017SOL    HW1 6950   3.430   6.728   4.662
 2017SOL    HW2 6951   3.500   6.829   4.769
 2018SOL     OW 6952   5.444   0.872   5.916
 2018SOL    HW1 6953   5.431   0.772   5.915
 2018SOL    HW2 6954   5.356   0.916   5.936
 2019SOL     OW 6955   5.242   3.031   6.395
 2019SOL    HW1 6956   5.148   3.058   6.414
 2019SOL    HW2 6957   5.258   2.938   6.427
 2020SOL     OW 6958   1.491   6.370   5.734
 2020SOL    HW1 6959   1.572   6.311   5.731
 2020SOL    HW2 6960   1.415   6.323   5.690
 2021SOL     OW 6961   0.420   5.952   4.293
 2021SOL    HW1 6962   0.415   5.928   4.390
 2021SOL    HW2 6963   0.394   6.048   4.281
 2022SOL     OW 6964   1.838   3.496   3.407
 2022SOL    HW1 6965   1.784   3.573   3.372
 2022SOL    HW2 6966   1.932   3.526   3.423
 2023SOL     OW 6967   6.623   1.108   6.551
 2023SOL    HW1 6968   6.673   1.125   6.466
 2023SOL    HW2 6969   6.573   1.191   6.577
 2024SOL     OW 6970   0.314   6.756   3.636
 2024SOL    HW1 6971   0.250   6.752   3.559
 2024SOL    HW2 6972   0.403   6.721   3.607
 2025SOL     OW 6973   2.917   1.661   2.889
 2025SOL    HW1 6974   2.892   1.757   2.876
 2025SOL    HW2 6975   3.014   1.656   2.916
 2026SOL     OW 6976   0.170   2.933   5.579
 2026SOL    HW1 6977   0.264   2.900   5.572
 2026SOL    HW2 6978   0.171   3.031   5.599
 2027SOL     OW 6979   1.055   6.848   0.305
 2027SOL    HW1 6980   0.957   6.828   0.306
 2027SOL    HW2 6981   1.082   6.891   0.391
 2028SOL     OW 6982   2.904   6.489   4.968
 2028SOL    HW1 6983   2.980   6.530   5.018
 2028SOL    HW2 6984   2.902   6.391   4.987
 2029SOL     OW 6985   6.864   1.034   0.850
 2029SOL    HW1 6986   6.914   1.120   0.855
 2029SOL    HW2 6987   6.799   1.030   0.926
 2030SOL     OW 6988   2.596   0.974   3.044
 2030SOL    HW1 6989   2.625   1.070   3.047
 2030SOL    HW2 6990   2.639   0.928   2.967
 2031SOL     OW 6991   6.413   6.108   1.099
 2031SOL    HW1 6992   6.513   6.107   1.106
 2031SOL    HW2 6993   6.381   6.203   1.093
 2032SOL     OW 6994   4.763   0.328   2.293
 2032SOL    HW1 6995   4.806   0.244   2.326
 2032SOL    HW2 6996   4.731   0.382   2.371
 2033SOL     OW 6997   3.078   3.910   5.917
 2033SOL    HW1 6998   3.042   3.950   5.832
 2033SOL    HW2 6999   3.123   3.823   5.896
 2034SOL     OW 7000   2.554   5.691   5.505
 2034SOL    HW1 7001   2.566   5.771   5.446
 2034SOL    HW2 7002   2.550   5.609   5.448
 2035SOL     OW 7003   6.983   6.603   3.737
 2035SOL    HW1 7004   0.019   6.670   3.781
 2035SOL    HW2 7005   0.010   6.557   3.663
 2036SOL     OW 7006   1.327   4.255   2.651
 2036SOL    HW1 7007   1.399   4.222   2.712
 2036SOL    HW2 7008   1.365   4.324   2.589
 2037SOL     OW 7009   6.651   3.092   5.582
 2037SOL    HW1 7010   6.716   3.134   5.645
 2037SOL    HW2 7011   6.618   3.006   5.620
 2038SOL     OW 7012   1.566   2.901   0.124
 2038SOL    HW1 7013   1.660   2.867   0.117
 2038SOL    HW2 7014   1.557   2.986   0.072
 2039SOL     OW 7015   0.088   5.293   4.042
 2039SOL    HW1 7016   0.005   5.346   4.060
 2039SOL    HW2 7017   0.133   5.270   4.128
 2040SOL     OW 7018   3.336   3.457   5.604
 2040SOL    HW1 7019   3.242   3.435   5.627
 2040SOL    HW2 7020   3.380   3.377   5.562
 2041SOL     OW 7021   0.800   6.147   5.822
 2041SOL    HW1 7022   0.859   6.188   5.753
 2041SOL    HW2 7023   0.832   6.172   5.913
 2042SOL     OW 7024   4.920   6.124   0.167
 2042SOL    HW1 7025   4.827   6.157   0.182
 2042SOL    HW2 7026   4.933   6.104   0.070
 2043SOL     OW 7027   6.635   3.665   3.355
 2043SOL    HW1 7028   6.588   3.664   3.267
 2043SOL    HW2 7029   6.647   3.760   3.385
 2044SOL     OW 7030   6.403   6.752   1.778
 2044SOL    HW1 7031   6.389   6.736   1.876
 2044SOL    HW2 7032   6.500   6.746   1.757
 2045SOL     OW 7033   1.522   5.211   3.783
 2045SOL    HW1 7034   1.453   5.230   3.713
 2045SOL    HW2 7035   1.555   5.117   3.773
 2046SOL     OW 7036   6.960   2.183   3.632
 2046SOL    HW1 7037   6.997   2.090   3.629
 2046SOL    HW2 7038   6.867   2.180   3.669
 2047SOL     OW 7039   6.854   2.633   6.720
 2047SOL    HW1 7040   6.763   2.629   6.679
 2047SOL    HW2 7041   6.897   2.720   6.696
 2048SOL     OW 7042   1.527   6.471   6.319
 2048SOL    HW1 7043   1.549   6.567   6.336
 2048SOL    HW2 7044   1.540   6.451   6.222
 2049SOL     OW 7045   6.619   1.677   4.782
 2049SOL    HW1 7046   6.592   1.676   4.686
 2049SOL    HW2 7047   6.651   1.768   4.807
 2050SOL     OW 7048   6.695   2.201   3.698
 2050SOL    HW1 7049   6.608   2.161   3.727
 2050SOL    HW2 7050   6.689   2.300   3.701
 2051SOL     OW 7051   1.112   5.769   6.934
 2051SOL    HW1 7052   1.076   5.694   6.989
 2051SOL    HW2 7053   1.036   5.823   6.898
 2052SOL     OW 7054   1.325   3.521   1.334
 2052SOL    HW1 7055   1.399   3.588   1.326
 2052SOL    HW2 7056   1.363   3.429   1.338
 2053SOL     OW 7057   6.347   6.279   4.160
 2053SOL    HW1 7058   6.404   6.222   4.219
 2053SOL    HW2 7059   6.367   6.375   4.177
 2054SOL     OW 7060   3.450   4.163   3.107
 2054SOL    HW1 7061   3.536   4.133   3.148
 2054SOL    HW2 7062   3.462   4.175   3.008
 2055SOL     OW 7063   5.969   3.863   3.860
 2055SOL    HW1 7064   5.969   3.954   3.902
 2055SOL    HW2 7065   6.022   3.865   3.775
 2056SOL     OW 7066   4.026   5.691   2.453
 2056SOL    HW1 7067   3.932   5.713   2.431
 2056SOL    HW2 7068   4.041   5.703   2.551
 2057SOL     OW 7069   5.257   4.660   5.762
 2057SOL    HW1 7070   5.162   4.678   5.787
 2057SOL    HW2 7071   5.263   4.574   5.711
 2058SOL     OW 7072   0.499   1.261   3.374
 2058SOL    HW1 7073   0.466   1.229   3.285
 2058SOL    HW2 7074   0.574   1.325   3.361
 2059SOL     OW 7075   1.686   6.151   6.598
 2059SOL    HW1 7076   1.730   6.239   6.579
 2059SOL    HW2 7077   1.587   6.164   6.602
 2060SOL     OW 7078   0.466   4.682   1.548
 2060SOL    HW1 7079   0.540   4.749   1.553
 2060SOL    HW2 7080   0.393   4.708   1.611
 2061SOL     OW 7081   1.320   1.839   2.685
 2061SOL    HW1 7082   1.293   1.863   2.591
 2061SOL    HW2 7083   1.243   1.856   2.746
 2062SOL     OW 7084   6.125   5.551   4.625
 2062SOL    HW1 7085   6.134   5.622   4.555
 2062SOL    HW2 7086   6.194   5.480   4.610
 2063SOL     OW 7087   1.637   6.747   6.262
 2063SOL    HW1 7088   1.656   6.743   6.164
 2063SOL    HW2 7089   1.606   6.839   6.286
 2064SOL     OW 7090   0.627   2.521   5.636
 2064SOL    HW1 7091   0.715   2.540   5.679
 2064SOL    HW2 7092   0.553   2.564   5.688
 2065SOL     OW 7093   6.332   2.444   5.513
 2065SOL    HW1 7094   6.359   2.479   5.423
 2065SOL    HW2 7095   6.259   2.502   5.551
 2066SOL     OW 7096   0.679   4.557   4.337
 2066SOL    HW1 7097   0.684   4.641   4.392
 2066SOL    HW2 7098   0.644   4.483   4.394
 2067SOL     OW 7099   6.442   5.565   1.106
 2067SOL    HW1 7100   6.438   5.581   1.205
 2067SOL    HW2 7101   6.520   5.506   1.086
 2068SOL     OW 7102   2.483   0.098   4.384
 2068SOL    HW1 7103   2.404   0.105   4.445
 2068SOL    HW2 7104   2.465   0.148   4.300
 2069SOL     OW 7105   6.667   1.884   3.764
 2069SOL    HW1 7106   6.698   1.925   3.850
 2069SOL    HW2 7107   6.737   1.898   3.694
 2070SOL     OW 7108   0.799   1.068   1.349
 2070SOL    HW1 7109   0.762   1.084   1.440
 2070SOL    HW2 7110   0.818   1.156   1.304
 2071SOL     OW 7111   6.527   0.507   5.922
 2071SOL    HW1 7112   6.514   0.408   5.915
 2071SOL    HW2 7113   6.624   0.529   5.910
 2072SOL     OW 7114   4.621   5.683   4.213
 2072SOL    HW1 7115   4.559   5.739   4.157
 2072SOL    HW2 7116   4.678   5.626   4.153
 2073SOL     OW 7117   4.591   0.179   5.140
 2073SOL    HW1 7118   4.578   0.088   5.179
 2073SOL    HW2 7119   4.508   0.207   5.092
 2074SOL     OW 7120   1.913   2.576   6.466
 2074SOL    HW1 7121   1.962   2.533   6.542
 2074SOL    HW2 7122   1.883   2.667   6.493
 2075SOL     OW 7123   6.955   2.533   3.090
 2075SOL    HW1 7124   0.016   2.506   3.045
 2075SOL    HW2 7125   6.971   2.540   3.189
 2076SOL     OW 7126   5.983   0.186   6.254
 2076SOL    HW1 7127   6.027   0.097   6.264
 2076SOL    HW2 7128   5.912   0.181   6.184
 2077SOL     OW 7129   5.716   1.852   3.324
 2077SOL    HW1 7130   5.808   1.876   3.355
 2077SOL    HW2 7131   5.649   1.908   3.372
 2078SOL     OW 7132   1.368   5.798   5.844
 2078SOL    HW1 7133   1.372   5.705   5.880
 2078SOL    HW2 7134   1.461   5.829   5.822
 2079SOL     OW 7135   5.725   1.777   3.043
 2079SOL    HW1 7136   5.710   1.830   3.127
 2079SOL    HW2 7137   5.643   1.724   3.022
 2080SOL     OW 7138   1.823   0.122   5.116
 2080SOL    HW1 7139   1.904   0.090   5.164
 2080SOL    HW2 7140   1.850   0.172   5.033
 2081SOL     OW 7141   0.953   5.762   4.658
 2081SOL    HW1 7142   0.968   5.848   4.609
 2081SOL    HW2 7143   1.018   5.693   4.626
 2082SOL     OW 7144   0.571   6.665   3.267
 2082SOL    HW1 7145   0.538   6.620   3.183
 2082SOL    HW2 7146   0.601   6.758   3.245
 2083SOL     OW 7147   0.324   4.733   5.899
 2083SOL    HW1 7148   0.331   4.823   5.940
 2083SOL    HW2 7149   0.297   4.742   5.803
 2084SOL     OW 7150   0.566   4.675   3.449
 2084SOL    HW1 7151   0.640   4.637   3.393
 2084SOL    HW2 7152   0.539   4.609   3.519
 2085SOL     OW 7153   4.715   1.077   0.259
 2085SOL    HW1 7154   4.616   1.077   0.272
 2085SOL    HW2 7155   4.737   1.096   0.164
 2086SOL     OW 7156   3.670   6.757   6.445
 2086SOL    HW1 7157   3.616   6.818   6.387
 2086SOL    HW2 7158   3.714   6.810   6.517
 2087SOL     OW 7159   4.699   0.756   1.320
 2087SOL    HW1 7160   4.709   0.847   1.278
 2087SOL    HW2 7161   4.771   0.696   1.286
 2088SOL     OW 7162   1.334   5.640   6.803
 2088SOL    HW1 7163   1.358   5.699   6.726
 2088SOL    HW2 7164   1.246   5.670   6.841
 2089SOL     OW 7165   5.092   3.059   5.918
 2089SOL    HW1 7166   5.023   3.016   5.860
 2089SOL    HW2 7167   5.157   3.109   5.861
 2090SOL     OW 7168   4.371   3.591   5.914
 2090SOL    HW1 7169   4.419   3.556   5.833
 2090SOL    HW2 7170   4.290   3.642   5.885
 2091SOL     OW 7171   0.392   5.080   0.788
 2091SOL    HW1 7172   0.322   5.141   0.751
 2091SOL    HW2 7173   0.392   5.086   0.888
 2092SOL     OW 7174   5.392   3.944   0.289
 2092SOL    HW1 7175   5.388   4.043   0.275
 2092SOL    HW2 7176   5.413   3.899   0.202
 2093SOL     OW 7177   2.575   2.048   1.175
 2093SOL    HW1 7178   2.572   2.115   1.249
 2093SOL    HW2 7179   2.667   2.010   1.167
 2094SOL     OW 7180   5.786   1.449   2.709
 2094SOL    HW1 7181   5.689   1.439   2.729
 2094SOL    HW2 7182   5.818   1.537   2.744
 2095SOL     OW 7183   6.511   0.141   5.387
 2095SOL    HW1 7184   6.505   0.198   5.305
 2095SOL    HW2 7185   6.440   0.071   5.385
 2096SOL     OW 7186   4.766   4.033   2.847
 2096SOL    HW1 7187   4.748   4.095   2.771
 2096SOL    HW2 7188   4.782   3.940   2.812
 2097SOL     OW 7189   2.564   3.635   6.266
 2097SOL    HW1 7190   2.511   3.563   6.311
 2097SOL    HW2 7191   2.650   3.648   6.315
 2098SOL     OW 7192   4.343   6.316   1.860
 2098SOL    HW1 7193   4.373   6.385   1.794
 2098SOL    HW2 7194   4.267   6.263   1.822
 2099SOL     OW 7195   3.582   2.105   6.394
 2099SOL    HW1 7196   3.637   2.179   6.435
 2099SOL    HW2 7197   3.549   2.044   6.466
 2100SOL     OW 7198   4.856   2.061   7.021
 2100SOL    HW1 7199   4.872   2.111   6.936
 2100SOL    HW2 7200   4.929   1.994   0.012
 2101SOL     OW 7201   0.551   6.646   1.059
 2101SOL    HW1 7202   0.454   6.628   1.042
 2101SOL    HW2 7203   0.590   6.571   1.113
 2102SOL     OW 7204   5.199   4.472   2.567
 2102SOL    HW1 7205   5.249   4.391   2.536
 2102SOL    HW2 7206   5.116   4.444   2.614
 2103SOL     OW 7207   3.448   3.884   6.798
 2103SOL    HW1 7208   3.477   3.834   6.880
 2103SOL    HW2 7209   3.403   3.821   6.735
 2104SOL     OW 7210   1.468   4.476   1.887
 2104SOL    HW1 7211   1.406   4.456   1.811
 2104SOL    HW2 7212   1.456   4.408   1.959
 2105SOL     OW 7213   5.166   4.711   6.080
 2105SOL    HW1 7214   5.106   4.734   6.004
 2105SOL    HW2 7215   5.248   4.665   6.046
 2106SOL     OW 7216   5.439   3.324   0.821
 2106SOL    HW1 7217   5.441   3.422   0.840
 2106SOL    HW2 7218   5.522   3.282   0.856
 2107SOL     OW 7219   6.648   2.213   4.890
 2107SOL    HW1 7220   6.572   2.152   4.864
 2107SOL    HW2 7221   6.675   2.194   4.985
 2108SOL     OW 7222   6.079   5.249   5.361
 2108SOL    HW1 7223   6.106   5.332   5.313
 2108SOL    HW2 7224   5.979   5.245   5.369
 2109SOL     OW 7225   4.166   5.777   2.250
 2109SOL    HW1 7226   4.133   5.745   2.162
 2109SOL    HW2 7227   4.097   5.760   2.320
 2110SOL     OW 7228   2.618   0.844   0.502
 2110SOL    HW1 7229   2.669   0.758   0.507
 2110SOL    HW2 7230   2.521   0.823   0.489
 2111SOL     OW 7231   2.150   3.440   0.422
 2111SOL    HW1 7232   2.147   3.375   0.498
 2111SOL    HW2 7233   2.056   3.460   0.392
 2112SOL     OW 7234   5.298   2.536   0.928
 2112SOL    HW1 7235   5.235   2.585   0.866
 2112SOL    HW2 7236   5.309   2.442   0.896
 2113SOL     OW 7237   2.787   1.361   4.128
 2113SOL    HW1 7238   2.864   1.299   4.110
 2113SOL    HW2 7239   2.731   1.324   4.202
 2114SOL     OW 7240   2.282   1.966   6.602
 2114SOL    HW1 7241   2.215   1.973   6.528
 2114SOL    HW2 7242   2.374   1.956   6.563
 2115SOL     OW 7243   0.611   4.447   3.043
 2115SOL    HW1 7244   0.633   4.350   3.047
 2115SOL    HW2 7245   0.572   4.470   2.954
 2116SOL     OW 7246   0.465   4.248   2.835
 2116SOL    HW1 7247   0.457   4.148   2.826
 2116SOL    HW2 7248   0.376   4.285   2.862
 2117SOL     OW 7249   6.618   4.431   1.872
 2117SOL    HW1 7250   6.539   4.472   1.827
 2117SOL    HW2 7251   6.684   4.400   1.803
 2118SOL     OW 7252   6.277   2.821   3.067
 2118SOL    HW1 7253   6.268   2.789   3.161
 2118SOL    HW2 7254   6.373   2.819   3.040
 2119SOL     OW 7255   1.428   0.226   1.384
 2119SOL    HW1 7256   1.500   0.177   1.334
 2119SOL    HW2 7257   1.340   0.211   1.339
 2120SOL     OW 7258   0.454   4.243   3.425
 2120SOL    HW1 7259   0.413   4.284   3.343
 2120SOL    HW2 7260   0.485   4.316   3.487
 2121SOL     OW 7261   1.083   2.811   5.840
 2121SOL    HW1 7262   1.171   2.788   5.798
 2121SOL    HW2 7263   1.092   2.805   5.940
 2122SOL     OW 7264   5.883   5.186   6.263
 2122SOL    HW1 7265   5.939   5.174   6.181
 2122SOL    HW2 7266   5.848   5.280   6.266
 2123SOL     OW 7267   6.750   5.170   2.127
 2123SOL    HW1 7268   6.782   5.154   2.220
 2123SOL    HW2 7269   6.651   5.184   2.128
 2124SOL     OW 7270   3.175   1.811   1.128
 2124SOL    HW1 7271   3.142   1.900   1.162
 2124SOL    HW2 7272   3.214   1.760   1.205
 2125SOL     OW 7273   1.879   6.629   2.106
 2125SOL    HW1 7274   1.889   6.576   2.190
 2125SOL    HW2 7275   1.783   6.651   2.091
 2126SOL     OW 7276   3.720   2.307   6.555
 2126SOL    HW1 7277   3.629   2.339   6.528
 2126SOL    HW2 7278   3.725   2.301   6.655
 2127SOL     OW 7279   1.236   1.902   5.842
 2127SOL    HW1 7280   1.142   1.896   5.875
 2127SOL    HW2 7281   1.246   1.846   5.760
 2128SOL     OW 7282   6.276   2.782   3.327
 2128SOL    HW1 7283   6.225   2.863   3.355
 2128SOL    HW2 7284   6.285   2.720   3.405
 2129SOL     OW 7285   4.978   3.501   5.189
 2129SOL    HW1 7286   4.910   3.464   5.251
 2129SOL    HW2 7287   4.934   3.563   5.123
 2130SOL     OW 7288   3.296   0.002   2.595
 2130SOL    HW1 7289   3.233   0.078   2.612
 2130SOL    HW2 7290   3.289   6.959   2.670
 2131SOL     OW 7291   4.709   1.702   0.726
 2131SOL    HW1 7292   4.671   1.620   0.768
 2131SOL    HW2 7293   4.788   1.677   0.669
 2132SOL     OW 7294   3.479   1.211   0.654
 2132SOL    HW1 7295   3.549   1.185   0.588
 2132SOL    HW2 7296   3.390   1.213   0.609
 2133SOL     OW 7297   3.554   2.767   1.187
 2133SOL    HW1 7298   3.636   2.741   1.137
 2133SOL    HW2 7299   3.531   2.862   1.167
 2134SOL     OW 7300   1.176   0.716   4.864
 2134SOL    HW1 7301   1.115   0.793   4.880
 2134SOL    HW2 7302   1.151   0.671   4.778
 2135SOL     OW 7303   1.473   2.272   4.519
 2135SOL    HW1 7304   1.441   2.246   4.428
 2135SOL    HW2 7305   1.415   2.229   4.588
 2136SOL     OW 7306   0.758   3.851   4.528
 2136SOL    HW1 7307   0.772   3.783   4.600
 2136SOL    HW2 7308   0.843   3.900   4.511
 2137SOL     OW 7309   0.264   6.001   3.961
 2137SOL    HW1 7310   0.320   5.925   3.927
 2137SOL    HW2 7311   0.311   6.048   4.035
 2138SOL     OW 7312   0.347   1.075   1.817
 2138SOL    HW1 7313   0.407   1.008   1.773
 2138SOL    HW2 7314   0.401   1.152   1.850
 2139SOL     OW 7315   3.465   0.870   2.889
 2139SOL    HW1 7316   3.412   0.786   2.879
 2139SOL    HW2 7317   3.526   0.881   2.811
 2140SOL     OW 7318   3.591   5.958   3.610
 2140SOL    HW1 7319   3.526   6.017   3.562
 2140SOL    HW2 7320   3.571   5.958   3.708
 2141SOL     OW 7321   6.448   4.626   1.420
 2141SOL    HW1 7322   6.539   4.607   1.383
 2141SOL    HW2 7323   6.400   4.688   1.358
 2142SOL     OW 7324   1.203   1.879   2.942
 2142SOL    HW1 7325   1.247   1.967   2.960
 2142SOL    HW2 7326   1.104   1.888   2.957
 2143SOL     OW 7327   2.870   4.374   1.404
 2143SOL    HW1 7328   2.809   4.439   1.450
 2143SOL    HW2 7329   2.857   4.380   1.305
 2144SOL     OW 7330   1.350   5.542   3.462
 2144SOL    HW1 7331   1.274   5.542   3.398
 2144SOL    HW2 7332   1.322   5.584   3.548
 2145SOL     OW 7333   3.973   6.222   4.355
 2145SOL    HW1 7334   3.889   6.235   4.407
 2145SOL    HW2 7335   3.952   6.214   4.258
 2146SOL     OW 7336   2.498   3.958   1.399
 2146SOL    HW1 7337   2.458   3.869   1.380
 2146SOL    HW2 7338   2.511   4.009   1.314
 2147SOL     OW 7339   0.476   1.196   6.459
 2147SOL    HW1 7340   0.428   1.160   6.539
 2147SOL    HW2 7341   0.567   1.154   6.453
 2148SOL     OW 7342   5.317   2.642   4.399
 2148SOL    HW1 7343   5.337   2.717   4.336
 2148SOL    HW2 7344   5.388   2.572   4.393
 2149SOL     OW 7345   3.972   1.472   1.539
 2149SOL    HW1 7346   3.922   1.473   1.453
 2149SOL    HW2 7347   3.907   1.475   1.615
 2150SOL     OW 7348   2.596   2.034   2.197
 2150SOL    HW1 7349   2.619   1.953   2.144
 2150SOL    HW2 7350   2.636   2.026   2.288
 2151SOL     OW 7351   1.772   0.954   4.000
 2151SOL    HW1 7352   1.746   1.019   3.929
 2151SOL    HW2 7353   1.759   0.861   3.968
 2152SOL     OW 7354   3.706   6.828   1.272
 2152SOL    HW1 7355   3.620   6.778   1.265
 2152SOL    HW2 7356   3.734   6.834   1.368
 2153SOL     OW 7357   3.757   0.732   3.285
 2153SOL    HW1 7358   3.746   0.749   3.187
 2153SOL    HW2 7359   3.755   0.819   3.334
 2154SOL     OW 7360   5.125   0.360   4.957
 2154SOL    HW1 7361   5.196   0.429   4.942
 2154SOL    HW2 7362   5.092   0.327   4.868
 2155SOL     OW 7363   1.961   6.011   0.315
 2155SOL    HW1 7364   1.881   5.957   0.337
 2155SOL    HW2 7365   1.958   6.037   0.218
 2156SOL     OW 7366   2.185   0.786   3.138
 2156SOL    HW1 7367   2.271   0.777   3.188
 2156SOL    HW2 7368   2.173   0.881   3.109
 2157SOL     OW 7369   5.727   0.838   3.393
 2157SOL    HW1 7370   5.663   0.801   3.460
 2157SOL    HW2 7371   5.814   0.790   3.400
 2158SOL     OW 7372   3.523   6.386   1.195
 2158SOL    HW1 7373   3.550   6.465   1.139
 2158SOL    HW2 7374   3.564   6.394   1.286
 2159SOL     OW 7375   2.159   6.359   5.259
 2159SOL    HW1 7376   2.215   6.405   5.328
 2159SOL    HW2 7377   2.201   6.371   5.168
 2160SOL     OW 7378   4.748   3.329   0.830
 2160SOL    HW1 7379   4.846   3.344   0.815
 2160SOL    HW2 7380   4.731   3.233   0.851
 2161SOL     OW 7381   5.152   3.954   3.086
 2161SOL    HW1 7382   5.098   4.035   3.067
 2161SOL    HW2 7383   5.092   3.874   3.092
 2162SOL     OW 7384   2.704   1.060   0.643
 2162SOL    HW1 7385   2.760   1.029   0.720
 2162SOL    HW2 7386   2.662   0.981   0.599
 2163SOL     OW 7387   6.917   4.212   6.219
 2163SOL    HW1 7388   6.865   4.126   6.224
 2163SOL    HW2 7389   6.962   4.229   6.306
 2164SOL     OW 7390   1.911   3.084   0.222
 2164SOL    HW1 7391   1.915   3.149   0.146
 2164SOL    HW2 7392   1.884   3.132   0.306
 2165SOL     OW 7393   0.997   1.767   2.716
 2165SOL    HW1 7394   0.961   1.819   2.639
 2165SOL    HW2 7395   0.935   1.691   2.737
 2166SOL     OW 7396   1.866   2.662   5.336
 2166SOL    HW1 7397   1.842   2.759   5.344
 2166SOL    HW2 7398   1.807   2.608   5.395
 2167SOL     OW 7399   1.532   1.083   3.351
 2167SOL    HW1 7400   1.543   1.090   3.252
 2167SOL    HW2 7401   1.435   1.084   3.374
 2168SOL     OW 7402   0.908   1.722   3.639
 2168SOL    HW1 7403   0.967   1.772   3.575
 2168SOL    HW2 7404   0.857   1.788   3.695
 2169SOL     OW 7405   5.656   2.156   5.509
 2169SOL    HW1 7406   5.658   2.129   5.606
 2169SOL    HW2 7407   5.723   2.102   5.458
 2170SOL     OW 7408   6.445   5.163   5.326
 2170SOL    HW1 7409   6.429   5.228   5.400
 2170SOL    HW2 7410   6.378   5.178   5.253
 2171SOL     OW 7411   6.593   3.699   1.673
 2171SOL    HW1 7412   6.594   3.770   1.743
 2171SOL    HW2 7413   6.585   3.741   1.582
 2172SOL     OW 7414   2.323   2.374   0.187
 2172SOL    HW1 7415   2.411   2.396   0.145
 2172SOL    HW2 7416   2.336   2.300   0.253
 2173SOL     OW 7417   4.419   0.482   5.240
 2173SOL    HW1 7418   4.377   0.527   5.161
 2173SOL    HW2 7419   4.517   0.469   5.223
 2174SOL     OW 7420   5.541   5.156   5.642
 2174SOL    HW1 7421   5.635   5.122   5.636
 2174SOL    HW2 7422   5.510   5.149   5.737
 2175SOL     OW 7423   2.842   1.993   4.133
 2175SOL    HW1 7424   2.798   2.001   4.223
 2175SOL    HW2 7425   2.885   2.080   4.109
 2176SOL     OW 7426   0.631   3.224   6.918
 2176SOL    HW1 7427   0.641   3.240   7.016
 2176SOL    HW2 7428   0.664   3.132   6.895
 2177SOL     OW 7429   6.668   1.123   3.721
 2177SOL    HW1 7430   6.633   1.209   3.758
 2177SOL    HW2 7431   6.763   1.135   3.693
 2178SOL     OW 7432   0.947   3.770   0.074
 2178SOL    HW1 7433   0.935   3.831   0.152
 2178SOL    HW2 7434   0.945   3.675   0.105
 2179SOL     OW 7435   1.523   5.479   4.827
 2179SOL    HW1 7436   1.477   5.468   4.738
 2179SOL    HW2 7437   1.528   5.391   4.873
 2180SOL     OW 7438   2.421   3.331   1.607
 2180SOL    HW1 7439   2.515   3.300   1.619
 2180SOL    HW2 7440   2.390   3.376   1.692
 2181SOL     OW 7441   5.129   4.633   5.376
 2181SOL    HW1 7442   5.088   4.556   5.425
 2181SOL    HW2 7443   5.057   4.695   5.345
 2182SOL     OW 7444   7.005   3.244   5.196
 2182SOL    HW1 7445   0.061   3.199   5.238
 2182SOL    HW2 7446   6.921   3.212   5.240
 2183SOL     OW 7447   3.319   3.683   6.074
 2183SOL    HW1 7448   3.393   3.616   6.084
 2183SOL    HW2 7449   3.345   3.751   6.004
 2184SOL     OW 7450   4.217   1.597   5.500
 2184SOL    HW1 7451   4.143   1.572   5.563
 2184SOL    HW2 7452   4.303   1.603   5.551
 2185SOL     OW 7453   1.388   1.910   1.094
 2185SOL    HW1 7454   1.351   1.842   1.157
 2185SOL    HW2 7455   1.405   1.996   1.142
 2186SOL     OW 7456   6.665   5.144   1.852
 2186SOL    HW1 7457   6.736   5.143   1.782
 2186SOL    HW2 7458   6.706   5.168   1.940
 2187SOL     OW 7459   0.064   1.676   2.257
 2187SOL    HW1 7460   0.013   1.747   2.306
 2187SOL    HW2 7461   0.093   1.605   2.322
 2188SOL     OW 7462   5.328   6.092   4.207
 2188SOL    HW1 7463   5.378   6.090   4.120
 2188SOL    HW2 7464   5.329   6.186   4.243
 2189SOL     OW 7465   1.800   6.403   6.860
 2189SOL    HW1 7466   1.818   6.477   6.924
 2189SOL    HW2 7467   1.885   6.379   6.812
 2190SOL     OW 7468   0.433   2.574   2.267
 2190SOL    HW1 7469   0.379   2.617   2.195
 2190SOL    HW2 7470   0.408   2.478   2.275
 2191SOL     OW 7471   2.712   1.810   6.136
 2191SOL    HW1 7472   2.706   1.909   6.126
 2191SOL    HW2 7473   2.797   1.778   6.093
 2192SOL     OW 7474   3.681   0.030   3.187
 2192SOL    HW1 7475   3.673   0.126   3.160
 2192SOL    HW2 7476   3.766   0.017   3.237
 2193SOL     OW 7477   6.761   5.689   6.138
 2193SOL    HW1 7478   6.744   5.669   6.042
 2193SOL    HW2 7479   6.673   5.697   6.186
 2194SOL     OW 7480   2.166   5.100   6.422
 2194SOL    HW1 7481   2.197   5.149   6.503
 2194SOL    HW2 7482   2.115   5.018   6.449
 2195SOL     OW 7483   0.018   6.858   3.505
 2195SOL    HW1 7484   0.050   6.908   3.585
 2195SOL    HW2 7485   6.961   6.904   3.467
 2196SOL     OW 7486   3.507   0.139   5.087
 2196SOL    HW1 7487   3.550   0.053   5.062
 2196SOL    HW2 7488   3.496   0.196   5.005
 2197SOL     OW 7489   3.648   3.353   1.445
 2197SOL    HW1 7490   3.550   3.355   1.424
 2197SOL    HW2 7491   3.662   3.370   1.542
 2198SOL     OW 7492   6.946   1.614   0.084
 2198SOL    HW1 7493   6.952   1.536   0.146
 2198SOL    HW2 7494   6.961   1.698   0.135
 2199SOL     OW 7495   4.547   0.785   2.900
 2199SOL    HW1 7496   4.562   0.706   2.840
 2199SOL    HW2 7497   4.634   0.832   2.915
 2200SOL     OW 7498   3.647   0.437   4.656
 2200SOL    HW1 7499   3.548   0.425   4.649
 2200SOL    HW2 7500   3.670   0.533   4.641
 2201SOL     OW 7501   6.272   2.684   2.660
 2201SOL    HW1 7502   6.347   2.725   2.712
 2201SOL    HW2 7503   6.185   2.719   2.693
 2202SOL     OW 7504   3.085   4.911   2.955
 2202SOL    HW1 7505   3.004   4.890   2.901
 2202SOL    HW2 7506   3.127   4.995   2.922
 2203SOL     OW 7507   2.488   2.925   1.130
 2203SOL    HW1 7508   2.421   2.851   1.123
 2203SOL    HW2 7509   2.445   3.005   1.172
 2204SOL     OW 7510   3.753   1.003   6.694
 2204SOL    HW1 7511   3.847   1.002   6.726
 2204SOL    HW2 7512   3.750   0.979   6.597
 2205SOL     OW 7513   1.850   7.010   6.283
 2205SOL    HW1 7514   1.856   0.077   6.242
 2205SOL    HW2 7515   1.891   6.942   6.222
 2206SOL     OW 7516   2.345   4.187   5.549
 2206SOL    HW1 7517   2.410   4.113   5.565
 2206SOL    HW2 7518   2.348   4.215   5.453
 2207SOL     OW 7519   1.994   3.725   6.826
 2207SOL    HW1 7520   1.907   3.684   6.797
 2207SOL    HW2 7521   1.989   3.824   6.812
 2208SOL     OW 7522   1.645   5.764   2.153
 2208SOL    HW1 7523   1.671   5.791   2.245
 2208SOL    HW2 7524   1.597   5.676   2.156
 2209SOL     OW 7525   1.028   5.606   5.759
 2209SOL    HW1 7526   1.090   5.529   5.773
 2209SOL    HW2 7527   0.983   5.598   5.670
 2210SOL     OW 7528   0.053   4.588   3.718
 2210SOL    HW1 7529   6.987   4.575   3.762
 2210SOL    HW2 7530   0.109   4.648   3.775
 2211SOL     OW 7531   5.107   1.079   0.090
 2211SOL    HW1 7532   5.017   1.124   0.095
 2211SOL    HW2 7533   5.108   1.001   0.151
 2212SOL     OW 7534   2.044   6.295   6.766
 2212SOL    HW1 7535   2.030   6.203   6.729
 2212SOL    HW2 7536   2.111   6.291   6.840
 2213SOL     OW 7537   3.772   2.697   5.252
 2213SOL    HW1 7538   3.841   2.625   5.256
 2213SOL    HW2 7539   3.708   2.685   5.328
 2214SOL     OW 7540   4.478   2.927   5.606
 2214SOL    HW1 7541   4.383   2.919   5.635
 2214SOL    HW2 7542   4.489   3.011   5.552
 2215SOL     OW 7543   6.353   1.879   6.828
 2215SOL    HW1 7544   6.270   1.829   6.801
 2215SOL    HW2 7545   6.389   1.840   6.913
 2216SOL     OW 7546   1.909   0.540   6.022
 2216SOL    HW1 7547   1.896   0.620   5.962
 2216SOL    HW2 7548   1.945   0.464   5.968
 2217SOL     OW 7549   3.661   0.415   1.046
 2217SOL    HW1 7550   3.746   0.468   1.039
 2217SOL    HW2 7551   3.612   0.442   1.129
 2218SOL     OW 7552   0.761   6.598   0.720
 2218SOL    HW1 7553   0.768   6.696   0.740
 2218SOL    HW2 7554   0.665   6.571   0.720
 2219SOL     OW 7555   0.220   2.763   2.176
 2219SOL    HW1 7556   0.256   2.841   2.226
 2219SOL    HW2 7557   0.227   2.780   2.078
 2220SOL     OW 7558   0.828   0.901   4.682
 2220SOL    HW1 7559   0.770   0.931   4.757
 2220SOL    HW2 7560   0.840   0.802   4.686
 2221SOL     OW 7561   6.697   0.682   5.576
 2221SOL    HW1 7562   6.653   0.611   5.521
 2221SOL    HW2 7563   6.630   0.719   5.640
 2222SOL     OW 7564   4.105   0.521   0.537
 2222SOL    HW1 7565   4.186   0.536   0.482
 2222SOL    HW2 7566   4.025   0.509   0.478
 2223SOL     OW 7567   6.106   6.789   3.978
 2223SOL    HW1 7568   6.077   6.798   3.883
 2223SOL    HW2 7569   6.202   6.818   3.987
 2224SOL     OW 7570   1.684   4.269   1.696
 2224SOL    HW1 7571   1.648   4.255   1.788
 2224SOL    HW2 7572   1.615   4.314   1.639
 2225SOL     OW 7573   6.347   5.668   3.075
 2225SOL    HW1 7574   6.282   5.645   3.148
 2225SOL    HW2 7575   6.297   5.700   2.995
 2226SOL     OW 7576   3.891   5.002   0.360
 2226SOL    HW1 7577   3.918   4.939   0.433
 2226SOL    HW2 7578   3.937   5.090   0.374
 2227SOL     OW 7579   5.181   3.630   0.579
 2227SOL    HW1 7580   5.208   3.551   0.523
 2227SOL    HW2 7581   5.155   3.706   0.520
 2228SOL     OW 7582   2.881   5.341   1.263
 2228SOL    HW1 7583   2.860   5.243   1.260
 2228SOL    HW2 7584   2.894   5.374   1.169
 2229SOL     OW 7585   4.284   1.503   4.428
 2229SOL    HW1 7586   4.306   1.594   4.461
 2229SOL    HW2 7587   4.355   1.471   4.365
 2230SOL     OW 7588   6.424   5.346   5.536
 2230SOL    HW1 7589   6.358   5.420   5.525
 2230SOL    HW2 7590   6.517   5.384   5.538
 2231SOL     OW 7591   0.892   0.802   1.349
 2231SOL    HW1 7592   0.874   0.893   1.385
 2231SOL    HW2 7593   0.841   0.789   1.264
 2232SOL     OW 7594   1.800   2.320   4.077
 2232SOL    HW1 7595   1.865   2.302   4.151
 2232SOL    HW2 7596   1.848   2.367   4.002
 2233SOL     OW 7597   2.245   4.366   1.261
 2233SOL    HW1 7598   2.309   4.441   1.276
 2233SOL    HW2 7599   2.231   4.353   1.163
 2234SOL     OW 7600   4.608   2.046   2.172
 2234SOL    HW1 7601   4.532   2.065   2.110
 2234SOL    HW2 7602   4.672   2.123   2.171
 2235SOL     OW 7603   1.767   0.580   1.273
 2235SOL    HW1 7604   1.709   0.507   1.310
 2235SOL    HW2 7605   1.858   0.544   1.255
 2236SOL     OW 7606   0.764   4.058   6.478
 2236SOL    HW1 7607   0.728   4.151   6.481
 2236SOL    HW2 7608   0.703   3.996   6.528
 2237SOL     OW 7609   5.667   4.360   4.490
 2237SOL    HW1 7610   5.704   4.296   4.558
 2237SOL    HW2 7611   5.709   4.343   4.401
 2238SOL     OW 7612   5.565   5.668   1.815
 2238SOL    HW1 7613   5.538   5.664   1.719
 2238SOL    HW2 7614   5.513   5.600   1.868
 2239SOL     OW 7615   3.943   5.296   3.409
 2239SOL    HW1 7616   3.919   5.238   3.487
 2239SOL    HW2 7617   3.977   5.384   3.442
 2240SOL     OW 7618   5.546   5.866   3.804
 2240SOL    HW1 7619   5.594   5.940   3.756
 2240SOL    HW2 7620   5.612   5.812   3.856
 2241SOL     OW 7621   0.226   0.071   2.141
 2241SOL    HW1 7622   0.308   0.119   2.173
 2241SOL    HW2 7623   0.147   0.099   2.196
 2242SOL     OW 7624   5.077   2.309   2.889
 2242SOL    HW1 7625   5.175   2.329   2.893
 2242SOL    HW2 7626   5.042   2.296   2.982
 2243SOL     OW 7627   2.727   6.367   5.207
 2243SOL    HW1 7628   2.730   6.388   5.305
 2243SOL    HW2 7629   2.637   6.330   5.184
 2244SOL     OW 7630   2.828   0.533   2.851
 2244SOL    HW1 7631   2.771   0.564   2.775
 2244SOL    HW2 7632   2.781   0.550   2.938
 2245SOL     OW 7633   0.389   1.717   2.240
 2245SOL    HW1 7634   0.453   1.729   2.316
 2245SOL    HW2 7635   0.327   1.796   2.236
 2246SOL     OW 7636   1.420   1.014   5.479
 2246SOL    HW1 7637   1.445   1.086   5.414
 2246SOL    HW2 7638   1.331   0.976   5.453
 2247SOL     OW 7639   2.611   2.808   5.588
 2247SOL    HW1 7640   2.533   2.746   5.575
 2247SOL    HW2 7641   2.609   2.846   5.680
 2248SOL     OW 7642   3.813   3.836   6.432
 2248SOL    HW1 7643   3.889   3.889   6.471
 2248SOL    HW2 7644   3.729   3.889   6.439
 2249SOL     OW 7645   6.257   6.207   2.405
 2249SOL    HW1 7646   6.315   6.126   2.395
 2249SOL    HW2 7647   6.306   6.278   2.456
 2250SOL     OW 7648   4.698   3.718   0.835
 2250SOL    HW1 7649   4.685   3.619   0.837
 2250SOL    HW2 7650   4.710   3.751   0.929
 2251SOL     OW 7651   5.159   1.659   0.262
 2251SOL    HW1 7652   5.233   1.592   0.267
 2251SOL    HW2 7653   5.084   1.622   0.209
 2252SOL     OW 7654   6.357   1.985   3.054
 2252SOL    HW1 7655   6.290   2.006   2.983
 2252SOL    HW2 7656   6.368   1.886   3.062
 2253SOL     OW 7657   0.620   3.560   6.862
 2253SOL    HW1 7658   0.549   3.504   6.820
 2253SOL    HW2 7659   0.702   3.505   6.876
 2254SOL     OW 7660   2.334   3.484   5.606
 2254SOL    HW1 7661   2.379   3.569   5.636
 2254SOL    HW2 7662   2.399   3.429   5.554
 2255SOL     OW 7663   4.751   2.688   0.234
 2255SOL    HW1 7664   4.680   2.619   0.217
 2255SOL    HW2 7665   4.841   2.644   0.231
 2256SOL     OW 7666   3.951   6.681   1.177
 2256SOL    HW1 7667   4.045   6.688   1.211
 2256SOL    HW2 7668   3.891   6.740   1.232
 2257SOL     OW 7669   7.015   2.473   3.700
 2257SOL    HW1 7670   7.017   2.378   3.671
 2257SOL    HW2 7671   0.003   2.533   3.621
 2258SOL     OW 7672   1.241   5.055   5.649
 2258SOL    HW1 7673   1.320   5.011   5.605
 2258SOL    HW2 7674   1.273   5.116   5.722
 2259SOL     OW 7675   5.021   4.368   6.528
 2259SOL    HW1 7676   4.951   4.325   6.585
 2259SOL    HW2 7677   5.001   4.465   6.517
 2260SOL     OW 7678   5.958   4.593   3.105
 2260SOL    HW1 7679   5.929   4.522   3.169
 2260SOL    HW2 7680   5.955   4.557   3.012
 2261SOL     OW 7681   6.436   6.999   1.109
 2261SOL    HW1 7682   6.399   6.917   1.151
 2261SOL    HW2 7683   6.527   6.980   1.072
 2262SOL     OW 7684   5.144   2.254   2.577
 2262SOL    HW1 7685   5.100   2.322   2.636
 2262SOL    HW2 7686   5.078   2.223   2.509
 2263SOL     OW 7687   2.615   6.136   6.002
 2263SOL    HW1 7688   2.611   6.138   5.902
 2263SOL    HW2 7689   2.707   6.107   6.031
 2264SOL     OW 7690   3.452   3.025   1.142
 2264SOL    HW1 7691   3.475   3.029   1.240
 2264SOL    HW2 7692   3.466   3.116   1.101
 2265SOL     OW 7693   0.256   0.306   3.398
 2265SOL    HW1 7694   0.318   0.383   3.414
 2265SOL    HW2 7695   0.296   0.245   3.329
 2266SOL     OW 7696   6.010   1.765   1.342
 2266SOL    HW1 7697   5.915   1.757   1.374
 2266SOL    HW2 7698   6.014   1.830   1.266
 2267SOL     OW 7699   4.921   2.642   5.033
 2267SOL    HW1 7700   4.877   2.685   5.112
 2267SOL    HW2 7701   4.899   2.545   5.031
 2268SOL     OW 7702   6.052   4.023   6.348
 2268SOL    HW1 7703   6.149   4.048   6.353
 2268SOL    HW2 7704   6.034   3.945   6.407
 2269SOL     OW 7705   5.873   5.861   4.851
 2269SOL    HW1 7706   5.815   5.935   4.818
 2269SOL    HW2 7707   5.894   5.799   4.776
 2270SOL     OW 7708   2.725   2.489   6.429
 2270SOL    HW1 7709   2.725   2.561   6.360
 2270SOL    HW2 7710   2.814   2.484   6.473
 2271SOL     OW 7711   6.179   4.027   0.319
 2271SOL    HW1 7712   6.263   4.054   0.366
 2271SOL    HW2 7713   6.114   4.103   0.321
 2272SOL     OW 7714   5.528   1.398   5.287
 2272SOL    HW1 7715   5.571   1.365   5.371
 2272SOL    HW2 7716   5.487   1.488   5.303
 2273SOL     OW 7717   1.547   0.931   2.214
 2273SOL    HW1 7718   1.559   0.838   2.251
 2273SOL    HW2 7719   1.592   0.937   2.125
 2274SOL     OW 7720   1.982   2.384   6.117
 2274SOL    HW1 7721   1.960   2.481   6.123
 2274SOL    HW2 7722   2.027   2.355   6.202
 2275SOL     OW 7723   5.990   0.646   4.682
 2275SOL    HW1 7724   6.086   0.675   4.681
 2275SOL    HW2 7725   5.980   0.567   4.742
 2276SOL     OW 7726   3.062   4.939   1.084
 2276SOL    HW1 7727   3.001   5.004   1.039
 2276SOL    HW2 7728   3.086   4.866   1.021
 2277SOL     OW 7729   3.767   3.800   4.824
 2277SOL    HW1 7730   3.776   3.791   4.725
 2277SOL    HW2 7731   3.672   3.819   4.848
 2278SOL     OW 7732   6.102   5.945   3.923
 2278SOL    HW1 7733   6.012   5.941   3.966
 2278SOL    HW2 7734   6.158   5.869   3.956
 2279SOL     OW 7735   4.486   5.426   4.237
 2279SOL    HW1 7736   4.404   5.434   4.295
 2279SOL    HW2 7737   4.541   5.509   4.247
 2280SOL     OW 7738   6.954   6.678   4.951
 2280SOL    HW1 7739   6.969   6.698   4.854
 2280SOL    HW2 7740   7.009   6.740   5.007
 2281SOL     OW 7741   3.268   0.938   1.695
 2281SOL    HW1 7742   3.297   1.021   1.741
 2281SOL    HW2 7743   3.349   0.884   1.670
 2282SOL     OW 7744   5.541   0.018   5.113
 2282SOL    HW1 7745   5.550   6.942   5.114
 2282SOL    HW2 7746   5.629   0.059   5.093
 2283SOL     OW 7747   6.455   4.594   1.697
 2283SOL    HW1 7748   6.447   4.597   1.598
 2283SOL    HW2 7749   6.367   4.567   1.737
 2284SOL     OW 7750   2.622   1.781   0.430
 2284SOL    HW1 7751   2.583   1.859   0.382
 2284SOL    HW2 7752   2.550   1.737   0.484
 2285SOL     OW 7753   1.461   2.730   0.453
 2285SOL    HW1 7754   1.364   2.751   0.462
 2285SOL    HW2 7755   1.513   2.780   0.522
 2286SOL     OW 7756   0.322   6.921   4.532
 2286SOL    HW1 7757   0.389   6.888   4.466
 2286SOL    HW2 7758   0.258   6.984   4.487
 2287SOL     OW 7759   1.958   2.647   2.060
 2287SOL    HW1 7760   1.981   2.666   1.965
 2287SOL    HW2 7761   2.034   2.597   2.103
 2288SOL     OW 7762   6.836   4.633   4.451
 2288SOL    HW1 7763   6.815   4.538   4.428
 2288SOL    HW2 7764   6.885   4.637   4.538
 2289SOL     OW 7765   6.146   4.564   2.722
 2289SOL    HW1 7766   6.120   4.659   2.742
 2289SOL    HW2 7767   6.084   4.502   2.771
 2290SOL     OW 7768   1.830   3.679   2.125
 2290SOL    HW1 7769   1.881   3.601   2.090
 2290SOL    HW2 7770   1.808   3.741   2.050
 2291SOL     OW 7771   1.998   2.111   0.468
 2291SOL    HW1 7772   2.041   2.107   0.378
 2291SOL    HW2 7773   1.923   2.045   0.472
 2292SOL     OW 7774   5.939   2.184   3.522
 2292SOL    HW1 7775   5.857   2.239   3.505
 2292SOL    HW2 7776   6.015   2.245   3.543
 2293SOL     OW 7777   6.543   6.800   1.375
 2293SOL    HW1 7778   6.615   6.842   1.319
 2293SOL    HW2 7779   6.478   6.753   1.316
 2294SOL     OW 7780   3.200   1.192   6.375
 2294SOL    HW1 7781   3.259   1.134   6.318
 2294SOL    HW2 7782   3.248   1.214   6.460
 2295SOL     OW 7783   0.564   1.542   2.775
 2295SOL    HW1 7784   0.534   1.505   2.687
 2295SOL    HW2 7785   0.498   1.610   2.807
 2296SOL     OW 7786   3.621   5.495   2.512
 2296SOL    HW1 7787   3.545   5.439   2.480
 2296SOL    HW2 7788   3.646   5.468   2.605
 2297SOL     OW 7789   4.934   4.806   5.612
 2297SOL    HW1 7790   4.863   4.737   5.594
 2297SOL    HW2 7791   4.953   4.856   5.528
 2298SOL     OW 7792   4.021   3.775   2.485
 2298SOL    HW1 7793   4.013   3.733   2.395
 2298SOL    HW2 7794   3.974   3.863   2.486
 2299SOL     OW 7795   4.701   4.624   5.305
 2299SOL    HW1 7796   4.604   4.641   5.322
 2299SOL    HW2 7797   4.751   4.626   5.392
 2300SOL     OW 7798   2.753   5.892   3.424
 2300SOL    HW1 7799   2.663   5.881   3.466
 2300SOL    HW2 7800   2.746   5.950   3.343
 2301SOL     OW 7801   3.891   3.029   3.398
 2301SOL    HW1 7802   3.951   3.107   3.411
 2301SOL    HW2 7803   3.872   2.985   3.486
 2302SOL     OW 7804   4.131   0.469   1.128
 2302SOL    HW1 7805   4.085   0.557   1.123
 2302SOL    HW2 7806   4.072   0.397   1.091
 2303SOL     OW 7807   2.739   3.028   0.910
 2303SOL    HW1 7808   2.795   2.950   0.882
 2303SOL    HW2 7809   2.644   3.011   0.887
 2304SOL     OW 7810   5.607   6.593   4.602
 2304SOL    HW1 7811   5.602   6.572   4.699
 2304SOL    HW2 7812   5.518   6.626   4.570
 2305SOL     OW 7813   2.241   0.044   2.979
 2305SOL    HW1 7814   2.156   0.042   3.031
 2305SOL    HW2 7815   2.220   0.055   2.882
 2306SOL     OW 7816   2.347   5.380   1.988
 2306SOL    HW1 7817   2.438   5.413   2.012
 2306SOL    HW2 7818   2.354   5.312   1.915
 2307SOL     OW 7819   0.529   2.955   4.628
 2307SOL    HW1 7820   0.446   2.903   4.645
 2307SOL    HW2 7821   0.568   2.929   4.540
 2308SOL     OW 7822   2.825   4.681   1.061
 2308SOL    HW1 7823   2.857   4.765   1.017
 2308SOL    HW2 7824   2.904   4.631   1.097
 2309SOL     OW 7825   1.969   0.883   5.408
 2309SOL    HW1 7826   1.896   0.950   5.423
 2309SOL    HW2 7827   2.055   0.931   5.393
 2310SOL     OW 7828   5.612   5.476   1.288
 2310SOL    HW1 7829   5.538   5.541   1.305
 2310SOL    HW2 7830   5.580   5.383   1.310
 2311SOL     OW 7831   2.218   6.645   1.094
 2311SOL    HW1 7832   2.308   6.688   1.094
 2311SOL    HW2 7833   2.227   6.548   1.074
 2312SOL     OW 7834   4.893   5.723   3.092
 2312SOL    HW1 7835   4.797   5.702   3.070
 2312SOL    HW2 7836   4.913   5.817   3.066
 2313SOL     OW 7837   4.566   5.956   2.233
 2313SOL    HW1 7838   4.620   5.902   2.168
 2313SOL    HW2 7839   4.518   6.028   2.184
 2314SOL     OW 7840   5.125   6.046   3.157
 2314SOL    HW1 7841   5.113   6.145   3.168
 2314SOL    HW2 7842   5.080   5.999   3.233
 2315SOL     OW 7843   5.300   3.005   6.098
 2315SOL    HW1 7844   5.216   3.007   6.045
 2315SOL    HW2 7845   5.279   3.023   6.195
 2316SOL     OW 7846   3.984   1.901   3.912
 2316SOL    HW1 7847   4.079   1.888   3.884
 2316SOL    HW2 7848   3.943   1.813   3.931
 2317SOL     OW 7849   0.823   5.799   3.197
 2317SOL    HW1 7850   0.748   5.853   3.158
 2317SOL    HW2 7851   0.899   5.797   3.133
 2318SOL     OW 7852   0.547   2.695   3.623
 2318SOL    HW1 7853   0.451   2.668   3.632
 2318SOL    HW2 7854   0.554   2.794   3.631
 2319SOL     OW 7855   1.816   5.146   3.556
 2319SOL    HW1 7856   1.818   5.227   3.614
 2319SOL    HW2 7857   1.909   5.121   3.530
 2320SOL     OW 7858   1.045   2.249   3.813
 2320SOL    HW1 7859   1.054   2.279   3.718
 2320SOL    HW2 7860   0.951   2.264   3.843
 2321SOL     OW 7861   3.735   0.533   5.497
 2321SOL    HW1 7862   3.683   0.610   5.535
 2321SOL    HW2 7863   3.677   0.482   5.433
 2322SOL     OW 7864   2.457   1.442   4.860
 2322SOL    HW1 7865   2.539   1.411   4.908
 2322SOL    HW2 7866   2.453   1.542   4.863
 2323SOL     OW 7867   2.928   4.879   1.971
 2323SOL    HW1 7868   3.018   4.846   1.942
 2323SOL    HW2 7869   2.874   4.802   2.005
 2324SOL     OW 7870   0.133   6.234   2.380
 2324SOL    HW1 7871   0.155   6.143   2.345
 2324SOL    HW2 7872   0.156   6.303   2.312
 2325SOL     OW 7873   0.452   4.839   1.196
 2325SOL    HW1 7874   0.531   4.900   1.195
 2325SOL    HW2 7875   0.482   4.744   1.189
 2326SOL     OW 7876   3.168   4.759   5.548
 2326SOL    HW1 7877   3.236   4.829   5.529
 2326SOL    HW2 7878   3.201   4.671   5.514
 2327SOL     OW 7879   5.871   3.456   4.709
 2327SOL    HW1 7880   5.895   3.492   4.799
 2327SOL    HW2 7881   5.781   3.413   4.713
 2328SOL     OW 7882   4.031   1.764   3.297
 2328SOL    HW1 7883   4.061   1.829   3.366
 2328SOL    HW2 7884   4.081   1.780   3.212
 2329SOL     OW 7885   1.896   4.904   5.062
 2329SOL    HW1 7886   1.848   4.978   5.110
 2329SOL    HW2 7887   1.855   4.890   4.972
 2330SOL     OW 7888   6.914   4.111   2.315
 2330SOL    HW1 7889   6.921   4.201   2.359
 2330SOL    HW2 7890   7.004   4.070   2.309
 2331SOL     OW 7891   6.354   4.315   0.137
 2331SOL    HW1 7892   6.417   4.259   0.085
 2331SOL    HW2 7893   6.399   4.401   0.163
 2332SOL     OW 7894   4.082   1.872   5.124
 2332SOL    HW1 7895   4.052   1.871   5.220
 2332SOL    HW2 7896   4.074   1.965   5.089
 2333SOL     OW 7897   7.007   4.987   2.927
 2333SOL    HW1 7898   6.955   4.931   2.862
 2333SOL    HW2 7899   0.043   5.050   2.876
 2334SOL     OW 7900   2.491   0.383   0.285
 2334SOL    HW1 7901   2.479   0.387   0.384
 2334SOL    HW2 7902   2.423   0.320   0.246
 2335SOL     OW 7903   5.750   1.094   3.312
 2335SOL    HW1 7904   5.742   0.998   3.339
 2335SOL    HW2 7905   5.724   1.153   3.388
 2336SOL     OW 7906   4.235   2.080   5.564
 2336SOL    HW1 7907   4.210   2.116   5.654
 2336SOL    HW2 7908   4.234   2.155   5.497
 2337SOL     OW 7909   4.562   1.308   3.710
 2337SOL    HW1 7910   4.648   1.343   3.749
 2337SOL    HW2 7911   4.576   1.215   3.677
 2338SOL     OW 7912   1.118   0.502   6.792
 2338SOL    HW1 7913   1.175   0.533   6.868
 2338SOL    HW2 7914   1.175   0.458   6.723
 2339SOL     OW 7915   3.815   3.451   4.826
 2339SOL    HW1 7916   3.830   3.544   4.791
 2339SOL    HW2 7917   3.730   3.449   4.879
 2340SOL     OW 7918   5.255   6.259   6.223
 2340SOL    HW1 7919   5.222   6.204   6.299
 2340SOL    HW2 7920   5.179   6.308   6.181
 2341SOL     OW 7921   4.884   3.758   1.068
 2341SOL    HW1 7922   4.901   3.666   1.032
 2341SOL    HW2 7923   4.902   3.826   0.997
 2342SOL     OW 7924   0.705   5.892   5.718
 2342SOL    HW1 7925   0.606   5.895   5.705
 2342SOL    HW2 7926   0.733   5.972   5.772
 2343SOL     OW 7927   1.853   6.279   1.444
 2343SOL    HW1 7928   1.899   6.191   1.433
 2343SOL    HW2 7929   1.814   6.285   1.536
 2344SOL     OW 7930   1.601   1.344   1.279
 2344SOL    HW1 7931   1.670   1.301   1.221
 2344SOL    HW2 7932   1.633   1.433   1.309
 2345SOL     OW 7933   2.112   5.732   5.185
 2345SOL    HW1 7934   2.146   5.650   5.139
 2345SOL    HW2 7935   2.180   5.805   5.176
 2346SOL     OW 7936   5.009   3.377   4.768
 2346SOL    HW1 7937   5.024   3.331   4.856
 2346SOL    HW2 7938   4.933   3.333   4.720
 2347SOL     OW 7939   2.031   3.995   1.428
 2347SOL    HW1 7940   2.118   4.023   1.387
 2347SOL    HW2 7941   1.956   4.013   1.364
 2348SOL     OW 7942   3.454   6.120   3.129
 2348SOL    HW1 7943   3.397   6.053   3.176
 2348SOL    HW2 7944   3.442   6.210   3.171
 2349SOL     OW 7945   0.645   5.998   6.965
 2349SOL    HW1 7946   0.572   5.938   6.931
 2349SOL    HW2 7947   0.605   6.083   6.999
 2350SOL     OW 7948   4.742   0.036   6.178
 2350SOL    HW1 7949   4.756   0.134   6.161
 2350SOL    HW2 7950   4.789   0.011   6.263
 2351SOL     OW 7951   3.521   4.952   2.873
 2351SOL    HW1 7952   3.453   4.975   2.804
 2351SOL    HW2 7953   3.476   4.902   2.948
 2352SOL     OW 7954   0.332   4.543   2.354
 2352SOL    HW1 7955   0.313   4.568   2.259
 2352SOL    HW2 7956   0.408   4.598   2.388
 2353SOL     OW 7957   2.980   4.838   4.374
 2353SOL    HW1 7958   2.995   4.837   4.473
 2353SOL    HW2 7959   2.902   4.779   4.352
 2354SOL     OW 7960   3.177   2.292   6.222
 2354SOL    HW1 7961   3.165   2.362   6.293
 2354SOL    HW2 7962   3.268   2.252   6.231
 2355SOL     OW 7963   0.632   5.239   0.436
 2355SOL    HW1 7964   0.676   5.328   0.422
 2355SOL    HW2 7965   0.536   5.253   0.463
 2356SOL     OW 7966   2.371   3.977   0.911
 2356SOL    HW1 7967   2.374   4.037   0.831
 2356SOL    HW2 7968   2.376   3.882   0.881
 2357SOL     OW 7969   3.654   5.188   3.992
 2357SOL    HW1 7970   3.752   5.168   3.992
 2357SOL    HW2 7971   3.603   5.103   3.973
 2358SOL     OW 7972   2.800   5.600   4.652
 2358SOL    HW1 7973   2.790   5.558   4.562
 2358SOL    HW2 7974   2.894   5.630   4.665
 2359SOL     OW 7975   1.291   1.388   5.514
 2359SOL    HW1 7976   1.373   1.445   5.509
 2359SOL    HW2 7977   1.237   1.414   5.594
 2360SOL     OW 7978   4.632   6.021   5.255
 2360SOL    HW1 7979   4.590   6.028   5.346
 2360SOL    HW2 7980   4.721   6.065   5.256
 2361SOL     OW 7981   2.490   0.356   4.186
 2361SOL    HW1 7982   2.392   0.339   4.187
 2361SOL    HW2 7983   2.510   0.442   4.233
 2362SOL     OW 7984   4.233   6.933   5.338
 2362SOL    HW1 7985   4.135   6.938   5.353
 2362SOL    HW2 7986   4.259   6.994   5.264
 2363SOL     OW 7987   4.971   2.367   5.550
 2363SOL    HW1 7988   4.929   2.457   5.564
 2363SOL    HW2 7989   4.987   2.323   5.639
 2364SOL     OW 7990   6.050   1.861   2.542
 2364SOL    HW1 7991   6.075   1.863   2.639
 2364SOL    HW2 7992   6.024   1.768   2.516
 2365SOL     OW 7993   5.869   4.017   5.098
 2365SOL    HW1 7994   5.825   3.935   5.135
 2365SOL    HW2 7995   5.961   3.994   5.067
 2366SOL     OW 7996   1.050   4.108   5.737
 2366SOL    HW1 7997   1.110   4.122   5.659
 2366SOL    HW2 7998   0.959   4.082   5.706
 2367SOL     OW 7999   1.743   4.082   6.628
 2367SOL    HW1 8000   1.716   4.163   6.577
 2367SOL    HW2 8001   1.760   4.007   6.565
 2368SOL     OW 8002   5.177   1.562   4.781
 2368SOL    HW1 8003   5.160   1.660   4.772
 2368SOL    HW2 8004   5.231   1.545   4.864
 2369SOL     OW 8005   2.488   2.567   3.848
 2369SOL    HW1 8006   2.556   2.506   3.807
 2369SOL    HW2 8007   2.426   2.600   3.777
 2370SOL     OW 8008   4.387   4.284   6.971
 2370SOL    HW1 8009   4.443   4.240   0.017
 2370SOL    HW2 8010   4.328   4.353   7.015
 2371SOL     OW 8011   1.909   5.830   2.048
 2371SOL    HW1 8012   1.964   5.818   2.130
 2371SOL    HW2 8013   1.815   5.799   2.066
 2372SOL     OW 8014   0.472   2.005   0.152
 2372SOL    HW1 8015   0.493   2.057   0.235
 2372SOL    HW2 8016   0.524   1.919   0.154
 2373SOL     OW 8017   6.411   1.307   6.510
 2373SOL    HW1 8018   6.386   1.280   6.417
 2373SOL    HW2 8019   6.348   1.266   6.575
 2374SOL     OW 8020   6.410   5.730   3.741
 2374SOL    HW1 8021   6.310   5.717   3.737
 2374SOL    HW2 8022   6.430   5.823   3.771
 2375SOL     OW 8023   1.075   6.642   4.787
 2375SOL    HW1 8024   1.075   6.544   4.809
 2375SOL    HW2 8025   1.161   6.666   4.742
 2376SOL     OW 8026   5.920   2.753   3.536
 2376SOL    HW1 8027   5.854   2.764   3.462
 2376SOL    HW2 8028   5.998   2.814   3.520
 2377SOL     OW 8029   3.428   3.269   4.349
 2377SOL    HW1 8030   3.517   3.294   4.385
 2377SOL    HW2 8031   3.431   3.266   4.249
 2378SOL     OW 8032   5.158   2.186   6.801
 2378SOL    HW1 8033   5.203   2.225   6.721
 2378SOL    HW2 8034   5.207   2.214   6.884
 2379SOL     OW 8035   6.862   2.543   7.002
 2379SOL    HW1 8036   6.810   2.459   6.988
 2379SOL    HW2 8037   6.869   2.593   6.916
 2380SOL     OW 8038   6.855   0.884   5.730
 2380SOL    HW1 8039   6.796   0.809   5.702
 2380SOL    HW2 8040   6.804   0.970   5.724
 2381SOL     OW 8041   1.808   4.140   4.563
 2381SOL    HW1 8042   1.743   4.216   4.560
 2381SOL    HW2 8043   1.900   4.176   4.575
 2382SOL     OW 8044   2.182   5.664   2.732
 2382SOL    HW1 8045   2.177   5.731   2.805
 2382SOL    HW2 8046   2.144   5.704   2.648
 2383SOL     OW 8047   5.824   6.461   6.724
 2383SOL    HW1 8048   5.807   6.391   6.655
 2383SOL    HW2 8049   5.869   6.420   6.803
 2384SOL     OW 8050   1.409   1.524   1.863
 2384SOL    HW1 8051   1.408   1.624   1.876
 2384SOL    HW2 8052   1.487   1.485   1.911
 2385SOL     OW 8053   6.848   0.039   0.975
 2385SOL    HW1 8054   6.942   0.040   0.940
 2385SOL    HW2 8055   6.800   0.121   0.945
 2386SOL     OW 8056   3.706   4.984   4.692
 2386SOL    HW1 8057   3.623   4.970   4.639
 2386SOL    HW2 8058   3.719   4.907   4.754
 2387SOL     OW 8059   6.419   2.802   5.005
 2387SOL    HW1 8060   6.407   2.901   4.996
 2387SOL    HW2 8061   6.512   2.783   5.037
 2388SOL     OW 8062   1.461   1.852   5.977
 2388SOL    HW1 8063   1.492   1.784   5.911
 2388SOL    HW2 8064   1.376   1.892   5.945
 2389SOL     OW 8065   4.769   4.264   4.090
 2389SOL    HW1 8066   4.837   4.325   4.051
 2389SOL    HW2 8067   4.734   4.302   4.176
 2390SOL     OW 8068   3.997   3.947   4.511
 2390SOL    HW1 8069   4.047   3.963   4.597
 2390SOL    HW2 8070   4.013   3.854   4.480
 2391SOL     OW 8071   3.100   4.589   5.749
 2391SOL    HW1 8072   3.149   4.646   5.683
 2391SOL    HW2 8073   3.164   4.524   5.790
 2392SOL     OW 8074   2.839   5.148   6.226
 2392SOL    HW1 8075   2.786   5.082   6.280
 2392SOL    HW2 8076   2.919   5.177   6.278
 2393SOL     OW 8077   3.790   5.348   1.244
 2393SOL    HW1 8078   3.759   5.443   1.251
 2393SOL    HW2 8079   3.809   5.327   1.148
 2394SOL     OW 8080   1.464   3.873   4.263
 2394SOL    HW1 8081   1.455   3.855   4.165
 2394SOL    HW2 8082   1.404   3.811   4.314
 2395SOL     OW 8083   0.027   2.565   6.546
 2395SOL    HW1 8084   6.975   2.589   6.607
 2395SOL    HW2 8085   0.078   2.489   6.585
 2396SOL     OW 8086   5.892   6.315   0.863
 2396SOL    HW1 8087   5.961   6.354   0.802
 2396SOL    HW2 8088   5.848   6.388   0.915
 2397SOL     OW 8089   6.309   5.210   0.299
 2397SOL    HW1 8090   6.282   5.155   0.378
 2397SOL    HW2 8091   6.408   5.227   0.302
 2398SOL     OW 8092   2.445   5.062   4.969
 2398SOL    HW1 8093   2.394   4.977   4.980
 2398SOL    HW2 8094   2.541   5.041   4.949
 2399SOL     OW 8095   4.338   1.753   2.745
 2399SOL    HW1 8096   4.394   1.755   2.662
 2399SOL    HW2 8097   4.394   1.778   2.824
 2400SOL     OW 8098   3.623   3.714   0.371
 2400SOL    HW1 8099   3.678   3.653   0.314
 2400SOL    HW2 8100   3.603   3.669   0.458
 2401SOL     OW 8101   3.425   0.656   5.312
 2401SOL    HW1 8102   3.430   0.692   5.219
 2401SOL    HW2 8103   3.494   0.702   5.369
 2402SOL     OW 8104   0.209   2.404   4.355
 2402SOL    HW1 8105   0.190   2.494   4.316
 2402SOL    HW2 8106   0.140   2.339   4.324
 2403SOL     OW 8107   3.120   2.986   0.770
 2403SOL    HW1 8108   3.105   3.080   0.801
 2403SOL    HW2 8109   3.179   2.987   0.689
 2404SOL     OW 8110   5.394   1.606   2.126
 2404SOL    HW1 8111   5.430   1.525   2.080
 2404SOL    HW2 8112   5.302   1.587   2.161
 2405SOL     OW 8113   3.824   3.530   5.234
 2405SOL    HW1 8114   3.864   3.603   5.178
 2405SOL    HW2 8115   3.863   3.442   5.208
 2406SOL     OW 8116   2.164   1.067   3.076
 2406SOL    HW1 8117   2.147   1.062   2.978
 2406SOL    HW2 8118   2.088   1.117   3.120
 2407SOL     OW 8119   4.776   2.082   2.940
 2407SOL    HW1 8120   4.862   2.058   2.893
 2407SOL    HW2 8121   4.774   2.038   3.030
 2408SOL     OW 8122   3.527   5.217   2.502
 2408SOL    HW1 8123   3.551   5.245   2.595
 2408SOL    HW2 8124   3.514   5.118   2.499
 2409SOL     OW 8125   2.133   2.390   1.903
 2409SOL    HW1 8126   2.117   2.484   1.873
 2409SOL    HW2 8127   2.200   2.347   1.842
 2410SOL     OW 8128   6.472   3.326   5.617
 2410SOL    HW1 8129   6.465   3.311   5.716
 2410SOL    HW2 8130   6.536   3.261   5.577
 2411SOL     OW 8131   3.476   4.678   5.337
 2411SOL    HW1 8132   3.427   4.628   5.408
 2411SOL    HW2 8133   3.562   4.631   5.316
 2412SOL     OW 8134   2.851   3.552   0.366
 2412SOL    HW1 8135   2.848   3.484   0.440
 2412SOL    HW2 8136   2.765   3.547   0.314
 2413SOL     OW 8137   6.509   3.283   6.565
 2413SOL    HW1 8138   6.499   3.295   6.664
 2413SOL    HW2 8139   6.534   3.371   6.524
 2414SOL     OW 8140   5.501   3.508   2.822
 2414SOL    HW1 8141   5.560   3.542   2.895
 2414SOL    HW2 8142   5.509   3.408   2.816
 2415SOL     OW 8143   1.918   0.122   1.400
 2415SOL    HW1 8144   1.871   0.037   1.374
 2415SOL    HW2 8145   1.884   0.197   1.343
 2416SOL     OW 8146   2.148   1.158   4.970
 2416SOL    HW1 8147   2.176   1.245   4.928
 2416SOL    HW2 8148   2.092   1.177   5.051
 2417SOL     OW 8149   5.223   2.243   0.029
 2417SOL    HW1 8150   5.195   2.166   0.087
 2417SOL    HW2 8151   5.161   2.320   0.042
 2418SOL     OW 8152   3.309   3.708   4.820
 2418SOL    HW1 8153   3.369   3.782   4.789
 2418SOL    HW2 8154   3.334   3.681   4.913
 2419SOL     OW 8155   0.381   6.902   4.871
 2419SOL    HW1 8156   0.461   6.844   4.856
 2419SOL    HW2 8157   0.302   6.846   4.894
 2420SOL     OW 8158   4.062   6.794   2.535
 2420SOL    HW1 8159   4.085   6.722   2.471
 2420SOL    HW2 8160   4.130   6.797   2.608
 2421SOL     OW 8161   3.061   0.861   4.432
 2421SOL    HW1 8162   2.978   0.874   4.486
 2421SOL    HW2 8163   3.141   0.871   4.490
 2422SOL     OW 8164   4.890   0.561   0.740
 2422SOL    HW1 8165   4.858   0.648   0.777
 2422SOL    HW2 8166   4.986   0.570   0.711
 2423SOL     OW 8167   1.450   6.084   2.412
 2423SOL    HW1 8168   1.523   6.137   2.456
 2423SOL    HW2 8169   1.367   6.092   2.467
 2424SOL     OW 8170   5.161   5.792   6.365
 2424SOL    HW1 8171   5.219   5.744   6.298
 2424SOL    HW2 8172   5.170   5.748   6.454
 2425SOL     OW 8173   6.334   6.675   4.777
 2425SOL    HW1 8174   6.257   6.738   4.783
 2425SOL    HW2 8175   6.409   6.709   4.833
 2426SOL     OW 8176   1.235   5.250   4.577
 2426SOL    HW1 8177   1.172   5.205   4.641
 2426SOL    HW2 8178   1.184   5.315   4.521
 2427SOL     OW 8179   5.838   5.969   6.653
 2427SOL    HW1 8180   5.836   5.926   6.563
 2427SOL    HW2 8181   5.865   6.064   6.644
 2428SOL     OW 8182   1.056   0.438   4.496
 2428SOL    HW1 8183   0.977   0.455   4.439
 2428SOL    HW2 8184   1.031   0.377   4.571
 2429SOL     OW 8185   6.236   5.117   3.236
 2429SOL    HW1 8186   6.276   5.044   3.180
 2429SOL    HW2 8187   6.136   5.111   3.233
 2430SOL     OW 8188   5.672   2.696   0.806
 2430SOL    HW1 8189   5.741   2.710   0.736
 2430SOL    HW2 8190   5.698   2.619   0.864
 2431SOL     OW 8191   4.202   0.501   1.756
 2431SOL    HW1 8192   4.274   0.438   1.727
 2431SOL    HW2 8193   4.223   0.535   1.848
 2432SOL     OW 8194   4.582   6.315   2.910
 2432SOL    HW1 8195   4.618   6.398   2.953
 2432SOL    HW2 8196   4.540   6.338   2.822
 2433SOL     OW 8197   2.151   0.230   6.979
 2433SOL    HW1 8198   2.083   0.298   7.006
 2433SOL    HW2 8199   2.225   0.228   0.024
 2434SOL     OW 8200   4.462   1.165   3.174
 2434SOL    HW1 8201   4.396   1.238   3.156
 2434SOL    HW2 8202   4.515   1.146   3.091
 2435SOL     OW 8203   4.663   5.016   0.271
 2435SOL    HW1 8204   4.756   5.001   0.305
 2435SOL    HW2 8205   4.609   4.933   0.285
 2436SOL     OW 8206   1.981   6.835   1.050
 2436SOL    HW1 8207   2.041   6.758   1.072
 2436SOL    HW2 8208   2.006   6.914   1.106
 2437SOL     OW 8209   4.926   5.669   1.187
 2437SOL    HW1 8210   5.017   5.629   1.177
 2437SOL    HW2 8211   4.930   5.742   1.256
 2438SOL     OW 8212   4.213   0.741   4.759
 2438SOL    HW1 8213   4.226   0.839   4.775
 2438SOL    HW2 8214   4.126   0.727   4.712
 2439SOL     OW 8215   0.985   4.207   0.234
 2439SOL    HW1 8216   0.983   4.226   0.136
 2439SOL    HW2 8217   0.892   4.213   0.271
 2440SOL     OW 8218   3.748   6.600   5.057
 2440SOL    HW1 8219   3.668   6.659   5.049
 2440SOL    HW2 8220   3.830   6.657   5.069
 2441SOL     OW 8221   6.069   1.054   0.428
 2441SOL    HW1 8222   6.137   1.015   0.490
 2441SOL    HW2 8223   6.112   1.127   0.374
 2442SOL     OW 8224   5.864   5.594   3.458
 2442SOL    HW1 8225   5.874   5.684   3.500
 2442SOL    HW2 8226   5.882   5.601   3.360
 2443SOL     OW 8227   3.092   0.518   6.310
 2443SOL    HW1 8228   3.029   0.470   6.249
 2443SOL    HW2 8229   3.047   0.598   6.348
 2444SOL     OW 8230   3.839   4.170   6.888
 2444SOL    HW1 8231   3.830   4.125   6.977
 2444SOL    HW2 8232   3.803   4.111   6.816
 2445SOL     OW 8233   6.873   1.108   2.061
 2445SOL    HW1 8234   6.848   1.017   2.028
 2445SOL    HW2 8235   6.790   1.159   2.086
 2446SOL     OW 8236   0.414   2.824   4.087
 2446SOL    HW1 8237   0.442   2.758   4.157
 2446SOL    HW2 8238   0.445   2.915   4.114
 2447SOL     OW 8239   2.573   1.200   0.886
 2447SOL    HW1 8240   2.566   1.148   0.801
 2447SOL    HW2 8241   2.665   1.190   0.924
 2448SOL     OW 8242   6.580   1.153   4.116
 2448SOL    HW1 8243   6.549   1.065   4.153
 2448SOL    HW2 8244   6.680   1.150   4.105
 2449SOL     OW 8245   0.117   3.960   2.853
 2449SOL    HW1 8246   0.168   3.990   2.773
 2449SOL    HW2 8247   0.161   3.997   2.936
 2450SOL     OW 8248   3.042   5.680   5.728
 2450SOL    HW1 8249   2.955   5.640   5.697
 2450SOL    HW2 8250   3.116   5.648   5.670
 2451SOL     OW 8251   1.595   0.134   3.659
 2451SOL    HW1 8252   1.598   0.076   3.578
 2451SOL    HW2 8253   1.501   0.165   3.675
 2452SOL     OW 8254   2.991   1.962   3.187
 2452SOL    HW1 8255   2.967   1.866   3.205
 2452SOL    HW2 8256   3.034   2.001   3.268
 2453SOL     OW 8257   6.925   3.405   0.934
 2453SOL    HW1 8258   6.829   3.388   0.958
 2453SOL    HW2 8259   6.941   3.374   0.840
 2454SOL     OW 8260   3.742   0.528   6.446
 2454SOL    HW1 8261   3.720   0.578   6.530
 2454SOL    HW2 8262   3.838   0.545   6.421
 2455SOL     OW 8263   4.002   0.406   0.750
 2455SOL    HW1 8264   4.027   0.444   0.661
 2455SOL    HW2 8265   4.083   0.403   0.809
 2456SOL     OW 8266   5.933   2.237   0.336
 2456SOL    HW1 8267   5.859   2.219   0.271
 2456SOL    HW2 8268   5.990   2.312   0.302
 2457SOL     OW 8269   6.688   0.448   6.321
 2457SOL    HW1 8270   6.605   0.396   6.301
 2457SOL    HW2 8271   6.700   0.519   6.251
 2458SOL     OW 8272   2.127   6.180   3.641
 2458SOL    HW1 8273   2.159   6.090   3.670
 2458SOL    HW2 8274   2.027   6.183   3.647
 2459SOL     OW 8275   2.406   6.113   6.179
 2459SOL    HW1 8276   2.470   6.133   6.105
 2459SOL    HW2 8277   2.446   6.144   6.266
 2460SOL     OW 8278   1.706   1.425   1.642
 2460SOL    HW1 8279   1.743   1.460   1.556
 2460SOL    HW2 8280   1.702   1.325   1.639
 2461SOL     OW 8281   4.579   1.110   2.931
 2461SOL    HW1 8282   4.571   1.184   2.864
 2461SOL    HW2 8283   4.508   1.042   2.915
 2462SOL     OW 8284   1.570   5.543   6.930
 2462SOL    HW1 8285   1.499   5.599   6.888
 2462SOL    HW2 8286   1.648   5.535   6.868
 2463SOL     OW 8287   6.241   1.934   5.970
 2463SOL    HW1 8288   6.265   1.870   5.898
 2463SOL    HW2 8289   6.270   1.897   6.059
 2464SOL     OW 8290   2.152   3.880   2.523
 2464SOL    HW1 8291   2.189   3.793   2.491
 2464SOL    HW2 8292   2.215   3.954   2.500
 2465SOL     OW 8293   0.916   0.052   0.678
 2465SOL    HW1 8294   0.893   0.018   0.586
 2465SOL    HW2 8295   1.015   0.066   0.684
 2466SOL     OW 8296   2.254   1.587   2.948
 2466SOL    HW1 8297   2.272   1.681   2.977
 2466SOL    HW2 8298   2.273   1.577   2.850
 2467SOL     OW 8299   4.918   1.406   5.305
 2467SOL    HW1 8300   4.926   1.390   5.403
 2467SOL    HW2 8301   4.825   1.384   5.275
 2468SOL     OW 8302   4.725   6.594   1.469
 2468SOL    HW1 8303   4.714   6.566   1.374
 2468SOL    HW2 8304   4.656   6.663   1.491
 2469SOL     OW 8305   3.928   4.092   5.771
 2469SOL    HW1 8306   3.994   4.031   5.728
 2469SOL    HW2 8307   3.900   4.055   5.860
 2470SOL     OW 8308   4.092   4.089   6.427
 2470SOL    HW1 8309   4.177   4.134   6.452
 2470SOL    HW2 8310   4.058   4.035   6.504
 2471SOL     OW 8311   2.566   6.310   0.843
 2471SOL    HW1 8312   2.666   6.309   0.847
 2471SOL    HW2 8313   2.534   6.232   0.790
 2472SOL     OW 8314   4.938   2.304   4.316
 2472SOL    HW1 8315   4.925   2.335   4.410
 2472SOL    HW2 8316   4.911   2.377   4.253
 2473SOL     OW 8317   2.129   3.821   5.096
 2473SOL    HW1 8318   2.051   3.883   5.098
 2473SOL    HW2 8319   2.209   3.869   5.060
 2474SOL     OW 8320   0.320   5.996   0.935
 2474SOL    HW1 8321   0.367   5.920   0.980
 2474SOL    HW2 8322   0.223   5.976   0.928
 2475SOL     OW 8323   4.646   0.898   2.392
 2475SOL    HW1 8324   4.732   0.946   2.380
 2475SOL    HW2 8325   4.572   0.964   2.405
 2476SOL     OW 8326   6.763   1.433   2.977
 2476SOL    HW1 8327   6.668   1.426   3.009
 2476SOL    HW2 8328   6.794   1.528   2.985
 2477SOL     OW 8329   4.627   1.381   2.165
 2477SOL    HW1 8330   4.576   1.296   2.168
 2477SOL    HW2 8331   4.637   1.410   2.070
 2478SOL     OW 8332   6.286   1.320   2.035
 2478SOL    HW1 8333   6.369   1.367   2.063
 2478SOL    HW2 8334   6.206   1.374   2.062
 2479SOL     OW 8335   1.418   4.200   1.529
 2479SOL    HW1 8336   1.456   4.119   1.574
 2479SOL    HW2 8337   1.477   4.226   1.452
 2480SOL     OW 8338   5.069   4.569   0.711
 2480SOL    HW1 8339   5.165   4.542   0.718
 2480SOL    HW2 8340   5.052   4.606   0.619
 2481SOL     OW 8341   2.141   0.787   0.070
 2481SOL    HW1 8342   2.240   0.769   0.064
 2481SOL    HW2 8343   2.127   0.881   0.102
 2482SOL     OW 8344   4.905   3.830   5.550
 2482SOL    HW1 8345   4.851   3.826   5.634
 2482SOL    HW2 8346   4.857   3.779   5.478
 2483SOL     OW 8347   1.802   1.873   0.055
 2483SOL    HW1 8348   1.742   1.904   7.005
 2483SOL    HW2 8349   1.821   1.949   0.117
 2484SOL     OW 8350   3.316   0.476   0.100
 2484SOL    HW1 8351   3.332   0.447   0.006
 2484SOL    HW2 8352   3.295   0.573   0.102
 2485SOL     OW 8353   5.930   4.202   1.051
 2485SOL    HW1 8354   5.897   4.120   1.005
 2485SOL    HW2 8355   5.883   4.214   1.138
 2486SOL     OW 8356   1.986   4.774   4.120
 2486SOL    HW1 8357   1.970   4.675   4.125
 2486SOL    HW2 8358   2.047   4.794   4.044
 2487SOL     OW 8359   3.807   5.883   0.259
 2487SOL    HW1 8360   3.774   5.949   0.326
 2487SOL    HW2 8361   3.737   5.813   0.243
 2488SOL     OW 8362   2.174   4.151   2.419
 2488SOL    HW1 8363   2.227   4.236   2.425
 2488SOL    HW2 8364   2.111   4.146   2.496
 2489SOL     OW 8365   1.073   5.552   2.542
 2489SOL    HW1 8366   1.002   5.565   2.474
 2489SOL    HW2 8367   1.162   5.550   2.497
 2490SOL     OW 8368   6.561   4.902   1.458
 2490SOL    HW1 8369   6.621   4.903   1.378
 2490SOL    HW2 8370   6.561   4.811   1.499
 2491SOL     OW 8371   2.888   5.454   1.010
 2491SOL    HW1 8372   2.968   5.515   1.010
 2491SOL    HW2 8373   2.808   5.506   0.980
 2492SOL     OW 8374   4.040   2.152   0.863
 2492SOL    HW1 8375   4.076   2.100   0.940
 2492SOL    HW2 8376   4.101   2.229   0.842
 2493SOL     OW 8377   6.219   0.913   2.230
 2493SOL    HW1 8378   6.284   0.847   2.268
 2493SOL    HW2 8379   6.256   0.953   2.147
 2494SOL     OW 8380   5.577   3.724   2.107
 2494SOL    HW1 8381   5.645   3.670   2.058
 2494SOL    HW2 8382   5.619   3.763   2.189
 2495SOL     OW 8383   5.437   0.111   4.251
 2495SOL    HW1 8384   5.482   0.083   4.336
 2495SOL    HW2 8385   5.403   0.204   4.261
 2496SOL     OW 8386   0.375   3.932   5.629
 2496SOL    HW1 8387   0.415   3.841   5.639
 2496SOL    HW2 8388   0.401   3.970   5.541
 2497SOL     OW 8389   0.407   0.332   1.019
 2497SOL    HW1 8390   0.400   0.273   0.938
 2497SOL    HW2 8391   0.501   0.330   1.053
 2498SOL     OW 8392   3.247   1.236   4.696
 2498SOL    HW1 8393   3.183   1.274   4.628
 2498SOL    HW2 8394   3.328   1.201   4.649
 2499SOL     OW 8395   5.724   2.084   4.531
 2499SOL    HW1 8396   5.737   1.993   4.571
 2499SOL    HW2 8397   5.650   2.131   4.579
 2500SOL     OW 8398   4.437   2.987   0.239
 2500SOL    HW1 8399   4.455   2.893   0.210
 2500SOL    HW2 8400   4.454   2.995   0.338
 2501SOL     OW 8401   5.706   5.197   6.862
 2501SOL    HW1 8402   5.624   5.200   6.920
 2501SOL    HW2 8403   5.757   5.114   6.883
 2502SOL     OW 8404   1.872   5.514   2.725
 2502SOL    HW1 8405   1.813   5.495   2.804
 2502SOL    HW2 8406   1.894   5.611   2.722
 2503SOL     OW 8407   3.468   5.286   4.640
 2503SOL    HW1 8408   3.469   5.225   4.719
 2503SOL    HW2 8409   3.389   5.348   4.648
 2504SOL     OW 8410   3.150   5.145   4.446
 2504SOL    HW1 8411   3.109   5.236   4.443
 2504SOL    HW2 8412   3.132   5.103   4.534
 2505SOL     OW 8413   1.148   5.865   3.913
 2505SOL    HW1 8414   1.075   5.832   3.853
 2505SOL    HW2 8415   1.181   5.954   3.880
 2506SOL     OW 8416   6.182   3.312   5.978
 2506SOL    HW1 8417   6.281   3.304   5.983
 2506SOL    HW2 8418   6.153   3.309   5.882
 2507SOL     OW 8419   0.860   4.595   0.846
 2507SOL    HW1 8420   0.934   4.583   0.779
 2507SOL    HW2 8421   0.783   4.640   0.802
 2508SOL     OW 8422   2.469   1.361   1.875
 2508SOL    HW1 8423   2.518   1.441   1.908
 2508SOL    HW2 8424   2.372   1.382   1.868
 2509SOL     OW 8425   6.562   2.565   2.302
 2509SOL    HW1 8426   6.476   2.548   2.349
 2509SOL    HW2 8427   6.595   2.480   2.260
 2510SOL     OW 8428   3.217   4.158   1.419
 2510SOL    HW1 8429   3.291   4.134   1.357
 2510SOL    HW2 8430   3.254   4.204   1.499
 2511SOL     OW 8431   2.728   1.342   3.623
 2511SOL    HW1 8432   2.822   1.309   3.623
 2511SOL    HW2 8433   2.712   1.395   3.540
 2512SOL     OW 8434   4.760   4.716   5.061
 2512SOL    HW1 8435   4.749   4.681   5.153
 2512SOL    HW2 8436   4.807   4.649   5.004
 2513SOL     OW 8437   1.332   3.675   4.634
 2513SOL    HW1 8438   1.298   3.616   4.707
 2513SOL    HW2 8439   1.427   3.698   4.652
 2514SOL     OW 8440   6.445   3.160   3.819
 2514SOL    HW1 8441   6.446   3.226   3.894
 2514SOL    HW2 8442   6.423   3.069   3.855
 2515SOL     OW 8443   1.501   6.290   0.545
 2515SOL    HW1 8444   1.512   6.271   0.643
 2515SOL    HW2 8445   1.414   6.337   0.530
 2516SOL     OW 8446   6.167   0.720   3.186
 2516SOL    HW1 8447   6.203   0.778   3.114
 2516SOL    HW2 8448   6.199   0.754   3.275
 2517SOL     OW 8449   0.438   5.196   5.830
 2517SOL    HW1 8450   0.395   5.201   5.740
 2517SOL    HW2 8451   0.537   5.202   5.821
 2518SOL     OW 8452   1.185   3.844   6.918
 2518SOL    HW1 8453   1.265   3.886   6.962
 2518SOL    HW2 8454   1.115   3.826   6.988
 2519SOL     OW 8455   5.368   6.594   4.059
 2519SOL    HW1 8456   5.439   6.564   3.995
 2519SOL    HW2 8457   5.283   6.613   4.008
 2520SOL     OW 8458   2.023   2.476   6.704
 2520SOL    HW1 8459   2.107   2.527   6.718
 2520SOL    HW2 8460   1.981   2.455   6.792
 2521SOL     OW 8461   0.927   0.028   5.357
 2521SOL    HW1 8462   1.002   6.992   5.328
 2521SOL    HW2 8463   0.845   6.997   5.372
 2522SOL     OW 8464   0.218   3.400   5.881
 2522SOL    HW1 8465   0.145   3.382   5.948
 2522SOL    HW2 8466   0.236   3.498   5.877
 2523SOL     OW 8467   0.433   3.236   2.341
 2523SOL    HW1 8468   0.368   3.160   2.339
 2523SOL    HW2 8469   0.486   3.236   2.256
 2524SOL     OW 8470   0.682   5.759   5.484
 2524SOL    HW1 8471   0.586   5.729   5.486
 2524SOL    HW2 8472   0.702   5.809   5.568
 2525SOL     OW 8473   1.060   2.155   4.354
 2525SOL    HW1 8474   1.069   2.227   4.423
 2525SOL    HW2 8475   1.113   2.179   4.273
 2526SOL     OW 8476   1.633   4.480   5.339
 2526SOL    HW1 8477   1.633   4.567   5.290
 2526SOL    HW2 8478   1.574   4.487   5.420
 2527SOL     OW 8479   5.383   5.913   4.837
 2527SOL    HW1 8480   5.410   5.816   4.837
 2527SOL    HW2 8481   5.414   5.956   4.752
 2528SOL     OW 8482   5.654   4.859   1.588
 2528SOL    HW1 8483   5.729   4.793   1.582
 2528SOL    HW2 8484   5.596   4.837   1.666
 2529SOL     OW 8485   7.008   6.551   6.734
 2529SOL    HW1 8486   0.015   6.637   6.693
 2529SOL    HW2 8487   6.910   6.540   6.719
 2530SOL     OW 8488   2.023   0.019   4.707
 2530SOL    HW1 8489   1.952   0.017   4.636
 2530SOL    HW2 8490   2.001   0.090   4.774
 2531SOL     OW 8491   4.597   5.949   4.303
 2531SOL    HW1 8492   4.651   5.996   4.233
 2531SOL    HW2 8493   4.623   5.852   4.304
 2532SOL     OW 8494   0.481   6.055   0.723
 2532SOL    HW1 8495   0.424   6.040   0.803
 2532SOL    HW2 8496   0.423   6.070   0.643
 2533SOL     OW 8497   2.839   6.925   2.956
 2533SOL    HW1 8498   2.854   6.948   2.860
 2533SOL    HW2 8499   2.791   7.000   3.002
 2534SOL     OW 8500   3.391   1.141   2.909
 2534SOL    HW1 8501   3.412   1.043   2.912
 2534SOL    HW2 8502   3.294   1.155   2.927
 2535SOL     OW 8503   3.262   2.670   6.068
 2535SOL    HW1 8504   3.338   2.607   6.052
 2535SOL    HW2 8505   3.268   2.705   6.161
 2536SOL     OW 8506   6.520   1.892   4.058
 2536SOL    HW1 8507   6.547   1.970   4.115
 2536SOL    HW2 8508   6.579   1.814   4.078
 2537SOL     OW 8509   4.674   6.651   6.646
 2537SOL    HW1 8510   4.723   6.570   6.679
 2537SOL    HW2 8511   4.640   6.703   6.724
 2538SOL     OW 8512   1.347   4.648   4.411
 2538SOL    HW1 8513   1.395   4.732   4.439
 2538SOL    HW2 8514   1.378   4.621   4.320
 2539SOL     OW 8515   5.578   0.949   6.324
 2539SOL    HW1 8516   5.527   0.983   6.403
 2539SOL    HW2 8517   5.535   0.865   6.290
 2540SOL     OW 8518   3.707   1.006   2.360
 2540SOL    HW1 8519   3.686   1.104   2.363
 2540SOL    HW2 8520   3.806   0.993   2.353
 2541SOL     OW 8521   1.994   6.574   5.496
 2541SOL    HW1 8522   1.927   6.510   5.459
 2541SOL    HW2 8523   1.972   6.594   5.592
 2542SOL     OW 8524   4.438   1.702   6.138
 2542SOL    HW1 8525   4.449   1.759   6.220
 2542SOL    HW2 8526   4.503   1.731   6.068
 2543SOL     OW 8527   2.346   2.234   2.803
 2543SOL    HW1 8528   2.405   2.279   2.870
 2543SOL    HW2 8529   2.270   2.189   2.850
 2544SOL     OW 8530   0.059   5.376   1.573
 2544SOL    HW1 8531   7.004   5.343   1.625
 2544SOL    HW2 8532   0.075   5.315   1.495
 2545SOL     OW 8533   2.178   0.646   1.439
 2545SOL    HW1 8534   2.172   0.724   1.376
 2545SOL    HW2 8535   2.103   0.652   1.506
 2546SOL     OW 8536   0.315   2.209   1.643
 2546SOL    HW1 8537   0.376   2.169   1.712
 2546SOL    HW2 8538   0.333   2.166   1.555
 2547SOL     OW 8539   5.843   3.611   0.009
 2547SOL    HW1 8540   5.757   3.596   6.984
 2547SOL    HW2 8541   5.827   3.677   0.083
 2548SOL     OW 8542   2.847   6.557   5.951
 2548SOL    HW1 8543   2.943   6.585   5.951
 2548SOL    HW2 8544   2.788   6.638   5.954
 2549SOL     OW 8545   1.811   0.785   1.460
 2549SOL    HW1 8546   1.839   0.876   1.427
 2549SOL    HW2 8547   1.801   0.723   1.382
 2550SOL     OW 8548   6.748   0.519   6.582
 2550SOL    HW1 8549   6.667   0.512   6.639
 2550SOL    HW2 8550   6.724   0.501   6.487
 2551SOL     OW 8551   3.244   5.617   0.357
 2551SOL    HW1 8552   3.292   5.529   0.360
 2551SOL    HW2 8553   3.206   5.631   0.266
 2552SOL     OW 8554   1.556   5.588   6.087
 2552SOL    HW1 8555   1.601   5.499   6.084
 2552SOL    HW2 8556   1.624   5.660   6.100
 2553SOL     OW 8557   3.982   3.359   6.919
 2553SOL    HW1 8558   3.917   3.433   6.901
 2553SOL    HW2 8559   4.054   3.361   6.850
 2554SOL     OW 8560   1.761   6.396   6.557
 2554SOL    HW1 8561   1.808   6.476   6.519
 2554SOL    HW2 8562   1.735   6.416   6.652
 2555SOL     OW 8563   6.320   6.310   6.687
 2555SOL    HW1 8564   6.308   6.277   6.593
 2555SOL    HW2 8565   6.256   6.263   6.748
 2556SOL     OW 8566   4.296   5.254   6.983
 2556SOL    HW1 8567   4.372   5.194   7.008
 2556SOL    HW2 8568   4.328   5.323   6.918
 2557SOL     OW 8569   2.601   2.320   6.248
 2557SOL    HW1 8570   2.634   2.355   6.336
 2557SOL    HW2 8571   2.546   2.390   6.203
 2558SOL     OW 8572   4.185   3.219   5.720
 2558SOL    HW1 8573   4.093   3.203   5.755
 2558SOL    HW2 8574   4.194   3.315   5.694
 2559SOL     OW 8575   6.500   3.240   4.630
 2559SOL    HW1 8576   6.411   3.208   4.662
 2559SOL    HW2 8577   6.571   3.178   4.662
 2560SOL     OW 8578   5.770   3.282   3.910
 2560SOL    HW1 8579   5.684   3.255   3.866
 2560SOL    HW2 8580   5.831   3.322   3.841
 2561SOL     OW 8581   3.287   0.237   3.811
 2561SOL    HW1 8582   3.204   0.199   3.772
 2561SOL    HW2 8583   3.273   0.334   3.830
 2562SOL     OW 8584   1.742   5.820   2.422
 2562SOL    HW1 8585   1.791   5.733   2.426
 2562SOL    HW2 8586   1.710   5.845   2.513
 2563SOL     OW 8587   4.545   1.978   6.833
 2563SOL    HW1 8588   4.524   2.075   6.839
 2563SOL    HW2 8589   4.463   1.924   6.854
 2564SOL     OW 8590   1.152   0.100   6.145
 2564SOL    HW1 8591   1.235   0.112   6.199
 2564SOL    HW2 8592   1.174   0.057   6.058
 2565SOL     OW 8593   6.826   1.004   0.582
 2565SOL    HW1 8594   6.913   0.979   0.540
 2565SOL    HW2 8595   6.838   1.012   0.681
 2566SOL     OW 8596   1.697   6.988   1.348
 2566SOL    HW1 8597   1.604   6.988   1.313
 2566SOL    HW2 8598   1.705   6.918   1.419
 2567SOL     OW 8599   1.187   1.331   1.635
 2567SOL    HW1 8600   1.161   1.253   1.691
 2567SOL    HW2 8601   1.287   1.335   1.628
 2568SOL     OW 8602   3.848   6.836   6.822
 2568SOL    HW1 8603   3.922   6.844   6.888
 2568SOL    HW2 8604   3.788   6.759   6.848
 2569SOL     OW 8605   2.922   0.838   2.090
 2569SOL    HW1 8606   3.013   0.872   2.113
 2569SOL    HW2 8607   2.854   0.907   2.114
 2570SOL     OW 8608   6.203   0.681   6.976
 2570SOL    HW1 8609   6.154   0.594   6.982
 2570SOL    HW2 8610   6.291   0.673   7.022
 2571SOL     OW 8611   2.002   3.938   5.503
 2571SOL    HW1 8612   2.077   3.995   5.469
 2571SOL    HW2 8613   2.028   3.842   5.498
 2572SOL     OW 8614   2.082   6.015   0.687
 2572SOL    HW1 8615   1.989   5.986   0.664
 2572SOL    HW2 8616   2.120   6.069   0.613
 2573SOL     OW 8617   6.255   1.866   1.869
 2573SOL    HW1 8618   6.196   1.844   1.947
 2573SOL    HW2 8619   6.201   1.868   1.786
 2574SOL     OW 8620   6.471   3.340   0.367
 2574SOL    HW1 8621   6.422   3.337   0.454
 2574SOL    HW2 8622   6.421   3.397   0.302
 2575SOL     OW 8623   4.351   5.480   0.106
 2575SOL    HW1 8624   4.308   5.407   0.053
 2575SOL    HW2 8625   4.450   5.481   0.087
 2576SOL     OW 8626   4.214   6.959   4.483
 2576SOL    HW1 8627   4.174   6.888   4.542
 2576SOL    HW2 8628   4.154   6.976   4.405
 2577SOL     OW 8629   3.673   6.441   1.902
 2577SOL    HW1 8630   3.643   6.351   1.869
 2577SOL    HW2 8631   3.756   6.430   1.956
 2578SOL     OW 8632   4.756   2.090   4.205
 2578SOL    HW1 8633   4.799   2.134   4.284
 2578SOL    HW2 8634   4.784   2.138   4.122
 2579SOL     OW 8635   1.271   6.713   2.914
 2579SOL    HW1 8636   1.312   6.625   2.890
 2579SOL    HW2 8637   1.258   6.767   2.831
 2580SOL     OW 8638   2.765   2.771   6.771
 2580SOL    HW1 8639   2.814   2.849   6.734
 2580SOL    HW2 8640   2.678   2.760   6.724
 2581SOL     OW 8641   0.056   4.178   1.057
 2581SOL    HW1 8642   0.032   4.220   0.970
 2581SOL    HW2 8643   0.106   4.092   1.041
 2582SOL     OW 8644   0.857   4.150   2.126
 2582SOL    HW1 8645   0.861   4.245   2.159
 2582SOL    HW2 8646   0.806   4.147   2.040
 2583SOL     OW 8647   0.605   1.567   1.500
 2583SOL    HW1 8648   0.639   1.558   1.406
 2583SOL    HW2 8649   0.602   1.664   1.525
 2584SOL     OW 8650   4.078   5.374   0.329
 2584SOL    HW1 8651   4.178   5.382   0.330
 2584SOL    HW2 8652   4.037   5.465   0.325
 2585SOL     OW 8653   4.111   2.497   1.122
 2585SOL    HW1 8654   4.132   2.590   1.093
 2585SOL    HW2 8655   4.180   2.434   1.086
 2586SOL     OW 8656   3.315   1.673   3.516
 2586SOL    HW1 8657   3.249   1.615   3.468
 2586SOL    HW2 8658   3.276   1.700   3.604
 2587SOL     OW 8659   0.654   0.382   3.643
 2587SOL    HW1 8660   0.595   0.448   3.599
 2587SOL    HW2 8661   0.721   0.348   3.577
 2588SOL     OW 8662   4.874   0.367   6.715
 2588SOL    HW1 8663   4.794   0.338   6.663
 2588SOL    HW2 8664   4.853   0.453   6.763
 2589SOL     OW 8665   6.797   6.250   6.827
 2589SOL    HW1 8666   6.791   6.239   6.926
 2589SOL    HW2 8667   6.846   6.334   6.806
 2590SOL     OW 8668   3.301   6.362   1.562
 2590SOL    HW1 8669   3.380   6.424   1.564
 2590SOL    HW2 8670   3.315   6.293   1.490
 2591SOL     OW 8671   0.184   5.972   2.364
 2591SOL    HW1 8672   0.139   5.969   2.453
 2591SOL    HW2 8673   0.186   5.880   2.325
 2592SOL     OW 8674   3.607   6.575   1.018
 2592SOL    HW1 8675   3.535   6.633   0.979
 2592SOL    HW2 8676   3.696   6.617   1.002
 2593SOL     OW 8677   2.853   5.962   0.723
 2593SOL    HW1 8678   2.897   5.896   0.663
 2593SOL    HW2 8679   2.757   5.937   0.735
 2594SOL     OW 8680   0.445   5.603   6.084
 2594SOL    HW1 8681   0.469   5.619   6.180
 2594SOL    HW2 8682   0.526   5.569   6.035
 2595SOL     OW 8683   6.342   1.722   4.260
 2595SOL    HW1 8684   6.270   1.667   4.218
 2595SOL    HW2 8685   6.395   1.768   4.188
 2596SOL     OW 8686   3.877   1.917   1.660
 2596SOL    HW1 8687   3.851   2.012   1.675
 2596SOL    HW2 8688   3.804   1.869   1.610
 2597SOL     OW 8689   1.493   4.013   5.761
 2597SOL    HW1 8690   1.490   4.025   5.662
 2597SOL    HW2 8691   1.521   3.919   5.782
 2598SOL     OW 8692   6.071   1.195   4.308
 2598SOL    HW1 8693   6.146   1.212   4.371
 2598SOL    HW2 8694   6.007   1.272   4.312
 2599SOL     OW 8695   2.305   0.065   0.806
 2599SOL    HW1 8696   2.294   7.011   0.744
 2599SOL    HW2 8697   2.236   0.059   0.878
 2600SOL     OW 8698   5.010   3.311   4.074
 2600SOL    HW1 8699   5.016   3.402   4.114
 2600SOL    HW2 8700   5.094   3.260   4.095
 2601SOL     OW 8701   1.683   2.154   0.666
 2601SOL    HW1 8702   1.609   2.178   0.603
 2601SOL    HW2 8703   1.709   2.058   0.652
 2602SOL     OW 8704   6.874   4.150   4.163
 2602SOL    HW1 8705   6.862   4.063   4.116
 2602SOL    HW2 8706   6.797   4.166   4.224
 2603SOL     OW 8707   2.487   1.651   1.638
 2603SOL    HW1 8708   2.418   1.599   1.688
 2603SOL    HW2 8709   2.510   1.734   1.688
 2604SOL     OW 8710   4.844   1.368   2.752
 2604SOL    HW1 8711   4.800   1.332   2.669
 2604SOL    HW2 8712   4.935   1.402   2.729
 2605SOL     OW 8713   1.964   4.227   2.646
 2605SOL    HW1 8714   1.955   4.284   2.728
 2605SOL    HW2 8715   1.899   4.257   2.577
 2606SOL     OW 8716   6.523   4.234   1.570
 2606SOL    HW1 8717   6.609   4.282   1.587
 2606SOL    HW2 8718   6.510   4.221   1.472
 2607SOL     OW 8719   0.538   0.981   0.088
 2607SOL    HW1 8720   0.457   0.932   0.122
 2607SOL    HW2 8721   0.607   0.915   0.058
 2608SOL     OW 8722   4.912   4.781   1.629
 2608SOL    HW1 8723   4.903   4.881   1.635
 2608SOL    HW2 8724   4.830   4.739   1.668
 2609SOL     OW 8725   6.768   1.879   1.475
 2609SOL    HW1 8726   6.800   1.794   1.433
 2609SOL    HW2 8727   6.841   1.947   1.471
 2610SOL     OW 8728   0.520   4.991   4.526
 2610SOL    HW1 8729   0.493   5.009   4.431
 2610SOL    HW2 8730   0.556   5.076   4.566
 2611SOL     OW 8731   4.302   6.196   1.155
 2611SOL    HW1 8732   4.283   6.283   1.109
 2611SOL    HW2 8733   4.305   6.210   1.254
 2612SOL     OW 8734   7.009   6.932   6.061
 2612SOL    HW1 8735   6.958   6.949   6.145
 2612SOL    HW2 8736   0.078   6.902   6.083
 2613SOL     OW 8737   2.820   6.752   6.579
 2613SOL    HW1 8738   2.754   6.778   6.650
 2613SOL    HW2 8739   2.786   6.673   6.529
 2614SOL     OW 8740   0.237   0.995   6.148
 2614SOL    HW1 8741   0.155   0.998   6.205
 2614SOL    HW2 8742   0.259   0.900   6.126
 2615SOL     OW 8743   0.035   2.191   3.326
 2615SOL    HW1 8744   6.977   2.175   3.271
 2615SOL    HW2 8745   0.009   2.233   3.413
 2616SOL     OW 8746   3.687   3.254   5.332
 2616SOL    HW1 8747   3.676   3.283   5.427
 2616SOL    HW2 8748   3.745   3.172   5.329
 2617SOL     OW 8749   3.601   6.439   0.481
 2617SOL    HW1 8750   3.662   6.458   0.558
 2617SOL    HW2 8751   3.587   6.340   0.474
 2618SOL     OW 8752   6.886   0.654   4.281
 2618SOL    HW1 8753   6.810   0.715   4.304
 2618SOL    HW2 8754   6.851   0.574   4.233
 2619SOL     OW 8755   4.392   1.844   3.575
 2619SOL    HW1 8756   4.340   1.787   3.640
 2619SOL    HW2 8757   4.347   1.932   3.565
 2620SOL     OW 8758   0.009   0.289   3.301
 2620SOL    HW1 8759   0.097   0.295   3.349
 2620SOL    HW2 8760   7.004   0.380   3.271
 2621SOL     OW 8761   1.366   5.789   2.975
 2621SOL    HW1 8762   1.462   5.792   2.946
 2621SOL    HW2 8763   1.337   5.693   2.984
 2622SOL     OW 8764   2.155   3.233   5.603
 2622SOL    HW1 8765   2.196   3.189   5.523
 2622SOL    HW2 8766   2.113   3.319   5.576
 2623SOL     OW 8767   1.789   1.382   5.522
 2623SOL    HW1 8768   1.804   1.287   5.551
 2623SOL    HW2 8769   1.851   1.403   5.446
 2624SOL     OW 8770   6.584   1.843   6.023
 2624SOL    HW1 8771   6.629   1.768   5.975
 2624SOL    HW2 8772   6.591   1.926   5.969
 2625SOL     OW 8773   2.262   2.839   5.377
 2625SOL    HW1 8774   2.220   2.865   5.291
 2625SOL    HW2 8775   2.352   2.799   5.359
 2626SOL     OW 8776   0.564   0.412   5.673
 2626SOL    HW1 8777   0.620   0.362   5.607
 2626SOL    HW2 8778   0.497   0.350   5.714
 2627SOL     OW 8779   1.589   0.816   5.475
 2627SOL    HW1 8780   1.525   0.892   5.463
 2627SOL    HW2 8781   1.540   0.730   5.468
 2628SOL     OW 8782   1.668   4.661   5.690
 2628SOL    HW1 8783   1.653   4.754   5.725
 2628SOL    HW2 8784   1.761   4.654   5.653
 2629SOL     OW 8785   3.037   3.131   1.505
 2629SOL    HW1 8786   3.128   3.128   1.546
 2629SOL    HW2 8787   2.971   3.089   1.567
 2630SOL     OW 8788   3.013   1.903   2.390
 2630SOL    HW1 8789   3.111   1.900   2.410
 2630SOL    HW2 8790   2.989   1.994   2.354
 2631SOL     OW 8791   5.368   1.049   5.505
 2631SOL    HW1 8792   5.355   1.126   5.442
 2631SOL    HW2 8793   5.466   1.030   5.515
 2632SOL     OW 8794   4.320   3.040   6.638
 2632SOL    HW1 8795   4.270   2.973   6.584
 2632SOL    HW2 8796   4.405   3.000   6.670
 2633SOL     OW 8797   0.331   1.284   4.544
 2633SOL    HW1 8798   0.330   1.381   4.570
 2633SOL    HW2 8799   0.425   1.256   4.523
 2634SOL     OW 8800   0.949   4.804   3.381
 2634SOL    HW1 8801   0.906   4.788   3.470
 2634SOL    HW2 8802   0.991   4.720   3.348
 2635SOL     OW 8803   6.830   5.837   5.228
 2635SOL    HW1 8804   6.868   5.786   5.151
 2635SOL    HW2 8805   6.782   5.917   5.195
 2636SOL     OW 8806   4.559   0.882   5.384
 2636SOL    HW1 8807   4.590   0.885   5.289
 2636SOL    HW2 8808   4.466   0.846   5.388
 2637SOL     OW 8809   4.983   1.847   3.730
 2637SOL    HW1 8810   5.080   1.867   3.720
 2637SOL    HW2 8811   4.970   1.752   3.755
 2638SOL     OW 8812   6.604   6.849   3.850
 2638SOL    HW1 8813   6.507   6.826   3.863
 2638SOL    HW2 8814   6.659   6.766   3.851
 2639SOL     OW 8815   0.057   5.915   0.949
 2639SOL    HW1 8816   6.994   5.966   0.944
 2639SOL    HW2 8817   0.050   5.834   0.891
 2640SOL     OW 8818   0.742   6.120   5.143
 2640SOL    HW1 8819   0.717   6.028   5.111
 2640SOL    HW2 8820   0.675   6.152   5.210
 2641SOL     OW 8821   4.911   3.191   2.778
 2641SOL    HW1 8822   4.875   3.153   2.692
 2641SOL    HW2 8823   5.003   3.153   2.794
 2642SOL     OW 8824   4.619   6.456   3.977
 2642SOL    HW1 8825   4.710   6.497   3.986
 2642SOL    HW2 8826   4.597   6.405   4.060
 2643SOL     OW 8827   0.557   4.032   3.587
 2643SOL    HW1 8828   0.515   3.944   3.564
 2643SOL    HW2 8829   0.512   4.105   3.535
 2644SOL     OW 8830   5.548   6.413   5.633
 2644SOL    HW1 8831   5.623   6.352   5.606
 2644SOL    HW2 8832   5.472   6.358   5.667
 2645SOL     OW 8833   4.350   5.832   4.355
 2645SOL    HW1 8834   4.426   5.891   4.328
 2645SOL    HW2 8835   4.279   5.887   4.399
 2646SOL     OW 8836   6.032   0.917   7.019
 2646SOL    HW1 8837   6.082   0.833   6.997
 2646SOL    HW2 8838   5.972   0.941   6.943
 2647SOL     OW 8839   6.289   0.035   2.285
 2647SOL    HW1 8840   6.377   0.049   2.332
 2647SOL    HW2 8841   6.236   6.989   2.334
 2648SOL     OW 8842   0.439   0.130   4.157
 2648SOL    HW1 8843   0.522   0.110   4.209
 2648SOL    HW2 8844   0.448   0.221   4.115
 2649SOL     OW 8845   5.476   2.604   6.675
 2649SOL    HW1 8846   5.506   2.518   6.716
 2649SOL    HW2 8847   5.553   2.646   6.626
 2650SOL     OW 8848   1.221   4.348   4.450
 2650SOL    HW1 8849   1.295   4.414   4.467
 2650SOL    HW2 8850   1.187   4.360   4.357
 2651SOL     OW 8851   0.887   1.195   0.630
 2651SOL    HW1 8852   0.907   1.107   0.674
 2651SOL    HW2 8853   0.972   1.242   0.609
 2652SOL     OW 8854   4.050   3.224   4.516
 2652SOL    HW1 8855   4.013   3.188   4.602
 2652SOL    HW2 8856   3.999   3.306   4.489
 2653SOL     OW 8857   5.087   6.678   5.016
 2653SOL    HW1 8858   5.007   6.727   4.982
 2653SOL    HW2 8859   5.165   6.740   5.020
 2654SOL     OW 8860   4.206   6.061   2.291
 2654SOL    HW1 8861   4.267   6.072   2.213
 2654SOL    HW2 8862   4.206   5.965   2.320
 2655SOL     OW 8863   4.235   6.111   4.324
 2655SOL    HW1 8864   4.285   6.135   4.408
 2655SOL    HW2 8865   4.137   6.123   4.340
 2656SOL     OW 8866   3.764   4.935   4.960
 2656SOL    HW1 8867   3.777   4.926   5.059
 2656SOL    HW2 8868   3.849   4.913   4.913
 2657SOL     OW 8869   0.952   3.873   5.969
 2657SOL    HW1 8870   1.017   3.932   6.016
 2657SOL    HW2 8871   0.993   3.783   5.955
 2658SOL     OW 8872   5.026   4.235   0.906
 2658SOL    HW1 8873   5.002   4.207   0.813
 2658SOL    HW2 8874   5.125   4.235   0.917
 2659SOL     OW 8875   5.475   3.083   4.344
 2659SOL    HW1 8876   5.479   3.029   4.260
 2659SOL    HW2 8877   5.548   3.053   4.406
 2660SOL     OW 8878   2.052   0.047   1.833
 2660SOL    HW1 8879   1.956   0.023   1.825
 2660SOL    HW2 8880   2.062   0.147   1.838
 2661SOL     OW 8881   2.522   0.137   1.104
 2661SOL    HW1 8882   2.515   0.090   1.016
 2661SOL    HW2 8883   2.616   0.167   1.119
 2662SOL     OW 8884   5.286   6.411   4.576
 2662SOL    HW1 8885   5.228   6.352   4.519
 2662SOL    HW2 8886   5.280   6.505   4.543
 2663SOL     OW 8887   2.929   3.947   6.751
 2663SOL    HW1 8888   3.027   3.946   6.769
 2663SOL    HW2 8889   2.885   4.018   6.806
 2664SOL     OW 8890   4.511   3.812   5.546
 2664SOL    HW1 8891   4.527   3.882   5.616
 2664SOL    HW2 8892   4.575   3.825   5.470
 2665SOL     OW 8893   2.549   2.788   5.290
 2665SOL    HW1 8894   2.642   2.759   5.266
 2665SOL    HW2 8895   2.537   2.884   5.267
 2666SOL     OW 8896   5.588   4.789   1.320
 2666SOL    HW1 8897   5.584   4.820   1.415
 2666SOL    HW2 8898   5.682   4.766   1.296
 2667SOL     OW 8899   0.601   6.187   3.908
 2667SOL    HW1 8900   0.670   6.186   3.836
 2667SOL    HW2 8901   0.586   6.094   3.942
 2668SOL     OW 8902   0.432   3.170   4.759
 2668SOL    HW1 8903   0.461   3.255   4.715
 2668SOL    HW2 8904   0.485   3.093   4.723
 2669SOL     OW 8905   2.759   4.622   5.371
 2669SOL    HW1 8906   2.823   4.601   5.297
 2669SOL    HW2 8907   2.804   4.607   5.459
 2670SOL     OW 8908   5.931   3.506   6.242
 2670SOL    HW1 8909   5.833   3.494   6.225
 2670SOL    HW2 8910   5.960   3.446   6.317
 2671SOL     OW 8911   4.287   5.435   6.180
 2671SOL    HW1 8912   4.249   5.470   6.095
 2671SOL    HW2 8913   4.387   5.438   6.175
 2672SOL     OW 8914   1.641   4.937   0.627
 2672SOL    HW1 8915   1.633   4.972   0.720
 2672SOL    HW2 8916   1.731   4.897   0.614
 2673SOL     OW 8917   5.814   0.993   2.852
 2673SOL    HW1 8918   5.750   0.976   2.778
 2673SOL    HW2 8919   5.828   1.092   2.863
 2674SOL     OW 8920   1.050   4.200   3.640
 2674SOL    HW1 8921   0.994   4.265   3.691
 2674SOL    HW2 8922   1.067   4.235   3.548
 2675SOL     OW 8923   6.397   5.201   3.849
 2675SOL    HW1 8924   6.477   5.169   3.797
 2675SOL    HW2 8925   6.372   5.132   3.917
 2676SOL     OW 8926   3.827   2.680   1.137
 2676SOL    HW1 8927   3.861   2.770   1.111
 2676SOL    HW2 8928   3.879   2.609   1.089
 2677SOL     OW 8929   2.835   3.468   0.725
 2677SOL    HW1 8930   2.909   3.456   0.791
 2677SOL    HW2 8931   2.847   3.406   0.648
 2678SOL     OW 8932   0.187   2.858   1.530
 2678SOL    HW1 8933   0.178   2.884   1.433
 2678SOL    HW2 8934   0.118   2.789   1.552
 2679SOL     OW 8935   3.079   4.226   0.809
 2679SOL    HW1 8936   2.991   4.273   0.803
 2679SOL    HW2 8937   3.142   4.265   0.742
 2680SOL     OW 8938   1.297   1.830   0.379
 2680SOL    HW1 8939   1.300   1.852   0.282
 2680SOL    HW2 8940   1.203   1.804   0.404
 2681SOL     OW 8941   1.104   3.115   3.982
 2681SOL    HW1 8942   1.153   3.028   3.995
 2681SOL    HW2 8943   1.015   3.110   4.027
 2682SOL     OW 8944   4.720   4.204   2.606
 2682SOL    HW1 8945   4.816   4.205   2.578
 2682SOL    HW2 8946   4.665   4.254   2.540
 2683SOL     OW 8947   2.463   4.903   1.290
 2683SOL    HW1 8948   2.535   4.839   1.263
 2683SOL    HW2 8949   2.399   4.857   1.351
 2684SOL     OW 8950   4.150   5.597   2.021
 2684SOL    HW1 8951   4.178   5.510   2.060
 2684SOL    HW2 8952   4.230   5.655   2.007
 2685SOL     OW 8953   6.033   6.684   6.613
 2685SOL    HW1 8954   6.109   6.700   6.675
 2685SOL    HW2 8955   5.963   6.630   6.660
 2686SOL     OW 8956   1.771   2.292   5.935
 2686SOL    HW1 8957   1.843   2.342   5.983
 2686SOL    HW2 8958   1.694   2.353   5.917
 2687SOL     OW 8959   5.115   4.595   1.662
 2687SOL    HW1 8960   5.052   4.519   1.675
 2687SOL    HW2 8961   5.063   4.680   1.651
 2688SOL     OW 8962   3.724   3.793   7.004
 2688SOL    HW1 8963   3.756   3.724   6.940
 2688SOL    HW2 8964   3.634   3.766   0.016
 2689SOL     OW 8965   1.387   3.913   3.572
 2689SOL    HW1 8966   1.354   3.818   3.576
 2689SOL    HW2 8967   1.353   3.957   3.489
 2690SOL     OW 8968   3.868   3.172   4.086
 2690SOL    HW1 8969   3.822   3.088   4.057
 2690SOL    HW2 8970   3.930   3.152   4.162
 2691SOL     OW 8971   1.811   5.535   2.451
 2691SOL    HW1 8972   1.748   5.542   2.528
 2691SOL    HW2 8973   1.801   5.446   2.407
 2692SOL     OW 8974   3.446   5.247   2.785
 2692SOL    HW1 8975   3.487   5.187   2.852
 2692SOL    HW2 8976   3.356   5.211   2.758
 2693SOL     OW 8977   2.017   5.400   3.354
 2693SOL    HW1 8978   1.941   5.342   3.324
 2693SOL    HW2 8979   1.980   5.482   3.399
 2694SOL     OW 8980   3.530   5.640   2.999
 2694SOL    HW1 8981   3.468   5.607   2.928
 2694SOL    HW2 8982   3.576   5.723   2.967
 2695SOL     OW 8983   5.948   0.321   2.680
 2695SOL    HW1 8984   5.988   0.358   2.764
 2695SOL    HW2 8985   6.012   0.260   2.635
 2696SOL     OW 8986   3.993   3.109   5.312
 2696SOL    HW1 8987   3.984   3.060   5.399
 2696SOL    HW2 8988   3.935   3.066   5.243
 2697SOL     OW 8989   3.236   1.645   2.599
 2697SOL    HW1 8990   3.259   1.742   2.587
 2697SOL    HW2 8991   3.294   1.606   2.671
 2698SOL     OW 8992   1.970   6.320   0.193
 2698SOL    HW1 8993   1.890   6.330   0.252
 2698SOL    HW2 8994   1.966   6.232   0.146
 2699SOL     OW 8995   2.601   6.693   0.483
 2699SOL    HW1 8996   2.684   6.735   0.448
 2699SOL    HW2 8997   2.521   6.743   0.449
 2700SOL     OW 8998   2.330   3.583   0.071
 2700SOL    HW1 8999   2.335   3.547   0.164
 2700SOL    HW2 9000   2.405   3.546   0.017
 2701SOL     OW 9001   5.710   1.607   5.836
 2701SOL    HW1 9002   5.771   1.601   5.757
 2701SOL    HW2 9003   5.763   1.593   5.920
 2702SOL     OW 9004   0.275   2.633   3.653
 2702SOL    HW1 9005   0.227   2.701   3.598
 2702SOL    HW2 9006   0.234   2.629   3.744
 2703SOL     OW 9007   1.056   0.101   1.375
 2703SOL    HW1 9008   1.056   0.023   1.312
 2703SOL    HW2 9009   1.028   0.184   1.327
 2704SOL     OW 9010   6.978   5.602   1.416
 2704SOL    HW1 9011   6.878   5.605   1.404
 2704SOL    HW2 9012   7.003   5.518   1.464
 2705SOL     OW 9013   0.249   5.605   4.486
 2705SOL    HW1 9014   0.198   5.658   4.418
 2705SOL    HW2 9015   0.282   5.666   4.558
 2706SOL     OW 9016   6.751   5.544   1.843
 2706SOL    HW1 9017   6.663   5.501   1.862
 2706SOL    HW2 9018   6.737   5.640   1.817
 2707SOL     OW 9019   3.781   0.005   4.084
 2707SOL    HW1 9020   3.862   0.020   4.028
 2707SOL    HW2 9021   3.708   6.989   4.028
 2708SOL     OW 9022   0.518   2.440   0.024
 2708SOL    HW1 9023   0.519   2.471   0.119
 2708SOL    HW2 9024   0.608   2.455   7.006
 2709SOL     OW 9025   5.566   0.350   6.908
 2709SOL    HW1 9026   5.594   0.416   6.978
 2709SOL    HW2 9027   5.620   0.266   6.918
 2710SOL     OW 9028   0.556   3.985   3.858
 2710SOL    HW1 9029   0.558   3.998   3.759
 2710SOL    HW2 9030   0.535   4.072   3.902
 2711SOL     OW 9031   2.665   0.267   3.486
 2711SOL    HW1 9032   2.715   0.228   3.564
 2711SOL    HW2 9033   2.730   0.304   3.420
 2712SOL     OW 9034   3.000   4.286   1.149
 2712SOL    HW1 9035   3.045   4.216   1.205
 2712SOL    HW2 9036   2.907   4.256   1.126
 2713SOL     OW 9037   2.489   2.577   4.688
 2713SOL    HW1 9038   2.493   2.658   4.745
 2713SOL    HW2 9039   2.440   2.504   4.736
 2714SOL     OW 9040   3.679   2.501   0.319
 2714SOL    HW1 9041   3.759   2.560   0.307
 2714SOL    HW2 9042   3.708   2.410   0.349
 2715SOL     OW 9043   5.003   1.785   0.779
 2715SOL    HW1 9044   5.041   1.734   0.702
 2715SOL    HW2 9045   4.973   1.875   0.748
 2716SOL     OW 9046   5.273   4.064   2.206
 2716SOL    HW1 9047   5.322   4.041   2.122
 2716SOL    HW2 9048   5.218   3.986   2.235
 2717SOL     OW 9049   0.694   6.701   2.599
 2717SOL    HW1 9050   0.637   6.624   2.629
 2717SOL    HW2 9051   0.659   6.786   2.637
 2718SOL     OW 9052   1.800   2.033   4.927
 2718SOL    HW1 9053   1.705   2.040   4.959
 2718SOL    HW2 9054   1.818   2.103   4.859
 2719SOL     OW 9055   0.239   5.314   1.343
 2719SOL    HW1 9056   0.199   5.238   1.291
 2719SOL    HW2 9057   0.305   5.279   1.409
 2720SOL     OW 9058   2.221   5.982   1.855
 2720SOL    HW1 9059   2.279   6.037   1.916
 2720SOL    HW2 9060   2.278   5.917   1.804
 2721SOL     OW 9061   2.992   0.013   3.159
 2721SOL    HW1 9062   2.913   7.013   3.216
 2721SOL    HW2 9063   2.978   7.002   3.066
 2722SOL     OW 9064   6.686   5.506   0.868
 2722SOL    HW1 9065   6.619   5.581   0.864
 2722SOL    HW2 9066   6.776   5.542   0.892
 2723SOL     OW 9067   0.700   0.359   6.707
 2723SOL    HW1 9068   0.763   0.317   6.642
 2723SOL    HW2 9069   0.648   0.288   6.754
 2724SOL     OW 9070   1.593   6.599   6.742
 2724SOL    HW1 9071   1.581   6.539   6.821
 2724SOL    HW2 9072   1.671   6.660   6.759
 2725SOL     OW 9073   5.372   5.088   4.499
 2725SOL    HW1 9074   5.423   5.075   4.584
 2725SOL    HW2 9075   5.406   5.024   4.430
 2726SOL     OW 9076   0.154   2.543   1.001
 2726SOL    HW1 9077   0.064   2.502   0.993
 2726SOL    HW2 9078   0.224   2.479   0.970
 2727SOL     OW 9079   0.510   5.243   3.139
 2727SOL    HW1 9080   0.559   5.285   3.063
 2727SOL    HW2 9081   0.433   5.301   3.165
 2728SOL     OW 9082   4.854   6.875   5.240
 2728SOL    HW1 9083   4.907   6.821   5.305
 2728SOL    HW2 9084   4.781   6.819   5.201
 2729SOL     OW 9085   6.821   6.009   0.977
 2729SOL    HW1 9086   6.752   5.950   1.018
 2729SOL    HW2 9087   6.803   6.104   1.003
 2730SOL     OW 9088   1.874   5.876   1.652
 2730SOL    HW1 9089   1.881   5.928   1.738
 2730SOL    HW2 9090   1.778   5.873   1.624
 2731SOL     OW 9091   3.516   4.135   2.837
 2731SOL    HW1 9092   3.606   4.107   2.871
 2731SOL    HW2 9093   3.512   4.120   2.738
 2732SOL     OW 9094   5.497   2.200   1.750
 2732SOL    HW1 9095   5.435   2.163   1.819
 2732SOL    HW2 9096   5.470   2.293   1.727
 2733SOL     OW 9097   6.731   1.413   4.694
 2733SOL    HW1 9098   6.725   1.497   4.747
 2733SOL    HW2 9099   6.651   1.355   4.712
 2734SOL     OW 9100   2.912   6.243   1.120
 2734SOL    HW1 9101   2.920   6.143   1.125
 2734SOL    HW2 9102   2.878   6.278   1.207
 2735SOL     OW 9103   1.154   3.322   2.136
 2735SOL    HW1 9104   1.059   3.300   2.159
 2735SOL    HW2 9105   1.203   3.349   2.219
 2736SOL     OW 9106   5.549   6.775   5.131
 2736SOL    HW1 9107   5.597   6.753   5.046
 2736SOL    HW2 9108   5.564   6.702   5.197
 2737SOL     OW 9109   3.190   3.368   6.152
 2737SOL    HW1 9110   3.092   3.364   6.171
 2737SOL    HW2 9111   3.205   3.423   6.070
 2738SOL     OW 9112   5.100   6.181   1.839
 2738SOL    HW1 9113   5.041   6.255   1.873
 2738SOL    HW2 9114   5.161   6.150   1.912
 2739SOL     OW 9115   0.323   4.996   1.558
 2739SOL    HW1 9116   0.291   4.994   1.653
 2739SOL    HW2 9117   0.372   5.082   1.542
 2740SOL     OW 9118   0.106   3.820   2.448
 2740SOL    HW1 9119   0.109   3.740   2.387
 2740SOL    HW2 9120   0.127   3.902   2.395
 2741SOL     OW 9121   6.145   0.710   5.003
 2741SOL    HW1 9122   6.169   0.719   4.906
 2741SOL    HW2 9123   6.142   0.613   5.028
 2742SOL     OW 9124   1.824   5.497   6.847
 2742SOL    HW1 9125   1.913   5.459   6.824
 2742SOL    HW2 9126   1.816   5.506   6.946
 2743SOL     OW 9127   6.339   4.812   2.340
 2743SOL    HW1 9128   6.398   4.799   2.261
 2743SOL    HW2 9129   6.283   4.730   2.354
 2744SOL     OW 9130   5.249   2.105   6.294
 2744SOL    HW1 9131   5.149   2.111   6.298
 2744SOL    HW2 9132   5.277   2.060   6.209
 2745SOL     OW 9133   6.898   0.242   6.228
 2745SOL    HW1 9134   6.830   0.315   6.221
 2745SOL    HW2 9135   6.861   0.166   6.282
 2746SOL     OW 9136   2.658   1.594   4.067
 2746SOL    HW1 9137   2.715   1.515   4.089
 2746SOL    HW2 9138   2.690   1.636   3.982
 2747SOL     OW 9139   6.344   3.703   6.605
 2747SOL    HW1 9140   6.415   3.719   6.536
 2747SOL    HW2 9141   6.387   3.690   6.694
 2748SOL     OW 9142   4.912   1.503   1.442
 2748SOL    HW1 9143   4.882   1.484   1.348
 2748SOL    HW2 9144   4.925   1.602   1.453
 2749SOL     OW 9145   0.023   4.799   2.240
 2749SOL    HW1 9146   0.089   4.862   2.281
 2749SOL    HW2 9147   0.070   4.719   2.205
 2750SOL     OW 9148   0.731   5.252   0.962
 2750SOL    HW1 9149   0.767   5.221   0.874
 2750SOL    HW2 9150   0.779   5.335   0.991
 2751SOL     OW 9151   1.272   4.962   1.428
 2751SOL    HW1 9152   1.315   4.883   1.384
 2751SOL    HW2 9153   1.182   4.937   1.461
 2752SOL     OW 9154   4.184   5.619   5.996
 2752SOL    HW1 9155   4.093   5.634   6.033
 2752SOL    HW2 9156   4.219   5.705   5.958
 2753SOL     OW 9157   0.617   6.160   5.382
 2753SOL    HW1 9158   0.520   6.157   5.408
 2753SOL    HW2 9159   0.671   6.194   5.459
 2754SOL     OW 9160   0.550   0.593   2.166
 2754SOL    HW1 9161   0.604   0.538   2.230
 2754SOL    HW2 9162   0.609   0.626   2.093
 2755SOL     OW 9163   2.131   6.814   2.721
 2755SOL    HW1 9164   2.164   6.726   2.687
 2755SOL    HW2 9165   2.031   6.814   2.722
 2756SOL     OW 9166   5.960   4.675   6.936
 2756SOL    HW1 9167   5.923   4.588   6.968
 2756SOL    HW2 9168   5.936   4.689   6.840
 2757SOL     OW 9169   2.794   0.128   0.011
 2757SOL    HW1 9170   2.701   0.098   0.032
 2757SOL    HW2 9171   2.850   0.126   0.095
 2758SOL     OW 9172   3.883   6.549   4.331
 2758SOL    HW1 9173   3.840   6.486   4.397
 2758SOL    HW2 9174   3.878   6.510   4.239
 2759SOL     OW 9175   5.605   6.237   5.389
 2759SOL    HW1 9176   5.675   6.221   5.319
 2759SOL    HW2 9177   5.635   6.199   5.476
 2760SOL     OW 9178   0.901   5.696   2.124
 2760SOL    HW1 9179   0.832   5.769   2.120
 2760SOL    HW2 9180   0.991   5.733   2.101
 2761SOL     OW 9181   2.149   4.946   5.178
 2761SOL    HW1 9182   2.131   4.948   5.276
 2761SOL    HW2 9183   2.062   4.933   5.129
 2762SOL     OW 9184   2.052   0.643   5.232
 2762SOL    HW1 9185   2.065   0.723   5.290
 2762SOL    HW2 9186   2.138   0.620   5.186
 2763SOL     OW 9187   4.771   2.171   3.809
 2763SOL    HW1 9188   4.740   2.079   3.833
 2763SOL    HW2 9189   4.703   2.215   3.751
 2764SOL     OW 9190   6.682   0.862   1.462
 2764SOL    HW1 9191   6.710   0.933   1.528
 2764SOL    HW2 9192   6.658   0.906   1.375
 2765SOL     OW 9193   6.693   6.990   0.343
 2765SOL    HW1 9194   6.739   6.904   0.323
 2765SOL    HW2 9195   6.599   6.972   0.372
 2766SOL     OW 9196   5.336   2.557   0.493
 2766SOL    HW1 9197   5.268   2.593   0.557
 2766SOL    HW2 9198   5.405   2.626   0.474
 2767SOL     OW 9199   6.599   5.180   6.960
 2767SOL    HW1 9200   6.638   5.152   6.872
 2767SOL    HW2 9201   6.629   5.116   0.007
 2768SOL     OW 9202   4.345   0.667   1.188
 2768SOL    HW1 9203   4.386   0.600   1.250
 2768SOL    HW2 9204   4.275   0.622   1.132
 2769SOL     OW 9205   1.807   4.681   5.193
 2769SOL    HW1 9206   1.792   4.618   5.117
 2769SOL    HW2 9207   1.867   4.755   5.164
 2770SOL     OW 9208   4.002   5.777   6.134
 2770SOL    HW1 9209   4.072   5.816   6.194
 2770SOL    HW2 9210   3.960   5.850   6.080
 2771SOL     OW 9211   5.962   0.926   3.583
 2771SOL    HW1 9212   6.046   0.980   3.586
 2771SOL    HW2 9213   5.983   0.831   3.609
 2772SOL     OW 9214   3.819   2.121   0.483
 2772SOL    HW1 9215   3.764   2.058   0.428
 2772SOL    HW2 9216   3.822   2.089   0.578
 2773SOL     OW 9217   6.323   1.942   4.444
 2773SOL    HW1 9218   6.412   1.948   4.488
 2773SOL    HW2 9219   6.310   1.850   4.406
 2774SOL     OW 9220   5.117   2.586   2.994
 2774SOL    HW1 9221   5.210   2.603   3.027
 2774SOL    HW2 9222   5.120   2.527   2.913
 2775SOL     OW 9223   6.937   4.807   5.698
 2775SOL    HW1 9224   6.841   4.836   5.706
 2775SOL    HW2 9225   6.943   4.708   5.711
 2776SOL     OW 9226   4.585   4.768   5.675
 2776SOL    HW1 9227   4.650   4.692   5.664
 2776SOL    HW2 9228   4.534   4.756   5.760
 2777SOL     OW 9229   2.792   1.676   1.555
 2777SOL    HW1 9230   2.863   1.725   1.504
 2777SOL    HW2 9231   2.706   1.727   1.549
 2778SOL     OW 9232   1.977   6.962   5.542
 2778SOL    HW1 9233   1.935   6.918   5.463
 2778SOL    HW2 9234   1.986   0.037   5.525
 2779SOL     OW 9235   5.261   6.515   2.122
 2779SOL    HW1 9236   5.235   6.574   2.046
 2779SOL    HW2 9237   5.361   6.511   2.129
 2780SOL     OW 9238   0.455   6.743   0.205
 2780SOL    HW1 9239   0.363   6.739   0.245
 2780SOL    HW2 9240   0.463   6.676   0.132
 2781SOL     OW 9241   5.644   6.829   2.018
 2781SOL    HW1 9242   5.699   6.747   2.006
 2781SOL    HW2 9243   5.680   6.902   1.960
 2782SOL     OW 9244   4.802   1.858   5.864
 2782SOL    HW1 9245   4.872   1.921   5.898
 2782SOL    HW2 9246   4.818   1.840   5.767
 2783SOL     OW 9247   5.367   3.955   2.873
 2783SOL    HW1 9248   5.360   3.893   2.795
 2783SOL    HW2 9249   5.285   3.948   2.929
 2784SOL     OW 9250   3.119   1.490   2.379
 2784SOL    HW1 9251   3.209   1.462   2.346
 2784SOL    HW2 9252   3.130   1.559   2.450
 2785SOL     OW 9253   5.483   2.577   1.099
 2785SOL    HW1 9254   5.424   2.600   1.022
 2785SOL    HW2 9255   5.570   2.626   1.090
 2786SOL     OW 9256   5.115   0.155   2.510
 2786SOL    HW1 9257   5.030   0.208   2.516
 2786SOL    HW2 9258   5.151   0.160   2.418
 2787SOL     OW 9259   5.388   0.743   6.301
 2787SOL    HW1 9260   5.303   0.724   6.253
 2787SOL    HW2 9261   5.368   0.771   6.395
 2788SOL     OW 9262   1.965   5.718   5.860
 2788SOL    HW1 9263   1.988   5.798   5.915
 2788SOL    HW2 9264   2.031   5.707   5.786
 2789SOL     OW 9265   1.810   2.214   3.759
 2789SOL    HW1 9266   1.832   2.138   3.820
 2789SOL    HW2 9267   1.727   2.192   3.707
 2790SOL     OW 9268   3.680   5.851   2.181
 2790SOL    HW1 9269   3.589   5.865   2.140
 2790SOL    HW2 9270   3.729   5.939   2.183
 2791SOL     OW 9271   0.420   2.654   3.100
 2791SOL    HW1 9272   0.443   2.654   3.197
 2791SOL    HW2 9273   0.390   2.562   3.074
 2792SOL     OW 9274   1.538   6.793   4.274
 2792SOL    HW1 9275   1.533   6.813   4.176
 2792SOL    HW2 9276   1.570   6.699   4.287
 2793SOL     OW 9277   5.770   4.086   1.751
 2793SOL    HW1 9278   5.797   3.990   1.762
 2793SOL    HW2 9279   5.831   4.143   1.806
 2794SOL     OW 9280   0.163   2.335   6.613
 2794SOL    HW1 9281   0.244   2.336   6.555
 2794SOL    HW2 9282   0.101   2.263   6.583
 2795SOL     OW 9283   0.746   3.004   0.853
 2795SOL    HW1 9284   0.840   3.036   0.865
 2795SOL    HW2 9285   0.744   2.904   0.863
 2796SOL     OW 9286   0.381   6.432   3.534
 2796SOL    HW1 9287   0.380   6.359   3.602
 2796SOL    HW2 9288   0.461   6.490   3.550
 2797SOL     OW 9289   4.820   5.631   4.745
 2797SOL    HW1 9290   4.854   5.560   4.683
 2797SOL    HW2 9291   4.727   5.609   4.773
 2798SOL     OW 9292   0.383   5.361   2.036
 2798SOL    HW1 9293   0.434   5.286   2.078
 2798SOL    HW2 9294   0.331   5.327   1.958
 2799SOL     OW 9295   6.192   5.633   6.077
 2799SOL    HW1 9296   6.190   5.693   6.157
 2799SOL    HW2 9297   6.236   5.680   6.001
 2800SOL     OW 9298   4.756   6.244   6.668
 2800SOL    HW1 9299   4.845   6.284   6.688
 2800SOL    HW2 9300   4.740   6.247   6.569
 2801SOL     OW 9301   0.015   5.738   6.146
 2801SOL    HW1 9302   0.024   5.807   6.074
 2801SOL    HW2 9303   6.950   5.692   6.138
 2802SOL     OW 9304   5.635   6.609   5.416
 2802SOL    HW1 9305   5.708   6.668   5.453
 2802SOL    HW2 9306   5.611   6.539   5.483
 2803SOL     OW 9307   4.248   5.988   6.094
 2803SOL    HW1 9308   4.159   6.035   6.091
 2803SOL    HW2 9309   4.265   5.946   6.005
 2804SOL     OW 9310   6.929   4.529   5.388
 2804SOL    HW1 9311   7.008   4.549   5.331
 2804SOL    HW2 9312   6.952   4.458   5.454
 2805SOL     OW 9313   5.955   3.540   2.320
 2805SOL    HW1 9314   5.916   3.629   2.300
 2805SOL    HW2 9315   6.046   3.552   2.361
 2806SOL     OW 9316   0.255   4.133   5.829
 2806SOL    HW1 9317   0.286   4.095   5.742
 2806SOL    HW2 9318   0.247   4.232   5.821
 2807SOL     OW 9319   3.762   6.534   4.044
 2807SOL    HW1 9320   3.836   6.583   3.998
 2807SOL    HW2 9321   3.731   6.458   3.987
 2808SOL     OW 9322   6.530   4.784   2.125
 2808SOL    HW1 9323   6.537   4.822   2.033
 2808SOL    HW2 9324   6.620   4.785   2.169
 2809SOL     OW 9325   5.719   2.711   1.126
 2809SOL    HW1 9326   5.739   2.808   1.143
 2809SOL    HW2 9327   5.793   2.655   1.162
 2810SOL     OW 9328   3.095   5.496   3.121
 2810SOL    HW1 9329   3.016   5.548   3.153
 2810SOL    HW2 9330   3.111   5.418   3.181
 2811SOL     OW 9331   1.602   2.141   3.988
 2811SOL    HW1 9332   1.582   2.057   3.937
 2811SOL    HW2 9333   1.701   2.156   3.990
 2812SOL     OW 9334   5.245   2.683   6.795
 2812SOL    HW1 9335   5.308   2.655   6.722
 2812SOL    HW2 9336   5.298   2.709   6.876
 2813SOL     OW 9337   0.887   0.566   6.582
 2813SOL    HW1 9338   0.905   0.475   6.544
 2813SOL    HW2 9339   0.962   0.592   6.644
 2814SOL     OW 9340   4.051   3.918   5.596
 2814SOL    HW1 9341   4.120   3.934   5.525
 2814SOL    HW2 9342   3.960   3.924   5.555
 2815SOL     OW 9343   6.547   6.166   6.490
 2815SOL    HW1 9344   6.470   6.221   6.458
 2815SOL    HW2 9345   6.633   6.205   6.457
 2816SOL     OW 9346   6.297   5.368   3.435
 2816SOL    HW1 9347   6.252   5.307   3.501
 2816SOL    HW2 9348   6.365   5.423   3.482
 2817SOL     OW 9349   2.919   6.958   1.690
 2817SOL    HW1 9350   2.823   6.971   1.716
 2817SOL    HW2 9351   2.923   6.907   1.604
 2818SOL     OW 9352   0.430   0.243   2.211
 2818SOL    HW1 9353   0.430   0.332   2.167
 2818SOL    HW2 9354   0.440   0.254   2.310
 2819SOL     OW 9355   1.924   0.566   2.350
 2819SOL    HW1 9356   1.973   0.572   2.437
 2819SOL    HW2 9357   1.923   0.656   2.306
 2820SOL     OW 9358   0.729   2.610   3.335
 2820SOL    HW1 9359   0.815   2.594   3.383
 2820SOL    HW2 9360   0.676   2.679   3.384
 2821SOL     OW 9361   3.837   4.055   6.017
 2821SOL    HW1 9362   3.754   4.021   6.061
 2821SOL    HW2 9363   3.917   4.011   6.058
 2822SOL     OW 9364   3.915   2.393   0.541
 2822SOL    HW1 9365   3.873   2.312   0.502
 2822SOL    HW2 9366   3.863   2.422   0.622
 2823SOL     OW 9367   4.860   0.821   0.827
 2823SOL    HW1 9368   4.807   0.875   0.892
 2823SOL    HW2 9369   4.928   0.878   0.782
 2824SOL     OW 9370   2.130   1.539   3.926
 2824SOL    HW1 9371   2.076   1.617   3.896
 2824SOL    HW2 9372   2.101   1.456   3.878
 2825SOL     OW 9373   4.891   6.474   6.711
 2825SOL    HW1 9374   4.901   6.499   6.808
 2825SOL    HW2 9375   4.973   6.502   6.661
 2826SOL     OW 9376   4.491   1.290   6.902
 2826SOL    HW1 9377   4.495   1.294   6.802
 2826SOL    HW2 9378   4.510   1.196   6.933
 2827SOL     OW 9379   1.112   1.562   6.569
 2827SOL    HW1 9380   1.083   1.537   6.477
 2827SOL    HW2 9381   1.043   1.532   6.636
 2828SOL     OW 9382   2.898   1.700   0.438
 2828SOL    HW1 9383   2.913   1.615   0.387
 2828SOL    HW2 9384   2.802   1.728   0.430
 2829SOL     OW 9385   2.978   3.713   4.463
 2829SOL    HW1 9386   2.980   3.657   4.380
 2829SOL    HW2 9387   3.058   3.773   4.464
 2830SOL     OW 9388   2.830   3.737   5.784
 2830SOL    HW1 9389   2.760   3.682   5.740
 2830SOL    HW2 9390   2.810   3.746   5.882
 2831SOL     OW 9391   1.018   4.173   3.297
 2831SOL    HW1 9392   0.945   4.117   3.337
 2831SOL    HW2 9393   0.993   4.197   3.203
 2832SOL     OW 9394   0.864   3.212   1.855
 2832SOL    HW1 9395   0.963   3.219   1.860
 2832SOL    HW2 9396   0.839   3.131   1.803
 2833SOL     OW 9397   2.852   1.505   2.160
 2833SOL    HW1 9398   2.939   1.461   2.143
 2833SOL    HW2 9399   2.856   1.553   2.248
 2834SOL     OW 9400   4.533   6.234   5.945
 2834SOL    HW1 9401   4.531   6.137   5.920
 2834SOL    HW2 9402   4.492   6.288   5.870
 2835SOL     OW 9403   0.561   5.893   1.368
 2835SOL    HW1 9404   0.483   5.843   1.332
 2835SOL    HW2 9405   0.557   5.988   1.337
 2836SOL     OW 9406   0.191   6.404   2.170
 2836SOL    HW1 9407   0.144   6.491   2.182
 2836SOL    HW2 9408   0.280   6.420   2.128
 2837SOL     OW 9409   4.472   4.504   2.201
 2837SOL    HW1 9410   4.452   4.461   2.113
 2837SOL    HW2 9411   4.518   4.592   2.185
 2838SOL     OW 9412   3.897   4.141   0.433
 2838SOL    HW1 9413   3.813   4.088   0.437
 2838SOL    HW2 9414   3.942   4.140   0.522
 2839SOL     OW 9415   6.420   1.855   2.693
 2839SOL    HW1 9416   6.431   1.830   2.596
 2839SOL    HW2 9417   6.326   1.882   2.710
 2840SOL     OW 9418   1.496   0.007   2.221
 2840SOL    HW1 9419   1.396   0.016   2.226
 2840SOL    HW2 9420   1.524   0.008   2.126
 2841SOL     OW 9421   0.351   1.449   6.182
 2841SOL    HW1 9422   0.298   1.391   6.120
 2841SOL    HW2 9423   0.290   1.489   6.250
 2842SOL     OW 9424   0.203   4.356   3.722
 2842SOL    HW1 9425   0.150   4.441   3.718
 2842SOL    HW2 9426   0.209   4.324   3.816
 2843SOL     OW 9427   2.005   1.919   3.140
 2843SOL    HW1 9428   2.056   1.881   3.218
 2843SOL    HW2 9429   2.064   1.982   3.090
 2844SOL     OW 9430   6.120   5.273   6.918
 2844SOL    HW1 9431   6.208   5.310   6.887
 2844SOL    HW2 9432   6.114   5.176   6.892
 2845SOL     OW 9433   5.334   3.303   2.250
 2845SOL    HW1 9434   5.263   3.259   2.194
 2845SOL    HW2 9435   5.311   3.292   2.347
 2846SOL     OW 9436   4.229   0.873   0.333
 2846SOL    HW1 9437   4.231   0.775   0.314
 2846SOL    HW2 9438   4.143   0.912   0.299
 2847SOL     OW 9439   5.388   3.867   3.191
 2847SOL    HW1 9440   5.302   3.911   3.164
 2847SOL    HW2 9441   5.423   3.813   3.115
 2848SOL     OW 9442   2.026   2.784   5.535
 2848SOL    HW1 9443   1.954   2.794   5.466
 2848SOL    HW2 9444   2.115   2.805   5.493
 2849SOL     OW 9445   4.746   0.151   0.765
 2849SOL    HW1 9446   4.842   0.162   0.739
 2849SOL    HW2 9447   4.692   0.125   0.685
 2850SOL     OW 9448   1.815   6.754   2.441
 2850SOL    HW1 9449   1.847   6.663   2.413
 2850SOL    HW2 9450   1.723   6.769   2.405
 2851SOL     OW 9451   5.829   2.254   5.783
 2851SOL    HW1 9452   5.909   2.196   5.793
 2851SOL    HW2 9453   5.746   2.198   5.785
 2852SOL     OW 9454   6.551   4.206   6.566
 2852SOL    HW1 9455   6.600   4.266   6.502
 2852SOL    HW2 9456   6.452   4.218   6.554
 2853SOL     OW 9457   1.967   1.716   6.407
 2853SOL    HW1 9458   1.915   1.798   6.384
 2853SOL    HW2 9459   2.034   1.738   6.478
 2854SOL     OW 9460   4.804   0.809   5.498
 2854SOL    HW1 9461   4.712   0.814   5.459
 2854SOL    HW2 9462   4.854   0.892   5.477
 2855SOL     OW 9463   2.068   2.186   5.960
 2855SOL    HW1 9464   2.043   2.270   6.007
 2855SOL    HW2 9465   2.167   2.174   5.964
 2856SOL     OW 9466   0.450   3.643   5.626
 2856SOL    HW1 9467   0.393   3.666   5.547
 2856SOL    HW2 9468   0.478   3.547   5.619
 2857SOL     OW 9469   2.069   2.973   1.869
 2857SOL    HW1 9470   2.129   3.023   1.932
 2857SOL    HW2 9471   1.979   2.961   1.911
 2858SOL     OW 9472   4.725   4.496   1.999
 2858SOL    HW1 9473   4.660   4.421   2.008
 2858SOL    HW2 9474   4.689   4.577   2.046
 2859SOL     OW 9475   5.260   0.511   0.164
 2859SOL    HW1 9476   5.233   0.438   0.226
 2859SOL    HW2 9477   5.287   0.471   0.076
 2860SOL     OW 9478   2.158   2.129   1.630
 2860SOL    HW1 9479   2.151   2.047   1.687
 2860SOL    HW2 9480   2.069   2.174   1.627
 2861SOL     OW 9481   3.247   5.285   5.926
 2861SOL    HW1 9482   3.189   5.307   5.848
 2861SOL    HW2 9483   3.286   5.194   5.915
 2862SOL     OW 9484   4.723   1.899   2.518
 2862SOL    HW1 9485   4.789   1.898   2.443
 2862SOL    HW2 9486   4.631   1.882   2.482
 2863SOL     OW 9487   4.810   1.906   6.483
 2863SOL    HW1 9488   4.871   1.944   6.552
 2863SOL    HW2 9489   4.788   1.811   6.507
 2864SOL     OW 9490   4.383   1.714   2.014
 2864SOL    HW1 9491   4.372   1.648   2.088
 2864SOL    HW2 9492   4.439   1.791   2.046
 2865SOL     OW 9493   4.177   6.519   5.475
 2865SOL    HW1 9494   4.093   6.529   5.421
 2865SOL    HW2 9495   4.234   6.447   5.435
 2866SOL     OW 9496   6.135   5.791   6.345
 2866SOL    HW1 9497   6.163   5.887   6.338
 2866SOL    HW2 9498   6.133   5.764   6.441
 2867SOL     OW 9499   6.184   6.632   3.235
 2867SOL    HW1 9500   6.150   6.569   3.305
 2867SOL    HW2 9501   6.111   6.694   3.206
 2868SOL     OW 9502   1.959   1.186   5.195
 2868SOL    HW1 9503   1.904   1.157   5.117
 2868SOL    HW2 9504   1.910   1.256   5.247
 2869SOL     OW 9505   6.906   0.853   3.388
 2869SOL    HW1 9506   6.994   0.882   3.351
 2869SOL    HW2 9507   6.904   0.871   3.487
 2870SOL     OW 9508   0.534   1.552   5.575
 2870SOL    HW1 9509   0.468   1.539   5.500
 2870SOL    HW2 9510   0.577   1.465   5.597
 2871SOL     OW 9511   6.819   1.791   6.795
 2871SOL    HW1 9512   6.855   1.730   6.866
 2871SOL    HW2 9513   6.754   1.740   6.738
 2872SOL     OW 9514   2.840   2.050   2.048
 2872SOL    HW1 9515   2.854   2.149   2.049
 2872SOL    HW2 9516   2.927   2.003   2.058
 2873SOL     OW 9517   0.052   5.923   2.847
 2873SOL    HW1 9518   0.064   5.989   2.921
 2873SOL    HW2 9519   6.981   5.889   2.849
 2874SOL     OW 9520   4.684   6.968   3.313
 2874SOL    HW1 9521   4.746   0.016   3.346
 2874SOL    HW2 9522   4.717   6.933   3.225
 2875SOL     OW 9523   5.343   0.215   1.700
 2875SOL    HW1 9524   5.382   0.211   1.792
 2875SOL    HW2 9525   5.376   0.297   1.653
 2876SOL     OW 9526   2.069   0.012   2.172
 2876SOL    HW1 9527   2.089   7.010   2.266
 2876SOL    HW2 9528   2.064   0.111   2.164
 2877SOL     OW 9529   2.220   1.583   5.579
 2877SOL    HW1 9530   2.314   1.617   5.583
 2877SOL    HW2 9531   2.157   1.660   5.573
 2878SOL     OW 9532   3.934   4.110   5.313
 2878SOL    HW1 9533   3.911   4.037   5.248
 2878SOL    HW2 9534   4.024   4.147   5.290
 2879SOL     OW 9535   5.169   4.767   6.922
 2879SOL    HW1 9536   5.249   4.722   6.882
 2879SOL    HW2 9537   5.184   4.866   6.925
 2880SOL     OW 9538   0.284   1.379   2.907
 2880SOL    HW1 9539   0.364   1.410   2.856
 2880SOL    HW2 9540   0.260   1.448   2.976
 2881SOL     OW 9541   4.406   5.854   6.323
 2881SOL    HW1 9542   4.357   5.896   6.247
 2881SOL    HW2 9543   4.460   5.924   6.371
 2882SOL     OW 9544   0.065   5.366   2.323
 2882SOL    HW1 9545   0.155   5.407   2.309
 2882SOL    HW2 9546   7.018   5.436   2.317
 2883SOL     OW 9547   6.005   0.669   3.677
 2883SOL    HW1 9548   6.093   0.629   3.703
 2883SOL    HW2 9549   5.932   0.604   3.694
 2884SOL     OW 9550   0.934   0.060   3.249
 2884SOL    HW1 9551   0.985   0.141   3.278
 2884SOL    HW2 9552   0.994   7.023   3.197
 2885SOL     OW 9553   1.762   3.862   3.879
 2885SOL    HW1 9554   1.703   3.929   3.832
 2885SOL    HW2 9555   1.804   3.905   3.959
 2886SOL     OW 9556   0.762   3.419   6.107
 2886SOL    HW1 9557   0.803   3.352   6.169
 2886SOL    HW2 9558   0.729   3.497   6.159
 2887SOL     OW 9559   0.639   0.915   5.823
 2887SOL    HW1 9560   0.633   0.996   5.882
 2887SOL    HW2 9561   0.573   0.923   5.748
 2888SOL     OW 9562   6.834   4.466   6.544
 2888SOL    HW1 9563   6.895   4.396   6.508
 2888SOL    HW2 9564   6.751   4.469   6.489
 2889SOL     OW 9565   2.486   6.424   2.185
 2889SOL    HW1 9566   2.492   6.373   2.270
 2889SOL    HW2 9567   2.573   6.471   2.169
 2890SOL     OW 9568   1.275   6.123   0.257
 2890SOL    HW1 9569   1.285   6.037   0.208
 2890SOL    HW2 9570   1.291   6.200   0.195
 2891SOL     OW 9571   0.753   4.528   3.287
 2891SOL    HW1 9572   0.850   4.545   3.269
 2891SOL    HW2 9573   0.708   4.498   3.203
 2892SOL     OW 9574   6.329   3.380   0.600
 2892SOL    HW1 9575   6.319   3.462   0.543
 2892SOL    HW2 9576   6.398   3.397   0.670
 2893SOL     OW 9577   0.183   5.519   3.777
 2893SOL    HW1 9578   0.206   5.437   3.830
 2893SOL    HW2 9579   0.236   5.520   3.692
 2894SOL     OW 9580   0.619   3.450   2.010
 2894SOL    HW1 9581   0.669   3.535   2.022
 2894SOL    HW2 9582   0.595   3.439   1.913
 2895SOL     OW 9583   5.135   1.975   5.639
 2895SOL    HW1 9584   5.169   1.999   5.548
 2895SOL    HW2 9585   5.036   1.986   5.642
 2896SOL     OW 9586   4.797   6.428   5.252
 2896SOL    HW1 9587   4.840   6.498   5.309
 2896SOL    HW2 9588   4.851   6.413   5.170
 2897SOL     OW 9589   3.837   4.813   3.022
 2897SOL    HW1 9590   3.791   4.866   2.950
 2897SOL    HW2 9591   3.789   4.827   3.109
 2898SOL     OW 9592   4.503   4.538   4.351
 2898SOL    HW1 9593   4.404   4.527   4.356
 2898SOL    HW2 9594   4.525   4.609   4.284
 2899SOL     OW 9595   0.744   2.214   0.323
 2899SOL    HW1 9596   0.842   2.223   0.303
 2899SOL    HW2 9597   0.692   2.214   0.237
 2900SOL     OW 9598   2.233   3.961   5.981
 2900SOL    HW1 9599   2.307   4.017   5.943
 2900SOL    HW2 9600   2.149   3.976   5.928
 2901SOL     OW 9601   2.517   4.583   3.172
 2901SOL    HW1 9602   2.523   4.683   3.178
 2901SOL    HW2 9603   2.547   4.542   3.258
 2902SOL     OW 9604   5.756   5.290   3.123
 2902SOL    HW1 9605   5.743   5.385   3.151
 2902SOL    HW2 9606   5.691   5.231   3.171
 2903SOL     OW 9607   3.624   0.183   0.347
 2903SOL    HW1 9608   3.666   0.098   0.378
 2903SOL    HW2 9609   3.689   0.235   0.292
 2904SOL     OW 9610   2.561   4.980   4.248
 2904SOL    HW1 9611   2.629   4.906   4.248
 2904SOL    HW2 9612   2.470   4.942   4.234
 2905SOL     OW 9613   1.043   2.664   4.972
 2905SOL    HW1 9614   1.138   2.691   4.980
 2905SOL    HW2 9615   0.986   2.745   4.957
 2906SOL     OW 9616   4.829   4.968   2.310
 2906SOL    HW1 9617   4.764   5.042   2.325
 2906SOL    HW2 9618   4.833   4.910   2.392
 2907SOL     OW 9619   0.995   0.899   3.366
 2907SOL    HW1 9620   0.933   0.976   3.380
 2907SOL    HW2 9621   1.083   0.917   3.410
 2908SOL     OW 9622   5.171   6.693   3.673
 2908SOL    HW1 9623   5.232   6.660   3.601
 2908SOL    HW2 9624   5.087   6.729   3.632
 2909SOL     OW 9625   1.683   5.492   4.114
 2909SOL    HW1 9626   1.764   5.433   4.116
 2909SOL    HW2 9627   1.628   5.471   4.033
 2910SOL     OW 9628   4.985   0.949   4.632
 2910SOL    HW1 9629   4.926   0.869   4.621
 2910SOL    HW2 9630   4.930   1.027   4.664
 2911SOL     OW 9631   0.926   5.435   3.670
 2911SOL    HW1 9632   0.920   5.428   3.571
 2911SOL    HW2 9633   0.851   5.491   3.705
 2912SOL     OW 9634   5.346   0.284   6.766
 2912SOL    HW1 9635   5.436   0.321   6.790
 2912SOL    HW2 9636   5.344   0.186   6.787
 2913SOL     OW 9637   3.197   4.828   1.896
 2913SOL    HW1 9638   3.198   4.913   1.843
 2913SOL    HW2 9639   3.226   4.846   1.990
 2914SOL     OW 9640   6.393   6.379   6.061
 2914SOL    HW1 9641   6.346   6.440   5.997
 2914SOL    HW2 9642   6.490   6.404   6.066
 2915SOL     OW 9643   3.615   1.899   3.905
 2915SOL    HW1 9644   3.574   1.872   3.991
 2915SOL    HW2 9645   3.675   1.978   3.919
 2916SOL     OW 9646   0.808   5.751   0.707
 2916SOL    HW1 9647   0.894   5.745   0.655
 2916SOL    HW2 9648   0.738   5.794   0.650
 2917SOL     OW 9649   2.449   0.693   3.250
 2917SOL    HW1 9650   2.528   0.754   3.250
 2917SOL    HW2 9651   2.445   0.642   3.335
 2918SOL     OW 9652   5.798   4.459   5.034
 2918SOL    HW1 9653   5.753   4.500   5.114
 2918SOL    HW2 9654   5.859   4.526   4.992
 2919SOL     OW 9655   5.462   0.683   2.380
 2919SOL    HW1 9656   5.518   0.713   2.302
 2919SOL    HW2 9657   5.466   0.752   2.452
 2920SOL     OW 9658   3.060   1.160   1.824
 2920SOL    HW1 9659   3.023   1.133   1.735
 2920SOL    HW2 9660   2.985   1.174   1.888
 2921SOL     OW 9661   0.771   6.910   4.528
 2921SOL    HW1 9662   0.811   6.919   4.620
 2921SOL    HW2 9663   0.844   6.915   4.460
 2922SOL     OW 9664   4.684   0.255   1.348
 2922SOL    HW1 9665   4.737   0.265   1.263
 2922SOL    HW2 9666   4.621   0.332   1.357
 2923SOL     OW 9667   6.333   5.075   2.450
 2923SOL    HW1 9668   6.426   5.107   2.470
 2923SOL    HW2 9669   6.338   4.985   2.407
 2924SOL     OW 9670   6.010   2.056   5.551
 2924SOL    HW1 9671   5.990   2.141   5.503
 2924SOL    HW2 9672   6.020   2.074   5.649
 2925SOL     OW 9673   4.773   1.424   2.377
 2925SOL    HW1 9674   4.721   1.390   2.299
 2925SOL    HW2 9675   4.713   1.435   2.456
 2926SOL     OW 9676   6.506   1.648   4.484
 2926SOL    HW1 9677   6.604   1.654   4.464
 2926SOL    HW2 9678   6.455   1.695   4.412
 2927SOL     OW 9679   1.615   3.976   1.554
 2927SOL    HW1 9680   1.625   4.053   1.491
 2927SOL    HW2 9681   1.705   3.937   1.574
 2928SOL     OW 9682   0.318   0.474   6.734
 2928SOL    HW1 9683   0.318   0.475   6.834
 2928SOL    HW2 9684   0.239   0.424   6.701
 2929SOL     OW 9685   1.136   2.166   6.865
 2929SOL    HW1 9686   1.099   2.107   6.937
 2929SOL    HW2 9687   1.085   2.151   6.780
 2930SOL     OW 9688   5.558   0.303   5.547
 2930SOL    HW1 9689   5.644   0.254   5.559
 2930SOL    HW2 9690   5.503   0.257   5.478
 2931SOL     OW 9691   5.845   4.319   6.808
 2931SOL    HW1 9692   5.821   4.411   6.779
 2931SOL    HW2 9693   5.823   4.308   6.905
 2932SOL     OW 9694   0.941   5.549   1.703
 2932SOL    HW1 9695   0.856   5.582   1.663
 2932SOL    HW2 9696   0.927   5.526   1.799
 2933SOL     OW 9697   0.661   5.333   2.905
 2933SOL    HW1 9698   0.639   5.296   2.815
 2933SOL    HW2 9699   0.698   5.425   2.895
 2934SOL     OW 9700   4.676   1.856   0.382
 2934SOL    HW1 9701   4.697   1.758   0.384
 2934SOL    HW2 9702   4.647   1.883   0.290
 2935SOL     OW 9703   6.930   2.903   6.731
 2935SOL    HW1 9704   6.896   2.997   6.732
 2935SOL    HW2 9705   7.014   2.897   6.785
 2936SOL     OW 9706   4.441   6.593   0.718
 2936SOL    HW1 9707   4.479   6.608   0.810
 2936SOL    HW2 9708   4.466   6.669   0.659
 2937SOL     OW 9709   5.241   4.508   1.208
 2937SOL    HW1 9710   5.274   4.523   1.115
 2937SOL    HW2 9711   5.144   4.535   1.214
 2938SOL     OW 9712   4.550   5.178   6.663
 2938SOL    HW1 9713   4.493   5.261   6.659
 2938SOL    HW2 9714   4.494   5.102   6.697
 2939SOL     OW 9715   1.987   0.271   3.047
 2939SOL    HW1 9716   2.027   0.333   3.114
 2939SOL    HW2 9717   1.996   0.177   3.079
 2940SOL     OW 9718   5.797   4.828   5.522
 2940SOL    HW1 9719   5.726   4.762   5.547
 2940SOL    HW2 9720   5.769   4.880   5.441
 2941SOL     OW 9721   1.910   2.044   4.430
 2941SOL    HW1 9722   1.952   2.113   4.372
 2941SOL    HW2 9723   1.848   2.089   4.496
 2942SOL     OW 9724   2.928   2.400   0.358
 2942SOL    HW1 9725   2.940   2.366   0.265
 2942SOL    HW2 9726   2.840   2.446   0.366
 2943SOL     OW 9727   5.082   4.565   3.403
 2943SOL    HW1 9728   5.011   4.634   3.388
 2943SOL    HW2 9729   5.060   4.511   3.484
 2944SOL     OW 9730   2.879   6.101   4.043
 2944SOL    HW1 9731   2.783   6.127   4.048
 2944SOL    HW2 9732   2.910   6.069   4.132
 2945SOL     OW 9733   3.189   3.849   3.296
 2945SOL    HW1 9734   3.248   3.923   3.325
 2945SOL    HW2 9735   3.103   3.852   3.348
 2946SOL     OW 9736   1.380   4.753   5.741
 2946SOL    HW1 9737   1.343   4.670   5.698
 2946SOL    HW2 9738   1.378   4.743   5.840
 2947SOL     OW 9739   0.476   3.894   1.065
 2947SOL    HW1 9740   0.508   3.799   1.067
 2947SOL    HW2 9741   0.542   3.952   1.113
 2948SOL     OW 9742   0.810   3.501   5.121
 2948SOL    HW1 9743   0.806   3.401   5.125
 2948SOL    HW2 9744   0.751   3.534   5.048
 2949SOL     OW 9745   2.549   5.502   0.313
 2949SOL    HW1 9746   2.505   5.592   0.311
 2949SOL    HW2 9747   2.627   5.502   0.250
 2950SOL     OW 9748   5.444   4.901   4.271
 2950SOL    HW1 9749   5.372   4.882   4.204
 2950SOL    HW2 9750   5.515   4.830   4.263
 2951SOL     OW 9751   5.312   1.244   1.297
 2951SOL    HW1 9752   5.240   1.243   1.229
 2951SOL    HW2 9753   5.274   1.270   1.386
 2952SOL     OW 9754   0.091   4.719   4.753
 2952SOL    HW1 9755   0.042   4.635   4.731
 2952SOL    HW2 9756   0.181   4.695   4.791
 2953SOL     OW 9757   5.150   3.555   2.508
 2953SOL    HW1 9758   5.081   3.581   2.576
 2953SOL    HW2 9759   5.106   3.511   2.430
 2954SOL     OW 9760   1.078   5.024   1.721
 2954SOL    HW1 9761   1.100   5.121   1.731
 2954SOL    HW2 9762   1.089   4.978   1.809
 2955SOL     OW 9763   0.764   3.696   2.051
 2955SOL    HW1 9764   0.680   3.738   2.086
 2955SOL    HW2 9765   0.805   3.640   2.124
 2956SOL     OW 9766   5.456   5.785   2.571
 2956SOL    HW1 9767   5.441   5.837   2.487
 2956SOL    HW2 9768   5.477   5.848   2.645
 2957SOL     OW 9769   5.898   4.170   2.003
 2957SOL    HW1 9770   5.946   4.091   2.041
 2957SOL    HW2 9771   5.800   4.159   2.018
 2958SOL     OW 9772   2.564   4.530   3.472
 2958SOL    HW1 9773   2.654   4.567   3.495
 2958SOL    HW2 9774   2.526   4.485   3.553
 2959SOL     OW 9775   5.065   3.437   0.404
 2959SOL    HW1 9776   5.024   3.354   0.440
 2959SOL    HW2 9777   5.008   3.516   0.427
 2960SOL     OW 9778   2.938   0.907   0.510
 2960SOL    HW1 9779   2.941   0.970   0.587
 2960SOL    HW2 9780   2.855   0.852   0.516
 2961SOL     OW 9781   5.208   3.521   2.883
 2961SOL    HW1 9782   5.303   3.514   2.854
 2961SOL    HW2 9783   5.189   3.451   2.953
 2962SOL     OW 9784   4.567   6.608   3.043
 2962SOL    HW1 9785   4.610   6.583   3.130
 2962SOL    HW2 9786   4.472   6.635   3.059
 2963SOL     OW 9787   1.881   1.087   6.002
 2963SOL    HW1 9788   1.860   1.172   6.051
 2963SOL    HW2 9789   1.800   1.057   5.952
 2964SOL     OW 9790   0.836   0.584   3.805
 2964SOL    HW1 9791   0.796   0.674   3.819
 2964SOL    HW2 9792   0.809   0.523   3.880
 2965SOL     OW 9793   0.174   0.959   4.429
 2965SOL    HW1 9794   0.146   0.896   4.356
 2965SOL    HW2 9795   0.129   1.047   4.415
 2966SOL     OW 9796   5.055   5.729   3.354
 2966SOL    HW1 9797   4.969   5.734   3.303
 2966SOL    HW2 9798   5.078   5.633   3.371
 2967SOL     OW 9799   6.973   0.889   4.977
 2967SOL    HW1 9800   6.895   0.847   4.931
 2967SOL    HW2 9801   6.953   0.985   4.996
 2968SOL     OW 9802   1.105   2.550   6.943
 2968SOL    HW1 9803   1.066   2.587   6.859
 2968SOL    HW2 9804   1.203   2.536   6.932
 2969SOL     OW 9805   5.196   1.849   4.148
 2969SOL    HW1 9806   5.203   1.773   4.084
 2969SOL    HW2 9807   5.214   1.935   4.099
 2970SOL     OW 9808   2.039   4.052   5.818
 2970SOL    HW1 9809   2.053   3.975   5.756
 2970SOL    HW2 9810   2.044   4.137   5.766
 2971SOL     OW 9811   5.003   4.378   0.230
 2971SOL    HW1 9812   4.948   4.335   0.302
 2971SOL    HW2 9813   5.093   4.400   0.265
 2972SOL     OW 9814   6.431   4.623   6.327
 2972SOL    HW1 9815   6.508   4.666   6.374
 2972SOL    HW2 9816   6.368   4.584   6.395
 2973SOL     OW 9817   5.513   6.303   2.423
 2973SOL    HW1 9818   5.534   6.236   2.352
 2973SOL    HW2 9819   5.504   6.394   2.381
 2974SOL     OW 9820   1.082   4.584   3.297
 2974SOL    HW1 9821   1.167   4.613   3.342
 2974SOL    HW2 9822   1.085   4.486   3.280
 2975SOL     OW 9823   5.634   3.318   4.206
 2975SOL    HW1 9824   5.554   3.298   4.262
 2975SOL    HW2 9825   5.610   3.308   4.109
 2976SOL     OW 9826   4.079   1.645   2.703
 2976SOL    HW1 9827   4.179   1.649   2.700
 2976SOL    HW2 9828   4.048   1.669   2.794
 2977SOL     OW 9829   2.308   6.635   2.239
 2977SOL    HW1 9830   2.255   6.667   2.160
 2977SOL    HW2 9831   2.354   6.549   2.215
 2978SOL     OW 9832   4.823   4.502   0.003
 2978SOL    HW1 9833   4.884   4.444   0.057
 2978SOL    HW2 9834   4.867   4.527   6.941
 2979SOL     OW 9835   3.283   0.635   4.313
 2979SOL    HW1 9836   3.375   0.596   4.306
 2979SOL    HW2 9837   3.286   0.721   4.363
 2980SOL     OW 9838   1.345   5.846   4.586
 2980SOL    HW1 9839   1.387   5.807   4.668
 2980SOL    HW2 9840   1.307   5.773   4.530
 2981SOL     OW 9841   2.747   1.120   5.589
 2981SOL    HW1 9842   2.785   1.188   5.526
 2981SOL    HW2 9843   2.665   1.158   5.633
 2982SOL     OW 9844   3.260   5.028   2.754
 2982SOL    HW1 9845   3.257   4.948   2.694
 2982SOL    HW2 9846   3.210   5.103   2.712
 2983SOL     OW 9847   0.808   1.197   2.787
 2983SOL    HW1 9848   0.725   1.155   2.823
 2983SOL    HW2 9849   0.887   1.138   2.805
 2984SOL     OW 9850   5.314   4.789   0.606
 2984SOL    HW1 9851   5.331   4.691   0.604
 2984SOL    HW2 9852   5.399   4.839   0.590
 2985SOL     OW 9853   1.641   3.070   5.206
 2985SOL    HW1 9854   1.644   3.170   5.198
 2985SOL    HW2 9855   1.725   3.038   5.251
 2986SOL     OW 9856   3.649   4.034   3.233
 2986SOL    HW1 9857   3.593   3.953   3.215
 2986SOL    HW2 9858   3.677   4.035   3.329
 2987SOL     OW 9859   0.620   1.510   4.024
 2987SOL    HW1 9860   0.525   1.541   4.027
 2987SOL    HW2 9861   0.632   1.435   4.090
 2988SOL     OW 9862   1.644   5.714   2.891
 2988SOL    HW1 9863   1.715   5.725   2.822
 2988SOL    HW2 9864   1.667   5.768   2.972
 2989SOL     OW 9865   5.579   6.082   5.943
 2989SOL    HW1 9866   5.643   6.019   5.899
 2989SOL    HW2 9867   5.627   6.166   5.968
 2990SOL     OW 9868   3.546   1.994   4.965
 2990SOL    HW1 9869   3.502   2.035   4.885
 2990SOL    HW2 9870   3.484   1.999   5.044
 2991SOL     OW 9871   6.716   4.133   5.135
 2991SOL    HW1 9872   6.751   4.220   5.171
 2991SOL    HW2 9873   6.627   4.114   5.176
 2992SOL     OW 9874   2.611   6.268   4.521
 2992SOL    HW1 9875   2.644   6.362   4.523
 2992SOL    HW2 9876   2.651   6.221   4.442
 2993SOL     OW 9877   0.292   5.101   1.050
 2993SOL    HW1 9878   0.250   5.079   1.138
 2993SOL    HW2 9879   0.229   5.156   0.995
 2994SOL     OW 9880   4.092   6.292   7.004
 2994SOL    HW1 9881   4.181   6.250   6.987
 2994SOL    HW2 9882   4.035   6.230   0.034
 2995SOL     OW 9883   2.832   1.452   5.958
 2995SOL    HW1 9884   2.788   1.362   5.964
 2995SOL    HW2 9885   2.762   1.523   5.968
 2996SOL     OW 9886   1.594   1.530   4.120
 2996SOL    HW1 9887   1.568   1.437   4.094
 2996SOL    HW2 9888   1.555   1.595   4.055
 2997SOL     OW 9889   5.854   0.094   3.120
 2997SOL    HW1 9890   5.935   0.098   3.061
 2997SOL    HW2 9891   5.782   0.151   3.080
 2998SOL     OW 9892   4.507   6.968   3.853
 2998SOL    HW1 9893   4.520   6.997   3.758
 2998SOL    HW2 9894   4.479   6.872   3.856
 2999SOL     OW 9895   2.161   5.482   5.037
 2999SOL    HW1 9896   2.126   5.553   4.976
 2999SOL    HW2 9897   2.208   5.412   4.984
 3000SOL     OW 9898   3.393   3.882   6.288
 3000SOL    HW1 9899   3.369   3.965   6.238
 3000SOL    HW2 9900   3.348   3.803   6.246
 3001SOL     OW 9901   7.010   0.720   6.037
 3001SOL    HW1 9902   6.980   0.662   6.113
 3001SOL    HW2 9903   0.082   0.700   6.016
 3002SOL     OW 9904   3.387   1.349   0.101
 3002SOL    HW1 9905   3.340   1.329   0.016
 3002SOL    HW2 9906   3.330   1.410   0.157
 3003SOL     OW 9907   1.827   6.832   0.603
 3003SOL    HW1 9908   1.838   6.783   0.689
 3003SOL    HW2 9909   1.853   6.772   0.527
 3004SOL     OW 9910   0.748   4.371   3.536
 3004SOL    HW1 9911   0.761   4.435   3.460
 3004SOL    HW2 9912   0.798   4.405   3.616
 3005SOL     OW 9913   2.145   1.621   0.769
 3005SOL    HW1 9914   2.125   1.717   0.789
 3005SOL    HW2 9915   2.065   1.578   0.728
 3006SOL     OW 9916   5.666   1.552   4.963
 3006SOL    HW1 9917   5.663   1.617   5.040
 3006SOL    HW2 9918   5.621   1.593   4.884
 3007SOL     OW 9919   5.330   4.199   0.885
 3007SOL    HW1 9920   5.347   4.214   0.982
 3007SOL    HW2 9921   5.332   4.101   0.865
 3008SOL     OW 9922   3.864   2.327   5.984
 3008SOL    HW1 9923   3.804   2.395   5.941
 3008SOL    HW2 9924   3.876   2.249   5.924
 3009SOL     OW 9925   6.635   2.002   2.821
 3009SOL    HW1 9926   6.561   1.968   2.763
 3009SOL    HW2 9927   6.600   2.076   2.879
 3010SOL     OW 9928   3.885   5.891   3.505
 3010SOL    HW1 9929   3.872   5.891   3.406
 3010SOL    HW2 9930   3.824   5.958   3.547
 3011SOL     OW 9931   6.019   1.181   2.318
 3011SOL    HW1 9932   6.009   1.207   2.222
 3011SOL    HW2 9933   6.084   1.106   2.326
 3012SOL     OW 9934   1.749   3.353   5.845
 3012SOL    HW1 9935   1.731   3.291   5.769
 3012SOL    HW2 9936   1.670   3.355   5.906
 3013SOL     OW 9937   5.226   5.289   3.776
 3013SOL    HW1 9938   5.272   5.339   3.703
 3013SOL    HW2 9939   5.154   5.232   3.736
 3014SOL     OW 9940   4.380   2.359   4.548
 3014SOL    HW1 9941   4.363   2.410   4.633
 3014SOL    HW2 9942   4.410   2.423   4.477
 3015SOL     OW 9943   3.210   2.020   0.313
 3015SOL    HW1 9944   3.123   2.066   0.330
 3015SOL    HW2 9945   3.285   2.085   0.323
 3016SOL     OW 9946   2.112   6.404   3.783
 3016SOL    HW1 9947   2.095   6.324   3.726
 3016SOL    HW2 9948   2.199   6.446   3.757
 3017SOL     OW 9949   6.548   4.824   2.573
 3017SOL    HW1 9950   6.622   4.817   2.505
 3017SOL    HW2 9951   6.468   4.774   2.540
 3018SOL     OW 9952   3.097   6.687   5.934
 3018SOL    HW1 9953   3.190   6.651   5.935
 3018SOL    HW2 9954   3.087   6.756   6.006
 3019SOL     OW 9955   0.966   6.618   0.536
 3019SOL    HW1 9956   0.893   6.611   0.604
 3019SOL    HW2 9957   0.952   6.548   0.465
 3020SOL     OW 9958   3.719   2.969   1.600
 3020SOL    HW1 9959   3.730   2.942   1.696
 3020SOL    HW2 9960   3.781   2.915   1.543
 3021SOL     OW 9961   2.635   0.413   5.921
 3021SOL    HW1 9962   2.644   0.314   5.914
 3021SOL    HW2 9963   2.595   0.437   6.010
 3022SOL     OW 9964   3.955   5.152   4.378
 3022SOL    HW1 9965   3.971   5.202   4.463
 3022SOL    HW2 9966   3.859   5.163   4.350
 3023SOL     OW 9967   4.107   6.380   2.811
 3023SOL    HW1 9968   4.088   6.467   2.858
 3023SOL    HW2 9969   4.046   6.371   2.732
 3024SOL     OW 9970   5.028   0.331   4.667
 3024SOL    HW1 9971   4.940   0.324   4.621
 3024SOL    HW2 9972   5.094   0.271   4.621
 3025SOL     OW 9973   3.261   0.082   0.454
 3025SOL    HW1 9974   3.282   0.041   0.365
 3025SOL    HW2 9975   3.295   0.176   0.456
 3026SOL     OW 9976   1.348   0.626   6.575
 3026SOL    HW1 9977   1.377   0.698   6.637
 3026SOL    HW2 9978   1.278   0.662   6.513
 3027SOL     OW 9979   3.970   0.963   2.954
 3027SOL    HW1 9980   4.059   0.994   2.919
 3027SOL    HW2 9981   3.899   1.026   2.923
 3028SOL     OW 9982   1.338   3.345   5.829
 3028SOL    HW1 9983   1.326   3.444   5.830
 3028SOL    HW2 9984   1.383   3.317   5.744
 3029SOL     OW 9985   0.360   2.570   5.247
 3029SOL    HW1 9986   0.457   2.577   5.271
 3029SOL    HW2 9987   0.347   2.601   5.152
 3030SOL     OW 9988   0.263   3.054   0.344
 3030SOL    HW1 9989   0.188   3.066   0.409
 3030SOL    HW2 9990   0.321   3.135   0.343
 3031SOL     OW 9991   0.388   4.306   1.180
 3031SOL    HW1 9992   0.423   4.268   1.265
 3031SOL    HW2 9993   0.464   4.334   1.121
 3032SOL     OW 9994   2.909   6.549   0.989
 3032SOL    HW1 9995   2.865   6.467   0.952
 3032SOL    HW2 9996   3.002   6.556   0.952
 3033SOL     OW 9997   5.972   2.094   1.107
 3033SOL    HW1 9998   5.980   2.072   1.204
 3033SOL    HW2 9999   6.048   2.153   1.079
 3034SOL     OW10000   1.847   5.811   2.715
 3034SOL    HW110001   1.924   5.863   2.752
 3034SOL    HW210002   1.767   5.871   2.708
 3035SOL     OW10003   0.364   2.958   6.601
 3035SOL    HW110004   0.293   2.888   6.609
 3035SOL    HW210005   0.337   3.025   6.532
 3036SOL     OW10006   2.145   2.027   6.378
 3036SOL    HW110007   2.113   2.116   6.409
 3036SOL    HW210008   2.111   2.008   6.286
 3037SOL     OW10009   5.966   5.765   5.747
 3037SOL    HW110010   6.015   5.804   5.825
 3037SOL    HW210011   5.961   5.834   5.674
 3038SOL     OW10012   5.121   6.100   5.930
 3038SOL    HW110013   5.103   6.188   5.974
 3038SOL    HW210014   5.043   6.074   5.873
 3039SOL     OW10015   6.701   3.093   0.159
 3039SOL    HW110016   6.789   3.057   0.129
 3039SOL    HW210017   6.701   3.103   0.259
 3040SOL     OW10018   3.622   3.609   5.984
 3040SOL    HW110019   3.709   3.615   5.935
 3040SOL    HW210020   3.617   3.684   6.051
 3041SOL     OW10021   2.109   3.083   4.610
 3041SOL    HW110022   2.115   3.021   4.532
 3041SOL    HW210023   2.014   3.087   4.642
 3042SOL     OW10024   5.003   5.586   2.078
 3042SOL    HW110025   5.028   5.658   2.013
 3042SOL    HW210026   4.988   5.500   2.028
 3043SOL     OW10027   2.253   3.859   1.856
 3043SOL    HW110028   2.255   3.942   1.802
 3043SOL    HW210029   2.312   3.790   1.815
 3044SOL     OW10030   3.426   4.772   5.779
 3044SOL    HW110031   3.482   4.719   5.716
 3044SOL    HW210032   3.415   4.865   5.744
 3045SOL     OW10033   4.330   0.242   3.220
 3045SOL    HW110034   4.368   0.149   3.226
 3045SOL    HW210035   4.404   0.308   3.207
 3046SOL     OW10036   2.171   0.947   6.015
 3046SOL    HW110037   2.082   0.974   6.052
 3046SOL    HW210038   2.167   0.948   5.915
 3047SOL     OW10039   5.761   0.367   1.612
 3047SOL    HW110040   5.820   0.384   1.691
 3047SOL    HW210041   5.764   0.270   1.589
 3048SOL     OW10042   3.909   2.569   1.684
 3048SOL    HW110043   3.819   2.542   1.719
 3048SOL    HW210044   3.944   2.497   1.624
 3049SOL     OW10045   1.425   7.023   2.757
 3049SOL    HW110046   1.461   0.029   2.669
 3049SOL    HW210047   1.416   0.078   2.818
 3050SOL     OW10048   3.344   1.188   1.828
 3050SOL    HW110049   3.246   1.205   1.815
 3050SOL    HW210050   3.367   1.199   1.925
 3051SOL     OW10051   1.671   5.085   6.031
 3051SOL    HW110052   1.746   5.052   6.089
 3051SOL    HW210053   1.591   5.101   6.088
 3052SOL     OW10054   4.755   5.882   2.005
 3052SOL    HW110055   4.849   5.852   1.989
 3052SOL    HW210056   4.755   5.976   2.039
 3053SOL     OW10057   6.875   2.440   0.606
 3053SOL    HW110058   6.942   2.375   0.570
 3053SOL    HW210059   6.922   2.519   0.646
 3054SOL     OW10060   6.553   2.493   0.893
 3054SOL    HW110061   6.601   2.515   0.808
 3054SOL    HW210062   6.455   2.508   0.881
 3055SOL     OW10063   5.041   0.769   5.260
 3055SOL    HW110064   5.023   0.850   5.315
 3055SOL    HW210065   5.009   0.687   5.308
 3056SOL     OW10066   6.813   0.193   5.405
 3056SOL    HW110067   6.859   0.114   5.364
 3056SOL    HW210068   6.715   0.175   5.414
 3057SOL     OW10069   4.386   6.091   2.765
 3057SOL    HW110070   4.417   6.099   2.860
 3057SOL    HW210071   4.460   6.054   2.709
 3058SOL     OW10072   6.766   4.855   1.278
 3058SOL    HW110073   6.865   4.849   1.289
 3058SOL    HW210074   6.727   4.763   1.275
 3059SOL     OW10075   2.826   2.280   4.333
 3059SOL    HW110076   2.866   2.237   4.414
 3059SOL    HW210077   2.727   2.268   4.334
 3060SOL     OW10078   1.376   5.438   0.080
 3060SOL    HW110079   1.436   5.476   0.010
 3060SOL    HW210080   1.423   5.363   0.127
 3061SOL     OW10081   0.165   6.570   5.360
 3061SOL    HW110082   0.118   6.491   5.320
 3061SOL    HW210083   0.213   6.620   5.287
 3062SOL     OW10084   2.080   0.432   0.455
 3062SOL    HW110085   2.023   0.372   0.399
 3062SOL    HW210086   2.060   0.415   0.552
 3063SOL     OW10087   2.512   4.681   1.536
 3063SOL    HW110088   2.574   4.728   1.599
 3063SOL    HW210089   2.443   4.631   1.588
 3064SOL     OW10090   4.763   3.944   1.855
 3064SOL    HW110091   4.677   3.947   1.804
 3064SOL    HW210092   4.839   3.962   1.793
 3065SOL     OW10093   1.644   1.243   0.222
 3065SOL    HW110094   1.703   1.164   0.243
 3065SOL    HW210095   1.700   1.316   0.184
 3066SOL     OW10096   4.545   4.869   0.903
 3066SOL    HW110097   4.581   4.781   0.935
 3066SOL    HW210098   4.619   4.935   0.895
 3067SOL     OW10099   3.588   1.522   5.688
 3067SOL    HW110100   3.495   1.543   5.719
 3067SOL    HW210101   3.585   1.488   5.594
 3068SOL     OW10102   6.590   0.339   0.483
 3068SOL    HW110103   6.625   0.316   0.392
 3068SOL    HW210104   6.493   0.363   0.476
 3069SOL     OW10105   6.803   5.815   1.792
 3069SOL    HW110106   6.891   5.845   1.754
 3069SOL    HW210107   6.762   5.889   1.845
 3070SOL     OW10108   2.749   1.418   6.691
 3070SOL    HW110109   2.805   1.339   6.663
 3070SOL    HW210110   2.703   1.456   6.611
 3071SOL     OW10111   6.586   6.233   3.316
 3071SOL    HW110112   6.592   6.272   3.408
 3071SOL    HW210113   6.653   6.160   3.306
 3072SOL     OW10114   2.734   6.225   6.501
 3072SOL    HW110115   2.796   6.175   6.440
 3072SOL    HW210116   2.747   6.194   6.595
 3073SOL     OW10117   5.826   2.787   4.798
 3073SOL    HW110118   5.766   2.722   4.752
 3073SOL    HW210119   5.787   2.879   4.791
 3074SOL     OW10120   6.118   3.833   0.827
 3074SOL    HW110121   6.069   3.825   0.740
 3074SOL    HW210122   6.162   3.923   0.832
 3075SOL     OW10123   2.610   5.434   1.694
 3075SOL    HW110124   2.639   5.438   1.598
 3075SOL    HW210125   2.512   5.417   1.699
 3076SOL     OW10126   6.404   0.262   4.005
 3076SOL    HW110127   6.449   0.188   3.955
 3076SOL    HW210128   6.461   0.345   4.001
 3077SOL     OW10129   5.494   4.893   1.054
 3077SOL    HW110130   5.574   4.953   1.053
 3077SOL    HW210131   5.499   4.831   1.132
 3078SOL     OW10132   0.183   2.549   2.950
 3078SOL    HW110133   0.153   2.584   2.861
 3078SOL    HW210134   0.208   2.453   2.942
 3079SOL     OW10135   2.538   2.461   2.737
 3079SOL    HW110136   2.449   2.493   2.770
 3079SOL    HW210137   2.543   2.474   2.638
 3080SOL     OW10138   4.996   5.243   2.526
 3080SOL    HW110139   4.973   5.333   2.490
 3080SOL    HW210140   4.914   5.200   2.564
 3081SOL     OW10141   0.601   2.548   5.348
 3081SOL    HW110142   0.688   2.530   5.303
 3081SOL    HW210143   0.602   2.509   5.440
 3082SOL     OW10144   3.131   5.834   3.800
 3082SOL    HW110145   3.146   5.791   3.711
 3082SOL    HW210146   3.079   5.771   3.859
 3083SOL     OW10147   2.937   6.363   3.807
 3083SOL    HW110148   2.947   6.412   3.894
 3083SOL    HW210149   2.976   6.272   3.815
 3084SOL     OW10150   6.446   3.592   4.272
 3084SOL    HW110151   6.398   3.537   4.203
 3084SOL    HW210152   6.381   3.654   4.316
 3085SOL     OW10153   5.756   4.313   0.330
 3085SOL    HW110154   5.749   4.244   0.402
 3085SOL    HW210155   5.694   4.388   0.349
 3086SOL     OW10156   4.572   1.725   1.316
 3086SOL    HW110157   4.499   1.793   1.325
 3086SOL    HW210158   4.583   1.699   1.220
 3087SOL     OW10159   1.735   5.792   4.157
 3087SOL    HW110160   1.678   5.715   4.186
 3087SOL    HW210161   1.691   5.840   4.081
 3088SOL     OW10162   2.273   4.836   4.507
 3088SOL    HW110163   2.232   4.924   4.528
 3088SOL    HW210164   2.206   4.763   4.519
 3089SOL     OW10165   1.900   3.121   5.664
 3089SOL    HW110166   1.989   3.166   5.652
 3089SOL    HW210167   1.911   3.040   5.720
 3090SOL     OW10168   2.392   2.281   1.803
 3090SOL    HW110169   2.361   2.250   1.713
 3090SOL    HW210170   2.481   2.241   1.823
 3091SOL     OW10171   1.916   6.876   1.529
 3091SOL    HW110172   1.916   6.959   1.586
 3091SOL    HW210173   1.963   6.803   1.577
 3092SOL     OW10174   4.840   1.476   0.603
 3092SOL    HW110175   4.915   1.412   0.615
 3092SOL    HW210176   4.758   1.441   0.649
 3093SOL     OW10177   5.135   6.534   6.623
 3093SOL    HW110178   5.152   6.627   6.655
 3093SOL    HW210179   5.213   6.476   6.646
 3094SOL     OW10180   2.055   6.888   4.315
 3094SOL    HW110181   2.140   6.933   4.343
 3094SOL    HW210182   2.075   6.795   4.284
 3095SOL     OW10183   2.428   4.906   5.254
 3095SOL    HW110184   2.331   4.915   5.233
 3095SOL    HW210185   2.472   4.847   5.187
 3096SOL     OW10186   0.972   5.524   5.499
 3096SOL    HW110187   0.992   5.574   5.415
 3096SOL    HW210188   1.033   5.445   5.505
 3097SOL     OW10189   5.499   2.184   0.226
 3097SOL    HW110190   5.431   2.255   0.247
 3097SOL    HW210191   5.497   2.114   0.297
 3098SOL     OW10192   2.065   2.645   1.794
 3098SOL    HW110193   2.015   2.685   1.717
 3098SOL    HW210194   2.158   2.682   1.796
 3099SOL     OW10195   0.978   0.053   3.546
 3099SOL    HW110196   0.888   0.009   3.543
 3099SOL    HW210197   1.045   7.020   3.499
 3100SOL     OW10198   0.095   5.823   3.187
 3100SOL    HW110199   0.139   5.890   3.127
 3100SOL    HW210200   0.142   5.822   3.275
 3101SOL     OW10201   5.738   6.250   0.234
 3101SOL    HW110202   5.782   6.317   0.174
 3101SOL    HW210203   5.777   6.257   0.326
 3102SOL     OW10204   6.502   5.224   2.767
 3102SOL    HW110205   6.521   5.249   2.862
 3102SOL    HW210206   6.453   5.300   2.722
 3103SOL     OW10207   4.562   0.669   2.265
 3103SOL    HW110208   4.580   0.755   2.312
 3103SOL    HW210209   4.592   0.676   2.170
 3104SOL     OW10210   5.122   1.582   5.384
 3104SOL    HW110211   5.080   1.503   5.339
 3104SOL    HW210212   5.165   1.640   5.315
 3105SOL     OW10213   5.607   4.382   0.875
 3105SOL    HW110214   5.616   4.429   0.962
 3105SOL    HW210215   5.516   4.396   0.838
 3106SOL     OW10216   4.844   0.770   3.624
 3106SOL    HW110217   4.792   0.686   3.607
 3106SOL    HW210218   4.909   0.755   3.698
 3107SOL     OW10219   4.651   1.620   5.114
 3107SOL    HW110220   4.677   1.527   5.085
 3107SOL    HW210221   4.575   1.652   5.059
 3108SOL     OW10222   1.917   6.045   4.245
 3108SOL    HW110223   1.868   5.979   4.302
 3108SOL    HW210224   1.933   6.007   4.155
 3109SOL     OW10225   5.445   6.237   3.756
 3109SOL    HW110226   5.461   6.319   3.811
 3109SOL    HW210227   5.429   6.264   3.661
 3110SOL     OW10228   0.804   2.828   2.651
 3110SOL    HW110229   0.747   2.817   2.732
 3110SOL    HW210230   0.890   2.778   2.664
 3111SOL     OW10231   0.309   5.147   3.400
 3111SOL    HW110232   0.367   5.111   3.473
 3111SOL    HW210233   0.277   5.072   3.342
 3112SOL     OW10234   4.206   3.240   6.807
 3112SOL    HW110235   4.248   3.230   6.897
 3112SOL    HW210236   4.225   3.158   6.752
 3113SOL     OW10237   2.702   5.163   3.507
 3113SOL    HW110238   2.632   5.202   3.567
 3113SOL    HW210239   2.769   5.112   3.562
 3114SOL     OW10240   4.221   2.268   0.542
 3114SOL    HW110241   4.158   2.284   0.618
 3114SOL    HW210242   4.244   2.355   0.499
 3115SOL     OW10243   3.848   4.389   6.128
 3115SOL    HW110244   3.864   4.297   6.164
 3115SOL    HW210245   3.935   4.435   6.112
 3116SOL     OW10246   0.160   2.829   6.907
 3116SOL    HW110247   0.197   2.737   6.893
 3116SOL    HW210248   0.144   2.844   7.004
 3117SOL     OW10249   4.427   3.587   5.321
 3117SOL    HW110250   4.511   3.596   5.267
 3117SOL    HW210251   4.361   3.656   5.291
 3118SOL     OW10252   0.794   5.257   2.121
 3118SOL    HW110253   0.830   5.291   2.034
 3118SOL    HW210254   0.868   5.215   2.174
 3119SOL     OW10255   2.449   3.414   6.409
 3119SOL    HW110256   2.412   3.385   6.498
 3119SOL    HW210257   2.512   3.343   6.376
 3120SOL     OW10258   3.698   0.387   5.204
 3120SOL    HW110259   3.707   0.482   5.174
 3120SOL    HW210260   3.622   0.344   5.156
 3121SOL     OW10261   0.612   0.813   3.551
 3121SOL    HW110262   0.706   0.785   3.531
 3121SOL    HW210263   0.612   0.907   3.586
 3122SOL     OW10264   4.542   5.679   6.473
 3122SOL    HW110265   4.506   5.730   6.394
 3122SOL    HW210266   4.525   5.582   6.461
 3123SOL     OW10267   2.008   1.521   3.077
 3123SOL    HW110268   2.087   1.556   3.026
 3123SOL    HW210269   1.943   1.479   3.013
 3124SOL     OW10270   5.455   0.215   4.587
 3124SOL    HW110271   5.547   0.213   4.549
 3124SOL    HW210272   5.460   0.212   4.687
 3125SOL     OW10273   0.742   2.515   4.789
 3125SOL    HW110274   0.683   2.570   4.848
 3125SOL    HW210275   0.797   2.453   4.845
 3126SOL     OW10276   5.529   4.106   5.570
 3126SOL    HW110277   5.600   4.134   5.506
 3126SOL    HW210278   5.557   4.128   5.664
 3127SOL     OW10279   0.786   3.231   5.428
 3127SOL    HW110280   0.820   3.138   5.410
 3127SOL    HW210281   0.856   3.298   5.403
 3128SOL     OW10282   2.522   0.398   6.181
 3128SOL    HW110283   2.556   0.447   6.262
 3128SOL    HW210284   2.563   0.308   6.177
 3129SOL     OW10285   6.774   3.667   6.926
 3129SOL    HW110286   6.697   3.728   6.947
 3129SOL    HW210287   6.814   3.634   7.011
 3130SOL     OW10288   1.663   4.172   1.340
 3130SOL    HW110289   1.650   4.262   1.382
 3130SOL    HW210290   1.710   4.184   1.252
 3131SOL     OW10291   0.517   3.220   2.082
 3131SOL    HW110292   0.563   3.305   2.056
 3131SOL    HW210293   0.484   3.174   1.999
 3132SOL     OW10294   3.975   6.078   6.166
 3132SOL    HW110295   3.886   6.036   6.183
 3132SOL    HW210296   3.962   6.163   6.116
 3133SOL     OW10297   3.013   1.179   3.613
 3133SOL    HW110298   3.038   1.092   3.570
 3133SOL    HW210299   3.069   1.252   3.574
 3134SOL     OW10300   4.678   4.226   1.765
 3134SOL    HW110301   4.592   4.240   1.815
 3134SOL    HW210302   4.745   4.182   1.825
 3135SOL     OW10303   4.764   1.510   4.810
 3135SOL    HW110304   4.782   1.437   4.743
 3135SOL    HW210305   4.822   1.496   4.890
 3136SOL     OW10306   5.434   0.707   1.794
 3136SOL    HW110307   5.408   0.758   1.713
 3136SOL    HW210308   5.353   0.662   1.833
 3137SOL     OW10309   6.815   0.643   2.339
 3137SOL    HW110310   6.869   0.694   2.406
 3137SOL    HW210311   6.763   0.571   2.386
 3138SOL     OW10312   6.083   4.499   3.419
 3138SOL    HW110313   6.150   4.506   3.346
 3138SOL    HW210314   6.022   4.422   3.401
 3139SOL     OW10315   4.570   6.116   0.762
 3139SOL    HW110316   4.618   6.178   0.824
 3139SOL    HW210317   4.475   6.106   0.791
 3140SOL     OW10318   6.417   0.119   0.180
 3140SOL    HW110319   6.396   0.183   0.107
 3140SOL    HW210320   6.509   0.136   0.214
 3141SOL     OW10321   0.590   0.164   6.865
 3141SOL    HW110322   0.516   0.199   6.922
 3141SOL    HW210323   0.562   0.077   6.823
 3142SOL     OW10324   3.752   7.022   2.049
 3142SOL    HW110325   3.821   0.028   2.115
 3142SOL    HW210326   3.714   6.934   2.079
 3143SOL     OW10327   6.491   2.406   6.830
 3143SOL    HW110328   6.464   2.399   6.734
 3143SOL    HW210329   6.409   2.405   6.888
 3144SOL     OW10330   3.710   3.944   1.508
 3144SOL    HW110331   3.793   3.924   1.456
 3144SOL    HW210332   3.732   4.002   1.586
 3145SOL     OW10333   2.021   6.272   1.223
 3145SOL    HW110334   1.962   6.230   1.154
 3145SOL    HW210335   1.966   6.297   1.303
 3146SOL     OW10336   1.505   0.554   3.784
 3146SOL    HW110337   1.515   0.483   3.714
 3146SOL    HW210338   1.489   0.511   3.873
 3147SOL     OW10339   3.556   5.984   1.586
 3147SOL    HW110340   3.635   6.041   1.565
 3147SOL    HW210341   3.474   6.024   1.544
 3148SOL     OW10342   5.930   6.049   4.134
 3148SOL    HW110343   6.002   6.084   4.193
 3148SOL    HW210344   5.852   6.112   4.136
 3149SOL     OW10345   2.742   1.192   5.219
 3149SOL    HW110346   2.819   1.196   5.283
 3149SOL    HW210347   2.661   1.156   5.266
 3150SOL     OW10348   5.991   5.084   3.984
 3150SOL    HW110349   6.053   5.124   4.052
 3150SOL    HW210350   5.952   5.157   3.928
 3151SOL     OW10351   6.604   1.476   5.469
 3151SOL    HW110352   6.625   1.394   5.416
 3151SOL    HW210353   6.617   1.457   5.567
 3152SOL     OW10354   1.181   5.610   0.791
 3152SOL    HW110355   1.132   5.528   0.820
 3152SOL    HW210356   1.171   5.622   0.692
 3153SOL     OW10357   6.218   4.698   0.878
 3153SOL    HW110358   6.136   4.748   0.851
 3153SOL    HW210359   6.203   4.600   0.865
 3154SOL     OW10360   6.558   1.877   6.474
 3154SOL    HW110361   6.601   1.923   6.552
 3154SOL    HW210362   6.628   1.858   6.405
 3155SOL     OW10363   6.609   4.380   0.456
 3155SOL    HW110364   6.668   4.306   0.487
 3155SOL    HW210365   6.595   4.445   0.531
 3156SOL     OW10366   3.329   2.887   3.354
 3156SOL    HW110367   3.353   2.801   3.309
 3156SOL    HW210368   3.379   2.895   3.441
 3157SOL     OW10369   2.819   2.043   5.057
 3157SOL    HW110370   2.826   2.103   4.977
 3157SOL    HW210371   2.827   1.948   5.029
 3158SOL     OW10372   3.775   0.977   3.421
 3158SOL    HW110373   3.802   1.006   3.330
 3158SOL    HW210374   3.831   1.025   3.489
 3159SOL     OW10375   6.259   2.124   0.083
 3159SOL    HW110376   6.321   2.195   0.049
 3159SOL    HW210377   6.313   2.051   0.126
 3160SOL     OW10378   0.332   6.205   5.514
 3160SOL    HW110379   0.354   6.202   5.611
 3160SOL    HW210380   0.233   6.210   5.502
 3161SOL     OW10381   1.952   2.603   3.464
 3161SOL    HW110382   1.947   2.675   3.533
 3161SOL    HW210383   1.868   2.549   3.465
 3162SOL     OW10384   0.975   6.579   2.242
 3162SOL    HW110385   0.968   6.538   2.151
 3162SOL    HW210386   1.069   6.612   2.257
 3163SOL     OW10387   4.777   2.792   6.239
 3163SOL    HW110388   4.728   2.769   6.155
 3163SOL    HW210389   4.857   2.847   6.217
 3164SOL     OW10390   3.995   4.950   1.154
 3164SOL    HW110391   3.899   4.923   1.153
 3164SOL    HW210392   4.029   4.954   1.060
 3165SOL     OW10393   0.289   6.338   1.181
 3165SOL    HW110394   0.347   6.403   1.231
 3165SOL    HW210395   0.344   6.293   1.110
 3166SOL     OW10396   4.363   1.610   4.132
 3166SOL    HW110397   4.421   1.663   4.070
 3166SOL    HW210398   4.312   1.672   4.191
 3167SOL     OW10399   6.718   4.546   0.677
 3167SOL    HW110400   6.797   4.570   0.620
 3167SOL    HW210401   6.698   4.621   0.740
 3168SOL     OW10402   4.478   2.696   6.467
 3168SOL    HW110403   4.527   2.783   6.461
 3168SOL    HW210404   4.468   2.670   6.563
 3169SOL     OW10405   2.160   3.589   4.190
 3169SOL    HW110406   2.153   3.530   4.271
 3169SOL    HW210407   2.164   3.531   4.108
 3170SOL     OW10408   4.374   6.782   1.557
 3170SOL    HW110409   4.426   6.754   1.477
 3170SOL    HW210410   4.306   6.851   1.531
 3171SOL     OW10411   0.258   0.758   1.849
 3171SOL    HW110412   0.287   0.853   1.838
 3171SOL    HW210413   0.181   0.739   1.788
 3172SOL     OW10414   6.542   5.536   0.487
 3172SOL    HW110415   6.563   5.593   0.408
 3172SOL    HW210416   6.624   5.486   0.516
 3173SOL     OW10417   2.811   2.191   0.565
 3173SOL    HW110418   2.833   2.230   0.475
 3173SOL    HW210419   2.854   2.102   0.574
 3174SOL     OW10420   2.634   2.352   0.337
 3174SOL    HW110421   2.607   2.378   0.245
 3174SOL    HW210422   2.566   2.385   0.403
 3175SOL     OW10423   6.832   0.621   1.309
 3175SOL    HW110424   6.782   0.698   1.348
 3175SOL    HW210425   6.782   0.586   1.230
 3176SOL     OW10426   1.783   3.792   5.225
 3176SOL    HW110427   1.833   3.873   5.195
 3176SOL    HW210428   1.764   3.798   5.323
 3177SOL     OW10429   4.919   3.779   4.270
 3177SOL    HW110430   4.916   3.767   4.369
 3177SOL    HW210431   4.861   3.855   4.243
 3178SOL     OW10432   6.439   2.247   0.940
 3178SOL    HW110433   6.361   2.285   0.991
 3178SOL    HW210434   6.496   2.322   0.907
 3179SOL     OW10435   1.002   3.010   2.539
 3179SOL    HW110436   1.046   2.932   2.495
 3179SOL    HW210437   0.929   2.979   2.599
 3180SOL     OW10438   4.188   1.409   0.150
 3180SOL    HW110439   4.211   1.313   0.135
 3180SOL    HW210440   4.262   1.453   0.202
 3181SOL     OW10441   6.904   1.417   3.214
 3181SOL    HW110442   6.859   1.395   3.127
 3181SOL    HW210443   6.836   1.453   3.278
 3182SOL     OW10444   3.316   0.459   5.634
 3182SOL    HW110445   3.396   0.473   5.693
 3182SOL    HW210446   3.262   0.544   5.631
 3183SOL     OW10447   4.028   4.131   1.586
 3183SOL    HW110448   3.957   4.099   1.648
 3183SOL    HW210449   4.116   4.133   1.634
 3184SOL     OW10450   0.829   2.657   3.056
 3184SOL    HW110451   0.792   2.632   3.145
 3184SOL    HW210452   0.756   2.693   2.998
 3185SOL     OW10453   5.782   5.752   0.048
 3185SOL    HW110454   5.735   5.673   0.009
 3185SOL    HW210455   5.875   5.756   0.010
 3186SOL     OW10456   3.896   1.342   1.944
 3186SOL    HW110457   3.907   1.392   2.030
 3186SOL    HW210458   3.868   1.406   1.873
 3187SOL     OW10459   4.649   4.338   6.929
 3187SOL    HW110460   4.685   4.388   7.008
 3187SOL    HW210461   4.550   4.334   6.935
 3188SOL     OW10462   2.102   0.441   4.347
 3188SOL    HW110463   2.015   0.472   4.385
 3188SOL    HW210464   2.172   0.443   4.418
 3189SOL     OW10465   1.430   1.102   1.667
 3189SOL    HW110466   1.427   1.027   1.601
 3189SOL    HW210467   1.424   1.189   1.618
 3190SOL     OW10468   6.702   6.551   0.513
 3190SOL    HW110469   6.762   6.630   0.521
 3190SOL    HW210470   6.635   6.567   0.440
 3191SOL     OW10471   5.529   6.739   1.003
 3191SOL    HW110472   5.499   6.714   0.910
 3191SOL    HW210473   5.528   6.657   1.060
 3192SOL     OW10474   0.005   2.481   1.999
 3192SOL    HW110475   6.962   2.430   2.053
 3192SOL    HW210476   6.996   2.489   1.905
 3193SOL     OW10477   3.348   1.634   6.824
 3193SOL    HW110478   3.391   1.606   6.738
 3193SOL    HW210479   3.419   1.665   6.888
 3194SOL     OW10480   1.650   2.457   6.410
 3194SOL    HW110481   1.607   2.540   6.375
 3194SOL    HW210482   1.749   2.461   6.394
 3195SOL     OW10483   2.785   2.306   3.416
 3195SOL    HW110484   2.805   2.345   3.326
 3195SOL    HW210485   2.803   2.208   3.415
 3196SOL     OW10486   0.680   1.699   6.238
 3196SOL    HW110487   0.694   1.603   6.260
 3196SOL    HW210488   0.584   1.723   6.253
 3197SOL     OW10489   2.421   6.497   3.272
 3197SOL    HW110490   2.360   6.422   3.297
 3197SOL    HW210491   2.514   6.462   3.260
 3198SOL     OW10492   5.586   2.622   5.389
 3198SOL    HW110493   5.660   2.622   5.457
 3198SOL    HW210494   5.546   2.713   5.384
 3199SOL     OW10495   4.698   2.666   2.558
 3199SOL    HW110496   4.674   2.720   2.477
 3199SOL    HW210497   4.711   2.571   2.531
 3200SOL     OW10498   6.164   2.968   1.992
 3200SOL    HW110499   6.138   3.010   2.080
 3200SOL    HW210500   6.239   2.904   2.007
 3201SOL     OW10501   5.556   4.732   4.602
 3201SOL    HW110502   5.598   4.688   4.682
 3201SOL    HW210503   5.549   4.830   4.619
 3202SOL     OW10504   6.930   4.648   1.478
 3202SOL    HW110505   6.970   4.724   1.426
 3202SOL    HW210506   6.853   4.683   1.532
 3203SOL     OW10507   6.274   2.397   7.018
 3203SOL    HW110508   6.176   2.378   7.007
 3203SOL    HW210509   6.288   2.452   0.077
 3204SOL     OW10510   4.921   6.342   1.918
 3204SOL    HW110511   4.960   6.412   1.979
 3204SOL    HW210512   4.860   6.386   1.852
 3205SOL     OW10513   6.798   3.377   6.227
 3205SOL    HW110514   6.834   3.470   6.215
 3205SOL    HW210515   6.866   3.321   6.274
 3206SOL     OW10516   1.047   6.500   5.800
 3206SOL    HW110517   1.039   6.566   5.725
 3206SOL    HW210518   1.109   6.536   5.870
 3207SOL     OW10519   0.764   0.658   5.512
 3207SOL    HW110520   0.846   0.633   5.459
 3207SOL    HW210521   0.762   0.605   5.597
 3208SOL     OW10522   5.430   6.835   5.487
 3208SOL    HW110523   5.441   6.736   5.471
 3208SOL    HW210524   5.360   6.871   5.426
 3209SOL     OW10525   3.979   5.732   2.954
 3209SOL    HW110526   3.957   5.818   3.001
 3209SOL    HW210527   4.006   5.663   3.021
 3210SOL     OW10528   1.009   4.433   1.246
 3210SOL    HW110529   0.931   4.478   1.290
 3210SOL    HW210530   1.055   4.375   1.312
 3211SOL     OW10531   1.507   3.974   1.229
 3211SOL    HW110532   1.451   4.053   1.202
 3211SOL    HW210533   1.582   4.006   1.288
 3212SOL     OW10534   2.873   0.797   1.116
 3212SOL    HW110535   2.873   0.855   1.198
 3212SOL    HW210536   2.949   0.732   1.121
 3213SOL     OW10537   0.892   5.831   1.797
 3213SOL    HW110538   0.892   5.742   1.753
 3213SOL    HW210539   0.986   5.860   1.815
 3214SOL     OW10540   4.816   5.538   0.706
 3214SOL    HW110541   4.790   5.577   0.795
 3214SOL    HW210542   4.776   5.447   0.697
 3215SOL     OW10543   6.828   2.927   1.267
 3215SOL    HW110544   6.743   2.875   1.280
 3215SOL    HW210545   6.807   3.013   1.221
 3216SOL     OW10546   5.902   4.896   0.842
 3216SOL    HW110547   5.886   4.808   0.798
 3216SOL    HW210548   5.824   4.918   0.901
 3217SOL     OW10549   0.030   6.237   2.653
 3217SOL    HW110550   0.094   6.248   2.577
 3217SOL    HW210551   0.017   6.140   2.673
 3218SOL     OW10552   4.145   1.020   3.470
 3218SOL    HW110553   4.148   1.105   3.524
 3218SOL    HW210554   4.132   0.942   3.531
 3219SOL     OW10555   0.082   1.515   3.389
 3219SOL    HW110556   0.038   1.518   3.299
 3219SOL    HW210557   0.088   1.607   3.426
 3220SOL     OW10558   6.200   6.101   5.772
 3220SOL    HW110559   6.279   6.122   5.713
 3220SOL    HW210560   6.232   6.080   5.864
 3221SOL     OW10561   3.554   0.483   1.296
 3221SOL    HW110562   3.536   0.422   1.374
 3221SOL    HW210563   3.605   0.563   1.327
 3222SOL     OW10564   4.288   1.953   2.378
 3222SOL    HW110565   4.198   1.981   2.347
 3222SOL    HW210566   4.351   2.031   2.374
 3223SOL     OW10567   1.768   5.155   6.579
 3223SOL    HW110568   1.708   5.082   6.545
 3223SOL    HW210569   1.718   5.241   6.580
 3224SOL     OW10570   4.489   3.692   0.065
 3224SOL    HW110571   4.438   3.625   0.011
 3224SOL    HW210572   4.587   3.672   0.057
 3225SOL     OW10573   4.937   3.737   6.357
 3225SOL    HW110574   4.947   3.795   6.438
 3225SOL    HW210575   4.936   3.794   6.275
 3226SOL     OW10576   2.184   1.409   4.348
 3226SOL    HW110577   2.197   1.464   4.265
 3226SOL    HW210578   2.208   1.314   4.329
 3227SOL     OW10579   4.049   2.589   0.184
 3227SOL    HW110580   4.093   2.666   0.139
 3227SOL    HW210581   3.991   2.623   0.258
 3228SOL     OW10582   6.285   4.291   2.749
 3228SOL    HW110583   6.265   4.387   2.767
 3228SOL    HW210584   6.297   4.277   2.651
 3229SOL     OW10585   3.993   0.623   5.521
 3229SOL    HW110586   4.056   0.549   5.541
 3229SOL    HW210587   3.903   0.585   5.497
 3230SOL     OW10588   1.742   3.074   4.455
 3230SOL    HW110589   1.643   3.089   4.446
 3230SOL    HW210590   1.789   3.162   4.452
 3231SOL     OW10591   2.424   0.894   1.755
 3231SOL    HW110592   2.513   0.884   1.800
 3231SOL    HW210593   2.436   0.885   1.656
 3232SOL     OW10594   4.488   5.509   5.366
 3232SOL    HW110595   4.473   5.416   5.401
 3232SOL    HW210596   4.469   5.510   5.268
 3233SOL     OW10597   0.883   2.916   1.947
 3233SOL    HW110598   0.939   2.944   2.026
 3233SOL    HW210599   0.787   2.915   1.973
 3234SOL     OW10600   0.127   1.902   6.992
 3234SOL    HW110601   0.186   1.966   6.941
 3234SOL    HW210602   0.152   1.808   6.968
 3235SOL     OW10603   5.330   0.815   1.514
 3235SOL    HW110604   5.419   0.855   1.535
 3235SOL    HW210605   5.258   0.881   1.535
 3236SOL     OW10606   0.975   3.679   1.038
 3236SOL    HW110607   1.021   3.698   1.125
 3236SOL    HW210608   0.909   3.605   1.051
 3237SOL     OW10609   5.131   1.475   4.133
 3237SOL    HW110610   5.104   1.380   4.118
 3237SOL    HW210611   5.226   1.487   4.106
 3238SOL     OW10612   0.057   4.948   0.815
 3238SOL    HW110613   0.123   4.966   0.742
 3238SOL    HW210614   0.020   5.035   0.848
 3239SOL     OW10615   6.332   1.628   1.491
 3239SOL    HW110616   6.312   1.530   1.498
 3239SOL    HW210617   6.280   1.678   1.561
 3240SOL     OW10618   0.937   0.280   6.070
 3240SOL    HW110619   1.014   0.218   6.085
 3240SOL    HW210620   0.888   0.253   5.987
 3241SOL     OW10621   4.324   1.849   5.408
 3241SOL    HW110622   4.294   1.928   5.462
 3241SOL    HW210623   4.257   1.775   5.418
 3242SOL     OW10624   3.359   4.412   0.218
 3242SOL    HW110625   3.329   4.346   0.149
 3242SOL    HW210626   3.459   4.405   0.229
 3243SOL     OW10627   5.075   4.724   0.180
 3243SOL    HW110628   5.166   4.730   0.220
 3243SOL    HW210629   5.082   4.734   0.081
 3244SOL     OW10630   5.120   5.831   7.014
 3244SOL    HW110631   5.116   5.926   6.983
 3244SOL    HW210632   5.028   5.802   0.020
 3245SOL     OW10633   4.893   3.085   5.134
 3245SOL    HW110634   4.864   3.040   5.050
 3245SOL    HW210635   4.831   3.059   5.209
 3246SOL     OW10636   5.362   0.432   2.424
 3246SOL    HW110637   5.348   0.395   2.516
 3246SOL    HW210638   5.389   0.528   2.430
 3247SOL     OW10639   5.642   4.447   2.428
 3247SOL    HW110640   5.612   4.528   2.377
 3247SOL    HW210641   5.575   4.426   2.499
 3248SOL     OW10642   6.510   3.554   0.786
 3248SOL    HW110643   6.545   3.617   0.717
 3248SOL    HW210644   6.585   3.529   0.848
 3249SOL     OW10645   3.724   3.041   4.388
 3249SOL    HW110646   3.821   3.051   4.366
 3249SOL    HW210647   3.698   3.106   4.459
 3250SOL     OW10648   6.266   6.416   2.234
 3250SOL    HW110649   6.179   6.466   2.236
 3250SOL    HW210650   6.264   6.340   2.298
 3251SOL     OW10651   3.175   0.975   2.709
 3251SOL    HW110652   3.179   1.031   2.792
 3251SOL    HW210653   3.147   0.882   2.733
 3252SOL     OW10654   2.715   2.028   2.464
 3252SOL    HW110655   2.765   1.944   2.487
 3252SOL    HW210656   2.654   2.052   2.539
 3253SOL     OW10657   5.526   3.157   2.075
 3253SOL    HW110658   5.431   3.190   2.068
 3253SOL    HW210659   5.544   3.129   2.170
 3254SOL     OW10660   4.990   5.331   5.024
 3254SOL    HW110661   4.946   5.420   5.037
 3254SOL    HW210662   4.921   5.259   5.029
 3255SOL     OW10663   5.201   5.423   0.525
 3255SOL    HW110664   5.210   5.522   0.538
 3255SOL    HW210665   5.136   5.405   0.452
 3256SOL     OW10666   4.147   0.618   0.220
 3256SOL    HW110667   4.055   0.635   0.184
 3256SOL    HW210668   4.181   0.531   0.184
 3257SOL     OW10669   1.675   1.577   1.405
 3257SOL    HW110670   1.610   1.602   1.477
 3257SOL    HW210671   1.727   1.658   1.378
 3258SOL     OW10672   4.182   4.762   1.889
 3258SOL    HW110673   4.138   4.762   1.979
 3258SOL    HW210674   4.131   4.704   1.826
 3259SOL     OW10675   4.460   5.307   3.636
 3259SOL    HW110676   4.446   5.239   3.563
 3259SOL    HW210677   4.525   5.271   3.703
 3260SOL     OW10678   1.680   1.988   0.994
 3260SOL    HW110679   1.689   1.895   0.959
 3260SOL    HW210680   1.604   2.033   0.948
 3261SOL     OW10681   5.028   6.673   0.697
 3261SOL    HW110682   5.070   6.697   0.610
 3261SOL    HW210683   4.929   6.672   0.687
 3262SOL     OW10684   3.338   2.159   2.546
 3262SOL    HW110685   3.323   2.258   2.540
 3262SOL    HW210686   3.365   2.136   2.640
 3263SOL     OW10687   2.706   1.145   3.389
 3263SOL    HW110688   2.733   1.237   3.361
 3263SOL    HW210689   2.661   1.150   3.479
 3264SOL     OW10690   1.425   4.529   0.916
 3264SOL    HW110691   1.367   4.605   0.888
 3264SOL    HW210692   1.376   4.443   0.904
 3265SOL     OW10693   4.752   1.301   6.132
 3265SOL    HW110694   4.699   1.360   6.072
 3265SOL    HW210695   4.738   1.206   6.107
 3266SOL     OW10696   0.570   3.420   0.640
 3266SOL    HW110697   0.640   3.421   0.712
 3266SOL    HW210698   0.479   3.413   0.681
 3267SOL     OW10699   3.299   1.145   0.319
 3267SOL    HW110700   3.246   1.176   0.398
 3267SOL    HW210701   3.324   1.224   0.263
 3268SOL     OW10702   1.110   4.172   0.486
 3268SOL    HW110703   1.187   4.230   0.509
 3268SOL    HW210704   1.073   4.198   0.397
 3269SOL     OW10705   4.167   4.822   2.618
 3269SOL    HW110706   4.196   4.748   2.679
 3269SOL    HW210707   4.169   4.909   2.667
 3270SOL     OW10708   0.752   4.225   4.753
 3270SOL    HW110709   0.827   4.208   4.688
 3270SOL    HW210710   0.777   4.301   4.813
 3271SOL     OW10711   5.778   3.521   2.526
 3271SOL    HW110712   5.720   3.603   2.525
 3271SOL    HW210713   5.824   3.511   2.438
 3272SOL     OW10714   3.450   4.239   6.376
 3272SOL    HW110715   3.356   4.212   6.353
 3272SOL    HW210716   3.448   4.324   6.428
 3273SOL     OW10717   0.804   6.136   1.527
 3273SOL    HW110718   0.756   6.221   1.507
 3273SOL    HW210719   0.795   6.115   1.625
 3274SOL     OW10720   4.655   1.473   1.613
 3274SOL    HW110721   4.728   1.421   1.569
 3274SOL    HW210722   4.596   1.514   1.543
 3275SOL     OW10723   0.120   1.211   6.490
 3275SOL    HW110724   0.092   1.198   6.585
 3275SOL    HW210725   0.220   1.207   6.485
 3276SOL     OW10726   3.107   5.733   0.149
 3276SOL    HW110727   3.185   5.794   0.159
 3276SOL    HW210728   3.046   5.743   0.228
 3277SOL     OW10729   4.753   6.731   0.619
 3277SOL    HW110730   4.726   6.641   0.586
 3277SOL    HW210731   4.753   6.795   0.542
 3278SOL     OW10732   0.477   1.096   6.195
 3278SOL    HW110733   0.474   1.134   6.287
 3278SOL    HW210734   0.389   1.055   6.172
 3279SOL     OW10735   5.725   1.240   0.774
 3279SOL    HW110736   5.810   1.280   0.808
 3279SOL    HW210737   5.731   1.229   0.674
 3280SOL     OW10738   3.742   5.233   4.834
 3280SOL    HW110739   3.709   5.264   4.745
 3280SOL    HW210740   3.744   5.133   4.836
 3281SOL     OW10741   2.114   5.517   1.801
 3281SOL    HW110742   2.194   5.509   1.743
 3281SOL    HW210743   2.142   5.531   1.896
 3282SOL     OW10744   0.869   4.908   5.556
 3282SOL    HW110745   0.937   4.892   5.628
 3282SOL    HW210746   0.781   4.930   5.599
 3283SOL     OW10747   4.137   1.131   1.070
 3283SOL    HW110748   4.117   1.078   0.988
 3283SOL    HW210749   4.101   1.224   1.059
 3284SOL     OW10750   6.393   5.336   6.804
 3284SOL    HW110751   6.445   5.291   6.876
 3284SOL    HW210752   6.428   5.308   6.715
 3285SOL     OW10753   4.750   2.912   3.889
 3285SOL    HW110754   4.768   3.008   3.869
 3285SOL    HW210755   4.791   2.888   3.977
 3286SOL     OW10756   4.119   3.539   2.306
 3286SOL    HW110757   4.032   3.498   2.329
 3286SOL    HW210758   4.184   3.526   2.382
 3287SOL     OW10759   1.058   6.770   6.807
 3287SOL    HW110760   1.092   6.773   6.901
 3287SOL    HW210761   1.135   6.756   6.745
 3288SOL     OW10762   0.558   5.570   6.324
 3288SOL    HW110763   0.633   5.621   6.282
 3288SOL    HW210764   0.547   5.599   6.419
 3289SOL     OW10765   2.742   6.485   5.447
 3289SOL    HW110766   2.665   6.547   5.431
 3289SOL    HW210767   2.752   6.469   5.545
 3290SOL     OW10768   0.442   6.963   1.788
 3290SOL    HW110769   0.487   7.020   1.857
 3290SOL    HW210770   0.470   6.868   1.799
 3291SOL     OW10771   1.338   5.873   1.225
 3291SOL    HW110772   1.258   5.899   1.171
 3291SOL    HW210773   1.354   5.775   1.215
 3292SOL     OW10774   0.579   0.596   1.185
 3292SOL    HW110775   0.649   0.558   1.245
 3292SOL    HW210776   0.615   0.602   1.092
 3293SOL     OW10777   0.690   3.666   3.345
 3293SOL    HW110778   0.651   3.707   3.263
 3293SOL    HW210779   0.738   3.735   3.398
 3294SOL     OW10780   6.885   1.524   5.986
 3294SOL    HW110781   6.848   1.508   6.078
 3294SOL    HW210782   6.882   1.621   5.965
 3295SOL     OW10783   1.357   3.093   1.639
 3295SOL    HW110784   1.403   3.023   1.693
 3295SOL    HW210785   1.331   3.169   1.699
 3296SOL     OW10786   1.643   6.322   2.165
 3296SOL    HW110787   1.717   6.260   2.193
 3296SOL    HW210788   1.557   6.271   2.162
 3297SOL     OW10789   3.306   0.592   4.754
 3297SOL    HW110790   3.224   0.613   4.807
 3297SOL    HW210791   3.361   0.675   4.743
 3298SOL     OW10792   5.739   1.841   4.638
 3298SOL    HW110793   5.720   1.749   4.602
 3298SOL    HW210794   5.837   1.850   4.654
 3299SOL     OW10795   2.992   5.656   3.938
 3299SOL    HW110796   2.930   5.680   4.012
 3299SOL    HW210797   3.020   5.560   3.948
 3300SOL     OW10798   0.461   0.963   5.617
 3300SOL    HW110799   0.483   0.873   5.578
 3300SOL    HW210800   0.361   0.974   5.618
 3301SOL     OW10801   2.225   2.959   3.491
 3301SOL    HW110802   2.164   2.913   3.426
 3301SOL    HW210803   2.181   3.043   3.523
 3302SOL     OW10804   0.646   5.240   5.626
 3302SOL    HW110805   0.635   5.323   5.571
 3302SOL    HW210806   0.734   5.242   5.673
 3303SOL     OW10807   3.455   3.286   2.138
 3303SOL    HW110808   3.459   3.192   2.172
 3303SOL    HW210809   3.421   3.346   2.210
 3304SOL     OW10810   1.462   5.392   4.258
 3304SOL    HW110811   1.557   5.418   4.242
 3304SOL    HW210812   1.405   5.430   4.185
 3305SOL     OW10813   2.014   1.278   3.221
 3305SOL    HW110814   2.033   1.369   3.186
 3305SOL    HW210815   2.056   1.267   3.311
 3306SOL     OW10816   2.032   5.664   4.855
 3306SOL    HW110817   1.935   5.659   4.877
 3306SOL    HW210818   2.068   5.754   4.878
 3307SOL     OW10819   6.725   5.765   0.091
 3307SOL    HW110820   6.783   5.755   0.010
 3307SOL    HW210821   6.671   5.848   0.083
 3308SOL     OW10822   4.219   5.928   0.104
 3308SOL    HW110823   4.202   5.880   0.017
 3308SOL    HW210824   4.151   5.899   0.171
 3309SOL     OW10825   7.017   5.658   2.550
 3309SOL    HW110826   6.960   5.586   2.592
 3309SOL    HW210827   0.090   5.634   2.560
 3310SOL     OW10828   0.439   4.127   5.176
 3310SOL    HW110829   0.345   4.149   5.202
 3310SOL    HW210830   0.439   4.053   5.109
 3311SOL     OW10831   2.347   3.708   1.443
 3311SOL    HW110832   2.277   3.769   1.482
 3311SOL    HW210833   2.304   3.625   1.410
 3312SOL     OW10834   4.238   4.281   5.893
 3312SOL    HW110835   4.153   4.229   5.894
 3312SOL    HW210836   4.265   4.299   5.799
 3313SOL     OW10837   0.634   5.077   3.386
 3313SOL    HW110838   0.616   5.104   3.480
 3313SOL    HW210839   0.599   5.148   3.324
 3314SOL     OW10840   2.442   1.743   3.813
 3314SOL    HW110841   2.516   1.747   3.746
 3314SOL    HW210842   2.356   1.771   3.769
 3315SOL     OW10843   6.243   3.129   4.641
 3315SOL    HW110844   6.193   3.077   4.710
 3315SOL    HW210845   6.270   3.068   4.567
 3316SOL     OW10846   4.595   2.056   6.171
 3316SOL    HW110847   4.672   1.993   6.181
 3316SOL    HW210848   4.559   2.049   6.078
 3317SOL     OW10849   4.753   3.556   1.617
 3317SOL    HW110850   4.835   3.540   1.561
 3317SOL    HW210851   4.781   3.596   1.705
 3318SOL     OW10852   3.479   0.422   0.307
 3318SOL    HW110853   3.413   0.419   0.232
 3318SOL    HW210854   3.511   0.329   0.327
 3319SOL     OW10855   6.082   0.188   4.010
 3319SOL    HW110856   6.179   0.196   3.987
 3319SOL    HW210857   6.072   0.191   4.110
 3320SOL     OW10858   5.838   1.039   5.338
 3320SOL    HW110859   5.833   0.950   5.293
 3320SOL    HW210860   5.836   1.027   5.437
 3321SOL     OW10861   3.802   2.068   0.756
 3321SOL    HW110862   3.886   2.115   0.784
 3321SOL    HW210863   3.724   2.110   0.802
 3322SOL     OW10864   5.516   3.408   1.205
 3322SOL    HW110865   5.548   3.428   1.112
 3322SOL    HW210866   5.420   3.382   1.202
 3323SOL     OW10867   3.117   3.273   6.665
 3323SOL    HW110868   3.120   3.334   6.744
 3323SOL    HW210869   3.021   3.252   6.643
 3324SOL     OW10870   1.537   3.922   6.378
 3324SOL    HW110871   1.496   4.013   6.379
 3324SOL    HW210872   1.586   3.909   6.292
 3325SOL     OW10873   2.011   3.114   6.462
 3325SOL    HW110874   2.002   3.113   6.363
 3325SOL    HW210875   2.008   3.208   6.495
 3326SOL     OW10876   5.391   1.973   2.500
 3326SOL    HW110877   5.394   1.889   2.445
 3326SOL    HW210878   5.312   1.969   2.561
 3327SOL     OW10879   3.094   5.662   1.955
 3327SOL    HW110880   3.145   5.744   1.979
 3327SOL    HW210881   3.127   5.627   1.867
 3328SOL     OW10882   4.299   1.865   1.308
 3328SOL    HW110883   4.271   1.838   1.400
 3328SOL    HW210884   4.273   1.960   1.292
 3329SOL     OW10885   5.411   0.414   5.130
 3329SOL    HW110886   5.490   0.473   5.151
 3329SOL    HW210887   5.369   0.444   5.044
 3330SOL     OW10888   6.387   5.642   1.369
 3330SOL    HW110889   6.445   5.616   1.446
 3330SOL    HW210890   6.293   5.654   1.402
 3331SOL     OW10891   1.294   3.860   1.417
 3331SOL    HW110892   1.284   3.840   1.515
 3331SOL    HW210893   1.391   3.859   1.393
 3332SOL     OW10894   6.877   4.500   0.414
 3332SOL    HW110895   6.815   4.467   0.342
 3332SOL    HW210896   6.918   4.423   0.461
 3333SOL     OW10897   2.808   4.318   6.707
 3333SOL    HW110898   2.856   4.391   6.659
 3333SOL    HW210899   2.806   4.339   6.805
 3334SOL     OW10900   2.289   4.113   1.333
 3334SOL    HW110901   2.262   4.209   1.330
 3334SOL    HW210902   2.350   4.097   1.410
 3335SOL     OW10903   4.660   0.137   5.720
 3335SOL    HW110904   4.662   0.074   5.642
 3335SOL    HW210905   4.620   0.224   5.691
 3336SOL     OW10906   2.237   6.330   4.502
 3336SOL    HW110907   2.154   6.347   4.449
 3336SOL    HW210908   2.304   6.282   4.444
 3337SOL     OW10909   2.976   4.003   1.450
 3337SOL    HW110910   3.055   4.064   1.437
 3337SOL    HW210911   2.908   4.050   1.506
 3338SOL     OW10912   6.230   2.632   2.153
 3338SOL    HW110913   6.287   2.705   2.192
 3338SOL    HW210914   6.134   2.647   2.179
 3339SOL     OW10915   1.036   6.749   6.360
 3339SOL    HW110916   1.106   6.749   6.431
 3339SOL    HW210917   0.999   6.841   6.350
 3340SOL     OW10918   3.540   2.048   3.253
 3340SOL    HW110919   3.639   2.053   3.241
 3340SOL    HW210920   3.517   2.066   3.348
 3341SOL     OW10921   1.043   4.160   4.243
 3341SOL    HW110922   1.138   4.139   4.222
 3341SOL    HW210923   1.015   4.110   4.325
 3342SOL     OW10924   1.073   6.685   3.893
 3342SOL    HW110925   1.039   6.606   3.841
 3342SOL    HW210926   1.160   6.714   3.855
 3343SOL     OW10927   5.137   3.698   6.943
 3343SOL    HW110928   5.166   3.776   6.887
 3343SOL    HW210929   5.077   3.639   6.889
 3344SOL     OW10930   5.436   3.744   3.427
 3344SOL    HW110931   5.521   3.700   3.455
 3344SOL    HW210932   5.446   3.777   3.333
 3345SOL     OW10933   1.178   3.142   5.933
 3345SOL    HW110934   1.096   3.199   5.939
 3345SOL    HW210935   1.255   3.198   5.902
 3346SOL     OW10936   0.760   0.765   0.092
 3346SOL    HW110937   0.757   0.700   0.168
 3346SOL    HW210938   0.839   0.745   0.034
 3347SOL     OW10939   1.260   2.785   5.041
 3347SOL    HW110940   1.314   2.747   5.116
 3347SOL    HW210941   1.321   2.823   4.971
 3348SOL     OW10942   4.136   3.584   4.260
 3348SOL    HW110943   4.100   3.530   4.184
 3348SOL    HW210944   4.235   3.594   4.250
 3349SOL     OW10945   1.978   5.105   3.082
 3349SOL    HW110946   1.983   5.093   2.983
 3349SOL    HW210947   2.006   5.021   3.128
 3350SOL     OW10948   6.718   2.219   5.963
 3350SOL    HW110949   6.698   2.191   6.056
 3350SOL    HW210950   6.641   2.196   5.903
 3351SOL     OW10951   4.788   0.878   2.935
 3351SOL    HW110952   4.874   0.830   2.918
 3351SOL    HW210953   4.801   0.976   2.920
 3352SOL     OW10954   6.670   3.338   0.941
 3352SOL    HW110955   6.578   3.350   0.978
 3352SOL    HW210956   6.683   3.244   0.911
 3353SOL     OW10957   2.868   5.686   1.202
 3353SOL    HW110958   2.962   5.660   1.228
 3353SOL    HW210959   2.803   5.633   1.257
 3354SOL     OW10960   4.546   2.716   5.767
 3354SOL    HW110961   4.545   2.802   5.716
 3354SOL    HW210962   4.467   2.661   5.741
 3355SOL     OW10963   1.826   1.940   6.313
 3355SOL    HW110964   1.744   1.927   6.257
 3355SOL    HW210965   1.833   2.036   6.339
 3356SOL     OW10966   0.652   5.492   5.913
 3356SOL    HW110967   0.703   5.407   5.924
 3356SOL    HW210968   0.715   5.566   5.889
 3357SOL     OW10969   2.103   3.608   1.722
 3357SOL    HW110970   2.071   3.680   1.783
 3357SOL    HW210971   2.115   3.523   1.773
 3358SOL     OW10972   4.453   1.512   1.432
 3358SOL    HW110973   4.370   1.568   1.437
 3358SOL    HW210974   4.514   1.549   1.362
 3359SOL     OW10975   0.944   6.280   3.018
 3359SOL    HW110976   0.909   6.359   3.068
 3359SOL    HW210977   0.947   6.300   2.920
 3360SOL     OW10978   1.579   0.854   0.245
 3360SOL    HW110979   1.641   0.863   0.168
 3360SOL    HW210980   1.606   0.918   0.318
 3361SOL     OW10981   6.976   5.165   4.698
 3361SOL    HW110982   6.879   5.143   4.691
 3361SOL    HW210983   6.989   5.263   4.683
 3362SOL     OW10984   3.429   1.568   2.777
 3362SOL    HW110985   3.489   1.647   2.766
 3362SOL    HW210986   3.474   1.499   2.833
 3363SOL     OW10987   0.128   1.347   2.399
 3363SOL    HW110988   0.135   1.396   2.486
 3363SOL    HW210989   0.189   1.390   2.332
 3364SOL     OW10990   1.736   4.884   3.557
 3364SOL    HW110991   1.773   4.975   3.575
 3364SOL    HW210992   1.773   4.849   3.471
 3365SOL     OW10993   0.666   2.304   4.659
 3365SOL    HW110994   0.567   2.300   4.644
 3365SOL    HW210995   0.689   2.385   4.713
 3366SOL     OW10996   5.600   5.384   4.169
 3366SOL    HW110997   5.600   5.284   4.175
 3366SOL    HW210998   5.526   5.414   4.110
 3367SOL     OW10999   3.872   3.055   2.596
 3367SOL    HW111000   3.779   3.018   2.600
 3367SOL    HW211001   3.911   3.056   2.688
 3368SOL     OW11002   0.417   5.877   6.886
 3368SOL    HW111003   0.328   5.910   6.855
 3368SOL    HW211004   0.428   5.781   6.858
 3369SOL     OW11005   3.754   1.724   0.603
 3369SOL    HW111006   3.732   1.634   0.643
 3369SOL    HW211007   3.675   1.784   0.612
 3370SOL     OW11008   6.983   6.272   0.961
 3370SOL    HW111009   6.911   6.337   0.939
 3370SOL    HW211010   6.985   6.256   1.060
 3371SOL     OW11011   2.087   2.998   1.597
 3371SOL    HW111012   2.081   3.010   1.696
 3371SOL    HW211013   2.052   2.908   1.572
 3372SOL     OW11014   6.689   1.963   0.052
 3372SOL    HW111015   6.677   1.978   6.977
 3372SOL    HW211016   6.672   1.866   0.073
 3373SOL     OW11017   0.973   1.490   3.718
 3373SOL    HW111018   0.939   1.577   3.681
 3373SOL    HW211019   1.004   1.504   3.812
 3374SOL     OW11020   1.309   6.636   4.668
 3374SOL    HW111021   1.294   6.643   4.570
 3374SOL    HW211022   1.397   6.593   4.686
 3375SOL     OW11023   0.269   4.775   0.170
 3375SOL    HW111024   0.204   4.740   0.102
 3375SOL    HW211025   0.306   4.863   0.139
 3376SOL     OW11026   4.009   3.062   4.307
 3376SOL    HW111027   4.035   3.124   4.381
 3376SOL    HW211028   4.090   3.012   4.276
 3377SOL     OW11029   6.506   5.916   5.999
 3377SOL    HW111030   6.422   5.967   6.013
 3377SOL    HW211031   6.526   5.861   6.080
 3378SOL     OW11032   1.054   0.341   0.704
 3378SOL    HW111033   1.094   0.267   0.758
 3378SOL    HW211034   1.088   0.338   0.610
 3379SOL     OW11035   1.432   1.790   5.311
 3379SOL    HW111036   1.352   1.787   5.252
 3379SOL    HW211037   1.501   1.727   5.277
 3380SOL     OW11038   6.121   6.160   4.280
 3380SOL    HW111039   6.146   6.124   4.370
 3380SOL    HW211040   6.195   6.218   4.246
 3381SOL     OW11041   0.816   3.052   1.632
 3381SOL    HW111042   0.780   2.960   1.642
 3381SOL    HW211043   0.768   3.098   1.557
 3382SOL     OW11044   0.651   2.759   6.995
 3382SOL    HW111045   0.625   2.698   0.047
 3382SOL    HW211046   0.576   2.821   6.974
 3383SOL     OW11047   3.949   5.833   1.390
 3383SOL    HW111048   4.032   5.887   1.382
 3383SOL    HW211049   3.951   5.781   1.475
 3384SOL     OW11050   2.583   3.420   0.501
 3384SOL    HW111051   2.625   3.330   0.489
 3384SOL    HW211052   2.548   3.429   0.594
 3385SOL     OW11053   6.918   3.242   4.915
 3385SOL    HW111054   6.825   3.274   4.897
 3385SOL    HW211055   6.932   3.234   5.013
 3386SOL     OW11056   5.194   4.387   0.422
 3386SOL    HW111057   5.232   4.336   0.498
 3386SOL    HW211058   5.138   4.463   0.458
 3387SOL     OW11059   3.499   0.929   3.195
 3387SOL    HW111060   3.550   0.846   3.172
 3387SOL    HW211061   3.402   0.917   3.172
 3388SOL     OW11062   5.302   3.312   2.557
 3388SOL    HW111063   5.393   3.295   2.595
 3388SOL    HW211064   5.287   3.411   2.552
 3389SOL     OW11065   5.840   5.982   6.154
 3389SOL    HW111066   5.870   5.892   6.120
 3389SOL    HW211067   5.761   6.012   6.101
 3390SOL     OW11068   5.917   6.783   6.385
 3390SOL    HW111069   5.822   6.797   6.411
 3390SOL    HW211070   5.970   6.756   6.466
 3391SOL     OW11071   4.650   2.240   4.578
 3391SOL    HW111072   4.689   2.267   4.666
 3391SOL    HW211073   4.565   2.290   4.563
 3392SOL     OW11074   2.816   0.128   3.710
 3392SOL    HW111075   2.834   0.145   3.807
 3392SOL    HW211076   2.760   0.046   3.700
 3393SOL     OW11077   6.265   5.855   1.203
 3393SOL    HW111078   6.326   5.783   1.170
 3393SOL    HW211079   6.311   5.944   1.196
 3394SOL     OW11080   5.273   3.321   1.152
 3394SOL    HW111081   5.253   3.358   1.243
 3394SOL    HW211082   5.237   3.228   1.145
 3395SOL     OW11083   5.389   2.963   3.860
 3395SOL    HW111084   5.328   2.884   3.848
 3395SOL    HW211085   5.479   2.941   3.822
 3396SOL     OW11086   5.300   1.186   3.617
 3396SOL    HW111087   5.221   1.173   3.677
 3396SOL    HW211088   5.384   1.184   3.672
 3397SOL     OW11089   3.319   6.104   6.179
 3397SOL    HW111090   3.269   6.092   6.265
 3397SOL    HW211091   3.287   6.036   6.113
 3398SOL     OW11092   0.839   0.158   5.062
 3398SOL    HW111093   0.814   0.112   4.977
 3398SOL    HW211094   0.789   0.117   5.138
 3399SOL     OW11095   5.577   4.926   3.578
 3399SOL    HW111096   5.595   4.838   3.533
 3399SOL    HW211097   5.479   4.934   3.598
 3400SOL     OW11098   5.230   3.335   6.679
 3400SOL    HW111099   5.176   3.410   6.641
 3400SOL    HW211100   5.297   3.373   6.743
 3401SOL     OW11101   6.986   3.376   6.760
 3401SOL    HW111102   6.928   3.426   6.695
 3401SOL    HW211103   0.056   3.373   6.726
 3402SOL     OW11104   4.393   5.387   6.745
 3402SOL    HW111105   4.461   5.459   6.738
 3402SOL    HW211106   4.301   5.426   6.734
 3403SOL     OW11107   3.778   5.828   6.329
 3403SOL    HW111108   3.831   5.769   6.268
 3403SOL    HW211109   3.692   5.853   6.285
 3404SOL     OW11110   5.373   2.263   0.879
 3404SOL    HW111111   5.390   2.166   0.895
 3404SOL    HW211112   5.459   2.310   0.864
 3405SOL     OW11113   6.692   4.064   5.981
 3405SOL    HW111114   6.730   4.034   6.069
 3405SOL    HW211115   6.598   4.030   5.974
 3406SOL     OW11116   0.859   3.305   2.132
 3406SOL    HW111117   0.771   3.299   2.179
 3406SOL    HW211118   0.847   3.278   2.036
 3407SOL     OW11119   1.145   4.221   6.443
 3407SOL    HW111120   1.157   4.242   6.346
 3407SOL    HW211121   1.100   4.132   6.453
 3408SOL     OW11122   5.305   3.418   4.711
 3408SOL    HW111123   5.208   3.442   4.722
 3408SOL    HW211124   5.324   3.398   4.615
 3409SOL     OW11125   3.520   6.100   6.931
 3409SOL    HW111126   3.607   6.071   6.971
 3409SOL    HW211127   3.528   6.102   6.831
 3410SOL     OW11128   6.707   6.957   1.614
 3410SOL    HW111129   6.669   6.906   1.537
 3410SOL    HW211130   6.651   0.014   1.632
 3411SOL     OW11131   0.402   3.000   1.249
 3411SOL    HW111132   0.481   2.953   1.209
 3411SOL    HW211133   0.333   3.017   1.178
 3412SOL     OW11134   4.924   2.999   1.211
 3412SOL    HW111135   4.899   3.087   1.252
 3412SOL    HW211136   4.842   2.957   1.172
 3413SOL     OW11137   6.102   1.837   0.836
 3413SOL    HW111138   6.096   1.899   0.757
 3413SOL    HW211139   6.013   1.832   0.881
 3414SOL     OW11140   3.457   1.765   6.119
 3414SOL    HW111141   3.530   1.697   6.120
 3414SOL    HW211142   3.434   1.789   6.024
 3415SOL     OW11143   2.077   3.191   4.159
 3415SOL    HW111144   2.098   3.194   4.257
 3415SOL    HW211145   2.029   3.274   4.133
 3416SOL     OW11146   5.930   6.562   0.706
 3416SOL    HW111147   5.934   6.631   0.777
 3416SOL    HW211148   5.836   6.530   0.695
 3417SOL     OW11149   0.270   5.811   3.393
 3417SOL    HW111150   0.363   5.845   3.380
 3417SOL    HW211151   0.234   5.844   3.480
 3418SOL     OW11152   2.948   5.702   3.508
 3418SOL    HW111153   3.030   5.724   3.562
 3418SOL    HW211154   2.879   5.772   3.523
 3419SOL     OW11155   2.993   5.877   5.895
 3419SOL    HW111156   3.017   5.814   5.822
 3419SOL    HW211157   2.934   5.831   5.962
 3420SOL     OW11158   5.837   2.850   3.300
 3420SOL    HW111159   5.874   2.943   3.295
 3420SOL    HW211160   5.877   2.795   3.227
 3421SOL     OW11161   4.998   1.651   4.466
 3421SOL    HW111162   4.941   1.723   4.428
 3421SOL    HW211163   4.954   1.562   4.449
 3422SOL     OW11164   2.785   0.358   0.458
 3422SOL    HW111165   2.725   0.318   0.389
 3422SOL    HW211166   2.780   0.458   0.453
 3423SOL     OW11167   0.092   4.636   6.540
 3423SOL    HW111168   0.019   4.689   6.584
 3423SOL    HW211169   0.088   4.649   6.441
 3424SOL     OW11170   1.996   6.436   0.808
 3424SOL    HW111171   2.050   6.418   0.890
 3424SOL    HW211172   2.056   6.438   0.728
 3425SOL     OW11173   5.064   4.913   2.566
 3425SOL    HW111174   5.063   4.997   2.512
 3425SOL    HW211175   5.131   4.850   2.527
 3426SOL     OW11176   4.268   2.590   0.617
 3426SOL    HW111177   4.258   2.556   0.523
 3426SOL    HW211178   4.363   2.579   0.646
 3427SOL     OW11179   0.808   1.540   0.975
 3427SOL    HW111180   0.882   1.521   0.910
 3427SOL    HW211181   0.767   1.629   0.953
 3428SOL     OW11182   2.319   4.933   0.021
 3428SOL    HW111183   2.413   4.928   0.055
 3428SOL    HW211184   2.256   4.905   0.094
 3429SOL     OW11185   0.243   1.852   0.844
 3429SOL    HW111186   0.230   1.933   0.901
 3429SOL    HW211187   0.250   1.771   0.902
 3430SOL     OW11188   1.508   6.503   6.026
 3430SOL    HW111189   1.551   6.594   6.018
 3430SOL    HW211190   1.517   6.455   5.938
 3431SOL     OW11191   1.199   6.919   1.527
 3431SOL    HW111192   1.142   6.973   1.465
 3431SOL    HW211193   1.281   6.889   1.478
 3432SOL     OW11194   1.754   3.605   5.466
 3432SOL    HW111195   1.665   3.565   5.488
 3432SOL    HW211196   1.768   3.603   5.367
 3433SOL     OW11197   1.614   7.008   5.191
 3433SOL    HW111198   1.686   0.042   5.152
 3433SOL    HW211199   1.655   6.930   5.238
 3434SOL     OW11200   4.325   0.927   2.165
 3434SOL    HW111201   4.259   0.930   2.089
 3434SOL    HW211202   4.295   0.861   2.233
 3435SOL     OW11203   1.612   0.958   1.149
 3435SOL    HW111204   1.694   0.972   1.205
 3435SOL    HW211205   1.573   0.868   1.170
 3436SOL     OW11206   3.954   6.251   0.247
 3436SOL    HW111207   3.934   6.184   0.175
 3436SOL    HW211208   3.934   6.343   0.213
 3437SOL     OW11209   2.746   7.009   5.649
 3437SOL    HW111210   2.803   0.064   5.628
 3437SOL    HW211211   2.690   0.005   5.730
 3438SOL     OW11212   1.029   2.920   0.686
 3438SOL    HW111213   0.948   2.867   0.660
 3438SOL    HW211214   1.005   3.017   0.687
 3439SOL     OW11215   2.433   6.014   4.605
 3439SOL    HW111216   2.468   6.107   4.593
 3439SOL    HW211217   2.506   5.956   4.641
 3440SOL     OW11218   2.858   3.360   1.925
 3440SOL    HW111219   2.869   3.417   2.006
 3440SOL    HW211220   2.894   3.268   1.943
 3441SOL     OW11221   6.468   5.725   6.245
 3441SOL    HW111222   6.442   5.799   6.307
 3441SOL    HW211223   6.414   5.644   6.266
 3442SOL     OW11224   2.155   4.288   1.529
 3442SOL    HW111225   2.070   4.304   1.578
 3442SOL    HW211226   2.154   4.339   1.443
 3443SOL     OW11227   3.536   6.189   2.225
 3443SOL    HW111228   3.447   6.226   2.198
 3443SOL    HW211229   3.522   6.110   2.285
 3444SOL     OW11230   5.038   5.369   0.071
 3444SOL    HW111231   4.965   5.339   0.008
 3444SOL    HW211232   5.005   5.362   0.165
 3445SOL     OW11233   5.854   5.140   2.896
 3445SOL    HW111234   5.811   5.195   2.968
 3445SOL    HW211235   5.952   5.160   2.894
 3446SOL     OW11236   6.068   1.062   1.535
 3446SOL    HW111237   5.980   1.015   1.537
 3446SOL    HW211238   6.098   1.081   1.628
 3447SOL     OW11239   4.771   5.667   0.957
 3447SOL    HW111240   4.828   5.667   1.040
 3447SOL    HW211241   4.676   5.649   0.982
 3448SOL     OW11242   4.024   0.447   6.401
 3448SOL    HW111243   4.011   0.417   6.306
 3448SOL    HW211244   4.089   0.523   6.402
 3449SOL     OW11245   5.935   5.349   4.558
 3449SOL    HW111246   5.960   5.353   4.462
 3449SOL    HW211247   5.980   5.423   4.607
 3450SOL     OW11248   0.458   2.090   6.917
 3450SOL    HW111249   0.371   2.071   6.871
 3450SOL    HW211250   0.453   2.059   7.012
 3451SOL     OW11251   2.483   6.450   0.032
 3451SOL    HW111252   2.544   6.407   6.989
 3451SOL    HW211253   2.424   6.380   0.073
 3452SOL     OW11254   5.579   0.851   6.727
 3452SOL    HW111255   5.547   0.803   6.810
 3452SOL    HW211256   5.545   0.946   6.729
 3453SOL     OW11257   6.148   6.037   6.634
 3453SOL    HW111258   6.129   6.117   6.692
 3453SOL    HW211259   6.168   5.958   6.692
 3454SOL     OW11260   1.052   3.230   5.026
 3454SOL    HW111261   1.045   3.227   4.927
 3454SOL    HW211262   0.960   3.220   5.066
 3455SOL     OW11263   2.447   2.061   4.427
 3455SOL    HW111264   2.422   2.131   4.359
 3455SOL    HW211265   2.408   1.973   4.400
 3456SOL     OW11266   5.497   5.307   1.621
 3456SOL    HW111267   5.544   5.235   1.571
 3456SOL    HW211268   5.549   5.392   1.613
 3457SOL     OW11269   2.917   5.667   3.220
 3457SOL    HW111270   2.910   5.747   3.160
 3457SOL    HW211271   2.936   5.697   3.313
 3458SOL     OW11272   4.779   0.917   1.896
 3458SOL    HW111273   4.690   0.954   1.924
 3458SOL    HW211274   4.797   0.944   1.801
 3459SOL     OW11275   4.988   2.835   2.885
 3459SOL    HW111276   5.046   2.757   2.906
 3459SOL    HW211277   5.036   2.920   2.908
 3460SOL     OW11278   2.397   2.034   6.841
 3460SOL    HW111279   2.366   2.000   6.753
 3460SOL    HW211280   2.496   2.019   6.850
 3461SOL     OW11281   4.653   4.026   6.397
 3461SOL    HW111282   4.691   4.075   6.476
 3461SOL    HW211283   4.711   4.040   6.318
 3462SOL     OW11284   0.317   3.479   4.558
 3462SOL    HW111285   0.401   3.459   4.609
 3462SOL    HW211286   0.336   3.548   4.489
 3463SOL     OW11287   1.175   4.232   2.112
 3463SOL    HW111288   1.167   4.317   2.060
 3463SOL    HW211289   1.129   4.159   2.062
 3464SOL     OW11290   6.858   4.811   5.438
 3464SOL    HW111291   6.895   4.808   5.531
 3464SOL    HW211292   6.883   4.727   5.390
 3465SOL     OW11293   1.550   1.949   2.427
 3465SOL    HW111294   1.533   1.982   2.520
 3465SOL    HW211295   1.519   1.854   2.418
 3466SOL     OW11296   6.479   5.329   6.545
 3466SOL    HW111297   6.409   5.390   6.508
 3466SOL    HW211298   6.495   5.253   6.482
 3467SOL     OW11299   1.863   2.991   6.796
 3467SOL    HW111300   1.939   3.056   6.787
 3467SOL    HW211301   1.785   3.037   6.837
 3468SOL     OW11302   4.295   6.648   3.068
 3468SOL    HW111303   4.229   6.593   3.018
 3468SOL    HW211304   4.247   6.711   3.129
 3469SOL     OW11305   5.053   0.049   3.312
 3469SOL    HW111306   5.153   0.043   3.317
 3469SOL    HW211307   5.025   0.144   3.321
 3470SOL     OW11308   5.960   3.803   1.036
 3470SOL    HW111309   5.997   3.812   0.943
 3470SOL    HW211310   6.033   3.818   1.102
 3471SOL     OW11311   3.964   5.066   3.958
 3471SOL    HW111312   3.943   5.082   3.862
 3471SOL    HW211313   4.003   5.149   3.999
 3472SOL     OW11314   2.474   0.738   2.511
 3472SOL    HW111315   2.432   0.828   2.505
 3472SOL    HW211316   2.409   0.669   2.477
 3473SOL     OW11317   0.339   2.353   0.948
 3473SOL    HW111318   0.417   2.374   0.890
 3473SOL    HW211319   0.371   2.330   1.040
 3474SOL     OW11320   2.266   4.756   1.740
 3474SOL    HW111321   2.348   4.778   1.792
 3474SOL    HW211322   2.259   4.656   1.729
 3475SOL     OW11323   1.345   5.591   5.034
 3475SOL    HW111324   1.419   5.593   4.967
 3475SOL    HW211325   1.290   5.674   5.027
 3476SOL     OW11326   3.399   2.071   3.040
 3476SOL    HW111327   3.315   2.125   3.047
 3476SOL    HW211328   3.451   2.079   3.125
 3477SOL     OW11329   3.250   5.197   0.532
 3477SOL    HW111330   3.197   5.251   0.598
 3477SOL    HW211331   3.256   5.102   0.563
 3478SOL     OW11332   2.183   5.894   4.461
 3478SOL    HW111333   2.193   5.803   4.503
 3478SOL    HW211334   2.121   5.949   4.516
 3479SOL     OW11335   1.750   0.734   2.699
 3479SOL    HW111336   1.740   0.816   2.642
 3479SOL    HW211337   1.759   0.762   2.795
 3480SOL     OW11338   0.290   0.029   5.304
 3480SOL    HW111339   0.352   7.005   5.366
 3480SOL    HW211340   0.239   0.098   5.354
 3481SOL     OW11341   5.114   0.221   0.293
 3481SOL    HW111342   5.103   0.131   0.250
 3481SOL    HW211343   5.172   0.212   0.374
 3482SOL     OW11344   5.774   1.680   1.413
 3482SOL    HW111345   5.778   1.699   1.511
 3482SOL    HW211346   5.685   1.708   1.378
 3483SOL     OW11347   4.808   1.050   1.630
 3483SOL    HW111348   4.846   0.981   1.569
 3483SOL    HW211349   4.818   1.141   1.589
 3484SOL     OW11350   2.900   3.560   1.282
 3484SOL    HW111351   2.881   3.499   1.359
 3484SOL    HW211352   2.824   3.557   1.217
 3485SOL     OW11353   1.386   0.089   4.028
 3485SOL    HW111354   1.346   0.063   4.116
 3485SOL    HW211355   1.364   0.019   3.960
 3486SOL     OW11356   2.918   1.328   2.488
 3486SOL    HW111357   2.839   1.388   2.484
 3486SOL    HW211358   2.996   1.371   2.442
 3487SOL     OW11359   5.777   2.714   5.574
 3487SOL    HW111360   5.861   2.722   5.521
 3487SOL    HW211361   5.786   2.640   5.640
 3488SOL     OW11362   6.124   2.336   4.446
 3488SOL    HW111363   6.036   2.319   4.491
 3488SOL    HW211364   6.195   2.346   4.516
 3489SOL     OW11365   2.993   0.021   0.507
 3489SOL    HW111366   3.082   0.031   0.463
 3489SOL    HW211367   2.968   0.107   0.552
 3490SOL     OW11368   4.098   4.810   6.727
 3490SOL    HW111369   4.009   4.764   6.727
 3490SOL    HW211370   4.162   4.758   6.670
 3491SOL     OW11371   6.039   2.528   5.263
 3491SOL    HW111372   6.011   2.436   5.291
 3491SOL    HW211373   6.132   2.524   5.225
 3492SOL     OW11374   1.059   5.715   1.017
 3492SOL    HW111375   1.081   5.691   0.922
 3492SOL    HW211376   1.095   5.644   1.078
 3493SOL     OW11377   6.177   4.889   6.610
 3493SOL    HW111378   6.272   4.892   6.577
 3493SOL    HW211379   6.126   4.821   6.558
 3494SOL     OW11380   3.906   0.721   1.773
 3494SOL    HW111381   3.992   0.675   1.749
 3494SOL    HW211382   3.898   0.806   1.722
 3495SOL     OW11383   4.463   5.255   2.110
 3495SOL    HW111384   4.425   5.245   2.019
 3495SOL    HW211385   4.404   5.313   2.166
 3496SOL     OW11386   0.095   3.905   0.842
 3496SOL    HW111387   0.131   3.900   0.935
 3496SOL    HW211388   0.078   3.812   0.808
 3497SOL     OW11389   3.642   6.863   3.688
 3497SOL    HW111390   3.562   6.873   3.629
 3497SOL    HW211391   3.710   6.933   3.665
 3498SOL     OW11392   1.803   2.859   0.867
 3498SOL    HW111393   1.881   2.903   0.824
 3498SOL    HW211394   1.834   2.782   0.923
 3499SOL     OW11395   4.541   2.598   4.446
 3499SOL    HW111396   4.629   2.608   4.399
 3499SOL    HW211397   4.540   2.655   4.528
 3500SOL     OW11398   1.135   3.945   4.992
 3500SOL    HW111399   1.086   3.888   4.926
 3500SOL    HW211400   1.233   3.942   4.972
 3501SOL     OW11401   1.781   5.128   3.914
 3501SOL    HW111402   1.702   5.118   3.853
 3501SOL    HW211403   1.760   5.086   4.003
 3502SOL     OW11404   6.592   2.317   2.231
 3502SOL    HW111405   6.500   2.329   2.193
 3502SOL    HW211406   6.605   2.222   2.258
 3503SOL     OW11407   6.457   5.913   4.989
 3503SOL    HW111408   6.410   5.842   5.041
 3503SOL    HW211409   6.397   5.946   4.916
 3504SOL     OW11410   2.342   1.686   1.025
 3504SOL    HW111411   2.267   1.640   0.977
 3504SOL    HW211412   2.332   1.672   1.123
 3505SOL     OW11413   5.464   5.065   4.744
 3505SOL    HW111414   5.374   5.053   4.785
 3505SOL    HW211415   5.534   5.066   4.815
 3506SOL     OW11416   4.944   6.626   5.449
 3506SOL    HW111417   5.005   6.680   5.508
 3506SOL    HW211418   4.851   6.631   5.483
 3507SOL     OW11419   2.431   0.804   0.160
 3507SOL    HW111420   2.471   0.891   0.130
 3507SOL    HW211421   2.487   0.728   0.128
 3508SOL     OW11422   2.811   2.491   5.884
 3508SOL    HW111423   2.866   2.545   5.821
 3508SOL    HW211424   2.870   2.438   5.945
 3509SOL     OW11425   5.722   0.026   6.394
 3509SOL    HW111426   5.747   6.996   6.475
 3509SOL    HW211427   5.733   6.994   6.312
 3510SOL     OW11428   2.051   2.437   1.303
 3510SOL    HW111429   2.073   2.357   1.248
 3510SOL    HW211430   2.130   2.461   1.360
 3511SOL     OW11431   2.085   4.826   0.278
 3511SOL    HW111432   1.992   4.800   0.305
 3511SOL    HW211433   2.135   4.859   0.358
 3512SOL     OW11434   6.871   4.049   0.832
 3512SOL    HW111435   6.956   3.996   0.833
 3512SOL    HW211436   6.822   4.035   0.918
 3513SOL     OW11437   6.171   4.046   0.034
 3513SOL    HW111438   6.166   4.139   0.071
 3513SOL    HW211439   6.195   3.982   0.107
 3514SOL     OW11440   0.052   1.265   2.137
 3514SOL    HW111441   7.010   1.190   2.125
 3514SOL    HW211442   0.029   1.317   2.219
 3515SOL     OW11443   4.913   6.276   3.214
 3515SOL    HW111444   4.932   6.332   3.295
 3515SOL    HW211445   4.876   6.187   3.243
 3516SOL     OW11446   4.442   6.879   1.028
 3516SOL    HW111447   4.445   6.957   1.091
 3516SOL    HW211448   4.502   6.898   0.949
 3517SOL     OW11449   1.032   2.159   0.595
 3517SOL    HW111450   0.946   2.107   0.602
 3517SOL    HW211451   1.108   2.095   0.583
 3518SOL     OW11452   5.682   4.122   4.752
 3518SOL    HW111453   5.727   4.144   4.839
 3518SOL    HW211454   5.748   4.079   4.690
 3519SOL     OW11455   1.805   0.734   6.680
 3519SOL    HW111456   1.706   0.727   6.688
 3519SOL    HW211457   1.846   0.642   6.686
 3520SOL     OW11458   2.980   4.521   6.661
 3520SOL    HW111459   2.994   4.530   6.760
 3520SOL    HW211460   3.045   4.580   6.613
 3521SOL     OW11461   5.671   3.149   0.921
 3521SOL    HW111462   5.768   3.129   0.936
 3521SOL    HW211463   5.615   3.083   0.972
 3522SOL     OW11464   5.152   5.038   2.089
 3522SOL    HW111465   5.224   4.971   2.107
 3522SOL    HW211466   5.063   4.992   2.089
 3523SOL     OW11467   2.564   4.774   5.640
 3523SOL    HW111468   2.562   4.824   5.726
 3523SOL    HW211469   2.632   4.701   5.646
 3524SOL     OW11470   2.836   1.217   0.961
 3524SOL    HW111471   2.907   1.175   1.017
 3524SOL    HW211472   2.845   1.316   0.965
 3525SOL     OW11473   0.289   4.261   2.344
 3525SOL    HW111474   0.259   4.353   2.368
 3525SOL    HW211475   0.386   4.250   2.366
 3526SOL     OW11476   2.429   6.043   3.648
 3526SOL    HW111477   2.465   6.118   3.591
 3526SOL    HW211478   2.446   5.956   3.603
 3527SOL     OW11479   6.211   3.954   6.025
 3527SOL    HW111480   6.118   3.917   6.037
 3527SOL    HW211481   6.217   4.001   5.937
 3528SOL     OW11482   1.152   5.095   3.599
 3528SOL    HW111483   1.188   5.050   3.681
 3528SOL    HW211484   1.211   5.171   3.574
 3529SOL     OW11485   5.125   0.237   5.514
 3529SOL    HW111486   5.159   0.315   5.463
 3529SOL    HW211487   5.107   0.161   5.451
 3530SOL     OW11488   2.294   4.339   3.226
 3530SOL    HW111489   2.376   4.396   3.226
 3530SOL    HW211490   2.253   4.339   3.317
 3531SOL     OW11491   4.966   4.578   1.222
 3531SOL    HW111492   4.902   4.517   1.269
 3531SOL    HW211493   4.968   4.666   1.269
 3532SOL     OW11494   2.311   0.169   0.199
 3532SOL    HW111495   2.217   0.146   0.226
 3532SOL    HW211496   2.364   0.084   0.188
 3533SOL     OW11497   1.117   2.187   2.686
 3533SOL    HW111498   1.175   2.182   2.767
 3533SOL    HW211499   1.144   2.116   2.620
 3534SOL     OW11500   6.617   1.067   4.938
 3534SOL    HW111501   6.582   1.121   4.861
 3534SOL    HW211502   6.577   1.101   5.023
 3535SOL     OW11503   6.577   5.726   0.297
 3535SOL    HW111504   6.630   5.748   0.215
 3535SOL    HW211505   6.492   5.779   0.297
 3536SOL     OW11506   2.464   2.523   3.518
 3536SOL    HW111507   2.415   2.602   3.554
 3536SOL    HW211508   2.561   2.529   3.544
 3537SOL     OW11509   2.591   4.987   0.069
 3537SOL    HW111510   2.656   4.961   7.021
 3537SOL    HW211511   2.641   5.012   0.152
 3538SOL     OW11512   3.073   0.192   4.476
 3538SOL    HW111513   3.115   0.268   4.426
 3538SOL    HW211514   3.030   0.226   4.559
 3539SOL     OW11515   6.079   3.311   6.454
 3539SOL    HW111516   6.151   3.266   6.508
 3539SOL    HW211517   6.026   3.242   6.406
 3540SOL     OW11518   1.883   1.469   5.274
 3540SOL    HW111519   1.954   1.505   5.213
 3540SOL    HW211520   1.797   1.517   5.257
 3541SOL     OW11521   3.063   2.538   6.613
 3541SOL    HW111522   3.129   2.576   6.678
 3541SOL    HW211523   3.039   2.445   6.641
 3542SOL     OW11524   0.100   3.290   1.470
 3542SOL    HW111525   0.031   3.267   1.402
 3542SOL    HW211526   0.138   3.381   1.450
 3543SOL     OW11527   1.224   3.401   5.257
 3543SOL    HW111528   1.306   3.375   5.206
 3543SOL    HW211529   1.145   3.353   5.220
 3544SOL     OW11530   1.909   4.579   6.336
 3544SOL    HW111531   1.832   4.610   6.281
 3544SOL    HW211532   1.978   4.651   6.342
 3545SOL     OW11533   3.573   5.363   6.330
 3545SOL    HW111534   3.518   5.314   6.398
 3545SOL    HW211535   3.532   5.353   6.240
 3546SOL     OW11536   6.862   4.791   3.271
 3546SOL    HW111537   6.868   4.715   3.335
 3546SOL    HW211538   6.873   4.877   3.320
 3547SOL     OW11539   6.605   4.099   4.212
 3547SOL    HW111540   6.548   4.091   4.294
 3547SOL    HW211541   6.561   4.050   4.137
 3548SOL     OW11542   5.331   0.299   6.098
 3548SOL    HW111543   5.407   0.362   6.116
 3548SOL    HW211544   5.365   0.205   6.095
 3549SOL     OW11545   1.420   4.553   6.230
 3549SOL    HW111546   1.433   4.494   6.151
 3549SOL    HW211547   1.389   4.498   6.308
 3550SOL     OW11548   6.178   2.409   5.008
 3550SOL    HW111549   6.161   2.321   4.963
 3550SOL    HW211550   6.226   2.470   4.944
 3551SOL     OW11551   3.975   1.343   4.022
 3551SOL    HW111552   4.018   1.427   3.990
 3551SOL    HW211553   3.928   1.298   3.946
 3552SOL     OW11554   6.380   6.628   2.028
 3552SOL    HW111555   6.307   6.608   2.094
 3552SOL    HW211556   6.425   6.542   2.002
 3553SOL     OW11557   3.546   5.823   0.042
 3553SOL    HW111558   3.481   5.771   7.011
 3553SOL    HW211559   3.632   5.832   7.015
 3554SOL     OW11560   3.997   2.812   0.650
 3554SOL    HW111561   3.922   2.838   0.589
 3554SOL    HW211562   4.048   2.736   0.610
 3555SOL     OW11563   0.518   3.246   3.881
 3555SOL    HW111564   0.614   3.259   3.859
 3555SOL    HW211565   0.481   3.329   3.922
 3556SOL     OW11566   3.906   0.814   4.179
 3556SOL    HW111567   3.849   0.751   4.125
 3556SOL    HW211568   3.972   0.761   4.232
 3557SOL     OW11569   1.387   0.041   4.313
 3557SOL    HW111570   1.322   0.027   4.388
 3557SOL    HW211571   1.452   6.989   4.312
 3558SOL     OW11572   1.732   5.163   1.933
 3558SOL    HW111573   1.830   5.181   1.930
 3558SOL    HW211574   1.700   5.169   2.027
 3559SOL     OW11575   1.149   6.092   5.063
 3559SOL    HW111576   1.120   6.046   4.979
 3559SOL    HW211577   1.116   6.042   5.143
 3560SOL     OW11578   1.920   4.882   2.325
 3560SOL    HW111579   1.879   4.967   2.357
 3560SOL    HW211580   2.009   4.901   2.285
 3561SOL     OW11581   5.067   4.364   5.486
 3561SOL    HW111582   5.149   4.313   5.461
 3561SOL    HW211583   4.986   4.313   5.456
 3562SOL     OW11584   2.800   1.380   3.318
 3562SOL    HW111585   2.789   1.410   3.223
 3562SOL    HW211586   2.891   1.341   3.330
 3563SOL     OW11587   6.566   2.044   6.732
 3563SOL    HW111588   6.523   2.121   6.684
 3563SOL    HW211589   6.496   1.981   6.764
 3564SOL     OW11590   0.750   4.456   2.551
 3564SOL    HW111591   0.722   4.361   2.561
 3564SOL    HW211592   0.778   4.492   2.640
 3565SOL     OW11593   3.230   6.106   4.126
 3565SOL    HW111594   3.187   6.146   4.207
 3565SOL    HW211595   3.288   6.174   4.082
 3566SOL     OW11596   6.301   2.430   6.448
 3566SOL    HW111597   6.347   2.495   6.388
 3566SOL    HW211598   6.213   2.405   6.408
 3567SOL     OW11599   0.805   2.491   6.975
 3567SOL    HW111600   0.836   2.586   6.981
 3567SOL    HW211601   0.830   2.453   6.886
 3568SOL     OW11602   5.394   4.334   4.785
 3568SOL    HW111603   5.444   4.335   4.698
 3568SOL    HW211604   5.453   4.295   4.856
 3569SOL     OW11605   3.006   2.803   6.327
 3569SOL    HW111606   2.920   2.765   6.363
 3569SOL    HW211607   2.988   2.893   6.288
 3570SOL     OW11608   5.598   0.250   6.381
 3570SOL    HW111609   5.634   0.156   6.376
 3570SOL    HW211610   5.613   0.287   6.472
 3571SOL     OW11611   0.533   5.339   6.210
 3571SOL    HW111612   0.538   5.429   6.254
 3571SOL    HW211613   0.454   5.337   6.148
 3572SOL     OW11614   5.631   4.328   2.984
 3572SOL    HW111615   5.540   4.289   2.996
 3572SOL    HW211616   5.686   4.268   2.926
 3573SOL     OW11617   0.636   4.422   3.976
 3573SOL    HW111618   0.600   4.493   4.036
 3573SOL    HW211619   0.709   4.372   4.023
 3574SOL     OW11620   0.550   4.348   0.769
 3574SOL    HW111621   0.480   4.278   0.777
 3574SOL    HW211622   0.511   4.438   0.788
 3575SOL     OW11623   5.294   4.566   2.942
 3575SOL    HW111624   5.351   4.484   2.934
 3575SOL    HW211625   5.313   4.611   3.030
 3576SOL     OW11626   1.213   1.794   5.546
 3576SOL    HW111627   1.254   1.713   5.505
 3576SOL    HW211628   1.231   1.874   5.489
 3577SOL     OW11629   1.343   2.982   6.105
 3577SOL    HW111630   1.272   3.016   6.043
 3577SOL    HW211631   1.301   2.922   6.173
 3578SOL     OW11632   2.639   2.333   0.733
 3578SOL    HW111633   2.617   2.264   0.802
 3578SOL    HW211634   2.701   2.293   0.665
 3579SOL     OW11635   5.825   3.494   5.239
 3579SOL    HW111636   5.909   3.482   5.293
 3579SOL    HW211637   5.773   3.408   5.240
 3580SOL     OW11638   5.826   3.044   1.730
 3580SOL    HW111639   5.805   3.098   1.811
 3580SOL    HW211640   5.854   2.952   1.756
 3581SOL     OW11641   0.789   6.190   3.662
 3581SOL    HW111642   0.829   6.281   3.679
 3581SOL    HW211643   0.808   6.163   3.567
 3582SOL     OW11644   0.804   2.122   5.417
 3582SOL    HW111645   0.813   2.165   5.507
 3582SOL    HW211646   0.892   2.085   5.387
 3583SOL     OW11647   1.460   3.462   6.398
 3583SOL    HW111648   1.517   3.502   6.326
 3583SOL    HW211649   1.381   3.521   6.415
 3584SOL     OW11650   6.008   5.172   6.586
 3584SOL    HW111651   6.059   5.237   6.529
 3584SOL    HW211652   6.063   5.148   6.665
 3585SOL     OW11653   4.373   6.801   5.113
 3585SOL    HW111654   4.319   6.825   5.193
 3585SOL    HW211655   4.383   6.881   5.054
 3586SOL     OW11656   0.498   2.281   5.315
 3586SOL    HW111657   0.492   2.372   5.273
 3586SOL    HW211658   0.550   2.220   5.256
 3587SOL     OW11659   3.157   5.265   6.701
 3587SOL    HW111660   3.255   5.286   6.709
 3587SOL    HW211661   3.130   5.206   6.777
 3588SOL     OW11662   1.030   2.594   5.442
 3588SOL    HW111663   1.086   2.676   5.429
 3588SOL    HW211664   1.001   2.589   5.538
 3589SOL     OW11665   3.877   1.877   4.806
 3589SOL    HW111666   3.808   1.908   4.741
 3589SOL    HW211667   3.934   1.807   4.763
 3590SOL     OW11668   1.529   2.687   6.737
 3590SOL    HW111669   1.615   2.679   6.788
 3590SOL    HW211670   1.493   2.779   6.746
 3591SOL     OW11671   5.101   3.543   6.542
 3591SOL    HW111672   5.142   3.633   6.528
 3591SOL    HW211673   5.009   3.541   6.503
 3592SOL     OW11674   6.506   4.156   1.822
 3592SOL    HW111675   6.516   4.200   1.733
 3592SOL    HW211676   6.593   4.114   1.849
 3593SOL     OW11677   1.640   5.909   4.911
 3593SOL    HW111678   1.698   5.828   4.913
 3593SOL    HW211679   1.642   5.954   5.000
 3594SOL     OW11680   4.614   0.392   3.328
 3594SOL    HW111681   4.652   0.445   3.252
 3594SOL    HW211682   4.537   0.442   3.368
 3595SOL     OW11683   2.336   5.983   0.126
 3595SOL    HW111684   2.381   6.056   0.073
 3595SOL    HW211685   2.307   5.910   0.065
 3596SOL     OW11686   6.858   1.950   3.096
 3596SOL    HW111687   6.771   1.926   3.053
 3596SOL    HW211688   6.925   1.972   3.025
 3597SOL     OW11689   1.961   1.278   4.087
 3597SOL    HW111690   1.938   1.367   4.125
 3597SOL    HW211691   2.059   1.275   4.065
 3598SOL     OW11692   1.032   5.563   6.213
 3598SOL    HW111693   1.035   5.490   6.281
 3598SOL    HW211694   1.124   5.603   6.203
 3599SOL     OW11695   0.501   1.989   5.785
 3599SOL    HW111696   0.408   2.003   5.750
 3599SOL    HW211697   0.544   1.914   5.735
 3600SOL     OW11698   0.599   3.935   0.309
 3600SOL    HW111699   0.644   3.871   0.372
 3600SOL    HW211700   0.624   4.028   0.333
 3601SOL     OW11701   5.486   4.713   6.253
 3601SOL    HW111702   5.464   4.766   6.335
 3601SOL    HW211703   5.511   4.775   6.179
 3602SOL     OW11704   1.453   2.732   1.372
 3602SOL    HW111705   1.364   2.776   1.364
 3602SOL    HW211706   1.505   2.777   1.445
 3603SOL     OW11707   3.549   0.056   3.454
 3603SOL    HW111708   3.526   0.116   3.530
 3603SOL    HW211709   3.567   0.111   3.372
 3604SOL     OW11710   7.019   4.631   2.829
 3604SOL    HW111711   7.002   4.599   2.922
 3604SOL    HW211712   0.094   4.641   2.815
 3605SOL     OW11713   6.152   4.070   5.287
 3605SOL    HW111714   6.218   4.122   5.232
 3605SOL    HW211715   6.078   4.131   5.315
 3606SOL     OW11716   6.968   6.607   5.825
 3606SOL    HW111717   0.005   6.606   5.746
 3606SOL    HW211718   6.894   6.541   5.811
 3607SOL     OW11719   5.552   5.975   1.342
 3607SOL    HW111720   5.576   6.071   1.356
 3607SOL    HW211721   5.618   5.933   1.279
 3608SOL     OW11722   5.821   1.434   3.543
 3608SOL    HW111723   5.792   1.339   3.558
 3608SOL    HW211724   5.761   1.476   3.474
 3609SOL     OW11725   1.039   0.175   4.356
 3609SOL    HW111726   1.045   0.091   4.410
 3609SOL    HW211727   0.991   0.245   4.408
 3610SOL     OW11728   1.666   0.025   5.862
 3610SOL    HW111729   1.752   7.001   5.844
 3610SOL    HW211730   1.685   0.119   5.890
 3611SOL     OW11731   4.909   5.948   5.793
 3611SOL    HW111732   4.927   6.003   5.711
 3611SOL    HW211733   4.957   5.861   5.786
 3612SOL     OW11734   6.366   0.308   0.001
 3612SOL    HW111735   6.436   0.341   6.961
 3612SOL    HW211736   6.278   0.304   6.978
 3613SOL     OW11737   4.669   5.382   1.759
 3613SOL    HW111738   4.688   5.474   1.794
 3613SOL    HW211739   4.731   5.317   1.801
 3614SOL     OW11740   4.013   3.477   1.711
 3614SOL    HW111741   4.071   3.551   1.742
 3614SOL    HW211742   3.937   3.514   1.657
 3615SOL     OW11743   4.683   5.291   0.363
 3615SOL    HW111744   4.775   5.316   0.332
 3615SOL    HW211745   4.655   5.206   0.317
 3616SOL     OW11746   0.971   2.635   6.681
 3616SOL    HW111747   0.911   2.711   6.706
 3616SOL    HW211748   0.951   2.605   6.588
 3617SOL     OW11749   3.952   1.976   6.548
 3617SOL    HW111750   4.020   2.021   6.606
 3617SOL    HW211751   3.907   2.044   6.490
 3618SOL     OW11752   2.515   2.033   5.740
 3618SOL    HW111753   2.491   2.129   5.726
 3618SOL    HW211754   2.610   2.018   5.714
 3619SOL     OW11755   5.749   2.531   4.538
 3619SOL    HW111756   5.803   2.610   4.507
 3619SOL    HW211757   5.663   2.528   4.488
 3620SOL     OW11758   5.975   6.298   5.954
 3620SOL    HW111759   6.037   6.228   5.919
 3620SOL    HW211760   6.003   6.387   5.920
 3621SOL     OW11761   3.393   3.115   5.282
 3621SOL    HW111762   3.453   3.194   5.267
 3621SOL    HW211763   3.448   3.031   5.285
 3622SOL     OW11764   1.780   1.180   4.949
 3622SOL    HW111765   1.826   1.260   4.912
 3622SOL    HW211766   1.815   1.098   4.904
 3623SOL     OW11767   5.966   5.783   4.218
 3623SOL    HW111768   5.946   5.878   4.197
 3623SOL    HW211769   5.910   5.723   4.160
 3624SOL     OW11770   1.739   6.295   1.694
 3624SOL    HW111771   1.664   6.322   1.755
 3624SOL    HW211772   1.827   6.310   1.740
 3625SOL     OW11773   6.128   3.168   0.208
 3625SOL    HW111774   6.150   3.264   0.193
 3625SOL    HW211775   6.201   3.111   0.169
 3626SOL     OW11776   0.830   3.211   6.304
 3626SOL    HW111777   0.906   3.159   6.344
 3626SOL    HW211778   0.764   3.235   6.375
 3627SOL     OW11779   3.649   2.956   3.275
 3627SOL    HW111780   3.591   2.922   3.349
 3627SOL    HW211781   3.742   2.971   3.309
 3628SOL     OW11782   1.458   1.344   1.551
 3628SOL    HW111783   1.515   1.413   1.595
 3628SOL    HW211784   1.484   1.336   1.455
 3629SOL     OW11785   0.014   1.947   5.201
 3629SOL    HW111786   0.063   2.019   5.250
 3629SOL    HW211787   0.041   1.858   5.239
 3630SOL     OW11788   5.406   2.779   4.122
 3630SOL    HW111789   5.401   2.685   4.088
 3630SOL    HW211790   5.313   2.817   4.128
 3631SOL     OW11791   1.912   6.725   3.717
 3631SOL    HW111792   1.960   6.802   3.759
 3631SOL    HW211793   1.880   6.663   3.789
 3632SOL     OW11794   5.006   5.916   1.286
 3632SOL    HW111795   5.004   5.912   1.385
 3632SOL    HW211796   5.034   6.007   1.257
 3633SOL     OW11797   4.025   1.858   5.387
 3633SOL    HW111798   4.003   1.761   5.390
 3633SOL    HW211799   3.964   1.909   5.448
 3634SOL     OW11800   1.082   5.147   4.802
 3634SOL    HW111801   0.991   5.173   4.769
 3634SOL    HW211802   1.076   5.123   4.899
 3635SOL     OW11803   3.330   0.096   5.951
 3635SOL    HW111804   3.237   0.076   5.980
 3635SOL    HW211805   3.369   0.016   5.905
 3636SOL     OW11806   0.015   5.387   0.633
 3636SOL    HW111807   0.112   5.411   0.628
 3636SOL    HW211808   7.006   5.400   0.727
 3637SOL     OW11809   6.519   1.684   2.098
 3637SOL    HW111810   6.583   1.722   2.032
 3637SOL    HW211811   6.556   1.600   2.137
 3638SOL     OW11812   0.188   4.004   3.841
 3638SOL    HW111813   0.235   3.916   3.831
 3638SOL    HW211814   0.103   4.002   3.789
 3639SOL     OW11815   3.655   3.994   0.365
 3639SOL    HW111816   3.639   3.901   0.399
 3639SOL    HW211817   3.580   4.021   0.305
 3640SOL     OW11818   3.559   0.867   0.547
 3640SOL    HW111819   3.658   0.857   0.557
 3640SOL    HW211820   3.536   0.879   0.450
 3641SOL     OW11821   5.247   3.320   3.064
 3641SOL    HW111822   5.210   3.259   3.133
 3641SOL    HW211823   5.332   3.361   3.097
 3642SOL     OW11824   5.145   1.179   6.798
 3642SOL    HW111825   5.157   1.239   6.718
 3642SOL    HW211826   5.069   1.213   6.854
 3643SOL     OW11827   2.799   5.962   5.072
 3643SOL    HW111828   2.806   6.004   5.162
 3643SOL    HW211829   2.756   5.872   5.081
 3644SOL     OW11830   6.775   1.063   1.615
 3644SOL    HW111831   6.844   1.003   1.655
 3644SOL    HW211832   6.735   1.120   1.687
 3645SOL     OW11833   0.375   3.015   3.343
 3645SOL    HW111834   0.373   3.092   3.279
 3645SOL    HW211835   0.357   3.048   3.436
 3646SOL     OW11836   0.606   3.947   6.653
 3646SOL    HW111837   0.557   3.861   6.638
 3646SOL    HW211838   0.663   3.940   6.735
 3647SOL     OW11839   2.521   4.897   6.224
 3647SOL    HW111840   2.569   4.951   6.155
 3647SOL    HW211841   2.508   4.952   6.307
 3648SOL     OW11842   3.845   4.970   1.901
 3648SOL    HW111843   3.797   5.055   1.926
 3648SOL    HW211844   3.779   4.896   1.889
 3649SOL     OW11845   4.735   2.501   1.830
 3649SOL    HW111846   4.695   2.585   1.793
 3649SOL    HW211847   4.751   2.437   1.755
 3650SOL     OW11848   0.131   5.531   1.132
 3650SOL    HW111849   0.195   5.513   1.207
 3650SOL    HW211850   0.042   5.555   1.170
 3651SOL     OW11851   0.484   6.450   4.946
 3651SOL    HW111852   0.394   6.438   4.904
 3651SOL    HW211853   0.478   6.430   5.044
 3652SOL     OW11854   5.813   6.571   3.497
 3652SOL    HW111855   5.864   6.549   3.414
 3652SOL    HW211856   5.768   6.488   3.531
 3653SOL     OW11857   0.472   0.491   4.078
 3653SOL    HW111858   0.453   0.568   4.139
 3653SOL    HW211859   0.394   0.476   4.017
 3654SOL     OW11860   2.655   4.117   0.848
 3654SOL    HW111861   2.741   4.067   0.848
 3654SOL    HW211862   2.633   4.148   0.755
 3655SOL     OW11863   1.404   6.064   4.233
 3655SOL    HW111864   1.313   6.028   4.249
 3655SOL    HW211865   1.470   6.019   4.294
 3656SOL     OW11866   0.639   4.371   1.518
 3656SOL    HW111867   0.726   4.391   1.564
 3656SOL    HW211868   0.608   4.453   1.469
 3657SOL     OW11869   5.186   5.374   5.512
 3657SOL    HW111870   5.093   5.406   5.527
 3657SOL    HW211871   5.213   5.390   5.417
 3658SOL     OW11872   1.814   4.877   5.385
 3658SOL    HW111873   1.778   4.949   5.327
 3658SOL    HW211874   1.801   4.788   5.341
 3659SOL     OW11875   1.535   3.618   5.245
 3659SOL    HW111876   1.598   3.695   5.236
 3659SOL    HW211877   1.445   3.645   5.213
 3660SOL     OW11878   5.819   6.480   3.822
 3660SOL    HW111879   5.886   6.504   3.751
 3660SOL    HW211880   5.831   6.542   3.900
 3661SOL     OW11881   5.698   1.239   5.443
 3661SOL    HW111882   5.752   1.263   5.523
 3661SOL    HW211883   5.755   1.192   5.376
 3662SOL     OW11884   4.020   6.681   3.956
 3662SOL    HW111885   3.971   6.663   3.870
 3662SOL    HW211886   4.104   6.731   3.936
 3663SOL     OW11887   2.347   1.468   0.255
 3663SOL    HW111888   2.319   1.414   0.176
 3663SOL    HW211889   2.295   1.440   0.335
 3664SOL     OW11890   4.990   2.908   1.591
 3664SOL    HW111891   4.969   2.854   1.672
 3664SOL    HW211892   4.990   2.849   1.510
 3665SOL     OW11893   1.694   6.204   5.773
 3665SOL    HW111894   1.679   6.157   5.860
 3665SOL    HW211895   1.706   6.136   5.700
 3666SOL     OW11896   1.057   3.994   2.912
 3666SOL    HW111897   1.147   4.031   2.935
 3666SOL    HW211898   1.037   3.918   2.974
 3667SOL     OW11899   0.965   0.983   2.459
 3667SOL    HW111900   0.934   0.901   2.508
 3667SOL    HW211901   1.052   1.014   2.497
 3668SOL     OW11902   1.485   0.936   1.445
 3668SOL    HW111903   1.508   0.861   1.384
 3668SOL    HW211904   1.446   1.011   1.391
 3669SOL     OW11905   4.562   0.761   3.336
 3669SOL    HW111906   4.500   0.828   3.378
 3669SOL    HW211907   4.643   0.809   3.302
 3670SOL     OW11908   1.900   5.124   6.921
 3670SOL    HW111909   1.988   5.146   6.963
 3670SOL    HW211910   1.914   5.090   6.828
 3671SOL     OW11911   6.415   0.931   4.173
 3671SOL    HW111912   6.409   0.940   4.073
 3671SOL    HW211913   6.323   0.920   4.211
 3672SOL     OW11914   5.522   1.708   1.295
 3672SOL    HW111915   5.480   1.646   1.229
 3672SOL    HW211916   5.548   1.793   1.248
 3673SOL     OW11917   4.440   6.028   6.571
 3673SOL    HW111918   4.529   6.008   6.611
 3673SOL    HW211919   4.371   5.966   6.609
 3674SOL     OW11920   1.031   6.105   5.600
 3674SOL    HW111921   0.977   6.095   5.517
 3674SOL    HW211922   1.054   6.014   5.636
 3675SOL     OW11923   2.207   3.167   3.799
 3675SOL    HW111924   2.203   3.192   3.702
 3675SOL    HW211925   2.231   3.070   3.807
 3676SOL     OW11926   5.014   4.203   2.970
 3676SOL    HW111927   4.918   4.221   2.950
 3676SOL    HW211928   5.047   4.268   3.038
 3677SOL     OW11929   2.034   5.860   3.555
 3677SOL    HW111930   2.100   5.891   3.623
 3677SOL    HW211931   1.971   5.934   3.533
 3678SOL     OW11932   0.851   2.298   4.901
 3678SOL    HW111933   0.826   2.286   4.998
 3678SOL    HW211934   0.794   2.239   4.844
 3679SOL     OW11935   1.168   0.565   3.275
 3679SOL    HW111936   1.192   0.534   3.367
 3679SOL    HW211937   1.173   0.664   3.271
 3680SOL     OW11938   5.710   3.032   4.024
 3680SOL    HW111939   5.756   3.120   4.027
 3680SOL    HW211940   5.671   3.018   3.933
 3681SOL     OW11941   0.952   0.044   6.968
 3681SOL    HW111942   0.924   0.130   6.926
 3681SOL    HW211943   0.872   7.023   7.009
 3682SOL     OW11944   5.296   1.802   0.601
 3682SOL    HW111945   5.258   1.775   0.513
 3682SOL    HW211946   5.295   1.902   0.608
 3683SOL     OW11947   6.450   0.309   3.083
 3683SOL    HW111948   6.383   0.264   3.142
 3683SOL    HW211949   6.468   0.401   3.117
 3684SOL     OW11950   1.717   4.928   0.318
 3684SOL    HW111951   1.761   4.969   0.398
 3684SOL    HW211952   1.733   4.986   0.238
 3685SOL     OW11953   0.376   6.256   0.198
 3685SOL    HW111954   0.403   6.216   0.111
 3685SOL    HW211955   0.375   6.356   0.190
 3686SOL     OW11956   5.383   5.686   3.623
 3686SOL    HW111957   5.289   5.704   3.652
 3686SOL    HW211958   5.446   5.723   3.691
 3687SOL     OW11959   3.616   5.962   4.921
 3687SOL    HW111960   3.606   5.885   4.857
 3687SOL    HW211961   3.545   6.030   4.902
 3688SOL     OW11962   6.778   4.088   6.695
 3688SOL    HW111963   6.693   4.111   6.648
 3688SOL    HW211964   6.808   3.997   6.665
 3689SOL     OW11965   2.151   0.163   6.027
 3689SOL    HW111966   2.187   0.134   6.115
 3689SOL    HW211967   2.117   0.084   5.977
 3690SOL     OW11968   4.457   5.632   0.696
 3690SOL    HW111969   4.520   5.684   0.637
 3690SOL    HW211970   4.383   5.691   0.726
 3691SOL     OW11971   2.675   1.725   6.657
 3691SOL    HW111972   2.613   1.651   6.684
 3691SOL    HW211973   2.769   1.697   6.674
 3692SOL     OW11974   6.676   5.502   5.463
 3692SOL    HW111975   6.772   5.528   5.475
 3692SOL    HW211976   6.653   5.501   5.366
 3693SOL     OW11977   2.115   3.766   3.163
 3693SOL    HW111978   2.103   3.844   3.101
 3693SOL    HW211979   2.150   3.799   3.251
 3694SOL     OW11980   1.627   6.075   3.098
 3694SOL    HW111981   1.662   6.144   3.162
 3694SOL    HW211982   1.563   6.119   3.034
 3695SOL     OW11983   6.258   3.212   1.491
 3695SOL    HW111984   6.235   3.138   1.554
 3695SOL    HW211985   6.177   3.268   1.474
 3696SOL     OW11986   3.481   6.052   5.178
 3696SOL    HW111987   3.549   6.004   5.122
 3696SOL    HW211988   3.418   5.986   5.218
 3697SOL     OW11989   0.398   6.528   2.956
 3697SOL    HW111990   0.379   6.574   2.869
 3697SOL    HW211991   0.317   6.530   3.014
 3698SOL     OW11992   2.433   0.504   3.916
 3698SOL    HW111993   2.345   0.550   3.908
 3698SOL    HW211994   2.438   0.457   4.004
 3699SOL     OW11995   1.131   2.316   3.534
 3699SOL    HW111996   1.117   2.414   3.549
 3699SOL    HW211997   1.228   2.298   3.520
 3700SOL     OW11998   0.692   5.871   4.717
 3700SOL    HW111999   0.691   5.876   4.816
 3700SOL    HW212000   0.762   5.805   4.687
 3701SOL     OW12001   1.786   0.378   3.752
 3701SOL    HW112002   1.847   0.456   3.735
 3701SOL    HW212003   1.733   0.395   3.834
 3702SOL     OW12004   5.968   6.448   3.246
 3702SOL    HW112005   5.940   6.354   3.228
 3702SOL    HW212006   5.898   6.511   3.211
 3703SOL     OW12007   5.799   1.546   5.349
 3703SOL    HW112008   5.828   1.601   5.271
 3703SOL    HW212009   5.710   1.506   5.330
 3704SOL     OW12010   3.731   1.960   1.281
 3704SOL    HW112011   3.675   2.025   1.230
 3704SOL    HW212012   3.813   2.005   1.315
 3705SOL     OW12013   4.108   4.830   3.957
 3705SOL    HW112014   4.079   4.925   3.963
 3705SOL    HW212015   4.066   4.778   4.032
 3706SOL     OW12016   1.753   3.402   6.882
 3706SOL    HW112017   1.807   3.343   6.943
 3706SOL    HW212018   1.748   3.494   6.922
 3707SOL     OW12019   5.293   4.568   4.198
 3707SOL    HW112020   5.230   4.630   4.244
 3707SOL    HW212021   5.332   4.504   4.264
 3708SOL     OW12022   0.077   0.761   6.440
 3708SOL    HW112023   0.028   0.715   6.366
 3708SOL    HW212024   0.077   0.703   6.522
 3709SOL     OW12025   3.170   0.627   0.722
 3709SOL    HW112026   3.268   0.643   0.708
 3709SOL    HW212027   3.128   0.602   0.634
 3710SOL     OW12028   6.244   5.543   5.509
 3710SOL    HW112029   6.263   5.632   5.550
 3710SOL    HW212030   6.212   5.556   5.415
 3711SOL     OW12031   0.913   6.663   4.494
 3711SOL    HW112032   0.997   6.611   4.509
 3711SOL    HW212033   0.912   6.698   4.400
 3712SOL     OW12034   6.974   5.213   6.938
 3712SOL    HW112035   6.929   5.235   0.001
 3712SOL    HW212036   7.010   5.119   6.942
 3713SOL     OW12037   1.329   6.251   6.140
 3713SOL    HW112038   1.388   6.298   6.074
 3713SOL    HW212039   1.339   6.152   6.128
 3714SOL     OW12040   5.140   6.675   5.696
 3714SOL    HW112041   5.104   6.763   5.666
 3714SOL    HW212042   5.207   6.642   5.630
 3715SOL     OW12043   0.414   3.932   2.431
 3715SOL    HW112044   0.390   3.978   2.516
 3715SOL    HW212045   0.339   3.871   2.403
 3716SOL     OW12046   6.496   0.115   4.966
 3716SOL    HW112047   6.568   0.047   4.950
 3716SOL    HW212048   6.432   0.115   4.889
 3717SOL     OW12049   6.171   6.516   6.827
 3717SOL    HW112050   6.209   6.463   6.751
 3717SOL    HW212051   6.220   6.603   6.834
 3718SOL     OW12052   1.772   0.610   7.008
 3718SOL    HW112053   1.699   0.590   6.942
 3718SOL    HW212054   1.738   0.674   0.053
 3719SOL     OW12055   5.354   4.156   1.544
 3719SOL    HW112056   5.309   4.240   1.514
 3719SOL    HW212057   5.341   4.145   1.643
 3720SOL     OW12058   5.958   2.497   6.461
 3720SOL    HW112059   5.998   2.449   6.383
 3720SOL    HW212060   5.973   2.595   6.451
 3721SOL     OW12061   6.253   4.556   1.858
 3721SOL    HW112062   6.305   4.539   1.941
 3721SOL    HW212063   6.185   4.483   1.846
 3722SOL     OW12064   6.351   5.987   0.839
 3722SOL    HW112065   6.399   5.996   0.926
 3722SOL    HW212066   6.252   5.993   0.856
 3723SOL     OW12067   6.144   5.317   1.605
 3723SOL    HW112068   6.193   5.237   1.572
 3723SOL    HW212069   6.191   5.355   1.685
 3724SOL     OW12070   1.872   4.559   4.365
 3724SOL    HW112071   1.815   4.640   4.351
 3724SOL    HW212072   1.839   4.509   4.445
 3725SOL     OW12073   6.049   5.532   0.729
 3725SOL    HW112074   5.995   5.517   0.646
 3725SOL    HW212075   6.059   5.631   0.745
 3726SOL     OW12076   5.924   3.787   0.641
 3726SOL    HW112077   5.859   3.755   0.710
 3726SOL    HW212078   5.893   3.758   0.550
 3727SOL     OW12079   0.072   1.793   4.977
 3727SOL    HW112080   0.059   1.873   5.036
 3727SOL    HW212081   0.167   1.762   4.983
 3728SOL     OW12082   1.621   3.608   6.751
 3728SOL    HW112083   1.665   3.665   6.681
 3728SOL    HW212084   1.615   3.514   6.719
 3729SOL     OW12085   0.882   2.613   3.831
 3729SOL    HW112086   0.835   2.529   3.805
 3729SOL    HW212087   0.921   2.603   3.922
 3730SOL     OW12088   2.288   5.305   6.162
 3730SOL    HW112089   2.297   5.363   6.081
 3730SOL    HW212090   2.197   5.263   6.163
 3731SOL     OW12091   6.832   1.979   1.003
 3731SOL    HW112092   6.746   2.006   1.046
 3731SOL    HW212093   6.874   2.059   0.960
 3732SOL     OW12094   2.910   1.439   0.319
 3732SOL    HW112095   2.900   1.370   0.390
 3732SOL    HW212096   2.930   1.395   0.231
 3733SOL     OW12097   1.400   3.910   2.695
 3733SOL    HW112098   1.350   3.973   2.636
 3733SOL    HW212099   1.476   3.871   2.644
 3734SOL     OW12100   4.807   0.405   2.042
 3734SOL    HW112101   4.906   0.393   2.040
 3734SOL    HW212102   4.773   0.384   2.133
 3735SOL     OW12103   2.086   1.072   3.689
 3735SOL    HW112104   2.143   1.038   3.614
 3735SOL    HW212105   2.029   0.997   3.723
 3736SOL     OW12106   0.113   2.266   1.243
 3736SOL    HW112107   0.135   2.360   1.219
 3736SOL    HW212108   0.014   2.255   1.250
 3737SOL     OW12109   4.848   1.047   3.531
 3737SOL    HW112110   4.843   0.953   3.564
 3737SOL    HW212111   4.841   1.048   3.431
 3738SOL     OW12112   0.100   0.188   2.803
 3738SOL    HW112113   0.064   0.127   2.873
 3738SOL    HW212114   0.064   0.280   2.818
 3739SOL     OW12115   2.454   4.542   1.295
 3739SOL    HW112116   2.466   4.580   1.203
 3739SOL    HW212117   2.497   4.603   1.361
 3740SOL     OW12118   5.386   1.034   0.989
 3740SOL    HW112119   5.412   1.130   1.001
 3740SOL    HW212120   5.369   1.016   0.892
 3741SOL     OW12121   5.323   2.761   0.033
 3741SOL    HW112122   5.379   2.780   0.113
 3741SOL    HW212123   5.261   2.837   0.017
 3742SOL     OW12124   2.401   1.804   7.002
 3742SOL    HW112125   2.337   1.806   0.055
 3742SOL    HW212126   2.387   1.885   6.945
 3743SOL     OW12127   5.606   3.595   0.626
 3743SOL    HW112128   5.614   3.564   0.721
 3743SOL    HW212129   5.614   3.694   0.623
 3744SOL     OW12130   1.467   6.129   2.105
 3744SOL    HW112131   1.514   6.073   2.036
 3744SOL    HW212132   1.454   6.075   2.188
 3745SOL     OW12133   4.088   4.954   1.647
 3745SOL    HW112134   4.138   5.013   1.584
 3745SOL    HW212135   4.063   4.869   1.602
 3746SOL     OW12136   5.367   0.639   3.081
 3746SOL    HW112137   5.424   0.707   3.126
 3746SOL    HW212138   5.411   0.610   2.996
 3747SOL     OW12139   2.660   6.594   5.088
 3747SOL    HW112140   2.676   6.522   5.156
 3747SOL    HW212141   2.742   6.605   5.032
 3748SOL     OW12142   5.072   1.187   1.150
 3748SOL    HW112143   5.059   1.264   1.088
 3748SOL    HW212144   5.087   1.104   1.098
 3749SOL     OW12145   1.622   5.534   3.478
 3749SOL    HW112146   1.528   5.529   3.513
 3749SOL    HW212147   1.672   5.606   3.526
 3750SOL     OW12148   0.614   4.355   1.023
 3750SOL    HW112149   0.714   4.360   1.012
 3750SOL    HW212150   0.571   4.352   0.933
 3751SOL     OW12151   6.870   3.153   1.516
 3751SOL    HW112152   6.928   3.134   1.437
 3751SOL    HW212153   6.791   3.207   1.487
 3752SOL     OW12154   5.134   0.561   0.601
 3752SOL    HW112155   5.148   0.655   0.570
 3752SOL    HW212156   5.190   0.543   0.681
 3753SOL     OW12157   6.077   6.786   4.893
 3753SOL    HW112158   6.081   6.884   4.874
 3753SOL    HW212159   6.007   6.744   4.836
 3754SOL     OW12160   2.844   1.022   1.303
 3754SOL    HW112161   2.835   0.951   1.373
 3754SOL    HW212162   2.831   1.112   1.344
 3755SOL     OW12163   4.941   4.908   4.262
 3755SOL    HW112164   4.965   4.816   4.291
 3755SOL    HW212165   5.010   4.973   4.293
 3756SOL     OW12166   2.862   4.960   6.595
 3756SOL    HW112167   2.913   5.045   6.585
 3756SOL    HW212168   2.907   4.902   6.662
 3757SOL     OW12169   5.252   6.152   6.984
 3757SOL    HW112170   5.230   6.141   0.058
 3757SOL    HW212171   5.252   6.250   6.961
 3758SOL     OW12172   2.582   1.223   4.744
 3758SOL    HW112173   2.642   1.281   4.689
 3758SOL    HW212174   2.488   1.254   4.734
 3759SOL     OW12175   4.221   0.070   6.473
 3759SOL    HW112176   4.212   0.012   6.555
 3759SOL    HW212177   4.133   0.115   6.455
 3760SOL     OW12178   1.857   1.430   4.830
 3760SOL    HW112179   1.873   1.525   4.855
 3760SOL    HW212180   1.899   1.412   4.741
 3761SOL     OW12181   1.066   1.324   5.076
 3761SOL    HW112182   1.086   1.418   5.049
 3761SOL    HW212183   1.144   1.287   5.126
 3762SOL     OW12184   1.751   4.642   1.230
 3762SOL    HW112185   1.817   4.568   1.229
 3762SOL    HW212186   1.784   4.716   1.289
 3763SOL     OW12187   6.736   4.006   1.064
 3763SOL    HW112188   6.658   4.026   1.123
 3763SOL    HW212189   6.766   3.912   1.079
 3764SOL     OW12190   1.594   0.361   2.509
 3764SOL    HW112191   1.636   0.294   2.447
 3764SOL    HW212192   1.663   0.393   2.574
 3765SOL     OW12193   4.942   1.779   1.400
 3765SOL    HW112194   4.991   1.803   1.315
 3765SOL    HW212195   4.867   1.842   1.414
 3766SOL     OW12196   2.578   1.768   4.650
 3766SOL    HW112197   2.519   1.700   4.608
 3766SOL    HW212198   2.634   1.813   4.580
 3767SOL     OW12199   2.007   4.739   6.680
 3767SOL    HW112200   2.003   4.749   6.780
 3767SOL    HW212201   2.099   4.761   6.648
 3768SOL     OW12202   0.907   6.371   4.368
 3768SOL    HW112203   0.846   6.450   4.357
 3768SOL    HW212204   0.892   6.306   4.293
 3769SOL     OW12205   6.162   5.798   4.399
 3769SOL    HW112206   6.134   5.871   4.461
 3769SOL    HW212207   6.090   5.781   4.332
 3770SOL     OW12208   1.474   0.825   6.330
 3770SOL    HW112209   1.521   0.892   6.386
 3770SOL    HW212210   1.534   0.794   6.256
 3771SOL     OW12211   5.465   2.855   0.271
 3771SOL    HW112212   5.485   2.802   0.353
 3771SOL    HW212213   5.429   2.945   0.298
 3772SOL     OW12214   0.521   1.228   0.260
 3772SOL    HW112215   0.436   1.183   0.290
 3772SOL    HW212216   0.539   1.205   0.164
 3773SOL     OW12217   5.783   3.496   5.727
 3773SOL    HW112218   5.763   3.532   5.636
 3773SOL    HW212219   5.711   3.525   5.790
 3774SOL     OW12220   6.088   5.701   1.378
 3774SOL    HW112221   6.125   5.787   1.343
 3774SOL    HW212222   6.066   5.641   1.301
 3775SOL     OW12223   4.479   4.994   2.706
 3775SOL    HW112224   4.512   4.904   2.678
 3775SOL    HW212225   4.409   5.026   2.642
 3776SOL     OW12226   4.587   2.058   6.575
 3776SOL    HW112227   4.662   1.994   6.564
 3776SOL    HW212228   4.531   2.031   6.654
 3777SOL     OW12229   3.560   5.742   3.453
 3777SOL    HW112230   3.605   5.814   3.507
 3777SOL    HW212231   3.524   5.673   3.514
 3778SOL     OW12232   2.808   5.033   2.533
 3778SOL    HW112233   2.714   5.018   2.565
 3778SOL    HW212234   2.853   4.944   2.520
 3779SOL     OW12235   1.013   4.799   0.519
 3779SOL    HW112236   1.090   4.863   0.524
 3779SOL    HW212237   0.953   4.825   0.443
 3780SOL     OW12238   5.685   5.229   4.594
 3780SOL    HW112239   5.604   5.278   4.562
 3780SOL    HW212240   5.766   5.286   4.581
 3781SOL     OW12241   0.341   6.308   4.507
 3781SOL    HW112242   0.378   6.237   4.566
 3781SOL    HW212243   0.243   6.293   4.494
 3782SOL     OW12244   2.484   6.931   3.126
 3782SOL    HW112245   2.423   6.981   3.066
 3782SOL    HW212246   2.431   6.880   3.194
 3783SOL     OW12247   5.660   5.418   3.592
 3783SOL    HW112248   5.701   5.494   3.543
 3783SOL    HW212249   5.718   5.337   3.582
 3784SOL     OW12250   4.564   2.283   3.151
 3784SOL    HW112251   4.614   2.242   3.074
 3784SOL    HW212252   4.556   2.381   3.137
 3785SOL     OW12253   2.082   3.733   5.754
 3785SOL    HW112254   2.146   3.671   5.799
 3785SOL    HW212255   1.990   3.694   5.756
 3786SOL     OW12256   2.311   5.096   3.108
 3786SOL    HW112257   2.380   5.167   3.120
 3786SOL    HW212258   2.251   5.093   3.189
 3787SOL     OW12259   6.019   1.366   3.285
 3787SOL    HW112260   6.035   1.369   3.187
 3787SOL    HW212261   5.988   1.455   3.317
 3788SOL     OW12262   0.111   4.989   4.849
 3788SOL    HW112263   0.077   4.935   4.771
 3788SOL    HW212264   0.050   5.068   4.863
 3789SOL     OW12265   0.311   2.777   4.744
 3789SOL    HW112266   0.242   2.705   4.745
 3789SOL    HW212267   0.269   2.865   4.763
 3790SOL     OW12268   1.334   3.988   5.993
 3790SOL    HW112269   1.392   3.998   5.912
 3790SOL    HW212270   1.241   4.019   5.972
 3791SOL     OW12271   4.828   1.339   6.571
 3791SOL    HW112272   4.890   1.369   6.498
 3791SOL    HW212273   4.813   1.241   6.564
 3792SOL     OW12274   1.500   2.255   4.214
 3792SOL    HW112275   1.536   2.198   4.141
 3792SOL    HW212276   1.545   2.344   4.212
 3793SOL     OW12277   4.786   6.128   2.090
 3793SOL    HW112278   4.815   6.161   2.179
 3793SOL    HW212279   4.778   6.206   2.027
 3794SOL     OW12280   2.091   2.825   0.998
 3794SOL    HW112281   2.162   2.785   1.057
 3794SOL    HW212282   2.012   2.764   0.995
 3795SOL     OW12283   4.318   6.085   0.898
 3795SOL    HW112284   4.241   6.130   0.854
 3795SOL    HW212285   4.323   6.113   0.994
 3796SOL     OW12286   3.208   2.075   2.159
 3796SOL    HW112287   3.141   2.106   2.227
 3796SOL    HW212288   3.187   2.117   2.070
 3797SOL     OW12289   0.147   3.614   2.254
 3797SOL    HW112290   0.148   3.516   2.238
 3797SOL    HW212291   0.240   3.650   2.245
 3798SOL     OW12292   2.599   5.244   3.224
 3798SOL    HW112293   2.506   5.275   3.242
 3798SOL    HW212294   2.653   5.250   3.308
 3799SOL     OW12295   6.339   2.369   3.660
 3799SOL    HW112296   6.270   2.305   3.693
 3799SOL    HW212297   6.380   2.416   3.738
 3800SOL     OW12298   5.883   2.752   4.359
 3800SOL    HW112299   5.809   2.782   4.298
 3800SOL    HW212300   5.971   2.777   4.319
 3801SOL     OW12301   6.092   6.681   2.092
 3801SOL    HW112302   6.092   6.621   2.012
 3801SOL    HW212303   6.046   6.635   2.169
 3802SOL     OW12304   1.543   2.172   1.545
 3802SOL    HW112305   1.579   2.205   1.632
 3802SOL    HW212306   1.556   2.242   1.475
 3803SOL     OW12307   4.091   3.208   2.233
 3803SOL    HW112308   4.137   3.279   2.179
 3803SOL    HW212309   4.153   3.130   2.244
 3804SOL     OW12310   4.787   1.346   4.073
 3804SOL    HW112311   4.875   1.310   4.102
 3804SOL    HW212312   4.713   1.291   4.112
 3805SOL     OW12313   2.303   2.740   1.162
 3805SOL    HW112314   2.274   2.752   1.257
 3805SOL    HW212315   2.369   2.664   1.156
 3806SOL     OW12316   3.477   3.368   5.963
 3806SOL    HW112317   3.533   3.449   5.943
 3806SOL    HW212318   3.418   3.348   5.885
 3807SOL     OW12319   1.614   5.929   2.666
 3807SOL    HW112320   1.546   5.872   2.713
 3807SOL    HW212321   1.567   6.003   2.618
 3808SOL     OW12322   4.753   1.135   0.656
 3808SOL    HW112323   4.781   1.142   0.752
 3808SOL    HW212324   4.655   1.119   0.651
 3809SOL     OW12325   5.586   2.682   1.819
 3809SOL    HW112326   5.610   2.761   1.876
 3809SOL    HW212327   5.521   2.710   1.749
 3810SOL     OW12328   4.611   2.302   3.639
 3810SOL    HW112329   4.600   2.401   3.650
 3810SOL    HW212330   4.577   2.275   3.548
 3811SOL     OW12331   1.025   5.514   5.022
 3811SOL    HW112332   1.120   5.548   5.020
 3811SOL    HW212333   1.018   5.440   5.088
 3812SOL     OW12334   4.550   5.422   5.066
 3812SOL    HW112335   4.520   5.507   5.024
 3812SOL    HW212336   4.548   5.349   4.998
 3813SOL     OW12337   4.185   3.260   0.586
 3813SOL    HW112338   4.126   3.227   0.512
 3813SOL    HW212339   4.273   3.214   0.581
 3814SOL     OW12340   6.972   6.914   6.332
 3814SOL    HW112341   7.009   6.836   6.383
 3814SOL    HW212342   6.961   6.991   6.394
 3815SOL     OW12343   4.160   2.395   0.801
 3815SOL    HW112344   4.217   2.460   0.751
 3815SOL    HW212345   4.071   2.436   0.821
 3816SOL     OW12346   1.019   5.631   6.606
 3816SOL    HW112347   1.014   5.643   6.705
 3816SOL    HW212348   0.964   5.551   6.580
 3817SOL     OW12349   4.945   3.510   2.710
 3817SOL    HW112350   5.026   3.511   2.769
 3817SOL    HW212351   4.884   3.436   2.738
 3818SOL     OW12352   6.242   1.136   6.779
 3818SOL    HW112353   6.319   1.141   6.844
 3818SOL    HW212354   6.261   1.064   6.712
 3819SOL     OW12355   4.984   5.400   1.879
 3819SOL    HW112356   5.075   5.363   1.859
 3819SOL    HW212357   4.919   5.325   1.892
 3820SOL     OW12358   5.160   0.089   3.958
 3820SOL    HW112359   5.107   0.160   3.912
 3820SOL    HW212360   5.098   0.018   3.992
 3821SOL     OW12361   2.617   1.593   1.047
 3821SOL    HW112362   2.635   1.517   1.109
 3821SOL    HW212363   2.531   1.638   1.074
 3822SOL     OW12364   2.277   0.287   1.113
 3822SOL    HW112365   2.274   0.387   1.105
 3822SOL    HW212366   2.371   0.255   1.102
 3823SOL     OW12367   3.450   3.856   5.820
 3823SOL    HW112368   3.516   3.801   5.768
 3823SOL    HW212369   3.493   3.941   5.849
 3824SOL     OW12370   7.002   2.970   0.624
 3824SOL    HW112371   6.986   2.890   0.567
 3824SOL    HW212372   6.929   2.977   0.693
 3825SOL     OW12373   0.378   5.516   0.849
 3825SOL    HW112374   0.478   5.510   0.852
 3825SOL    HW212375   0.348   5.599   0.896
 3826SOL     OW12376   1.130   3.042   6.622
 3826SOL    HW112377   1.142   3.124   6.566
 3826SOL    HW212378   1.219   3.003   6.644
 3827SOL     OW12379   1.493   1.257   2.095
 3827SOL    HW112380   1.496   1.161   2.067
 3827SOL    HW212381   1.560   1.309   2.042
 3828SOL     OW12382   3.109   3.536   2.423
 3828SOL    HW112383   3.192   3.574   2.464
 3828SOL    HW212384   3.030   3.586   2.456
 3829SOL     OW12385   1.659   5.065   2.952
 3829SOL    HW112386   1.664   5.097   3.047
 3829SOL    HW212387   1.582   5.110   2.906
 3830SOL     OW12388   0.917   1.360   5.303
 3830SOL    HW112389   0.922   1.290   5.375
 3830SOL    HW212390   0.977   1.334   5.227
 3831SOL     OW12391   4.552   2.531   2.292
 3831SOL    HW112392   4.635   2.497   2.336
 3831SOL    HW212393   4.566   2.626   2.263
 3832SOL     OW12394   5.932   0.736   2.819
 3832SOL    HW112395   5.911   0.830   2.844
 3832SOL    HW212396   6.026   0.730   2.785
 3833SOL     OW12397   0.400   6.534   6.098
 3833SOL    HW112398   0.498   6.512   6.101
 3833SOL    HW212399   0.373   6.575   6.185
 3834SOL     OW12400   4.161   4.404   1.460
 3834SOL    HW112401   4.111   4.318   1.450
 3834SOL    HW212402   4.221   4.398   1.540
 3835SOL     OW12403   3.735   5.811   4.541
 3835SOL    HW112404   3.722   5.714   4.524
 3835SOL    HW212405   3.829   5.828   4.572
 3836SOL     OW12406   1.610   3.898   6.108
 3836SOL    HW112407   1.686   3.935   6.055
 3836SOL    HW212408   1.529   3.892   6.051
 3837SOL     OW12409   4.509   4.903   6.238
 3837SOL    HW112410   4.578   4.943   6.297
 3837SOL    HW212411   4.515   4.942   6.146
 3838SOL     OW12412   0.572   4.039   4.646
 3838SOL    HW112413   0.625   4.113   4.688
 3838SOL    HW212414   0.631   3.988   4.583
 3839SOL     OW12415   5.123   0.887   3.862
 3839SOL    HW112416   5.160   0.863   3.772
 3839SOL    HW212417   5.185   0.854   3.934
 3840SOL     OW12418   2.483   0.763   6.038
 3840SOL    HW112419   2.507   0.747   6.134
 3840SOL    HW212420   2.394   0.721   6.018
 3841SOL     OW12421   0.011   3.140   4.307
 3841SOL    HW112422   0.027   3.061   4.365
 3841SOL    HW212423   6.937   3.149   4.288
 3842SOL     OW12424   1.996   3.048   1.146
 3842SOL    HW112425   2.063   2.975   1.130
 3842SOL    HW212426   1.994   3.109   1.067
 3843SOL     OW12427   6.028   4.585   2.256
 3843SOL    HW112428   6.114   4.562   2.302
 3843SOL    HW212429   5.973   4.503   2.245
 3844SOL     OW12430   0.581   2.915   6.229
 3844SOL    HW112431   0.638   2.952   6.156
 3844SOL    HW212432   0.630   2.922   6.316
 3845SOL     OW12433   3.181   3.736   5.294
 3845SOL    HW112434   3.263   3.776   5.336
 3845SOL    HW212435   3.100   3.786   5.324
 3846SOL     OW12436   0.549   5.448   3.519
 3846SOL    HW112437   0.570   5.484   3.428
 3846SOL    HW212438   0.605   5.368   3.537
 3847SOL     OW12439   5.490   1.191   4.859
 3847SOL    HW112440   5.448   1.105   4.886
 3847SOL    HW212441   5.555   1.220   4.929
 3848SOL     OW12442   4.444   5.389   2.767
 3848SOL    HW112443   4.495   5.413   2.684
 3848SOL    HW212444   4.505   5.339   2.829
 3849SOL     OW12445   1.578   1.058   5.709
 3849SOL    HW112446   1.523   1.016   5.638
 3849SOL    HW212447   1.521   1.118   5.765
 3850SOL     OW12448   1.941   3.206   0.890
 3850SOL    HW112449   1.850   3.210   0.932
 3850SOL    HW212450   1.991   3.290   0.910
 3851SOL     OW12451   0.868   4.552   2.046
 3851SOL    HW112452   0.841   4.489   2.119
 3851SOL    HW212453   0.946   4.606   2.075
 3852SOL     OW12454   4.407   6.603   4.157
 3852SOL    HW112455   4.434   6.513   4.192
 3852SOL    HW212456   4.307   6.611   4.158
 3853SOL     OW12457   1.274   4.018   3.340
 3853SOL    HW112458   1.188   4.069   3.338
 3853SOL    HW212459   1.344   4.068   3.289
 3854SOL     OW12460   1.919   3.215   2.381
 3854SOL    HW112461   1.851   3.274   2.425
 3854SOL    HW212462   2.005   3.220   2.432
 3855SOL     OW12463   5.336   6.915   6.578
 3855SOL    HW112464   5.338   7.001   6.527
 3855SOL    HW212465   5.385   6.844   6.526
 3856SOL     OW12466   0.323   0.724   6.161
 3856SOL    HW112467   0.295   0.651   6.099
 3856SOL    HW212468   0.418   0.748   6.143
 3857SOL     OW12469   0.045   5.921   0.106
 3857SOL    HW112470   7.021   5.997   0.149
 3857SOL    HW212471   0.082   5.950   0.017
 3858SOL     OW12472   1.596   0.262   5.476
 3858SOL    HW112473   1.588   0.262   5.376
 3858SOL    HW212474   1.613   0.169   5.508
 3859SOL     OW12475   6.357   1.554   2.736
 3859SOL    HW112476   6.346   1.498   2.818
 3859SOL    HW212477   6.442   1.606   2.742
 3860SOL     OW12478   2.899   0.330   5.794
 3860SOL    HW112479   2.849   0.390   5.856
 3860SOL    HW212480   2.995   0.357   5.792
 3861SOL     OW12481   4.830   4.677   3.308
 3861SOL    HW112482   4.894   4.715   3.241
 3861SOL    HW212483   4.739   4.669   3.266
 3862SOL     OW12484   1.306   6.927   5.503
 3862SOL    HW112485   1.314   6.828   5.491
 3862SOL    HW212486   1.397   6.966   5.515
 3863SOL     OW12487   4.573   2.979   6.677
 3863SOL    HW112488   4.612   2.960   6.587
 3863SOL    HW212489   4.646   2.985   6.745
 3864SOL     OW12490   2.579   0.477   5.620
 3864SOL    HW112491   2.532   0.502   5.704
 3864SOL    HW212492   2.670   0.520   5.618
 3865SOL     OW12493   3.426   6.910   6.944
 3865SOL    HW112494   3.349   6.847   6.953
 3865SOL    HW212495   3.477   6.913   0.006
 3866SOL     OW12496   3.838   0.919   1.591
 3866SOL    HW112497   3.890   0.927   1.506
 3866SOL    HW212498   3.843   1.005   1.642
 3867SOL     OW12499   1.297   4.270   3.727
 3867SOL    HW112500   1.209   4.234   3.696
 3867SOL    HW212501   1.355   4.195   3.757
 3868SOL     OW12502   3.360   6.756   0.332
 3868SOL    HW112503   3.445   6.760   0.383
 3868SOL    HW212504   3.341   6.846   0.292
 3869SOL     OW12505   6.325   4.271   5.166
 3869SOL    HW112506   6.286   4.289   5.075
 3869SOL    HW212507   6.420   4.302   5.168
 3870SOL     OW12508   4.603   5.441   0.009
 3870SOL    HW112509   4.608   5.341   0.007
 3870SOL    HW212510   4.681   5.479   6.982
 3871SOL     OW12511   3.452   0.437   2.738
 3871SOL    HW112512   3.398   0.443   2.654
 3871SOL    HW212513   3.470   0.341   2.760
 3872SOL     OW12514   3.797   3.327   3.177
 3872SOL    HW112515   3.879   3.294   3.225
 3872SOL    HW212516   3.792   3.426   3.184
 3873SOL     OW12517   5.851   3.056   2.231
 3873SOL    HW112518   5.787   3.064   2.308
 3873SOL    HW212519   5.905   3.140   2.224
 3874SOL     OW12520   3.724   5.831   6.858
 3874SOL    HW112521   3.699   5.739   6.830
 3874SOL    HW212522   3.824   5.841   6.855
 3875SOL     OW12523   1.729   2.487   1.633
 3875SOL    HW112524   1.687   2.576   1.617
 3875SOL    HW212525   1.728   2.466   1.731
 3876SOL     OW12526   4.564   4.924   0.588
 3876SOL    HW112527   4.595   4.980   0.664
 3876SOL    HW212528   4.493   4.972   0.537
 3877SOL     OW12529   6.946   2.997   0.075
 3877SOL    HW112530   6.946   2.945   7.013
 3877SOL    HW212531   0.015   3.001   0.112
 3878SOL     OW12532   2.997   6.590   4.315
 3878SOL    HW112533   3.092   6.621   4.319
 3878SOL    HW212534   2.936   6.669   4.324
 3879SOL     OW12535   4.764   6.189   1.354
 3879SOL    HW112536   4.788   6.230   1.442
 3879SOL    HW212537   4.846   6.159   1.307
 3880SOL     OW12538   6.554   4.796   3.768
 3880SOL    HW112539   6.630   4.856   3.793
 3880SOL    HW212540   6.493   4.785   3.847
 3881SOL     OW12541   0.885   4.364   0.996
 3881SOL    HW112542   0.877   4.435   0.925
 3881SOL    HW212543   0.937   4.400   1.073
 3882SOL     OW12544   1.005   1.766   5.296
 3882SOL    HW112545   0.908   1.754   5.318
 3882SOL    HW212546   1.056   1.685   5.324
 3883SOL     OW12547   4.261   0.980   3.890
 3883SOL    HW112548   4.255   0.885   3.859
 3883SOL    HW212549   4.199   0.993   3.968
 3884SOL     OW12550   0.861   5.230   3.343
 3884SOL    HW112551   0.869   5.187   3.253
 3884SOL    HW212552   0.786   5.187   3.393
 3885SOL     OW12553   6.338   0.493   2.814
 3885SOL    HW112554   6.295   0.538   2.736
 3885SOL    HW212555   6.434   0.476   2.795
 3886SOL     OW12556   6.709   5.935   4.662
 3886SOL    HW112557   6.611   5.933   4.642
 3886SOL    HW212558   6.738   5.845   4.695
 3887SOL     OW12559   6.787   1.129   6.340
 3887SOL    HW112560   6.861   1.067   6.316
 3887SOL    HW212561   6.823   1.222   6.351
 3888SOL     OW12562   0.897   0.260   6.550
 3888SOL    HW112563   0.860   0.217   6.468
 3888SOL    HW212564   0.989   0.294   6.531
 3889SOL     OW12565   6.572   3.712   5.870
 3889SOL    HW112566   6.569   3.770   5.788
 3889SOL    HW212567   6.517   3.754   5.942
 3890SOL     OW12568   5.635   5.541   2.480
 3890SOL    HW112569   5.564   5.605   2.510
 3890SOL    HW212570   5.698   5.522   2.555
 3891SOL     OW12571   5.814   4.680   4.033
 3891SOL    HW112572   5.721   4.682   3.997
 3891SOL    HW212573   5.877   4.715   3.964
 3892SOL     OW12574   0.038   2.289   1.669
 3892SOL    HW112575   0.127   2.244   1.667
 3892SOL    HW212576   0.011   2.315   1.576
 3893SOL     OW12577   3.300   5.514   0.820
 3893SOL    HW112578   3.231   5.557   0.878
 3893SOL    HW212579   3.297   5.555   0.729
 3894SOL     OW12580   2.924   2.044   0.795
 3894SOL    HW112581   2.831   2.080   0.795
 3894SOL    HW212582   2.936   1.983   0.873
 3895SOL     OW12583   1.611   0.289   5.178
 3895SOL    HW112584   1.544   0.246   5.117
 3895SOL    HW212585   1.699   0.243   5.169
 3896SOL     OW12586   0.622   1.794   6.514
 3896SOL    HW112587   0.688   1.799   6.439
 3896SOL    HW212588   0.536   1.755   6.481
 3897SOL     OW12589   3.419   6.576   1.960
 3897SOL    HW112590   3.492   6.510   1.940
 3897SOL    HW212591   3.436   6.660   1.909
 3898SOL     OW12592   3.532   3.534   3.912
 3898SOL    HW112593   3.593   3.464   3.874
 3898SOL    HW212594   3.573   3.571   3.996
 3899SOL     OW12595   5.125   1.156   4.507
 3899SOL    HW112596   5.084   1.066   4.523
 3899SOL    HW212597   5.166   1.158   4.416
 3900SOL     OW12598   5.139   2.467   4.067
 3900SOL    HW112599   5.186   2.556   4.074
 3900SOL    HW212600   5.183   2.401   4.127
 3901SOL     OW12601   3.048   6.303   5.334
 3901SOL    HW112602   2.965   6.251   5.312
 3901SOL    HW212603   3.025   6.400   5.341
 3902SOL     OW12604   5.931   3.571   1.583
 3902SOL    HW112605   6.008   3.559   1.645
 3902SOL    HW212606   5.959   3.550   1.490
 3903SOL     OW12607   5.017   4.567   6.821
 3903SOL    HW112608   5.076   4.634   6.865
 3903SOL    HW212609   4.984   4.604   6.734
 3904SOL     OW12610   2.331   6.450   5.455
 3904SOL    HW112611   2.321   6.410   5.546
 3904SOL    HW212612   2.411   6.510   5.454
 3905SOL     OW12613   5.820   6.891   5.737
 3905SOL    HW112614   5.899   6.861   5.790
 3905SOL    HW212615   5.768   6.959   5.789
 3906SOL     OW12616   2.288   5.460   5.569
 3906SOL    HW112617   2.339   5.545   5.582
 3906SOL    HW212618   2.254   5.456   5.475
 3907SOL     OW12619   6.756   6.937   4.766
 3907SOL    HW112620   6.792   6.996   4.839
 3907SOL    HW212621   6.688   6.875   4.804
 3908SOL     OW12622   1.544   0.834   6.701
 3908SOL    HW112623   1.561   0.900   6.628
 3908SOL    HW212624   1.520   0.883   6.785
 3909SOL     OW12625   6.963   4.668   6.304
 3909SOL    HW112626   6.872   4.629   6.313
 3909SOL    HW212627   7.000   4.648   6.214
 3910SOL     OW12628   3.741   4.140   1.982
 3910SOL    HW112629   3.645   4.112   1.979
 3910SOL    HW212630   3.773   4.139   2.077
 3911SOL     OW12631   4.425   1.605   6.782
 3911SOL    HW112632   4.369   1.680   6.818
 3911SOL    HW212633   4.404   1.521   6.832
 3912SOL     OW12634   3.351   1.661   6.376
 3912SOL    HW112635   3.334   1.597   6.301
 3912SOL    HW212636   3.391   1.746   6.340
 3913SOL     OW12637   2.848   6.147   6.749
 3913SOL    HW112638   2.884   6.240   6.735
 3913SOL    HW212639   2.920   6.080   6.735
 3914SOL     OW12640   4.949   0.610   1.237
 3914SOL    HW112641   5.014   0.559   1.294
 3914SOL    HW212642   4.934   0.560   1.152
 3915SOL     OW12643   4.247   6.435   0.967
 3915SOL    HW112644   4.167   6.388   0.932
 3915SOL    HW212645   4.299   6.476   0.892
 3916SOL     OW12646   1.885   6.492   2.339
 3916SOL    HW112647   1.822   6.416   2.349
 3916SOL    HW212648   1.953   6.489   2.412
 3917SOL     OW12649   1.226   4.320   0.931
 3917SOL    HW112650   1.140   4.366   0.909
 3917SOL    HW212651   1.227   4.229   0.889
 3918SOL     OW12652   4.472   6.585   1.753
 3918SOL    HW112653   4.419   6.638   1.686
 3918SOL    HW212654   4.458   6.623   1.844
 3919SOL     OW12655   3.252   0.052   6.573
 3919SOL    HW112656   3.264   0.035   6.475
 3919SOL    HW212657   3.167   0.102   6.588
 3920SOL     OW12658   2.281   2.191   6.155
 3920SOL    HW112659   2.230   2.257   6.210
 3920SOL    HW212660   2.296   2.108   6.208
 3921SOL     OW12661   0.138   2.858   0.150
 3921SOL    HW112662   0.078   2.783   0.181
 3921SOL    HW212663   0.194   2.889   0.226
 3922SOL     OW12664   4.361   5.089   0.512
 3922SOL    HW112665   4.311   5.148   0.448
 3922SOL    HW212666   4.329   5.106   0.605
 3923SOL     OW12667   6.385   1.966   0.266
 3923SOL    HW112668   6.299   1.986   0.313
 3923SOL    HW212669   6.459   1.960   0.332
 3924SOL     OW12670   0.528   4.734   2.995
 3924SOL    HW112671   0.625   4.710   2.982
 3924SOL    HW212672   0.484   4.664   3.051
 3925SOL     OW12673   4.277   4.517   0.809
 3925SOL    HW112674   4.226   4.437   0.839
 3925SOL    HW212675   4.375   4.504   0.829
 3926SOL     OW12676   6.847   0.093   4.151
 3926SOL    HW112677   6.830   0.099   4.052
 3926SOL    HW212678   6.767   0.127   4.200
 3927SOL     OW12679   0.286   2.902   4.378
 3927SOL    HW112680   0.196   2.887   4.419
 3927SOL    HW212681   0.315   2.996   4.395
 3928SOL     OW12682   4.030   5.773   4.566
 3928SOL    HW112683   4.098   5.747   4.634
 3928SOL    HW212684   4.012   5.695   4.505
 3929SOL     OW12685   0.212   1.612   6.503
 3929SOL    HW112686   0.153   1.598   6.424
 3929SOL    HW212687   0.303   1.575   6.484
 3930SOL     OW12688   1.274   2.048   3.295
 3930SOL    HW112689   1.353   1.987   3.300
 3930SOL    HW212690   1.206   2.020   3.363
 3931SOL     OW12691   2.142   1.673   1.999
 3931SOL    HW112692   2.129   1.750   2.061
 3931SOL    HW212693   2.165   1.591   2.052
 3932SOL     OW12694   1.714   4.138   3.786
 3932SOL    HW112695   1.775   4.170   3.859
 3932SOL    HW212696   1.770   4.104   3.710
 3933SOL     OW12697   1.802   6.910   0.074
 3933SOL    HW112698   1.751   6.929   7.013
 3933SOL    HW212699   1.762   6.831   0.120
 3934SOL     OW12700   0.418   0.806   2.320
 3934SOL    HW112701   0.497   0.864   2.338
 3934SOL    HW212702   0.449   0.718   2.285
 3935SOL     OW12703   1.759   1.094   5.394
 3935SOL    HW112704   1.786   1.128   5.485
 3935SOL    HW212705   1.716   1.005   5.403
 3936SOL     OW12706   6.802   6.519   5.410
 3936SOL    HW112707   6.813   6.425   5.442
 3936SOL    HW212708   6.715   6.556   5.443
 3937SOL     OW12709   0.053   6.748   2.774
 3937SOL    HW112710   6.988   6.793   2.763
 3937SOL    HW212711   0.044   6.674   2.840
 3938SOL     OW12712   5.940   3.028   3.729
 3938SOL    HW112713   5.899   3.102   3.675
 3938SOL    HW212714   5.964   3.063   3.820
 3939SOL     OW12715   2.808   2.059   3.024
 3939SOL    HW112716   2.805   2.158   3.040
 3939SOL    HW212717   2.874   2.017   3.087
 3940SOL     OW12718   3.586   4.950   2.146
 3940SOL    HW112719   3.508   4.927   2.203
 3940SOL    HW212720   3.592   4.886   2.070
 3941SOL     OW12721   6.184   0.254   4.932
 3941SOL    HW112722   6.183   0.307   5.017
 3941SOL    HW212723   6.234   0.304   4.861
 3942SOL     OW12724   0.999   6.277   5.254
 3942SOL    HW112725   0.940   6.247   5.329
 3942SOL    HW212726   0.962   6.245   5.167
 3943SOL     OW12727   0.191   3.369   2.363
 3943SOL    HW112728   0.131   3.298   2.325
 3943SOL    HW212729   0.287   3.344   2.347
 3944SOL     OW12730   5.526   3.796   5.676
 3944SOL    HW112731   5.559   3.850   5.754
 3944SOL    HW212732   5.519   3.854   5.595
 3945SOL     OW12733   0.869   2.415   2.733
 3945SOL    HW112734   0.913   2.411   2.644
 3945SOL    HW212735   0.931   2.457   2.799
 3946SOL     OW12736   6.786   3.971   6.211
 3946SOL    HW112737   6.691   3.983   6.241
 3946SOL    HW212738   6.839   3.930   6.285
 3947SOL     OW12739   5.580   5.340   1.012
 3947SOL    HW112740   5.623   5.341   0.921
 3947SOL    HW212741   5.646   5.370   1.080
 3948SOL     OW12742   0.713   4.981   0.601
 3948SOL    HW112743   0.696   5.054   0.535
 3948SOL    HW212744   0.794   5.002   0.655
 3949SOL     OW12745   5.984   6.666   2.873
 3949SOL    HW112746   5.955   6.696   2.782
 3949SOL    HW212747   5.962   6.737   2.940
 3950SOL     OW12748   3.472   4.024   1.381
 3950SOL    HW112749   3.547   3.979   1.429
 3950SOL    HW212750   3.405   3.955   1.351
 3951SOL     OW12751   0.308   0.559   0.045
 3951SOL    HW112752   0.306   0.645   0.096
 3951SOL    HW212753   0.403   0.530   0.034
 3952SOL     OW12754   6.151   3.667   4.722
 3952SOL    HW112755   6.237   3.686   4.771
 3952SOL    HW212756   6.146   3.569   4.701
 3953SOL     OW12757   3.615   4.482   0.004
 3953SOL    HW112758   3.648   4.391   7.001
 3953SOL    HW212759   3.649   4.504   0.095
 3954SOL     OW12760   5.794   5.487   5.430
 3954SOL    HW112761   5.804   5.388   5.430
 3954SOL    HW212762   5.825   5.524   5.518
 3955SOL     OW12763   4.668   6.791   6.879
 3955SOL    HW112764   4.735   6.762   6.948
 3955SOL    HW212765   4.584   6.821   6.925
 3956SOL     OW12766   1.207   1.950   4.520
 3956SOL    HW112767   1.204   2.015   4.596
 3956SOL    HW212768   1.170   1.993   4.438
 3957SOL     OW12769   4.174   6.918   3.547
 3957SOL    HW112770   4.145   7.004   3.507
 3957SOL    HW212771   4.133   6.908   3.638
 3958SOL     OW12772   6.113   6.983   6.308
 3958SOL    HW112773   6.039   6.917   6.319
 3958SOL    HW212774   6.201   6.939   6.328
 3959SOL     OW12775   3.230   6.768   1.031
 3959SOL    HW112776   3.217   6.865   1.010
 3959SOL    HW212777   3.299   6.729   0.970
 3960SOL     OW12778   5.846   2.209   6.178
 3960SOL    HW112779   5.889   2.299   6.173
 3960SOL    HW212780   5.897   2.151   6.241
 3961SOL     OW12781   4.981   2.898   2.610
 3961SOL    HW112782   5.054   2.958   2.576
 3961SOL    HW212783   4.997   2.876   2.706
 3962SOL     OW12784   1.170   5.842   6.485
 3962SOL    HW112785   1.263   5.816   6.509
 3962SOL    HW212786   1.111   5.762   6.490
 3963SOL     OW12787   5.081   4.669   3.756
 3963SOL    HW112788   4.990   4.701   3.728
 3963SOL    HW212789   5.085   4.664   3.856
 3964SOL     OW12790   4.321   4.750   4.786
 3964SOL    HW112791   4.342   4.681   4.855
 3964SOL    HW212792   4.223   4.770   4.787
 3965SOL     OW12793   4.095   3.984   6.136
 3965SOL    HW112794   4.136   3.895   6.153
 3965SOL    HW212795   4.119   4.047   6.210
 3966SOL     OW12796   6.685   5.074   0.216
 3966SOL    HW112797   6.639   4.987   0.198
 3966SOL    HW212798   6.646   5.116   0.298
 3967SOL     OW12799   1.477   4.647   2.654
 3967SOL    HW112800   1.469   4.712   2.729
 3967SOL    HW212801   1.574   4.634   2.632
 3968SOL     OW12802   6.660   0.518   1.103
 3968SOL    HW112803   6.683   0.420   1.107
 3968SOL    HW212804   6.641   0.543   1.008
 3969SOL     OW12805   0.327   3.603   3.096
 3969SOL    HW112806   0.386   3.683   3.111
 3969SOL    HW212807   0.240   3.618   3.143
 3970SOL     OW12808   4.574   4.825   3.671
 3970SOL    HW112809   4.540   4.856   3.582
 3970SOL    HW212810   4.510   4.852   3.742
 3971SOL     OW12811   2.267   4.690   2.406
 3971SOL    HW112812   2.342   4.653   2.352
 3971SOL    HW212813   2.245   4.625   2.480
 3972SOL     OW12814   1.861   5.611   1.738
 3972SOL    HW112815   1.846   5.706   1.709
 3972SOL    HW212816   1.959   5.592   1.741
 3973SOL     OW12817   2.190   4.043   5.338
 3973SOL    HW112818   2.253   3.980   5.293
 3973SOL    HW212819   2.191   4.130   5.290
 3974SOL     OW12820   2.047   0.896   5.735
 3974SOL    HW112821   2.019   0.978   5.684
 3974SOL    HW212822   1.967   0.844   5.762
 3975SOL     OW12823   6.092   0.123   6.800
 3975SOL    HW112824   6.189   0.128   6.778
 3975SOL    HW212825   6.039   0.110   6.716
 3976SOL     OW12826   2.145   5.020   1.086
 3976SOL    HW112827   2.157   4.965   1.168
 3976SOL    HW212828   2.230   5.069   1.066
 3977SOL     OW12829   2.919   4.867   5.635
 3977SOL    HW112830   2.997   4.820   5.595
 3977SOL    HW212831   2.853   4.799   5.668
 3978SOL     OW12832   5.763   0.641   4.523
 3978SOL    HW112833   5.796   0.684   4.439
 3978SOL    HW212834   5.831   0.653   4.595
 3979SOL     OW12835   2.559   5.902   1.467
 3979SOL    HW112836   2.501   5.952   1.531
 3979SOL    HW212837   2.505   5.875   1.387
 3980SOL     OW12838   0.230   4.512   6.187
 3980SOL    HW112839   0.288   4.477   6.114
 3980SOL    HW212840   0.178   4.591   6.154
 3981SOL     OW12841   1.753   1.656   6.620
 3981SOL    HW112842   1.688   1.719   6.660
 3981SOL    HW212843   1.774   1.684   6.526
 3982SOL     OW12844   2.510   0.565   4.350
 3982SOL    HW112845   2.457   0.649   4.340
 3982SOL    HW212846   2.508   0.535   4.445
 3983SOL     OW12847   3.614   5.571   4.518
 3983SOL    HW112848   3.592   5.579   4.615
 3983SOL    HW212849   3.538   5.605   4.463
 3984SOL     OW12850   2.235   0.516   2.405
 3984SOL    HW112851   2.210   0.577   2.329
 3984SOL    HW212852   2.257   0.426   2.368
 3985SOL     OW12853   2.082   4.442   6.655
 3985SOL    HW112854   1.996   4.410   6.695
 3985SOL    HW212855   2.089   4.541   6.666
 3986SOL     OW12856   6.680   1.514   3.339
 3986SOL    HW112857   6.666   1.527   3.438
 3986SOL    HW212858   6.669   1.602   3.292
 3987SOL     OW12859   1.668   5.960   5.171
 3987SOL    HW112860   1.730   5.885   5.193
 3987SOL    HW212861   1.575   5.936   5.199
 3988SOL     OW12862   3.680   2.873   5.635
 3988SOL    HW112863   3.646   2.785   5.602
 3988SOL    HW212864   3.649   2.886   5.730
 3989SOL     OW12865   6.670   1.417   0.209
 3989SOL    HW112866   6.746   1.461   0.256
 3989SOL    HW212867   6.584   1.460   0.237
 3990SOL     OW12868   6.351   1.472   3.872
 3990SOL    HW112869   6.268   1.425   3.841
 3990SOL    HW212870   6.378   1.437   3.961
 3991SOL     OW12871   5.999   1.611   2.453
 3991SOL    HW112872   5.953   1.566   2.377
 3991SOL    HW212873   5.999   1.551   2.533
 3992SOL     OW12874   4.439   2.176   6.378
 3992SOL    HW112875   4.476   2.131   6.297
 3992SOL    HW212876   4.488   2.143   6.459
 3993SOL     OW12877   1.383   2.304   3.395
 3993SOL    HW112878   1.336   2.372   3.339
 3993SOL    HW212879   1.340   2.214   3.381
 3994SOL     OW12880   1.782   2.929   5.413
 3994SOL    HW112881   1.753   2.952   5.506
 3994SOL    HW212882   1.858   2.988   5.385
 3995SOL     OW12883   1.972   3.686   4.372
 3995SOL    HW112884   1.890   3.653   4.324
 3995SOL    HW212885   2.050   3.683   4.310
 3996SOL     OW12886   1.650   0.721   4.744
 3996SOL    HW112887   1.701   0.774   4.676
 3996SOL    HW212888   1.567   0.772   4.769
 3997SOL     OW12889   4.796   2.894   3.126
 3997SOL    HW112890   4.727   2.875   3.057
 3997SOL    HW212891   4.832   2.987   3.114
 3998SOL     OW12892   4.881   1.640   2.255
 3998SOL    HW112893   4.818   1.580   2.305
 3998SOL    HW212894   4.896   1.603   2.163
 3999SOL     OW12895   5.518   3.427   3.775
 3999SOL    HW112896   5.476   3.499   3.720
 3999SOL    HW212897   5.617   3.443   3.781
 4000SOL     OW12898   3.289   5.682   2.657
 4000SOL    HW112899   3.220   5.755   2.658
 4000SOL    HW212900   3.296   5.642   2.748
 4001SOL     OW12901   1.504   2.946   4.731
 4001SOL    HW112902   1.504   2.897   4.644
 4001SOL    HW212903   1.583   2.917   4.785
 4002SOL     OW12904   2.614   2.944   0.031
 4002SOL    HW112905   2.522   2.966   7.020
 4002SOL    HW212906   2.649   3.021   0.084
 4003SOL     OW12907   2.704   6.802   5.990
 4003SOL    HW112908   2.752   6.805   6.077
 4003SOL    HW212909   2.750   6.863   5.925
 4004SOL     OW12910   6.145   2.679   4.106
 4004SOL    HW112911   6.211   2.649   4.175
 4004SOL    HW212912   6.185   2.669   4.015
 4005SOL     OW12913   5.118   5.238   1.097
 4005SOL    HW112914   5.150   5.322   1.052
 4005SOL    HW212915   5.189   5.204   1.159
 4006SOL     OW12916   4.619   4.733   2.131
 4006SOL    HW112917   4.583   4.800   2.066
 4006SOL    HW212918   4.698   4.772   2.179
 4007SOL     OW12919   0.540   2.894   1.851
 4007SOL    HW112920   0.596   2.857   1.777
 4007SOL    HW212921   0.537   2.994   1.844
 4008SOL     OW12922   3.638   1.641   5.168
 4008SOL    HW112923   3.549   1.648   5.123
 4008SOL    HW212924   3.711   1.654   5.101
 4009SOL     OW12925   4.643   2.531   0.928
 4009SOL    HW112926   4.563   2.501   0.980
 4009SOL    HW212927   4.704   2.584   0.988
 4010SOL     OW12928   1.917   3.575   1.250
 4010SOL    HW112929   1.845   3.512   1.219
 4010SOL    HW212930   1.952   3.544   1.339
 4011SOL     OW12931   1.141   6.939   1.935
 4011SOL    HW112932   1.051   6.948   1.892
 4011SOL    HW212933   1.138   6.981   2.026
 4012SOL     OW12934   4.560   4.703   1.557
 4012SOL    HW112935   4.527   4.774   1.619
 4012SOL    HW212936   4.630   4.648   1.603
 4013SOL     OW12937   2.799   0.557   0.825
 4013SOL    HW112938   2.712   0.570   0.871
 4013SOL    HW212939   2.866   0.520   0.889
 4014SOL     OW12940   4.361   5.554   3.620
 4014SOL    HW112941   4.393   5.603   3.539
 4014SOL    HW212942   4.402   5.463   3.622
 4015SOL     OW12943   4.217   4.937   6.130
 4015SOL    HW112944   4.255   5.020   6.088
 4015SOL    HW212945   4.209   4.951   6.229
 4016SOL     OW12946   0.899   5.386   6.556
 4016SOL    HW112947   0.881   5.355   6.650
 4016SOL    HW212948   0.839   5.338   6.493
 4017SOL     OW12949   0.621   6.624   0.409
 4017SOL    HW112950   0.561   6.689   0.363
 4017SOL    HW212951   0.570   6.542   0.433
 4018SOL     OW12952   5.862   6.273   1.874
 4018SOL    HW112953   5.820   6.302   1.960
 4018SOL    HW212954   5.876   6.174   1.876
 4019SOL     OW12955   5.803   3.880   2.225
 4019SOL    HW112956   5.828   3.852   2.318
 4019SOL    HW212957   5.886   3.899   2.173
 4020SOL     OW12958   6.475   2.595   5.712
 4020SOL    HW112959   6.409   2.573   5.641
 4020SOL    HW212960   6.429   2.599   5.801
 4021SOL     OW12961   2.910   4.122   5.721
 4021SOL    HW112962   2.880   4.129   5.816
 4021SOL    HW212963   2.933   4.028   5.699
 4022SOL     OW12964   4.390   0.304   6.599
 4022SOL    HW112965   4.346   0.219   6.569
 4022SOL    HW212966   4.373   0.317   6.697
 4023SOL     OW12967   6.759   0.913   4.234
 4023SOL    HW112968   6.848   0.890   4.273
 4023SOL    HW212969   6.768   0.928   4.136
 4024SOL     OW12970   2.933   5.044   4.065
 4024SOL    HW112971   2.953   5.131   4.020
 4024SOL    HW212972   2.909   5.060   4.161
 4025SOL     OW12973   0.243   6.035   4.765
 4025SOL    HW112974   0.217   6.113   4.709
 4025SOL    HW212975   0.255   6.064   4.860
 4026SOL     OW12976   6.257   6.959   3.184
 4026SOL    HW112977   6.318   6.953   3.105
 4026SOL    HW212978   6.308   6.941   3.268
 4027SOL     OW12979   2.614   2.702   0.925
 4027SOL    HW112980   2.571   2.657   1.004
 4027SOL    HW212981   2.581   2.796   0.920
 4028SOL     OW12982   3.030   2.154   2.704
 4028SOL    HW112983   3.121   2.177   2.669
 4028SOL    HW212984   2.962   2.213   2.661
 4029SOL     OW12985   2.762   4.739   6.169
 4029SOL    HW112986   2.835   4.775   6.227
 4029SOL    HW212987   2.678   4.789   6.185
 4030SOL     OW12988   1.013   1.765   0.448
 4030SOL    HW112989   0.943   1.822   0.490
 4030SOL    HW212990   1.045   1.697   0.514
 4031SOL     OW12991   5.041   6.409   3.595
 4031SOL    HW112992   5.078   6.365   3.677
 4031SOL    HW212993   5.117   6.441   3.538
 4032SOL     OW12994   6.387   0.277   2.474
 4032SOL    HW112995   6.444   0.245   2.399
 4032SOL    HW212996   6.432   0.260   2.561
 4033SOL     OW12997   2.932   3.664   1.948
 4033SOL    HW112998   2.981   3.742   1.908
 4033SOL    HW212999   2.928   3.590   1.881
 4034SOL     OW13000   0.015   1.628   4.418
 4034SOL    HW113001   7.023   1.710   4.474
 4034SOL    HW213002   0.111   1.623   4.391
 4035SOL     OW13003   6.295   2.655   0.952
 4035SOL    HW113004   6.323   2.709   0.872
 4035SOL    HW213005   6.197   2.666   0.966
 4036SOL     OW13006   5.224   6.665   2.615
 4036SOL    HW113007   5.145   6.670   2.676
 4036SOL    HW213008   5.305   6.638   2.667
 4037SOL     OW13009   2.265   1.107   0.610
 4037SOL    HW113010   2.177   1.059   0.610
 4037SOL    HW213011   2.316   1.083   0.693
 4038SOL     OW13012   4.288   4.167   1.666
 4038SOL    HW113013   4.356   4.179   1.593
 4038SOL    HW213014   4.330   4.191   1.754
 4039SOL     OW13015   4.793   4.353   1.545
 4039SOL    HW113016   4.750   4.310   1.624
 4039SOL    HW213017   4.722   4.384   1.481
 4040SOL     OW13018   3.859   0.095   5.860
 4040SOL    HW113019   3.885   0.186   5.892
 4040SOL    HW213020   3.897   0.026   5.922
 4041SOL     OW13021   2.083   5.269   0.944
 4041SOL    HW113022   2.058   5.183   0.988
 4041SOL    HW213023   2.054   5.345   1.003
 4042SOL     OW13024   6.497   5.468   2.926
 4042SOL    HW113025   6.444   5.550   2.944
 4042SOL    HW213026   6.480   5.400   2.997
 4043SOL     OW13027   5.170   1.865   4.420
 4043SOL    HW113028   5.118   1.788   4.456
 4043SOL    HW213029   5.180   1.856   4.321
 4044SOL     OW13030   4.432   6.842   3.538
 4044SOL    HW113031   4.340   6.871   3.564
 4044SOL    HW213032   4.445   6.746   3.565
 4045SOL     OW13033   2.650   5.367   5.833
 4045SOL    HW113034   2.685   5.324   5.916
 4045SOL    HW213035   2.627   5.296   5.766
 4046SOL     OW13036   1.125   1.301   3.605
 4046SOL    HW113037   1.051   1.359   3.639
 4046SOL    HW213038   1.192   1.287   3.678
 4047SOL     OW13039   1.662   2.402   0.800
 4047SOL    HW113040   1.608   2.461   0.741
 4047SOL    HW213041   1.672   2.312   0.758
 4048SOL     OW13042   5.226   2.071   2.239
 4048SOL    HW113043   5.241   2.006   2.313
 4048SOL    HW213044   5.230   2.164   2.276
 4049SOL     OW13045   6.498   5.872   6.471
 4049SOL    HW113046   6.554   5.866   6.553
 4049SOL    HW213047   6.451   5.961   6.470
 4050SOL     OW13048   1.251   6.420   0.537
 4050SOL    HW113049   1.267   6.510   0.495
 4050SOL    HW213050   1.191   6.366   0.478
 4051SOL     OW13051   3.765   2.853   6.906
 4051SOL    HW113052   3.780   2.775   6.845
 4051SOL    HW213053   3.813   2.838   6.993
 4052SOL     OW13054   6.958   0.717   2.551
 4052SOL    HW113055   0.023   0.751   2.583
 4052SOL    HW213056   6.887   0.739   2.617
 4053SOL     OW13057   3.480   5.387   4.160
 4053SOL    HW113058   3.504   5.319   4.091
 4053SOL    HW213059   3.541   5.377   4.239
 4054SOL     OW13060   7.014   3.220   2.251
 4054SOL    HW113061   6.958   3.192   2.329
 4054SOL    HW213062   6.966   3.198   2.166
 4055SOL     OW13063   3.844   3.284   6.180
 4055SOL    HW113064   3.751   3.307   6.206
 4055SOL    HW213065   3.900   3.367   6.176
 4056SOL     OW13066   3.810   3.745   0.683
 4056SOL    HW113067   3.825   3.840   0.711
 4056SOL    HW213068   3.894   3.708   0.644
 4057SOL     OW13069   5.410   2.451   1.732
 4057SOL    HW113070   5.456   2.539   1.729
 4057SOL    HW213071   5.335   2.455   1.798
 4058SOL     OW13072   1.909   6.686   4.055
 4058SOL    HW113073   2.002   6.688   4.091
 4058SOL    HW213074   1.864   6.773   4.075
 4059SOL     OW13075   0.880   2.735   3.556
 4059SOL    HW113076   0.825   2.749   3.638
 4059SOL    HW213077   0.893   2.822   3.509
 4060SOL     OW13078   4.628   5.331   4.501
 4060SOL    HW113079   4.587   5.366   4.416
 4060SOL    HW213080   4.646   5.233   4.491
 4061SOL     OW13081   3.285   4.967   1.627
 4061SOL    HW113082   3.344   4.887   1.637
 4061SOL    HW213083   3.296   5.027   1.707
 4062SOL     OW13084   2.807   1.894   2.815
 4062SOL    HW113085   2.721   1.851   2.789
 4062SOL    HW213086   2.792   1.954   2.893
 4063SOL     OW13087   6.185   6.367   5.305
 4063SOL    HW113088   6.220   6.449   5.259
 4063SOL    HW213089   6.100   6.339   5.262
 4064SOL     OW13090   1.468   6.493   3.738
 4064SOL    HW113091   1.559   6.532   3.755
 4064SOL    HW213092   1.479   6.399   3.706
 4065SOL     OW13093   6.883   6.750   0.605
 4065SOL    HW113094   6.964   6.700   0.634
 4065SOL    HW213095   6.841   6.794   0.685
 4066SOL     OW13096   5.134   5.772   2.789
 4066SOL    HW113097   5.141   5.709   2.711
 4066SOL    HW213098   5.140   5.720   2.874
 4067SOL     OW13099   5.790   3.252   3.102
 4067SOL    HW113100   5.709   3.195   3.110
 4067SOL    HW213101   5.790   3.297   3.013
 4068SOL     OW13102   3.368   0.410   4.539
 4068SOL    HW113103   3.296   0.341   4.532
 4068SOL    HW213104   3.347   0.472   4.615
 4069SOL     OW13105   4.224   4.452   6.328
 4069SOL    HW113106   4.209   4.421   6.234
 4069SOL    HW213107   4.257   4.376   6.383
 4070SOL     OW13108   0.409   3.682   2.211
 4070SOL    HW113109   0.484   3.747   2.222
 4070SOL    HW213110   0.396   3.662   2.113
 4071SOL     OW13111   1.308   0.909   5.784
 4071SOL    HW113112   1.211   0.884   5.784
 4071SOL    HW213113   1.337   0.926   5.879
 4072SOL     OW13114   1.204   5.723   4.142
 4072SOL    HW113115   1.199   5.777   4.058
 4072SOL    HW213116   1.117   5.730   4.191
 4073SOL     OW13117   2.833   5.759   6.084
 4073SOL    HW113118   2.738   5.779   6.057
 4073SOL    HW213119   2.837   5.669   6.126
 4074SOL     OW13120   0.018   2.887   1.879
 4074SOL    HW113121   6.992   2.823   1.938
 4074SOL    HW213122   6.992   2.898   1.793
 4075SOL     OW13123   3.929   1.952   2.577
 4075SOL    HW113124   3.970   1.885   2.639
 4075SOL    HW213125   3.884   2.023   2.630
 4076SOL     OW13126   3.093   4.035   5.435
 4076SOL    HW113127   3.016   4.068   5.380
 4076SOL    HW213128   3.059   3.987   5.516
 4077SOL     OW13129   3.595   6.973   0.127
 4077SOL    HW113130   3.654   6.897   0.154
 4077SOL    HW213131   3.641   0.002   0.055
 4078SOL     OW13132   6.120   5.674   2.487
 4078SOL    HW113133   6.173   5.669   2.572
 4078SOL    HW213134   6.081   5.584   2.466
 4079SOL     OW13135   0.789   1.947   3.730
 4079SOL    HW113136   0.762   1.957   3.826
 4079SOL    HW213137   0.729   2.002   3.672
 4080SOL     OW13138   2.349   3.616   0.402
 4080SOL    HW113139   2.435   3.565   0.398
 4080SOL    HW213140   2.273   3.552   0.413
 4081SOL     OW13141   1.888   2.020   3.925
 4081SOL    HW113142   1.845   2.003   4.014
 4081SOL    HW213143   1.972   1.966   3.918
 4082SOL     OW13144   1.686   2.735   1.245
 4082SOL    HW113145   1.589   2.734   1.270
 4082SOL    HW213146   1.739   2.686   1.314
 4083SOL     OW13147   6.321   4.267   2.002
 4083SOL    HW113148   6.354   4.300   2.090
 4083SOL    HW213149   6.399   4.241   1.945
 4084SOL     OW13150   4.460   2.019   3.231
 4084SOL    HW113151   4.500   1.958   3.299
 4084SOL    HW213152   4.497   2.111   3.243
 4085SOL     OW13153   2.573   5.586   0.896
 4085SOL    HW113154   2.594   5.631   0.982
 4085SOL    HW213155   2.488   5.534   0.906
 4086SOL     OW13156   0.073   4.634   1.099
 4086SOL    HW113157   0.145   4.658   1.035
 4086SOL    HW213158   0.104   4.559   1.158
 4087SOL     OW13159   1.611   1.690   3.094
 4087SOL    HW113160   1.533   1.675   3.032
 4087SOL    HW213161   1.689   1.725   3.042
 4088SOL     OW13162   6.357   0.991   6.589
 4088SOL    HW113163   6.359   0.901   6.547
 4088SOL    HW213164   6.450   1.027   6.594
 4089SOL     OW13165   6.401   4.770   3.977
 4089SOL    HW113166   6.472   4.705   4.005
 4089SOL    HW213167   6.311   4.731   3.994
 4090SOL     OW13168   1.653   5.825   5.825
 4090SOL    HW113169   1.686   5.850   5.734
 4090SOL    HW213170   1.725   5.775   5.873
 4091SOL     OW13171   0.356   6.139   0.477
 4091SOL    HW113172   0.329   6.172   0.386
 4091SOL    HW213173   0.282   6.084   0.516
 4092SOL     OW13174   5.921   2.541   4.013
 4092SOL    HW113175   5.971   2.622   4.044
 4092SOL    HW213176   5.951   2.461   4.064
 4093SOL     OW13177   5.028   6.451   1.345
 4093SOL    HW113178   5.036   6.541   1.302
 4093SOL    HW213179   4.976   6.460   1.431
 4094SOL     OW13180   1.624   4.894   5.822
 4094SOL    HW113181   1.532   4.906   5.858
 4094SOL    HW213182   1.690   4.936   5.884
 4095SOL     OW13183   0.091   3.854   0.329
 4095SOL    HW113184   0.191   3.848   0.324
 4095SOL    HW213185   0.051   3.790   0.264
 4096SOL     OW13186   4.813   0.961   6.835
 4096SOL    HW113187   4.830   0.988   6.740
 4096SOL    HW213188   4.865   0.879   6.856
 4097SOL     OW13189   4.656   4.633   4.590
 4097SOL    HW113190   4.736   4.576   4.604
 4097SOL    HW213191   4.606   4.602   4.509
 4098SOL     OW13192   0.942   2.144   1.937
 4098SOL    HW113193   0.877   2.210   1.975
 4098SOL    HW213194   0.953   2.161   1.839
 4099SOL     OW13195   3.868   5.284   0.976
 4099SOL    HW113196   3.785   5.291   0.921
 4099SOL    HW213197   3.924   5.209   0.943
 4100SOL     OW13198   0.146   6.594   4.406
 4100SOL    HW113199   0.230   6.592   4.352
 4100SOL    HW213200   0.165   6.627   4.498
 4101SOL     OW13201   0.344   1.434   0.540
 4101SOL    HW113202   0.389   1.419   0.628
 4101SOL    HW213203   0.363   1.527   0.509
 4102SOL     OW13204   1.101   0.794   0.880
 4102SOL    HW113205   1.176   0.747   0.928
 4102SOL    HW213206   1.131   0.886   0.856
 4103SOL     OW13207   0.559   6.883   0.909
 4103SOL    HW113208   0.559   6.956   0.978
 4103SOL    HW213209   0.555   6.794   0.955
 4104SOL     OW13210   0.416   4.881   3.558
 4104SOL    HW113211   0.415   4.839   3.649
 4104SOL    HW213212   0.479   4.831   3.499
 4105SOL     OW13213   5.725   0.527   3.136
 4105SOL    HW113214   5.815   0.563   3.111
 4105SOL    HW213215   5.680   0.492   3.054
 4106SOL     OW13216   7.007   3.077   3.416
 4106SOL    HW113217   0.017   3.126   3.496
 4106SOL    HW213218   6.912   3.051   3.430
 4107SOL     OW13219   1.408   5.639   0.984
 4107SOL    HW113220   1.346   5.641   0.906
 4107SOL    HW213221   1.485   5.700   0.967
 4108SOL     OW13222   6.861   4.938   4.486
 4108SOL    HW113223   6.882   5.002   4.412
 4108SOL    HW213224   6.870   4.845   4.453
 4109SOL     OW13225   6.377   0.360   4.782
 4109SOL    HW113226   6.473   0.333   4.786
 4109SOL    HW213227   6.347   0.364   4.687
 4110SOL     OW13228   4.267   3.383   6.059
 4110SOL    HW113229   4.246   3.310   5.993
 4110SOL    HW213230   4.290   3.467   6.010
 4111SOL     OW13231   5.768   4.652   6.371
 4111SOL    HW113232   5.755   4.556   6.397
 4111SOL    HW213233   5.700   4.677   6.302
 4112SOL     OW13234   4.869   6.139   4.506
 4112SOL    HW113235   4.846   6.046   4.479
 4112SOL    HW213236   4.870   6.146   4.606
 4113SOL     OW13237   5.492   5.676   5.100
 4113SOL    HW113238   5.405   5.693   5.054
 4113SOL    HW213239   5.480   5.603   5.167
 4114SOL     OW13240   3.828   2.126   3.925
 4114SOL    HW113241   3.885   2.045   3.933
 4114SOL    HW213242   3.884   2.208   3.941
 4115SOL     OW13243   3.257   4.908   2.145
 4115SOL    HW113244   3.169   4.940   2.180
 4115SOL    HW213245   3.312   4.873   2.221
 4116SOL     OW13246   3.766   1.474   2.819
 4116SOL    HW113247   3.850   1.464   2.872
 4116SOL    HW213248   3.692   1.424   2.865
 4117SOL     OW13249   0.717   3.289   2.490
 4117SOL    HW113250   0.636   3.304   2.433
 4117SOL    HW213251   0.704   3.208   2.547
 4118SOL     OW13252   5.329   6.683   0.486
 4118SOL    HW113253   5.348   6.617   0.413
 4118SOL    HW213254   5.268   6.754   0.452
 4119SOL     OW13255   2.880   1.667   3.877
 4119SOL    HW113256   2.841   1.725   3.805
 4119SOL    HW213257   2.903   1.577   3.839
 4120SOL     OW13258   3.738   0.984   5.438
 4120SOL    HW113259   3.730   0.996   5.339
 4120SOL    HW213260   3.823   1.025   5.470
 4121SOL     OW13261   6.573   0.047   3.487
 4121SOL    HW113262   6.586   0.064   3.584
 4121SOL    HW213263   6.566   0.134   3.438
 4122SOL     OW13264   1.281   0.142   4.589
 4122SOL    HW113265   1.298   0.240   4.599
 4122SOL    HW213266   1.229   0.125   4.506
 4123SOL     OW13267   4.127   4.608   5.504
 4123SOL    HW113268   4.030   4.582   5.512
 4123SOL    HW213269   4.154   4.660   5.585
 4124SOL     OW13270   6.439   6.314   0.535
 4124SOL    HW113271   6.350   6.269   0.547
 4124SOL    HW213272   6.425   6.408   0.506
 4125SOL     OW13273   4.510   1.848   2.957
 4125SOL    HW113274   4.482   1.782   3.027
 4125SOL    HW213275   4.550   1.928   3.001
 4126SOL     OW13276   1.915   3.080   3.293
 4126SOL    HW113277   1.947   2.998   3.341
 4126SOL    HW213278   1.981   3.104   3.222
 4127SOL     OW13279   5.763   3.772   5.227
 4127SOL    HW113280   5.801   3.680   5.225
 4127SOL    HW213281   5.665   3.767   5.205
 4128SOL     OW13282   0.936   3.329   1.248
 4128SOL    HW113283   0.965   3.325   1.344
 4128SOL    HW213284   0.919   3.236   1.215
 4129SOL     OW13285   3.469   0.848   6.974
 4129SOL    HW113286   3.402   0.841   0.024
 4129SOL    HW213287   3.483   0.758   6.933
 4130SOL     OW13288   6.313   2.864   0.786
 4130SOL    HW113289   6.269   2.947   0.819
 4130SOL    HW213290   6.319   2.866   0.686
 4131SOL     OW13291   0.314   1.420   3.525
 4131SOL    HW113292   0.372   1.349   3.484
 4131SOL    HW213293   0.265   1.468   3.452
 4132SOL     OW13294   4.975   4.162   3.386
 4132SOL    HW113295   4.919   4.105   3.325
 4132SOL    HW213296   5.000   4.246   3.339
 4133SOL     OW13297   3.329   6.020   1.432
 4133SOL    HW113298   3.378   6.004   1.347
 4133SOL    HW213299   3.260   6.092   1.418
 4134SOL     OW13300   2.084   3.682   1.073
 4134SOL    HW113301   2.162   3.722   1.120
 4134SOL    HW213302   2.017   3.651   1.140
 4135SOL     OW13303   0.480   2.293   2.268
 4135SOL    HW113304   0.572   2.299   2.307
 4135SOL    HW213305   0.485   2.303   2.169
 4136SOL     OW13306   1.174   3.137   2.988
 4136SOL    HW113307   1.213   3.229   2.986
 4136SOL    HW213308   1.075   3.143   2.984
 4137SOL     OW13309   1.534   3.725   1.348
 4137SOL    HW113310   1.602   3.692   1.415
 4137SOL    HW213311   1.567   3.809   1.306
 4138SOL     OW13312   4.013   5.561   2.746
 4138SOL    HW113313   4.018   5.627   2.821
 4138SOL    HW213314   3.916   5.540   2.727
 4139SOL     OW13315   1.537   1.487   5.425
 4139SOL    HW113316   1.620   1.463   5.474
 4139SOL    HW213317   1.560   1.534   5.340
 4140SOL     OW13318   3.580   1.036   5.125
 4140SOL    HW113319   3.526   0.952   5.117
 4140SOL    HW213320   3.675   1.013   5.147
 4141SOL     OW13321   5.051   6.206   1.213
 4141SOL    HW113322   5.001   6.190   1.128
 4141SOL    HW213323   5.033   6.299   1.246
 4142SOL     OW13324   6.491   4.962   1.116
 4142SOL    HW113325   6.440   4.878   1.096
 4142SOL    HW213326   6.487   4.980   1.214
 4143SOL     OW13327   5.779   2.448   0.957
 4143SOL    HW113328   5.739   2.408   0.875
 4143SOL    HW213329   5.770   2.384   1.033
 4144SOL     OW13330   4.817   1.843   6.804
 4144SOL    HW113331   4.913   1.872   6.799
 4144SOL    HW213332   4.758   1.923   6.801
 4145SOL     OW13333   0.218   6.421   1.752
 4145SOL    HW113334   0.165   6.506   1.752
 4145SOL    HW213335   0.156   6.342   1.747
 4146SOL     OW13336   6.200   0.188   3.280
 4146SOL    HW113337   6.121   0.250   3.291
 4146SOL    HW213338   6.171   0.107   3.229
 4147SOL     OW13339   4.555   5.016   5.987
 4147SOL    HW113340   4.625   5.002   5.917
 4147SOL    HW213341   4.467   5.035   5.944
 4148SOL     OW13342   2.621   0.310   4.639
 4148SOL    HW113343   2.631   0.223   4.590
 4148SOL    HW213344   2.535   0.310   4.690
 4149SOL     OW13345   0.011   4.109   1.345
 4149SOL    HW113346   0.055   4.020   1.349
 4149SOL    HW213347   7.013   4.132   1.250
 4150SOL     OW13348   1.495   0.493   5.919
 4150SOL    HW113349   1.438   0.419   5.954
 4150SOL    HW213350   1.456   0.528   5.834
 4151SOL     OW13351   3.093   6.027   5.482
 4151SOL    HW113352   3.070   6.037   5.579
 4151SOL    HW213353   3.015   6.054   5.426
 4152SOL     OW13354   4.265   5.665   1.160
 4152SOL    HW113355   4.217   5.751   1.142
 4152SOL    HW213356   4.204   5.588   1.141
 4153SOL     OW13357   5.687   5.076   1.055
 4153SOL    HW113358   5.759   5.098   1.121
 4153SOL    HW213359   5.653   5.160   1.013
 4154SOL     OW13360   0.026   5.048   3.863
 4154SOL    HW113361   0.102   5.050   3.798
 4154SOL    HW213362   0.021   5.134   3.912
 4155SOL     OW13363   0.118   1.253   1.541
 4155SOL    HW113364   0.098   1.199   1.622
 4155SOL    HW213365   0.179   1.202   1.480
 4156SOL     OW13366   6.212   5.991   4.738
 4156SOL    HW113367   6.151   5.996   4.817
 4156SOL    HW213368   6.161   6.010   4.655
 4157SOL     OW13369   4.854   5.505   4.229
 4157SOL    HW113370   4.849   5.571   4.304
 4157SOL    HW213371   4.900   5.547   4.150
 4158SOL     OW13372   0.588   3.050   1.467
 4158SOL    HW113373   0.492   3.072   1.481
 4158SOL    HW213374   0.597   2.954   1.438
 4159SOL     OW13375   2.257   3.000   2.983
 4159SOL    HW113376   2.240   3.067   3.055
 4159SOL    HW213377   2.292   2.916   3.024
 4160SOL     OW13378   5.362   0.859   0.357
 4160SOL    HW113379   5.448   0.816   0.386
 4160SOL    HW213380   5.315   0.799   0.292
 4161SOL     OW13381   1.017   2.238   0.905
 4161SOL    HW113382   1.075   2.244   0.824
 4161SOL    HW213383   1.057   2.173   0.970
 4162SOL     OW13384   6.577   5.997   0.159
 4162SOL    HW113385   6.515   6.008   0.081
 4162SOL    HW213386   6.536   6.037   0.241
 4163SOL     OW13387   5.018   0.421   3.016
 4163SOL    HW113388   5.011   0.324   2.996
 4163SOL    HW213389   5.066   0.468   2.942
 4164SOL     OW13390   1.917   6.663   5.791
 4164SOL    HW113391   1.870   6.583   5.754
 4164SOL    HW213392   1.995   6.634   5.845
 4165SOL     OW13393   4.447   0.725   5.879
 4165SOL    HW113394   4.419   0.692   5.969
 4165SOL    HW213395   4.547   0.716   5.871
 4166SOL     OW13396   5.406   1.702   0.827
 4166SOL    HW113397   5.494   1.673   0.789
 4166SOL    HW213398   5.353   1.750   0.757
 4167SOL     OW13399   2.290   4.342   0.024
 4167SOL    HW113400   2.243   4.254   0.016
 4167SOL    HW213401   2.222   4.415   0.030
 4168SOL     OW13402   0.146   4.398   1.239
 4168SOL    HW113403   0.094   4.339   1.177
 4168SOL    HW213404   0.244   4.385   1.221
 4169SOL     OW13405   5.874   5.432   5.103
 4169SOL    HW113406   5.814   5.358   5.132
 4169SOL    HW213407   5.823   5.518   5.102
 4170SOL     OW13408   4.648   3.323   6.562
 4170SOL    HW113409   4.707   3.384   6.510
 4170SOL    HW213410   4.703   3.273   6.630
 4171SOL     OW13411   6.317   5.972   0.581
 4171SOL    HW113412   6.327   5.973   0.680
 4171SOL    HW213413   6.280   5.884   0.551
 4172SOL     OW13414   1.386   2.034   6.351
 4172SOL    HW113415   1.293   2.036   6.313
 4172SOL    HW213416   1.389   2.085   6.436
 4173SOL     OW13417   5.254   4.115   4.512
 4173SOL    HW113418   5.335   4.079   4.558
 4173SOL    HW213419   5.174   4.103   4.569
 4174SOL     OW13420   4.597   1.483   2.572
 4174SOL    HW113421   4.534   1.439   2.635
 4174SOL    HW213422   4.616   1.576   2.603
 4175SOL     OW13423   2.097   5.421   4.717
 4175SOL    HW113424   2.103   5.515   4.750
 4175SOL    HW213425   2.001   5.397   4.704
 4176SOL     OW13426   3.624   6.149   1.941
 4176SOL    HW113427   3.608   6.054   1.917
 4176SOL    HW213428   3.588   6.166   2.033
 4177SOL     OW13429   5.809   5.201   5.416
 4177SOL    HW113430   5.769   5.123   5.368
 4177SOL    HW213431   5.857   5.169   5.497
 4178SOL     OW13432   4.014   7.018   4.267
 4178SOL    HW113433   3.942   6.953   4.292
 4178SOL    HW213434   3.989   0.040   4.182
 4179SOL     OW13435   5.606   3.059   3.055
 4179SOL    HW113436   5.669   3.050   2.978
 4179SOL    HW213437   5.512   3.060   3.022
 4180SOL     OW13438   4.498   4.037   0.417
 4180SOL    HW113439   4.585   4.053   0.369
 4180SOL    HW213440   4.422   4.055   0.356
 4181SOL     OW13441   3.517   0.972   0.283
 4181SOL    HW113442   3.574   0.996   0.205
 4181SOL    HW213443   3.433   1.027   0.281
 4182SOL     OW13444   0.928   6.591   3.364
 4182SOL    HW113445   0.896   6.556   3.276
 4182SOL    HW213446   0.972   6.517   3.416
 4183SOL     OW13447   2.982   1.347   0.072
 4183SOL    HW113448   2.947   1.440   0.075
 4183SOL    HW213449   3.006   1.323   7.001
 4184SOL     OW13450   3.964   6.393   2.062
 4184SOL    HW113451   3.908   6.369   2.141
 4184SOL    HW213452   4.060   6.402   2.090
 4185SOL     OW13453   0.810   4.705   3.006
 4185SOL    HW113454   0.803   4.774   3.077
 4185SOL    HW213455   0.793   4.747   2.917
 4186SOL     OW13456   3.026   4.786   0.139
 4186SOL    HW113457   3.086   4.707   0.135
 4186SOL    HW213458   2.934   4.758   0.167
 4187SOL     OW13459   4.088   3.498   5.426
 4187SOL    HW113460   4.116   3.448   5.344
 4187SOL    HW213461   3.990   3.516   5.421
 4188SOL     OW13462   5.386   0.840   5.241
 4188SOL    HW113463   5.334   0.825   5.325
 4188SOL    HW213464   5.338   0.907   5.184
 4189SOL     OW13465   3.342   4.984   5.603
 4189SOL    HW113466   3.440   5.000   5.614
 4189SOL    HW213467   3.314   5.016   5.512
 4190SOL     OW13468   0.771   0.368   0.550
 4190SOL    HW113469   0.730   0.277   0.545
 4190SOL    HW213470   0.818   0.379   0.637
 4191SOL     OW13471   4.983   4.378   3.616
 4191SOL    HW113472   5.001   4.380   3.714
 4191SOL    HW213473   4.892   4.418   3.599
 4192SOL     OW13474   0.652   0.761   4.300
 4192SOL    HW113475   0.557   0.740   4.279
 4192SOL    HW213476   0.695   0.805   4.221
 4193SOL     OW13477   0.087   1.116   1.782
 4193SOL    HW113478   0.079   1.211   1.814
 4193SOL    HW213479   0.183   1.088   1.785
 4194SOL     OW13480   5.972   0.033   4.228
 4194SOL    HW113481   6.032   6.990   4.272
 4194SOL    HW213482   5.961   0.008   4.132
 4195SOL     OW13483   3.875   6.650   1.483
 4195SOL    HW113484   3.910   6.743   1.467
 4195SOL    HW213485   3.846   6.642   1.579
 4196SOL     OW13486   6.107   2.032   2.895
 4196SOL    HW113487   6.041   2.050   2.968
 4196SOL    HW213488   6.077   1.954   2.841
 4197SOL     OW13489   4.734   5.342   5.840
 4197SOL    HW113490   4.770   5.285   5.914
 4197SOL    HW213491   4.711   5.284   5.761
 4198SOL     OW13492   5.748   2.302   0.137
 4198SOL    HW113493   5.656   2.263   0.140
 4198SOL    HW213494   5.743   2.395   0.098
 4199SOL     OW13495   1.995   2.724   6.247
 4199SOL    HW113496   1.932   2.790   6.288
 4199SOL    HW213497   2.006   2.646   6.308
 4200SOL     OW13498   3.969   0.339   5.927
 4200SOL    HW113499   3.894   0.404   5.923
 4200SOL    HW213500   4.054   0.387   5.945
 4201SOL     OW13501   5.999   6.927   3.457
 4201SOL    HW113502   5.910   6.923   3.412
 4201SOL    HW213503   6.021   7.022   3.479
 4202SOL     OW13504   3.701   5.862   5.158
 4202SOL    HW113505   3.673   5.903   5.072
 4202SOL    HW213506   3.801   5.855   5.162
 4203SOL     OW13507   3.973   4.949   7.015
 4203SOL    HW113508   3.996   4.872   0.051
 4203SOL    HW213509   3.923   5.018   0.043
 4204SOL     OW13510   3.448   3.885   2.909
 4204SOL    HW113511   3.499   3.968   2.884
 4204SOL    HW213512   3.356   3.910   2.940
 4205SOL     OW13513   4.146   5.883   3.235
 4205SOL    HW113514   4.198   5.822   3.295
 4205SOL    HW213515   4.062   5.838   3.205
 4206SOL     OW13516   6.773   0.582   5.874
 4206SOL    HW113517   6.807   0.522   5.802
 4206SOL    HW213518   6.848   0.613   5.932
 4207SOL     OW13519   2.162   1.882   1.259
 4207SOL    HW113520   2.074   1.909   1.220
 4207SOL    HW213521   2.234   1.942   1.223
 4208SOL     OW13522   6.977   2.882   5.722
 4208SOL    HW113523   0.037   2.922   5.684
 4208SOL    HW213524   6.936   2.821   5.654
 4209SOL     OW13525   0.068   0.199   4.174
 4209SOL    HW113526   0.100   0.202   4.079
 4209SOL    HW213527   7.008   0.145   4.180
 4210SOL     OW13528   3.390   3.471   2.317
 4210SOL    HW113529   3.291   3.486   2.318
 4210SOL    HW213530   3.435   3.549   2.275
 4211SOL     OW13531   4.701   6.255   6.403
 4211SOL    HW113532   4.767   6.330   6.405
 4211SOL    HW213533   4.615   6.287   6.363
 4212SOL     OW13534   6.106   1.777   2.798
 4212SOL    HW113535   6.167   1.699   2.791
 4212SOL    HW213536   6.011   1.747   2.792
 4213SOL     OW13537   1.826   1.018   1.333
 4213SOL    HW113538   1.876   1.039   1.249
 4213SOL    HW213539   1.880   1.046   1.412
 4214SOL     OW13540   0.922   5.323   5.262
 4214SOL    HW113541   0.823   5.334   5.264
 4214SOL    HW213542   0.953   5.285   5.350
 4215SOL     OW13543   5.488   6.882   5.764
 4215SOL    HW113544   5.475   6.863   5.666
 4215SOL    HW213545   5.457   6.804   5.818
 4216SOL     OW13546   1.257   1.304   2.696
 4216SOL    HW113547   1.298   1.345   2.778
 4216SOL    HW213548   1.169   1.348   2.678
 4217SOL     OW13549   1.070   0.519   2.177
 4217SOL    HW113550   1.046   0.469   2.094
 4217SOL    HW213551   1.155   0.570   2.162
 4218SOL     OW13552   4.277   0.838   1.398
 4218SOL    HW113553   4.299   0.774   1.324
 4218SOL    HW213554   4.361   0.883   1.429
 4219SOL     OW13555   3.747   5.410   3.801
 4219SOL    HW113556   3.704   5.355   3.873
 4219SOL    HW213557   3.707   5.386   3.712
 4220SOL     OW13558   6.214   2.332   4.190
 4220SOL    HW113559   6.205   2.329   4.289
 4220SOL    HW213560   6.137   2.284   4.148
 4221SOL     OW13561   5.865   4.686   6.653
 4221SOL    HW113562   5.893   4.781   6.637
 4221SOL    HW213563   5.842   4.643   6.566
 4222SOL     OW13564   6.234   2.254   2.830
 4222SOL    HW113565   6.180   2.172   2.850
 4222SOL    HW213566   6.270   2.248   2.737
 4223SOL     OW13567   4.095   3.092   6.316
 4223SOL    HW113568   4.116   3.189   6.322
 4223SOL    HW213569   4.003   3.075   6.351
 4224SOL     OW13570   5.307   3.595   4.243
 4224SOL    HW113571   5.395   3.635   4.218
 4224SOL    HW213572   5.320   3.503   4.278
 4225SOL     OW13573   3.967   1.113   5.505
 4225SOL    HW113574   4.003   1.028   5.544
 4225SOL    HW213575   4.041   1.180   5.496
 4226SOL     OW13576   1.067   0.470   2.513
 4226SOL    HW113577   1.011   0.388   2.524
 4226SOL    HW213578   1.010   0.546   2.484
 4227SOL     OW13579   3.642   4.610   1.116
 4227SOL    HW113580   3.638   4.572   1.208
 4227SOL    HW213581   3.566   4.574   1.062
 4228SOL     OW13582   0.644   4.322   5.152
 4228SOL    HW113583   0.569   4.256   5.159
 4228SOL    HW213584   0.732   4.274   5.159
 4229SOL     OW13585   4.922   5.441   5.585
 4229SOL    HW113586   4.869   5.478   5.509
 4229SOL    HW213587   4.864   5.434   5.666
 4230SOL     OW13588   1.623   6.454   3.139
 4230SOL    HW113589   1.626   6.525   3.210
 4230SOL    HW213590   1.690   6.476   3.068
 4231SOL     OW13591   5.838   6.771   5.508
 4231SOL    HW113592   5.928   6.731   5.493
 4231SOL    HW213593   5.833   6.808   5.601
 4232SOL     OW13594   0.101   4.923   2.542
 4232SOL    HW113595   0.014   4.885   2.573
 4232SOL    HW213596   0.176   4.880   2.592
 4233SOL     OW13597   0.033   1.012   6.327
 4233SOL    HW113598   0.063   1.096   6.371
 4233SOL    HW213599   0.043   0.935   6.391
 4234SOL     OW13600   2.537   6.675   5.442
 4234SOL    HW113601   2.481   6.730   5.503
 4234SOL    HW213602   2.588   6.734   5.380
 4235SOL     OW13603   5.796   3.880   5.719
 4235SOL    HW113604   5.840   3.792   5.705
 4235SOL    HW213605   5.864   3.948   5.745
 4236SOL     OW13606   6.336   3.610   2.934
 4236SOL    HW113607   6.265   3.548   2.968
 4236SOL    HW213608   6.320   3.702   2.969
 4237SOL     OW13609   5.292   5.323   2.256
 4237SOL    HW113610   5.239   5.250   2.211
 4237SOL    HW213611   5.387   5.295   2.263
 4238SOL     OW13612   2.861   5.319   3.034
 4238SOL    HW113613   2.907   5.360   3.113
 4238SOL    HW213614   2.762   5.331   3.044
 4239SOL     OW13615   5.538   1.495   3.115
 4239SOL    HW113616   5.562   1.535   3.027
 4239SOL    HW213617   5.603   1.422   3.138
 4240SOL     OW13618   2.308   6.596   6.827
 4240SOL    HW113619   2.214   6.599   6.861
 4240SOL    HW213620   2.366   6.549   6.894
 4241SOL     OW13621   6.263   1.336   0.549
 4241SOL    HW113622   6.188   1.382   0.502
 4241SOL    HW213623   6.341   1.398   0.555
 4242SOL     OW13624   2.586   0.946   3.807
 4242SOL    HW113625   2.647   0.937   3.728
 4242SOL    HW213626   2.614   0.882   3.878
 4243SOL     OW13627   6.683   3.130   3.253
 4243SOL    HW113628   6.692   3.071   3.333
 4243SOL    HW213629   6.650   3.077   3.175
 4244SOL     OW13630   4.362   4.437   1.309
 4244SOL    HW113631   4.356   4.347   1.265
 4244SOL    HW213632   4.286   4.447   1.373
 4245SOL     OW13633   0.226   1.259   6.023
 4245SOL    HW113634   0.263   1.175   6.063
 4245SOL    HW213635   0.136   1.239   5.983
 4246SOL     OW13636   6.906   4.099   3.139
 4246SOL    HW113637   6.965   4.154   3.198
 4246SOL    HW213638   6.909   4.003   3.169
 4247SOL     OW13639   2.925   4.780   3.231
 4247SOL    HW113640   2.832   4.782   3.194
 4247SOL    HW213641   2.991   4.783   3.156
 4248SOL     OW13642   2.175   1.967   3.945
 4248SOL    HW113643   2.170   2.065   3.968
 4248SOL    HW213644   2.263   1.930   3.976
 4249SOL     OW13645   5.540   2.286   4.079
 4249SOL    HW113646   5.599   2.208   4.098
 4249SOL    HW213647   5.453   2.254   4.040
 4250SOL     OW13648   6.936   5.639   3.074
 4250SOL    HW113649   6.975   5.716   3.124
 4250SOL    HW213650   6.967   5.553   3.114
 4251SOL     OW13651   5.620   4.148   1.542
 4251SOL    HW113652   5.521   4.142   1.554
 4251SOL    HW213653   5.666   4.123   1.628
 4252SOL     OW13654   5.989   0.085   6.559
 4252SOL    HW113655   5.910   0.146   6.549
 4252SOL    HW213656   6.002   0.032   6.475
 4253SOL     OW13657   3.243   6.985   1.270
 4253SOL    HW113658   3.276   6.907   1.217
 4253SOL    HW213659   3.144   6.976   1.285
 4254SOL     OW13660   1.026   3.625   1.948
 4254SOL    HW113661   1.060   3.605   2.040
 4254SOL    HW213662   0.931   3.656   1.953
 4255SOL     OW13663   0.171   4.165   4.369
 4255SOL    HW113664   0.248   4.218   4.404
 4255SOL    HW213665   0.176   4.160   4.270
 4256SOL     OW13666   1.829   6.225   0.644
 4256SOL    HW113667   1.732   6.248   0.650
 4256SOL    HW213668   1.879   6.270   0.718
 4257SOL     OW13669   2.780   0.606   4.320
 4257SOL    HW113670   2.781   0.661   4.237
 4257SOL    HW213671   2.691   0.561   4.329
 4258SOL     OW13672   3.691   6.186   0.860
 4258SOL    HW113673   3.687   6.189   0.960
 4258SOL    HW213674   3.607   6.224   0.822
 4259SOL     OW13675   2.364   0.851   1.035
 4259SOL    HW113676   2.347   0.839   0.937
 4259SOL    HW213677   2.461   0.869   1.050
 4260SOL     OW13678   5.740   0.614   1.473
 4260SOL    HW113679   5.772   0.530   1.517
 4260SOL    HW213680   5.765   0.693   1.530
 4261SOL     OW13681   2.260   0.033   2.694
 4261SOL    HW113682   2.360   0.035   2.686
 4261SOL    HW213683   2.230   6.964   2.718
 4262SOL     OW13684   0.665   4.302   6.497
 4262SOL    HW113685   0.660   4.365   6.420
 4262SOL    HW213686   0.574   4.292   6.538
 4263SOL     OW13687   2.968   0.749   3.126
 4263SOL    HW113688   2.910   0.709   3.054
 4263SOL    HW213689   2.917   0.753   3.212
 4264SOL     OW13690   6.286   1.707   3.105
 4264SOL    HW113691   6.354   1.643   3.141
 4264SOL    HW213692   6.203   1.702   3.161
 4265SOL     OW13693   4.325   1.524   1.008
 4265SOL    HW113694   4.275   1.454   1.060
 4265SOL    HW213695   4.305   1.614   1.046
 4266SOL     OW13696   1.925   5.439   6.358
 4266SOL    HW113697   2.021   5.425   6.383
 4266SOL    HW213698   1.903   5.383   6.278
 4267SOL     OW13699   2.083   3.800   3.795
 4267SOL    HW113700   2.108   3.862   3.721
 4267SOL    HW213701   1.995   3.828   3.834
 4268SOL     OW13702   0.784   5.665   6.159
 4268SOL    HW113703   0.872   5.621   6.175
 4268SOL    HW213704   0.770   5.675   6.060
 4269SOL     OW13705   2.699   0.617   2.607
 4269SOL    HW113706   2.614   0.655   2.570
 4269SOL    HW213707   2.776   0.673   2.576
 4270SOL     OW13708   3.840   3.586   3.187
 4270SOL    HW113709   3.908   3.587   3.113
 4270SOL    HW213710   3.768   3.652   3.167
 4271SOL     OW13711   6.764   1.231   0.036
 4271SOL    HW113712   6.717   1.300   0.092
 4271SOL    HW213713   6.803   1.275   6.979
 4272SOL     OW13714   6.703   2.427   4.302
 4272SOL    HW113715   6.788   2.478   4.288
 4272SOL    HW213716   6.644   2.477   4.366
 4273SOL     OW13717   4.893   6.890   4.951
 4273SOL    HW113718   4.817   6.843   4.996
 4273SOL    HW213719   4.877   6.988   4.950
 4274SOL     OW13720   0.795   6.805   1.673
 4274SOL    HW113721   0.732   6.789   1.750
 4274SOL    HW213722   0.889   6.793   1.704
 4275SOL     OW13723   6.659   2.271   4.580
 4275SOL    HW113724   6.629   2.350   4.634
 4275SOL    HW213725   6.752   2.287   4.546
 4276SOL     OW13726   1.870   5.664   3.823
 4276SOL    HW113727   1.870   5.722   3.905
 4276SOL    HW213728   1.795   5.691   3.763
 4277SOL     OW13729   6.254   4.785   3.303
 4277SOL    HW113730   6.294   4.823   3.386
 4277SOL    HW213731   6.156   4.768   3.317
 4278SOL     OW13732   7.009   6.983   5.376
 4278SOL    HW113733   7.015   7.008   5.473
 4278SOL    HW213734   0.076   6.992   5.333
 4279SOL     OW13735   3.637   1.021   3.857
 4279SOL    HW113736   3.611   1.008   3.952
 4279SOL    HW213737   3.561   0.994   3.798
 4280SOL     OW13738   5.128   0.677   6.113
 4280SOL    HW113739   5.161   0.661   6.020
 4280SOL    HW213740   5.090   0.592   6.150
 4281SOL     OW13741   0.257   4.021   3.078
 4281SOL    HW113742   0.241   3.958   3.154
 4281SOL    HW213743   0.305   4.102   3.111
 4282SOL     OW13744   3.556   4.117   6.101
 4282SOL    HW113745   3.620   4.194   6.095
 4282SOL    HW213746   3.469   4.149   6.139
 4283SOL     OW13747   1.530   0.792   3.260
 4283SOL    HW113748   1.601   0.852   3.295
 4283SOL    HW213749   1.555   0.697   3.277
 4284SOL     OW13750   4.235   4.823   1.248
 4284SOL    HW113751   4.229   4.742   1.190
 4284SOL    HW213752   4.153   4.878   1.237
 4285SOL     OW13753   1.811   0.651   5.488
 4285SOL    HW113754   1.724   0.701   5.492
 4285SOL    HW213755   1.882   0.709   5.448
 4286SOL     OW13756   4.988   6.904   5.607
 4286SOL    HW113757   4.982   6.924   5.705
 4286SOL    HW213758   4.907   6.942   5.561
 4287SOL     OW13759   5.830   1.315   5.707
 4287SOL    HW113760   5.753   1.299   5.769
 4287SOL    HW213761   5.841   1.413   5.692
 4288SOL     OW13762   0.287   5.496   3.540
 4288SOL    HW113763   0.267   5.487   3.443
 4288SOL    HW213764   0.385   5.488   3.555
 4289SOL     OW13765   0.014   3.155   6.208
 4289SOL    HW113766   6.945   3.124   6.186
 4289SOL    HW213767   0.042   3.115   6.295
 4290SOL     OW13768   1.316   6.102   3.862
 4290SOL    HW113769   1.322   6.199   3.885
 4290SOL    HW213770   1.334   6.047   3.943
 4291SOL     OW13771   4.735   3.466   0.235
 4291SOL    HW113772   4.797   3.510   0.170
 4291SOL    HW213773   4.652   3.437   0.187
 4292SOL     OW13774   5.728   2.920   0.210
 4292SOL    HW113775   5.630   2.906   0.222
 4292SOL    HW213776   5.776   2.833   0.216
 4293SOL     OW13777   2.362   2.668   0.061
 4293SOL    HW113778   2.428   2.613   0.111
 4293SOL    HW213779   2.300   2.608   0.010
 4294SOL     OW13780   2.024   2.022   6.877
 4294SOL    HW113781   2.094   2.061   6.936
 4294SOL    HW213782   2.033   1.922   6.874
 4295SOL     OW13783   3.932   5.894   4.913
 4295SOL    HW113784   3.871   5.963   4.953
 4295SOL    HW213785   3.978   5.934   4.834
 4296SOL     OW13786   2.970   6.952   0.884
 4296SOL    HW113787   3.010   0.018   0.861
 4296SOL    HW213788   3.010   6.882   0.826
 4297SOL     OW13789   5.077   0.182   6.745
 4297SOL    HW113790   5.171   0.216   6.753
 4297SOL    HW213791   5.013   0.257   6.761
 4298SOL     OW13792   3.631   5.027   0.279
 4298SOL    HW113793   3.614   5.112   0.228
 4298SOL    HW213794   3.725   5.025   0.310
 4299SOL     OW13795   1.477   3.347   6.647
 4299SOL    HW113796   1.513   3.266   6.601
 4299SOL    HW213797   1.433   3.406   6.579
 4300SOL     OW13798   3.086   6.658   0.276
 4300SOL    HW113799   3.043   6.577   0.317
 4300SOL    HW213800   3.177   6.672   0.317
 4301SOL     OW13801   3.810   1.152   1.709
 4301SOL    HW113802   3.717   1.157   1.672
 4301SOL    HW213803   3.820   1.219   1.783
 4302SOL     OW13804   0.787   0.241   6.300
 4302SOL    HW113805   0.854   0.267   6.230
 4302SOL    HW213806   0.723   0.316   6.314
 4303SOL     OW13807   6.854   4.527   3.888
 4303SOL    HW113808   6.772   4.560   3.842
 4303SOL    HW213809   6.836   4.438   3.930
 4304SOL     OW13810   3.128   4.089   2.076
 4304SOL    HW113811   3.054   4.138   2.122
 4304SOL    HW213812   3.156   4.139   1.995
 4305SOL     OW13813   0.347   0.588   5.115
 4305SOL    HW113814   0.249   0.611   5.120
 4305SOL    HW213815   0.375   0.543   5.200
 4306SOL     OW13816   5.135   5.125   5.591
 4306SOL    HW113817   5.216   5.073   5.563
 4306SOL    HW213818   5.147   5.221   5.568
 4307SOL     OW13819   5.545   3.934   5.931
 4307SOL    HW113820   5.457   3.963   5.969
 4307SOL    HW213821   5.591   4.012   5.889
 4308SOL     OW13822   5.906   4.794   1.280
 4308SOL    HW113823   5.908   4.756   1.373
 4308SOL    HW213824   5.907   4.719   1.214
 4309SOL     OW13825   0.950   1.136   0.031
 4309SOL    HW113826   0.876   1.136   0.099
 4309SOL    HW213827   0.973   1.230   0.007
 4310SOL     OW13828   2.307   2.666   1.863
 4310SOL    HW113829   2.358   2.589   1.902
 4310SOL    HW213830   2.295   2.736   1.933
 4311SOL     OW13831   1.929   6.170   2.687
 4311SOL    HW113832   1.837   6.183   2.723
 4311SOL    HW213833   1.927   6.181   2.587
 4312SOL     OW13834   2.182   5.799   1.535
 4312SOL    HW113835   2.195   5.890   1.496
 4312SOL    HW213836   2.107   5.802   1.601
 4313SOL     OW13837   4.719   1.257   1.451
 4313SOL    HW113838   4.770   1.286   1.370
 4313SOL    HW213839   4.621   1.264   1.434
 4314SOL     OW13840   5.836   1.311   4.497
 4314SOL    HW113841   5.791   1.224   4.521
 4314SOL    HW213842   5.786   1.355   4.423
 4315SOL     OW13843   2.473   6.110   2.099
 4315SOL    HW113844   2.446   6.204   2.080
 4315SOL    HW213845   2.571   6.107   2.118
 4316SOL     OW13846   5.537   0.913   1.956
 4316SOL    HW113847   5.635   0.915   1.936
 4316SOL    HW213848   5.497   0.830   1.917
 4317SOL     OW13849   5.225   2.629   4.653
 4317SOL    HW113850   5.275   2.628   4.567
 4317SOL    HW213851   5.290   2.624   4.729
 4318SOL     OW13852   0.643   2.922   4.358
 4318SOL    HW113853   0.615   3.005   4.310
 4318SOL    HW213854   0.646   2.845   4.294
 4319SOL     OW13855   2.020   1.335   0.657
 4319SOL    HW113856   2.107   1.337   0.608
 4319SOL    HW213857   1.947   1.367   0.596
 4320SOL     OW13858   5.031   5.011   0.215
 4320SOL    HW113859   5.027   4.912   0.209
 4320SOL    HW213860   4.971   5.052   0.146
 4321SOL     OW13861   6.908   6.437   5.180
 4321SOL    HW113862   6.869   6.447   5.271
 4321SOL    HW213863   6.894   6.521   5.128
 4322SOL     OW13864   6.338   2.713   6.635
 4322SOL    HW113865   6.392   2.760   6.566
 4322SOL    HW213866   6.316   2.620   6.604
 4323SOL     OW13867   4.733   4.120   0.263
 4323SOL    HW113868   4.807   4.073   0.216
 4323SOL    HW213869   4.771   4.188   0.325
 4324SOL     OW13870   5.667   3.683   6.728
 4324SOL    HW113871   5.656   3.597   6.777
 4324SOL    HW213872   5.738   3.673   6.659
 4325SOL     OW13873   2.099   1.395   1.618
 4325SOL    HW113874   2.056   1.367   1.533
 4325SOL    HW213875   2.147   1.316   1.658
 4326SOL     OW13876   4.778   4.940   3.827
 4326SOL    HW113877   4.707   4.902   3.768
 4326SOL    HW213878   4.771   4.899   3.918
 4327SOL     OW13879   5.751   6.026   1.586
 4327SOL    HW113880   5.781   5.935   1.616
 4327SOL    HW213881   5.665   6.049   1.631
 4328SOL     OW13882   4.482   3.555   5.646
 4328SOL    HW113883   4.510   3.629   5.584
 4328SOL    HW213884   4.396   3.516   5.612
 4329SOL     OW13885   4.556   2.125   5.526
 4329SOL    HW113886   4.593   2.098   5.437
 4329SOL    HW213887   4.462   2.092   5.535
 4330SOL     OW13888   2.342   6.138   4.340
 4330SOL    HW113889   2.286   6.128   4.258
 4330SOL    HW213890   2.323   6.062   4.402
 4331SOL     OW13891   5.598   1.793   1.953
 4331SOL    HW113892   5.663   1.721   1.930
 4331SOL    HW213893   5.590   1.800   2.053
 4332SOL     OW13894   4.878   3.428   1.990
 4332SOL    HW113895   4.858   3.349   1.931
 4332SOL    HW213896   4.861   3.512   1.939
 4333SOL     OW13897   3.964   0.981   6.040
 4333SOL    HW113898   3.893   1.032   5.991
 4333SOL    HW213899   3.924   0.899   6.080
 4334SOL     OW13900   1.872   2.115   2.761
 4334SOL    HW113901   1.843   2.166   2.680
 4334SOL    HW213902   1.861   2.173   2.842
 4335SOL     OW13903   3.545   4.078   2.564
 4335SOL    HW113904   3.493   4.042   2.487
 4335SOL    HW213905   3.642   4.057   2.551
 4336SOL     OW13906   3.379   6.600   5.972
 4336SOL    HW113907   3.374   6.614   6.070
 4336SOL    HW213908   3.444   6.527   5.952
 4337SOL     OW13909   0.762   4.317   0.554
 4337SOL    HW113910   0.846   4.296   0.604
 4337SOL    HW213911   0.690   4.342   0.618
 4338SOL     OW13912   6.210   0.100   5.783
 4338SOL    HW113913   6.212   0.156   5.700
 4338SOL    HW213914   6.139   0.136   5.844
 4339SOL     OW13915   5.079   3.488   5.688
 4339SOL    HW113916   4.979   3.495   5.697
 4339SOL    HW213917   5.103   3.476   5.592
 4340SOL     OW13918   6.017   3.773   1.842
 4340SOL    HW113919   6.101   3.720   1.854
 4340SOL    HW213920   5.939   3.719   1.873
 4341SOL     OW13921   0.626   5.260   1.667
 4341SOL    HW113922   0.581   5.280   1.753
 4341SOL    HW213923   0.713   5.213   1.684
 4342SOL     OW13924   5.386   3.850   4.010
 4342SOL    HW113925   5.288   3.861   4.023
 4342SOL    HW213926   5.419   3.775   4.067
 4343SOL     OW13927   2.560   6.049   5.350
 4343SOL    HW113928   2.512   6.124   5.303
 4343SOL    HW213929   2.508   5.965   5.341
 4344SOL     OW13930   0.105   3.956   2.056
 4344SOL    HW113931   0.101   3.977   1.958
 4344SOL    HW213932   0.042   3.881   2.077
 4345SOL     OW13933   3.514   3.903   4.861
 4345SOL    HW113934   3.463   3.938   4.939
 4345SOL    HW213935   3.563   3.978   4.816
 4346SOL     OW13936   1.833   3.203   2.880
 4346SOL    HW113937   1.933   3.210   2.883
 4346SOL    HW213938   1.805   3.160   2.794
 4347SOL     OW13939   6.487   6.505   2.911
 4347SOL    HW113940   6.524   6.436   2.972
 4347SOL    HW213941   6.544   6.511   2.829
 4348SOL     OW13942   6.793   5.419   4.013
 4348SOL    HW113943   6.733   5.410   4.092
 4348SOL    HW213944   6.742   5.398   3.929
 4349SOL     OW13945   5.545   1.664   2.870
 4349SOL    HW113946   5.512   1.587   2.815
 4349SOL    HW213947   5.520   1.750   2.825
 4350SOL     OW13948   3.219   1.853   3.732
 4350SOL    HW113949   3.233   1.951   3.715
 4350SOL    HW213950   3.176   1.841   3.821
 4351SOL     OW13951   1.817   5.435   0.644
 4351SOL    HW113952   1.849   5.525   0.675
 4351SOL    HW213953   1.802   5.438   0.545
 4352SOL     OW13954   6.390   3.937   2.498
 4352SOL    HW113955   6.490   3.935   2.495
 4352SOL    HW213956   6.353   3.887   2.420
 4353SOL     OW13957   4.156   2.806   6.829
 4353SOL    HW113958   4.126   2.840   6.741
 4353SOL    HW213959   4.253   2.829   6.843
 4354SOL     OW13960   2.269   0.717   5.657
 4354SOL    HW113961   2.183   0.763   5.678
 4354SOL    HW213962   2.341   0.786   5.643
 4355SOL     OW13963   2.280   6.678   2.514
 4355SOL    HW113964   2.293   6.682   2.415
 4355SOL    HW213965   2.370   6.681   2.559
 4356SOL     OW13966   5.122   3.836   0.374
 4356SOL    HW113967   5.183   3.893   0.319
 4356SOL    HW213968   5.055   3.791   0.314
 4357SOL     OW13969   6.206   1.298   1.272
 4357SOL    HW113970   6.222   1.303   1.174
 4357SOL    HW213971   6.133   1.232   1.291
 4358SOL     OW13972   0.110   0.995   0.600
 4358SOL    HW113973   0.119   0.957   0.692
 4358SOL    HW213974   0.178   1.068   0.588
 4359SOL     OW13975   1.806   1.770   6.057
 4359SOL    HW113976   1.754   1.836   6.003
 4359SOL    HW213977   1.828   1.810   6.147
 4360SOL     OW13978   1.464   3.406   3.291
 4360SOL    HW113979   1.543   3.349   3.315
 4360SOL    HW213980   1.420   3.439   3.374
 4361SOL     OW13981   2.283   3.447   1.404
 4361SOL    HW113982   2.253   3.362   1.361
 4361SOL    HW213983   2.330   3.426   1.490
 4362SOL     OW13984   6.459   5.098   3.385
 4362SOL    HW113985   6.439   5.003   3.409
 4362SOL    HW213986   6.378   5.141   3.345
 4363SOL     OW13987   5.780   2.260   1.180
 4363SOL    HW113988   5.853   2.198   1.151
 4363SOL    HW213989   5.728   2.217   1.253
 4364SOL     OW13990   3.084   3.799   4.127
 4364SOL    HW113991   3.162   3.762   4.076
 4364SOL    HW213992   3.020   3.725   4.147
 4365SOL     OW13993   2.773   0.639   2.147
 4365SOL    HW113994   2.844   0.709   2.157
 4365SOL    HW213995   2.683   0.681   2.154
 4366SOL     OW13996   5.705   0.535   0.299
 4366SOL    HW113997   5.692   0.451   0.353
 4366SOL    HW213998   5.801   0.561   0.302
 4367SOL     OW13999   2.232   4.373   4.616
 4367SOL    HW114000   2.325   4.410   4.622
 4367SOL    HW214001   2.224   4.319   4.531
 4368SOL     OW14002   3.438   5.155   6.991
 4368SOL    HW114003   3.376   5.090   0.011
 4368SOL    HW214004   3.464   5.226   0.033
 4369SOL     OW14005   4.661   5.641   2.923
 4369SOL    HW114006   4.643   5.637   2.825
 4369SOL    HW214007   4.645   5.550   2.963
 4370SOL     OW14008   3.780   5.071   1.617
 4370SOL    HW114009   3.841   5.062   1.696
 4370SOL    HW214010   3.835   5.093   1.536
 4371SOL     OW14011   1.008   2.370   2.481
 4371SOL    HW114012   1.054   2.343   2.397
 4371SOL    HW214013   1.044   2.316   2.557
 4372SOL     OW14014   2.578   2.109   2.686
 4372SOL    HW114015   2.547   2.032   2.742
 4372SOL    HW214016   2.509   2.181   2.686
 4373SOL     OW14017   5.547   1.693   0.390
 4373SOL    HW114018   5.512   1.608   0.428
 4373SOL    HW214019   5.582   1.676   0.298
 4374SOL     OW14020   0.803   2.005   0.594
 4374SOL    HW114021   0.773   1.961   0.679
 4374SOL    HW214022   0.729   2.002   0.528
 4375SOL     OW14023   4.196   6.807   3.287
 4375SOL    HW114024   4.210   6.831   3.383
 4375SOL    HW214025   4.098   6.793   3.270
 4376SOL     OW14026   6.828   6.853   2.728
 4376SOL    HW114027   6.753   6.918   2.743
 4376SOL    HW214028   6.861   6.861   2.633
 4377SOL     OW14029   5.772   4.834   0.255
 4377SOL    HW114030   5.780   4.934   0.255
 4377SOL    HW214031   5.703   4.805   0.189
 4378SOL     OW14032   2.204   2.762   2.455
 4378SOL    HW114033   2.238   2.820   2.529
 4378SOL    HW214034   2.208   2.813   2.369
 4379SOL     OW14035   2.180   2.493   2.520
 4379SOL    HW114036   2.181   2.592   2.509
 4379SOL    HW214037   2.088   2.458   2.500
 4380SOL     OW14038   1.255   0.193   3.081
 4380SOL    HW114039   1.164   0.174   3.044
 4380SOL    HW214040   1.277   0.290   3.067
 4381SOL     OW14041   1.749   3.885   5.527
 4381SOL    HW114042   1.835   3.932   5.505
 4381SOL    HW214043   1.767   3.788   5.543
 4382SOL     OW14044   6.217   3.637   5.913
 4382SOL    HW114045   6.144   3.664   5.976
 4382SOL    HW214046   6.291   3.594   5.964
 4383SOL     OW14047   0.720   2.283   5.891
 4383SOL    HW114048   0.733   2.199   5.837
 4383SOL    HW214049   0.624   2.308   5.889
 4384SOL     OW14050   6.474   2.056   5.878
 4384SOL    HW114051   6.445   2.082   5.786
 4384SOL    HW214052   6.398   2.071   5.942
 4385SOL     OW14053   6.077   2.955   5.266
 4385SOL    HW114054   6.166   2.918   5.239
 4385SOL    HW214055   6.031   2.890   5.327
 4386SOL     OW14056   2.195   3.281   7.019
 4386SOL    HW114057   2.232   3.251   0.083
 4386SOL    HW214058   2.230   3.373   6.999
 4387SOL     OW14059   6.836   1.616   1.507
 4387SOL    HW114060   6.778   1.549   1.461
 4387SOL    HW214061   6.927   1.578   1.520
 4388SOL     OW14062   5.156   1.744   6.214
 4388SOL    HW114063   5.076   1.722   6.159
 4388SOL    HW214064   5.217   1.803   6.161
 4389SOL     OW14065   0.253   3.500   0.934
 4389SOL    HW114066   0.283   3.414   0.894
 4389SOL    HW214067   0.191   3.546   0.871
 4390SOL     OW14068   3.709   1.345   1.402
 4390SOL    HW114069   3.648   1.288   1.458
 4390SOL    HW214070   3.740   1.293   1.323
 4391SOL     OW14071   2.011   6.047   0.033
 4391SOL    HW114072   1.955   5.986   7.000
 4391SOL    HW214073   2.081   6.090   6.999
 4392SOL     OW14074   0.057   3.536   5.235
 4392SOL    HW114075   7.014   3.580   5.296
 4392SOL    HW214076   0.040   3.438   5.233
 4393SOL     OW14077   6.118   0.205   2.493
 4393SOL    HW114078   6.085   0.166   2.407
 4393SOL    HW214079   6.218   0.210   2.491
 4394SOL     OW14080   6.054   6.197   2.213
 4394SOL    HW114081   6.128   6.202   2.281
 4394SOL    HW214082   6.082   6.139   2.137
 4395SOL     OW14083   3.113   6.461   1.748
 4395SOL    HW114084   3.186   6.405   1.711
 4395SOL    HW214085   3.143   6.504   1.833
 4396SOL     OW14086   2.034   2.230   4.267
 4396SOL    HW114087   2.086   2.192   4.191
 4396SOL    HW214088   2.097   2.277   4.330
 4397SOL     OW14089   0.608   1.232   4.555
 4397SOL    HW114090   0.639   1.189   4.639
 4397SOL    HW214091   0.639   1.178   4.476
 4398SOL     OW14092   0.332   4.303   5.488
 4398SOL    HW114093   0.356   4.346   5.401
 4398SOL    HW214094   0.391   4.224   5.503
 4399SOL     OW14095   1.981   0.639   1.615
 4399SOL    HW114096   1.941   0.711   1.558
 4399SOL    HW214097   1.908   0.585   1.656
 4400SOL     OW14098   3.484   6.772   5.501
 4400SOL    HW114099   3.476   6.677   5.468
 4400SOL    HW214100   3.507   6.771   5.598
 4401SOL     OW14101   4.370   6.876   6.362
 4401SOL    HW114102   4.326   6.963   6.381
 4401SOL    HW214103   4.413   6.879   6.272
 4402SOL     OW14104   2.737   0.231   1.963
 4402SOL    HW114105   2.795   0.299   2.007
 4402SOL    HW214106   2.705   0.267   1.875
 4403SOL     OW14107   1.096   0.084   2.849
 4403SOL    HW114108   1.004   0.052   2.872
 4403SOL    HW214109   1.144   0.014   2.797
 4404SOL     OW14110   0.536   4.796   6.132
 4404SOL    HW114111   0.459   4.741   6.164
 4404SOL    HW214112   0.555   4.775   6.036
 4405SOL     OW14113   1.808   4.249   1.088
 4405SOL    HW114114   1.849   4.327   1.137
 4405SOL    HW214115   1.875   4.176   1.080
 4406SOL     OW14116   0.005   3.642   0.766
 4406SOL    HW114117   7.004   3.681   0.677
 4406SOL    HW214118   6.961   3.573   0.792
 4407SOL     OW14119   6.385   4.807   0.519
 4407SOL    HW114120   6.403   4.776   0.612
 4407SOL    HW214121   6.360   4.728   0.462
 4408SOL     OW14122   3.504   1.001   1.422
 4408SOL    HW114123   3.417   0.983   1.377
 4408SOL    HW214124   3.572   0.935   1.391
 4409SOL     OW14125   5.034   0.798   2.518
 4409SOL    HW114126   5.063   0.784   2.423
 4409SOL    HW214127   4.958   0.863   2.520
 4410SOL     OW14128   1.119   5.028   6.509
 4410SOL    HW114129   1.163   5.107   6.467
 4410SOL    HW214130   1.113   5.042   6.608
 4411SOL     OW14131   3.865   3.735   4.273
 4411SOL    HW114132   3.921   3.655   4.296
 4411SOL    HW214133   3.913   3.790   4.204
 4412SOL     OW14134   4.228   6.713   4.806
 4412SOL    HW114135   4.314   6.727   4.757
 4412SOL    HW214136   4.220   6.617   4.832
 4413SOL     OW14137   6.514   5.343   4.052
 4413SOL    HW114138   6.480   5.317   3.962
 4413SOL    HW214139   6.567   5.267   4.090
 4414SOL     OW14140   3.106   4.530   1.088
 4414SOL    HW114141   3.059   4.442   1.103
 4414SOL    HW214142   3.157   4.554   1.171
 4415SOL     OW14143   3.828   3.109   0.489
 4415SOL    HW114144   3.766   3.074   0.418
 4415SOL    HW214145   3.923   3.102   0.457
 4416SOL     OW14146   2.890   0.578   3.894
 4416SOL    HW114147   2.931   0.551   3.807
 4416SOL    HW214148   2.960   0.618   3.953
 4417SOL     OW14149   5.734   4.439   3.234
 4417SOL    HW114150   5.698   4.414   3.145
 4417SOL    HW214151   5.660   4.439   3.302
 4418SOL     OW14152   5.851   2.031   2.437
 4418SOL    HW114153   5.863   2.020   2.339
 4418SOL    HW214154   5.921   1.980   2.486
 4419SOL     OW14155   5.936   6.295   6.311
 4419SOL    HW114156   5.936   6.392   6.286
 4419SOL    HW214157   5.857   6.250   6.269
 4420SOL     OW14158   5.441   1.156   2.026
 4420SOL    HW114159   5.468   1.065   1.994
 4420SOL    HW214160   5.364   1.189   1.972
 4421SOL     OW14161   2.124   0.844   4.950
 4421SOL    HW114162   2.026   0.851   4.966
 4421SOL    HW214163   2.168   0.929   4.979
 4422SOL     OW14164   2.404   3.818   6.926
 4422SOL    HW114165   2.386   3.741   6.987
 4422SOL    HW214166   2.323   3.876   6.922
 4423SOL     OW14167   0.434   2.969   5.782
 4423SOL    HW114168   0.341   3.000   5.796
 4423SOL    HW214169   0.497   3.026   5.835
 4424SOL     OW14170   5.725   1.107   4.636
 4424SOL    HW114171   5.807   1.067   4.677
 4424SOL    HW214172   5.667   1.145   4.708
 4425SOL     OW14173   3.171   4.482   0.554
 4425SOL    HW114174   3.125   4.547   0.613
 4425SOL    HW214175   3.224   4.531   0.485
 4426SOL     OW14176   6.889   1.230   3.998
 4426SOL    HW114177   6.906   1.245   4.095
 4426SOL    HW214178   6.866   1.316   3.954
 4427SOL     OW14179   0.362   6.558   2.528
 4427SOL    HW114180   0.331   6.604   2.611
 4427SOL    HW214181   0.290   6.498   2.494
 4428SOL     OW14182   3.385   6.907   2.353
 4428SOL    HW114183   3.419   6.971   2.284
 4428SOL    HW214184   3.350   6.958   2.431
 4429SOL     OW14185   2.376   6.121   2.560
 4429SOL    HW114186   2.396   6.023   2.560
 4429SOL    HW214187   2.365   6.153   2.654
 4430SOL     OW14188   4.778   4.058   4.802
 4430SOL    HW114189   4.712   3.989   4.832
 4430SOL    HW214190   4.777   4.135   4.866
 4431SOL     OW14191   2.237   1.187   1.962
 4431SOL    HW114192   2.241   1.180   1.862
 4431SOL    HW214193   2.195   1.104   1.999
 4432SOL     OW14194   3.026   3.888   5.663
 4432SOL    HW114195   3.106   3.842   5.624
 4432SOL    HW214196   2.958   3.819   5.689
 4433SOL     OW14197   4.751   1.776   4.813
 4433SOL    HW114198   4.783   1.684   4.835
 4433SOL    HW214199   4.821   1.824   4.760
 4434SOL     OW14200   5.275   1.419   3.821
 4434SOL    HW114201   5.252   1.335   3.868
 4434SOL    HW214202   5.204   1.440   3.753
 4435SOL     OW14203   4.940   3.484   1.400
 4435SOL    HW114204   4.967   3.573   1.364
 4435SOL    HW214205   5.021   3.429   1.419
 4436SOL     OW14206   4.443   1.108   0.723
 4436SOL    HW114207   4.396   1.043   0.783
 4436SOL    HW214208   4.409   1.201   0.741
 4437SOL     OW14209   5.952   2.103   3.107
 4437SOL    HW114210   5.955   2.050   3.192
 4437SOL    HW214211   5.859   2.134   3.090
 4438SOL     OW14212   5.635   0.592   0.036
 4438SOL    HW114213   5.620   0.564   0.131
 4438SOL    HW214214   5.592   0.681   0.021
 4439SOL     OW14215   0.461   4.635   1.821
 4439SOL    HW114216   0.436   4.538   1.824
 4439SOL    HW214217   0.497   4.657   1.731
 4440SOL     OW14218   2.655   5.108   0.456
 4440SOL    HW114219   2.556   5.119   0.446
 4440SOL    HW214220   2.682   5.129   0.550
 4441SOL     OW14221   6.765   1.411   2.536
 4441SOL    HW114222   6.806   1.393   2.626
 4441SOL    HW214223   6.801   1.346   2.470
 4442SOL     OW14224   2.371   5.528   4.339
 4442SOL    HW114225   2.427   5.460   4.386
 4442SOL    HW214226   2.347   5.494   4.248
 4443SOL     OW14227   0.337   2.805   0.403
 4443SOL    HW114228   0.333   2.904   0.403
 4443SOL    HW214229   0.327   2.771   0.310
 4444SOL     OW14230   3.286   4.521   5.451
 4444SOL    HW114231   3.219   4.503   5.378
 4444SOL    HW214232   3.314   4.434   5.492
 4445SOL     OW14233   1.152   6.613   0.779
 4445SOL    HW114234   1.181   6.520   0.801
 4445SOL    HW214235   1.090   6.611   0.700
 4446SOL     OW14236   5.706   0.574   2.000
 4446SOL    HW114237   5.806   0.582   1.999
 4446SOL    HW214238   5.670   0.593   1.909
 4447SOL     OW14239   5.733   3.731   5.984
 4447SOL    HW114240   5.681   3.801   5.933
 4447SOL    HW214241   5.676   3.650   5.996
 4448SOL     OW14242   2.566   3.911   1.660
 4448SOL    HW114243   2.543   3.935   1.565
 4448SOL    HW214244   2.501   3.843   1.693
 4449SOL     OW14245   5.526   0.454   6.208
 4449SOL    HW114246   5.471   0.520   6.259
 4449SOL    HW214247   5.547   0.376   6.266
 4450SOL     OW14248   3.317   3.494   5.270
 4450SOL    HW114249   3.270   3.407   5.253
 4450SOL    HW214250   3.248   3.566   5.283
 4451SOL     OW14251   6.645   4.830   3.086
 4451SOL    HW114252   6.729   4.830   3.139
 4451SOL    HW214253   6.667   4.816   2.989
 4452SOL     OW14254   5.147   6.200   4.452
 4452SOL    HW114255   5.208   6.121   4.459
 4452SOL    HW214256   5.061   6.179   4.498
 4453SOL     OW14257   0.671   2.792   1.638
 4453SOL    HW114258   0.706   2.701   1.660
 4453SOL    HW214259   0.585   2.784   1.588
 4454SOL     OW14260   1.465   2.149   0.470
 4454SOL    HW114261   1.376   2.149   0.514
 4454SOL    HW214262   1.459   2.106   0.380
 4455SOL     OW14263   4.316   6.592   5.847
 4455SOL    HW114264   4.327   6.622   5.942
 4455SOL    HW214265   4.381   6.518   5.828
 4456SOL     OW14266   3.350   5.813   2.296
 4456SOL    HW114267   3.260   5.773   2.309
 4456SOL    HW214268   3.370   5.876   2.371
 4457SOL     OW14269   4.486   1.109   2.431
 4457SOL    HW114270   4.460   1.062   2.346
 4457SOL    HW214271   4.437   1.195   2.438
 4458SOL     OW14272   1.838   2.873   0.082
 4458SOL    HW114273   1.858   2.960   0.127
 4458SOL    HW214274   1.913   2.809   0.098
 4459SOL     OW14275   3.738   0.969   4.818
 4459SOL    HW114276   3.775   0.968   4.726
 4459SOL    HW214277   3.804   1.010   4.881
 4460SOL     OW14278   2.785   2.916   5.888
 4460SOL    HW114279   2.718   2.984   5.859
 4460SOL    HW214280   2.874   2.961   5.901
 4461SOL     OW14281   1.254   0.234   1.079
 4461SOL    HW114282   1.175   0.277   1.122
 4461SOL    HW214283   1.334   0.292   1.092
 4462SOL     OW14284   5.924   5.157   1.731
 4462SOL    HW114285   5.955   5.179   1.824
 4462SOL    HW214286   5.969   5.217   1.665
 4463SOL     OW14287   5.120   2.004   0.204
 4463SOL    HW114288   5.047   1.989   0.270
 4463SOL    HW214289   5.143   1.918   0.159
 4464SOL     OW14290   6.582   5.873   1.018
 4464SOL    HW114291   6.578   5.844   1.114
 4464SOL    HW214292   6.548   5.799   0.960
 4465SOL     OW14293   2.654   5.474   1.408
 4465SOL    HW114294   2.736   5.431   1.370
 4465SOL    HW214295   2.574   5.419   1.387
 4466SOL     OW14296   1.784   1.455   3.628
 4466SOL    HW114297   1.732   1.416   3.552
 4466SOL    HW214298   1.851   1.389   3.660
 4467SOL     OW14299   1.622   6.260   2.544
 4467SOL    HW114300   1.652   6.268   2.639
 4467SOL    HW214301   1.605   6.352   2.508
 4468SOL     OW14302   1.888   3.492   0.319
 4468SOL    HW114303   1.894   3.585   0.283
 4468SOL    HW214304   1.833   3.492   0.402
 4469SOL     OW14305   3.089   0.601   1.476
 4469SOL    HW114306   3.095   0.502   1.492
 4469SOL    HW214307   3.154   0.648   1.536
 4470SOL     OW14308   6.314   2.354   2.154
 4470SOL    HW114309   6.300   2.286   2.082
 4470SOL    HW214310   6.265   2.438   2.130
 4471SOL     OW14311   1.065   2.167   6.609
 4471SOL    HW114312   1.063   2.067   6.607
 4471SOL    HW214313   1.070   2.202   6.516
 4472SOL     OW14314   1.250   3.386   2.381
 4472SOL    HW114315   1.323   3.388   2.449
 4472SOL    HW214316   1.169   3.342   2.421
 4473SOL     OW14317   6.484   2.913   4.695
 4473SOL    HW114318   6.569   2.965   4.690
 4473SOL    HW214319   6.463   2.892   4.791
 4474SOL     OW14320   2.542   0.805   2.118
 4474SOL    HW114321   2.545   0.855   2.031
 4474SOL    HW214322   2.613   0.840   2.179
 4475SOL     OW14323   1.701   3.958   2.827
 4475SOL    HW114324   1.748   3.901   2.895
 4475SOL    HW214325   1.726   3.928   2.735
 4476SOL     OW14326   4.226   0.593   3.137
 4476SOL    HW114327   4.168   0.615   3.057
 4476SOL    HW214328   4.170   0.596   3.220
 4477SOL     OW14329   2.188   6.861   4.845
 4477SOL    HW114330   2.206   6.775   4.797
 4477SOL    HW214331   2.117   6.913   4.797
 4478SOL     OW14332   4.053   6.660   2.864
 4478SOL    HW114333   3.996   6.723   2.916
 4478SOL    HW214334   4.129   6.710   2.822
 4479SOL     OW14335   0.286   1.463   2.223
 4479SOL    HW114336   0.326   1.550   2.193
 4479SOL    HW214337   0.291   1.396   2.148
 4480SOL     OW14338   1.390   3.889   4.934
 4480SOL    HW114339   1.457   3.940   4.988
 4480SOL    HW214340   1.436   3.838   4.862
 4481SOL     OW14341   3.454   5.882   4.699
 4481SOL    HW114342   3.473   5.980   4.695
 4481SOL    HW214343   3.359   5.867   4.725
 4482SOL     OW14344   1.104   2.958   4.705
 4482SOL    HW114345   1.157   2.873   4.712
 4482SOL    HW214346   1.018   2.949   4.755
 4483SOL     OW14347   5.440   2.915   2.445
 4483SOL    HW114348   5.471   2.905   2.540
 4483SOL    HW214349   5.380   2.838   2.422
 4484SOL     OW14350   2.552   2.346   6.600
 4484SOL    HW114351   2.622   2.390   6.544
 4484SOL    HW214352   2.575   2.249   6.613
 4485SOL     OW14353   6.045   1.929   4.989
 4485SOL    HW114354   6.063   1.897   5.081
 4485SOL    HW214355   5.986   2.010   4.992
 4486SOL     OW14356   5.561   4.590   5.147
 4486SOL    HW114357   5.480   4.534   5.161
 4486SOL    HW214358   5.534   4.683   5.120
 4487SOL     OW14359   2.133   2.899   6.546
 4487SOL    HW114360   2.220   2.921   6.591
 4487SOL    HW214361   2.091   2.983   6.512
 4488SOL     OW14362   0.465   3.434   6.266
 4488SOL    HW114363   0.453   3.359   6.202
 4488SOL    HW214364   0.554   3.477   6.251
 4489SOL     OW14365   5.447   5.344   4.544
 4489SOL    HW114366   5.417   5.253   4.515
 4489SOL    HW214367   5.462   5.344   4.643
 4490SOL     OW14368   6.190   2.832   2.438
 4490SOL    HW114369   6.132   2.750   2.439
 4490SOL    HW214370   6.241   2.837   2.524
 4491SOL     OW14371   6.555   2.572   4.489
 4491SOL    HW114372   6.496   2.614   4.558
 4491SOL    HW214373   6.581   2.640   4.421
 4492SOL     OW14374   5.855   4.653   1.507
 4492SOL    HW114375   5.819   4.562   1.486
 4492SOL    HW214376   5.892   4.653   1.600
 4493SOL     OW14377   4.869   5.406   4.592
 4493SOL    HW114378   4.947   5.371   4.540
 4493SOL    HW214379   4.785   5.396   4.538
 4494SOL     OW14380   0.760   1.197   6.808
 4494SOL    HW114381   0.811   1.154   6.883
 4494SOL    HW214382   0.662   1.188   6.825
 4495SOL     OW14383   3.497   6.570   4.509
 4495SOL    HW114384   3.507   6.627   4.427
 4495SOL    HW214385   3.578   6.513   4.519
 4496SOL     OW14386   5.535   6.064   1.068
 4496SOL    HW114387   5.461   6.124   1.036
 4496SOL    HW214388   5.516   6.033   1.160
 4497SOL     OW14389   4.891   1.682   0.080
 4497SOL    HW114390   4.882   1.749   0.154
 4497SOL    HW214391   4.809   1.685   0.023
 4498SOL     OW14392   0.174   4.016   0.565
 4498SOL    HW114393   0.132   3.968   0.487
 4498SOL    HW214394   0.151   3.968   0.650
 4499SOL     OW14395   6.388   3.676   4.876
 4499SOL    HW114396   6.412   3.757   4.929
 4499SOL    HW214397   6.469   3.644   4.826
 4500SOL     OW14398   3.171   3.096   4.670
 4500SOL    HW114399   3.097   3.162   4.668
 4500SOL    HW214400   3.172   3.050   4.759
 4501SOL     OW14401   0.311   3.294   3.326
 4501SOL    HW114402   0.267   3.370   3.373
 4501SOL    HW214403   0.293   3.300   3.228
 4502SOL     OW14404   0.743   2.794   6.720
 4502SOL    HW114405   0.786   2.875   6.760
 4502SOL    HW214406   0.691   2.745   6.790
 4503SOL     OW14407   3.360   6.977   1.713
 4503SOL    HW114408   3.300   6.918   1.767
 4503SOL    HW214409   3.396   0.027   1.770
 4504SOL     OW14410   6.851   1.343   5.028
 4504SOL    HW114411   6.752   1.348   5.030
 4504SOL    HW214412   6.889   1.424   4.984
 4505SOL     OW14413   5.447   5.474   1.937
 4505SOL    HW114414   5.494   5.430   2.013
 4505SOL    HW214415   5.371   5.418   1.906
 4506SOL     OW14416   4.696   2.755   3.556
 4506SOL    HW114417   4.677   2.728   3.651
 4506SOL    HW214418   4.723   2.675   3.503
 4507SOL     OW14419   5.465   4.436   2.709
 4507SOL    HW114420   5.371   4.470   2.715
 4507SOL    HW214421   5.526   4.496   2.760
 4508SOL     OW14422   1.443   5.399   6.402
 4508SOL    HW114423   1.362   5.436   6.447
 4508SOL    HW214424   1.525   5.435   6.446
 4509SOL     OW14425   4.194   2.251   2.716
 4509SOL    HW114426   4.278   2.272   2.666
 4509SOL    HW214427   4.213   2.246   2.814
 4510SOL     OW14428   3.800   1.705   3.954
 4510SOL    HW114429   3.767   1.641   4.024
 4510SOL    HW214430   3.728   1.772   3.934
 4511SOL     OW14431   6.282   3.461   0.175
 4511SOL    HW114432   6.232   3.508   0.102
 4511SOL    HW214433   6.266   3.506   0.262
 4512SOL     OW14434   2.898   1.442   5.563
 4512SOL    HW114435   2.801   1.457   5.543
 4512SOL    HW214436   2.922   1.491   5.647
 4513SOL     OW14437   6.332   5.401   0.605
 4513SOL    HW114438   6.376   5.356   0.683
 4513SOL    HW214439   6.402   5.444   0.548
 4514SOL     OW14440   3.993   1.822   6.263
 4514SOL    HW114441   4.058   1.844   6.337
 4514SOL    HW214442   3.909   1.874   6.277
 4515SOL     OW14443   0.054   1.779   6.098
 4515SOL    HW114444   0.100   1.719   6.034
 4515SOL    HW214445   0.034   1.866   6.054
 4516SOL     OW14446   1.838   0.202   7.000
 4516SOL    HW114447   1.821   0.111   0.016
 4516SOL    HW214448   1.760   0.227   6.942
 4517SOL     OW14449   4.011   1.052   6.788
 4517SOL    HW114450   4.105   1.053   6.824
 4517SOL    HW214451   3.953   1.112   6.843
 4518SOL     OW14452   6.538   0.244   2.733
 4518SOL    HW114453   6.521   0.264   2.830
 4518SOL    HW214454   6.517   0.148   2.715
 4519SOL     OW14455   7.021   0.053   1.533
 4519SOL    HW114456   0.043   0.110   1.466
 4519SOL    HW214457   6.956   0.108   1.585
 4520SOL     OW14458   4.716   6.473   4.787
 4520SOL    HW114459   4.808   6.434   4.786
 4520SOL    HW214460   4.721   6.569   4.759
 4521SOL     OW14461   6.823   2.021   4.384
 4521SOL    HW114462   6.891   1.974   4.440
 4521SOL    HW214463   6.732   2.011   4.426
 4522SOL     OW14464   5.303   5.941   2.968
 4522SOL    HW114465   5.248   5.889   2.903
 4522SOL    HW214466   5.242   5.990   3.031
 4523SOL     OW14467   0.834   4.428   6.955
 4523SOL    HW114468   0.804   4.448   6.862
 4523SOL    HW214469   0.808   4.502   7.016
 4524SOL     OW14470   6.518   2.522   3.135
 4524SOL    HW114471   6.564   2.533   3.047
 4524SOL    HW214472   6.449   2.450   3.126
 4525SOL     OW14473   5.056   1.677   5.763
 4525SOL    HW114474   5.109   1.683   5.847
 4525SOL    HW214475   5.093   1.740   5.695
 4526SOL     OW14476   6.694   0.267   0.923
 4526SOL    HW114477   6.718   0.278   0.826
 4526SOL    HW214478   6.596   0.246   0.930
 4527SOL     OW14479   5.212   1.204   3.965
 4527SOL    HW114480   5.280   1.146   3.922
 4527SOL    HW214481   5.120   1.167   3.947
 4528SOL     OW14482   4.949   0.915   0.378
 4528SOL    HW114483   4.895   0.853   0.322
 4528SOL    HW214484   4.907   1.006   0.375
 4529SOL     OW14485   2.429   0.423   5.394
 4529SOL    HW114486   2.353   0.475   5.433
 4529SOL    HW214487   2.497   0.406   5.464
 4530SOL     OW14488   2.317   5.328   4.861
 4530SOL    HW114489   2.375   5.246   4.869
 4530SOL    HW214490   2.236   5.307   4.807
 4531SOL     OW14491   0.312   2.600   4.975
 4531SOL    HW114492   0.215   2.591   4.997
 4531SOL    HW214493   0.327   2.682   4.921
 4532SOL     OW14494   6.294   1.490   2.422
 4532SOL    HW114495   6.284   1.478   2.521
 4532SOL    HW214496   6.206   1.476   2.378
 4533SOL     OW14497   1.068   1.515   1.890
 4533SOL    HW114498   1.157   1.475   1.868
 4533SOL    HW214499   1.025   1.461   1.963
 4534SOL     OW14500   4.776   4.027   4.182
 4534SOL    HW114501   4.798   4.035   4.279
 4534SOL    HW214502   4.757   4.118   4.145
 4535SOL     OW14503   3.637   0.882   2.659
 4535SOL    HW114504   3.652   0.980   2.660
 4535SOL    HW214505   3.566   0.859   2.593
 4536SOL     OW14506   3.638   1.529   4.159
 4536SOL    HW114507   3.546   1.496   4.141
 4536SOL    HW214508   3.691   1.457   4.205
 4537SOL     OW14509   4.069   3.691   0.561
 4537SOL    HW114510   4.066   3.780   0.515
 4537SOL    HW214511   4.079   3.618   0.492
 4538SOL     OW14512   1.750   0.162   2.958
 4538SOL    HW114513   1.812   0.220   3.012
 4538SOL    HW214514   1.679   0.219   2.916
 4539SOL     OW14515   2.695   6.860   4.853
 4539SOL    HW114516   2.624   6.796   4.881
 4539SOL    HW214517   2.727   6.911   4.933
 4540SOL     OW14518   2.669   2.707   6.009
 4540SOL    HW114519   2.702   2.621   5.969
 4540SOL    HW214520   2.706   2.784   5.956
 4541SOL     OW14521   6.468   2.078   0.723
 4541SOL    HW114522   6.477   2.144   0.798
 4541SOL    HW214523   6.550   2.080   0.666
 4542SOL     OW14524   0.050   1.626   1.986
 4542SOL    HW114525   0.057   1.650   2.083
 4542SOL    HW214526   0.084   1.701   1.930
 4543SOL     OW14527   4.409   2.061   1.977
 4543SOL    HW114528   4.336   1.993   1.978
 4543SOL    HW214529   4.374   2.147   1.939
 4544SOL     OW14530   3.423   5.894   5.753
 4544SOL    HW114531   3.438   5.872   5.657
 4544SOL    HW214532   3.500   5.861   5.807
 4545SOL     OW14533   5.813   3.565   4.229
 4545SOL    HW114534   5.758   3.484   4.209
 4545SOL    HW214535   5.859   3.554   4.317
 4546SOL     OW14536   1.543   0.868   5.180
 4546SOL    HW114537   1.475   0.846   5.110
 4546SOL    HW214538   1.565   0.965   5.177
 4547SOL     OW14539   5.761   2.457   2.196
 4547SOL    HW114540   5.762   2.435   2.099
 4547SOL    HW214541   5.670   2.439   2.233
 4548SOL     OW14542   1.618   3.253   4.158
 4548SOL    HW114543   1.706   3.299   4.152
 4548SOL    HW214544   1.583   3.259   4.252
 4549SOL     OW14545   6.711   3.965   1.560
 4549SOL    HW114546   6.640   4.034   1.547
 4549SOL    HW214547   6.688   3.884   1.506
 4550SOL     OW14548   1.130   5.117   3.319
 4550SOL    HW114549   1.043   5.167   3.324
 4550SOL    HW214550   1.149   5.075   3.408
 4551SOL     OW14551   0.016   3.061   4.756
 4551SOL    HW114552   6.978   3.125   4.803
 4551SOL    HW214553   0.034   2.983   4.816
 4552SOL     OW14554   6.285   3.398   2.065
 4552SOL    HW114555   6.355   3.365   2.129
 4552SOL    HW214556   6.252   3.321   2.010
 4553SOL     OW14557   2.908   4.831   6.372
 4553SOL    HW114558   2.897   4.881   6.458
 4553SOL    HW214559   2.974   4.878   6.314
 4554SOL     OW14560   6.075   0.117   1.358
 4554SOL    HW114561   6.136   0.160   1.291
 4554SOL    HW214562   6.005   0.182   1.386
 4555SOL     OW14563   2.248   2.709   6.096
 4555SOL    HW114564   2.257   2.794   6.044
 4555SOL    HW214565   2.171   2.716   6.159
 4556SOL     OW14566   5.687   2.801   4.165
 4556SOL    HW114567   5.595   2.763   4.173
 4556SOL    HW214568   5.685   2.884   4.110
 4557SOL     OW14569   5.111   6.515   5.247
 4557SOL    HW114570   5.120   6.592   5.185
 4557SOL    HW214571   5.054   6.541   5.325
 4558SOL     OW14572   0.120   4.577   5.247
 4558SOL    HW114573   0.176   4.504   5.207
 4558SOL    HW214574   0.082   4.634   5.174
 4559SOL     OW14575   0.391   3.985   2.067
 4559SOL    HW114576   0.420   3.893   2.041
 4559SOL    HW214577   0.292   3.991   2.066
 4560SOL     OW14578   5.310   3.885   1.454
 4560SOL    HW114579   5.407   3.907   1.442
 4560SOL    HW214580   5.257   3.969   1.457
 4561SOL     OW14581   2.150   1.966   2.799
 4561SOL    HW114582   2.140   1.870   2.775
 4561SOL    HW214583   2.059   2.008   2.810
 4562SOL     OW14584   2.460   6.296   5.747
 4562SOL    HW114585   2.539   6.263   5.695
 4562SOL    HW214586   2.471   6.394   5.765
 4563SOL     OW14587   6.950   2.720   1.539
 4563SOL    HW114588   6.910   2.705   1.449
 4563SOL    HW214589   6.913   2.804   1.579
 4564SOL     OW14590   6.675   6.170   1.550
 4564SOL    HW114591   6.690   6.128   1.461
 4564SOL    HW214592   6.746   6.238   1.569
 4565SOL     OW14593   0.946   1.272   4.812
 4565SOL    HW114594   1.012   1.316   4.873
 4565SOL    HW214595   0.932   1.331   4.732
 4566SOL     OW14596   6.638   2.885   6.990
 4566SOL    HW114597   6.573   2.943   6.940
 4566SOL    HW214598   6.708   2.942   0.009
 4567SOL     OW14599   6.267   0.710   6.718
 4567SOL    HW114600   6.201   0.755   6.658
 4567SOL    HW214601   6.247   0.730   6.813
 4568SOL     OW14602   2.427   3.503   6.075
 4568SOL    HW114603   2.451   3.548   6.161
 4568SOL    HW214604   2.379   3.567   6.016
 4569SOL     OW14605   1.962   1.647   2.670
 4569SOL    HW114606   1.903   1.677   2.745
 4569SOL    HW214607   1.918   1.666   2.582
 4570SOL     OW14608   0.845   6.514   3.103
 4570SOL    HW114609   0.750   6.496   3.077
 4570SOL    HW214610   0.878   6.596   3.055
 4571SOL     OW14611   4.330   4.247   6.463
 4571SOL    HW114612   4.333   4.169   6.401
 4571SOL    HW214613   4.357   4.218   6.555
 4572SOL     OW14614   2.277   0.670   6.710
 4572SOL    HW114615   2.255   0.679   6.613
 4572SOL    HW214616   2.195   0.690   6.764
 4573SOL     OW14617   6.339   1.255   0.282
 4573SOL    HW114618   6.379   1.322   0.220
 4573SOL    HW214619   6.330   1.295   0.373
 4574SOL     OW14620   5.682   4.218   0.634
 4574SOL    HW114621   5.683   4.269   0.720
 4574SOL    HW214622   5.754   4.148   0.637
 4575SOL     OW14623   5.914   0.935   6.773
 4575SOL    HW114624   5.968   0.935   6.689
 4575SOL    HW214625   5.838   0.871   6.764
 4576SOL     OW14626   2.743   6.447   5.717
 4576SOL    HW114627   2.784   6.490   5.798
 4576SOL    HW214628   2.739   6.348   5.730
 4577SOL     OW14629   1.845   2.337   5.090
 4577SOL    HW114630   1.882   2.261   5.142
 4577SOL    HW214631   1.893   2.344   5.002
 4578SOL     OW14632   0.560   2.856   5.202
 4578SOL    HW114633   0.500   2.909   5.143
 4578SOL    HW214634   0.531   2.866   5.297
 4579SOL     OW14635   4.047   0.777   3.607
 4579SOL    HW114636   4.118   0.710   3.628
 4579SOL    HW214637   3.982   0.782   3.684
 4580SOL     OW14638   6.023   4.836   0.542
 4580SOL    HW114639   6.079   4.877   0.615
 4580SOL    HW214640   5.958   4.904   0.509
 4581SOL     OW14641   2.229   5.123   2.836
 4581SOL    HW114642   2.255   5.117   2.932
 4581SOL    HW214643   2.270   5.206   2.796
 4582SOL     OW14644   5.420   0.186   5.336
 4582SOL    HW114645   5.474   0.149   5.260
 4582SOL    HW214646   5.377   0.112   5.387
 4583SOL     OW14647   2.513   2.770   6.634
 4583SOL    HW114648   2.456   2.707   6.686
 4583SOL    HW214649   2.476   2.780   6.542
 4584SOL     OW14650   0.324   4.748   5.623
 4584SOL    HW114651   0.319   4.844   5.597
 4584SOL    HW214652   0.419   4.717   5.622
 4585SOL     OW14653   3.376   5.904   3.308
 4585SOL    HW114654   3.421   5.818   3.334
 4585SOL    HW214655   3.361   5.959   3.390
 4586SOL     OW14656   3.286   4.916   0.564
 4586SOL    HW114657   3.214   4.866   0.516
 4586SOL    HW214658   3.292   4.884   0.659
 4587SOL     OW14659   3.863   3.975   3.089
 4587SOL    HW114660   3.823   3.989   2.999
 4587SOL    HW214661   3.798   4.004   3.159
 4588SOL     OW14662   2.615   3.621   5.369
 4588SOL    HW114663   2.640   3.542   5.314
 4588SOL    HW214664   2.697   3.663   5.408
 4589SOL     OW14665   6.046   0.917   2.586
 4589SOL    HW114666   6.075   0.825   2.559
 4589SOL    HW214667   5.949   0.928   2.565
 4590SOL     OW14668   4.709   5.769   1.393
 4590SOL    HW114669   4.662   5.850   1.356
 4590SOL    HW214670   4.655   5.732   1.469
 4591SOL     OW14671   1.250   6.970   4.839
 4591SOL    HW114672   1.282   0.009   4.768
 4591SOL    HW214673   1.328   6.927   4.884
 4592SOL     OW14674   2.711   1.639   2.392
 4592SOL    HW114675   2.771   1.695   2.449
 4592SOL    HW214676   2.621   1.682   2.386
 4593SOL     OW14677   4.821   5.548   2.655
 4593SOL    HW114678   4.916   5.528   2.631
 4593SOL    HW214679   4.795   5.636   2.615
 4594SOL     OW14680   2.757   1.521   3.081
 4594SOL    HW114681   2.802   1.573   3.008
 4594SOL    HW214682   2.661   1.508   3.058
 4595SOL     OW14683   3.788   3.551   5.542
 4595SOL    HW114684   3.740   3.573   5.457
 4595SOL    HW214685   3.761   3.461   5.573
 4596SOL     OW14686   5.863   0.038   1.983
 4596SOL    HW114687   5.849   0.088   2.069
 4596SOL    HW214688   5.953   7.016   1.986
 4597SOL     OW14689   3.784   5.564   5.922
 4597SOL    HW114690   3.738   5.506   5.854
 4597SOL    HW214691   3.718   5.624   5.966
 4598SOL     OW14692   2.078   6.442   6.526
 4598SOL    HW114693   2.078   6.428   6.625
 4598SOL    HW214694   2.116   6.532   6.505
 4599SOL     OW14695   1.488   4.960   1.074
 4599SOL    HW114696   1.574   5.009   1.086
 4599SOL    HW214697   1.502   4.862   1.087
 4600SOL     OW14698   1.447   5.383   5.500
 4600SOL    HW114699   1.472   5.462   5.557
 4600SOL    HW214700   1.519   5.314   5.506
 4601SOL     OW14701   2.122   1.204   5.636
 4601SOL    HW114702   2.042   1.200   5.696
 4601SOL    HW214703   2.100   1.258   5.555
 4602SOL     OW14704   2.165   6.368   1.002
 4602SOL    HW114705   2.106   6.337   1.077
 4602SOL    HW214706   2.261   6.351   1.027
 4603SOL     OW14707   3.046   6.240   0.705
 4603SOL    HW114708   3.103   6.189   0.768
 4603SOL    HW214709   3.057   6.203   0.612
 4604SOL     OW14710   4.188   0.723   0.740
 4604SOL    HW114711   4.266   0.679   0.784
 4604SOL    HW214712   4.144   0.658   0.678
 4605SOL     OW14713   3.040   0.062   2.415
 4605SOL    HW114714   2.950   0.092   2.385
 4605SOL    HW214715   3.036   6.988   2.439
 4606SOL     OW14716   0.507   6.345   2.395
 4606SOL    HW114717   0.517   6.340   2.296
 4606SOL    HW214718   0.467   6.260   2.429
 4607SOL     OW14719   1.384   3.344   1.753
 4607SOL    HW114720   1.430   3.385   1.832
 4607SOL    HW214721   1.355   3.417   1.691
 4608SOL     OW14722   0.566   6.071   3.592
 4608SOL    HW114723   0.498   6.136   3.625
 4608SOL    HW214724   0.657   6.096   3.627
 4609SOL     OW14725   4.247   5.134   6.532
 4609SOL    HW114726   4.227   5.226   6.497
 4609SOL    HW214727   4.332   5.136   6.584
 4610SOL     OW14728   5.041   2.327   1.088
 4610SOL    HW114729   5.042   2.355   0.992
 4610SOL    HW214730   4.962   2.268   1.104
 4611SOL     OW14731   0.795   6.165   6.581
 4611SOL    HW114732   0.852   6.210   6.512
 4611SOL    HW214733   0.780   6.070   6.554
 4612SOL     OW14734   1.290   5.926   0.094
 4612SOL    HW114735   1.369   5.928   0.032
 4612SOL    HW214736   1.212   5.885   0.047
 4613SOL     OW14737   2.539   5.973   1.865
 4613SOL    HW114738   2.581   5.883   1.882
 4613SOL    HW214739   2.528   6.021   1.952
 4614SOL     OW14740   6.380   3.245   3.504
 4614SOL    HW114741   6.401   3.297   3.421
 4614SOL    HW214742   6.439   3.277   3.578
 4615SOL     OW14743   1.528   0.279   0.137
 4615SOL    HW114744   1.589   0.275   0.216
 4615SOL    HW214745   1.579   0.253   0.055
 4616SOL     OW14746   6.700   0.815   4.874
 4616SOL    HW114747   6.666   0.909   4.885
 4616SOL    HW214748   6.637   0.752   4.918
 4617SOL     OW14749   0.619   2.533   2.629
 4617SOL    HW114750   0.663   2.493   2.709
 4617SOL    HW214751   0.647   2.483   2.547
 4618SOL     OW14752   2.277   2.936   4.813
 4618SOL    HW114753   2.252   3.014   4.755
 4618SOL    HW214754   2.306   2.969   4.902
 4619SOL     OW14755   3.051   6.164   2.988
 4619SOL    HW114756   3.081   6.114   3.069
 4619SOL    HW214757   3.104   6.135   2.909
 4620SOL     OW14758   2.808   4.906   0.916
 4620SOL    HW114759   2.735   4.972   0.930
 4620SOL    HW214760   2.870   4.940   0.844
 4621SOL     OW14761   5.137   0.550   2.209
 4621SOL    HW114762   5.124   0.470   2.149
 4621SOL    HW214763   5.224   0.542   2.256
 4622SOL     OW14764   2.447   4.563   0.642
 4622SOL    HW114765   2.460   4.531   0.736
 4622SOL    HW214766   2.534   4.594   0.606
 4623SOL     OW14767   5.155   6.395   0.892
 4623SOL    HW114768   5.064   6.411   0.931
 4623SOL    HW214769   5.148   6.389   0.792
 4624SOL     OW14770   4.107   6.933   3.020
 4624SOL    HW114771   4.037   6.944   2.949
 4624SOL    HW214772   4.196   6.962   2.983
 4625SOL     OW14773   2.239   4.258   0.970
 4625SOL    HW114774   2.174   4.184   0.986
 4625SOL    HW214775   2.290   4.240   0.885
 4626SOL     OW14776   5.273   4.421   1.476
 4626SOL    HW114777   5.228   4.471   1.550
 4626SOL    HW214778   5.272   4.476   1.393
 4627SOL     OW14779   2.470   4.478   4.648
 4627SOL    HW114780   2.495   4.473   4.552
 4627SOL    HW214781   2.536   4.534   4.697
 4628SOL     OW14782   6.326   4.089   3.851
 4628SOL    HW114783   6.257   4.145   3.805
 4628SOL    HW214784   6.326   4.109   3.949
 4629SOL     OW14785   2.498   5.539   6.011
 4629SOL    HW114786   2.545   5.469   5.958
 4629SOL    HW214787   2.473   5.502   6.100
 4630SOL     OW14788   2.891   5.736   2.762
 4630SOL    HW114789   2.912   5.779   2.850
 4630SOL    HW214790   2.922   5.640   2.764
 4631SOL     OW14791   1.549   5.698   3.227
 4631SOL    HW114792   1.580   5.620   3.172
 4631SOL    HW214793   1.501   5.664   3.308
 4632SOL     OW14794   3.158   4.861   2.520
 4632SOL    HW114795   3.076   4.807   2.537
 4632SOL    HW214796   3.139   4.930   2.450
 4633SOL     OW14797   5.568   0.561   4.724
 4633SOL    HW114798   5.609   0.473   4.747
 4633SOL    HW214799   5.614   0.600   4.644
 4634SOL     OW14800   3.319   4.441   5.810
 4634SOL    HW114801   3.398   4.496   5.782
 4634SOL    HW214802   3.343   4.344   5.806
 4635SOL     OW14803   4.697   4.039   1.284
 4635SOL    HW114804   4.648   3.966   1.237
 4635SOL    HW214805   4.740   4.099   1.217
 4636SOL     OW14806   1.100   4.888   0.110
 4636SOL    HW114807   1.141   4.855   0.195
 4636SOL    HW214808   1.159   4.863   0.033
 4637SOL     OW14809   0.875   6.152   1.205
 4637SOL    HW114810   0.901   6.248   1.208
 4637SOL    HW214811   0.857   6.119   1.298
 4638SOL     OW14812   4.629   4.479   6.682
 4638SOL    HW114813   4.651   4.454   6.776
 4638SOL    HW214814   4.533   4.504   6.675
 4639SOL     OW14815   3.804   3.863   5.513
 4639SOL    HW114816   3.719   3.901   5.476
 4639SOL    HW214817   3.786   3.773   5.553
 4640SOL     OW14818   4.834   3.972   3.909
 4640SOL    HW114819   4.886   3.887   3.905
 4640SOL    HW214820   4.782   3.977   3.995
 4641SOL     OW14821   2.289   0.056   4.587
 4641SOL    HW114822   2.194   0.052   4.618
 4641SOL    HW214823   2.316   6.990   4.550
 4642SOL     OW14824   1.094   5.734   4.419
 4642SOL    HW114825   1.143   5.812   4.382
 4642SOL    HW214826   0.997   5.742   4.397
 4643SOL     OW14827   6.662   2.482   1.131
 4643SOL    HW114828   6.618   2.489   1.041
 4643SOL    HW214829   6.605   2.429   1.193
 4644SOL     OW14830   6.719   5.219   5.266
 4644SOL    HW114831   6.621   5.237   5.267
 4644SOL    HW214832   6.751   5.204   5.360
 4645SOL     OW14833   0.400   0.257   3.855
 4645SOL    HW114834   0.494   0.266   3.824
 4645SOL    HW214835   0.377   0.161   3.867
 4646SOL     OW14836   2.199   5.934   3.774
 4646SOL    HW114837   2.224   5.852   3.826
 4646SOL    HW214838   2.282   5.983   3.748
 4647SOL     OW14839   1.697   6.879   3.004
 4647SOL    HW114840   1.619   6.871   3.066
 4647SOL    HW214841   1.716   6.976   2.987
 4648SOL     OW14842   3.491   1.371   2.561
 4648SOL    HW114843   3.394   1.366   2.585
 4648SOL    HW214844   3.522   1.466   2.567
 4649SOL     OW14845   5.485   0.836   7.014
 4649SOL    HW114846   5.388   0.844   6.995
 4649SOL    HW214847   5.524   0.927   0.005
 4650SOL     OW14848   4.508   5.443   2.499
 4650SOL    HW114849   4.601   5.467   2.472
 4650SOL    HW214850   4.443   5.484   2.434
 4651SOL     OW14851   6.669   2.990   0.531
 4651SOL    HW114852   6.702   2.896   0.524
 4651SOL    HW214853   6.584   2.999   0.478
 4652SOL     OW14854   6.367   0.012   4.500
 4652SOL    HW114855   6.386   0.091   4.442
 4652SOL    HW214856   6.396   6.952   4.452
 4653SOL     OW14857   5.001   5.253   0.795
 4653SOL    HW114858   4.991   5.351   0.807
 4653SOL    HW214859   4.928   5.219   0.735
 4654SOL     OW14860   0.791   6.850   0.336
 4654SOL    HW114861   0.726   6.780   0.365
 4654SOL    HW214862   0.800   6.919   0.407
 4655SOL     OW14863   5.157   4.028   1.123
 4655SOL    HW114864   5.189   4.123   1.130
 4655SOL    HW214865   5.234   3.966   1.141
 4656SOL     OW14866   1.455   0.115   2.519
 4656SOL    HW114867   1.500   0.199   2.549
 4656SOL    HW214868   1.484   0.093   2.426
 4657SOL     OW14869   4.243   6.727   2.047
 4657SOL    HW114870   4.309   6.722   2.122
 4657SOL    HW214871   4.280   6.785   1.974
 4658SOL     OW14872   3.762   1.150   2.934
 4658SOL    HW114873   3.702   1.131   3.012
 4658SOL    HW214874   3.805   1.240   2.945
 4659SOL     OW14875   3.512   4.921   5.181
 4659SOL    HW114876   3.433   4.937   5.121
 4659SOL    HW214877   3.506   4.830   5.221
 4660SOL     OW14878   1.173   3.625   5.450
 4660SOL    HW114879   1.113   3.570   5.509
 4660SOL    HW214880   1.209   3.568   5.377
 4661SOL     OW14881   2.700   4.363   5.789
 4661SOL    HW114882   2.684   4.363   5.690
 4661SOL    HW214883   2.613   4.357   5.837
 4662SOL     OW14884   3.263   0.086   5.480
 4662SOL    HW114885   3.224   7.021   5.504
 4662SOL    HW214886   3.322   0.117   5.555
 4663SOL     OW14887   0.561   1.808   1.626
 4663SOL    HW114888   0.622   1.878   1.664
 4663SOL    HW214889   0.506   1.769   1.700
 4664SOL     OW14890   1.349   1.096   1.237
 4664SOL    HW114891   1.333   1.195   1.242
 4664SOL    HW214892   1.445   1.079   1.214
 4665SOL     OW14893   3.720   0.085   6.498
 4665SOL    HW114894   3.703   0.034   6.582
 4665SOL    HW214895   3.670   0.171   6.500
 4666SOL     OW14896   1.630   3.116   0.630
 4666SOL    HW114897   1.561   3.043   0.624
 4666SOL    HW214898   1.680   3.108   0.716
 4667SOL     OW14899   6.682   3.371   2.448
 4667SOL    HW114900   6.716   3.386   2.355
 4667SOL    HW214901   6.655   3.276   2.458
 4668SOL     OW14902   4.165   1.935   2.796
 4668SOL    HW114903   4.150   2.001   2.723
 4668SOL    HW214904   4.228   1.864   2.764
 4669SOL     OW14905   4.779   6.520   6.346
 4669SOL    HW114906   4.720   6.599   6.359
 4669SOL    HW214907   4.875   6.548   6.352
 4670SOL     OW14908   2.186   2.527   5.858
 4670SOL    HW114909   2.241   2.447   5.881
 4670SOL    HW214910   2.194   2.595   5.930
 4671SOL     OW14911   0.015   2.609   0.732
 4671SOL    HW114912   0.070   2.640   0.654
 4671SOL    HW214913   0.074   2.561   0.797
 4672SOL     OW14914   2.168   4.613   5.876
 4672SOL    HW114915   2.243   4.563   5.918
 4672SOL    HW214916   2.095   4.628   5.944
 4673SOL     OW14917   5.062   0.338   2.065
 4673SOL    HW114918   5.046   0.274   1.989
 4673SOL    HW214919   5.122   0.295   2.132
 4674SOL     OW14920   5.548   1.128   6.743
 4674SOL    HW114921   5.646   1.145   6.750
 4674SOL    HW214922   5.500   1.215   6.731
 4675SOL     OW14923   2.110   1.281   6.629
 4675SOL    HW114924   2.045   1.341   6.676
 4675SOL    HW214925   2.094   1.286   6.530
 4676SOL     OW14926   0.110   6.365   4.017
 4676SOL    HW114927   0.100   6.291   3.950
 4676SOL    HW214928   0.038   6.357   4.086
 4677SOL     OW14929   2.279   1.599   6.509
 4677SOL    HW114930   2.219   1.658   6.563
 4677SOL    HW214931   2.235   1.580   6.421
 4678SOL     OW14932   1.646   4.230   3.054
 4678SOL    HW114933   1.723   4.172   3.029
 4678SOL    HW214934   1.669   4.326   3.034
 4679SOL     OW14935   3.699   1.197   0.479
 4679SOL    HW114936   3.796   1.217   0.495
 4679SOL    HW214937   3.689   1.154   0.389
 4680SOL     OW14938   3.113   1.515   0.563
 4680SOL    HW114939   3.199   1.565   0.575
 4680SOL    HW214940   3.042   1.578   0.531
 4681SOL     OW14941   4.887   5.747   6.307
 4681SOL    HW114942   4.841   5.764   6.220
 4681SOL    HW214943   4.985   5.758   6.295
 4682SOL     OW14944   4.203   4.358   5.624
 4682SOL    HW114945   4.187   4.452   5.593
 4682SOL    HW214946   4.118   4.306   5.618
 4683SOL     OW14947   4.355   4.858   3.083
 4683SOL    HW114948   4.413   4.936   3.060
 4683SOL    HW214949   4.367   4.786   3.015
 4684SOL     OW14950   6.793   1.815   5.105
 4684SOL    HW114951   6.770   1.738   5.165
 4684SOL    HW214952   6.879   1.856   5.135
 4685SOL     OW14953   0.845   5.999   5.416
 4685SOL    HW114954   0.800   5.915   5.444
 4685SOL    HW214955   0.777   6.063   5.381
 4686SOL     OW14956   4.368   4.978   6.748
 4686SOL    HW114957   4.333   4.995   6.840
 4686SOL    HW214958   4.316   4.903   6.707
 4687SOL     OW14959   6.280   3.980   4.677
 4687SOL    HW114960   6.325   3.958   4.764
 4687SOL    HW214961   6.187   3.944   4.677
 4688SOL     OW14962   6.185   4.627   4.472
 4688SOL    HW114963   6.202   4.667   4.382
 4688SOL    HW214964   6.096   4.657   4.505
 4689SOL     OW14965   5.634   0.781   0.410
 4689SOL    HW114966   5.636   0.699   0.353
 4689SOL    HW214967   5.696   0.769   0.487
 4690SOL     OW14968   1.102   6.882   0.045
 4690SOL    HW114969   1.052   6.959   0.006
 4690SOL    HW214970   1.081   6.874   0.142
 4691SOL     OW14971   3.048   4.953   1.522
 4691SOL    HW114972   2.978   4.968   1.593
 4691SOL    HW214973   3.139   4.955   1.564
 4692SOL     OW14974   6.088   5.631   1.966
 4692SOL    HW114975   6.129   5.679   2.043
 4692SOL    HW214976   5.989   5.627   1.979
 4693SOL     OW14977   0.695   1.431   3.302
 4693SOL    HW114978   0.789   1.449   3.333
 4693SOL    HW214979   0.689   1.449   3.204
 4694SOL     OW14980   2.088   0.680   0.328
 4694SOL    HW114981   2.076   0.687   0.229
 4694SOL    HW214982   2.111   0.586   0.352
 4695SOL     OW14983   1.786   3.503   1.808
 4695SOL    HW114984   1.693   3.489   1.843
 4695SOL    HW214985   1.848   3.520   1.885
 4696SOL     OW14986   0.358   4.167   0.185
 4696SOL    HW114987   0.437   4.108   0.166
 4696SOL    HW214988   0.322   4.146   0.275
 4697SOL     OW14989   2.064   3.204   1.382
 4697SOL    HW114990   2.096   3.135   1.447
 4697SOL    HW214991   2.038   3.159   1.297
 4698SOL     OW14992   4.530   5.023   2.960
 4698SOL    HW114993   4.623   5.008   2.992
 4698SOL    HW214994   4.527   5.012   2.861
 4699SOL     OW14995   1.611   6.589   2.095
 4699SOL    HW114996   1.601   6.590   1.995
 4699SOL    HW214997   1.627   6.495   2.126
 4700SOL     OW14998   6.513   1.700   2.944
 4700SOL    HW114999   6.417   1.682   2.969
 4700SOL    HW215000   6.517   1.776   2.879
 4701SOL     OW15001   2.229   2.139   7.020
 4701SOL    HW115002   2.290   2.088   6.960
 4701SOL    HW215003   2.270   2.227   0.020
 4702SOL     OW15004   3.878   5.256   6.827
 4702SOL    HW115005   3.920   5.270   6.917
 4702SOL    HW215006   3.927   5.183   6.779
 4703SOL     OW15007   0.953   1.408   1.515
 4703SOL    HW115008   0.916   1.475   1.580
 4703SOL    HW215009   1.033   1.363   1.555
 4704SOL     OW15010   0.498   6.476   0.696
 4704SOL    HW115011   0.522   6.413   0.770
 4704SOL    HW215012   0.516   6.432   0.608
 4705SOL     OW15013   3.599   3.142   2.346
 4705SOL    HW115014   3.549   3.055   2.347
 4705SOL    HW215015   3.689   3.128   2.304
 4706SOL     OW15016   3.589   0.329   6.531
 4706SOL    HW115017   3.649   0.403   6.501
 4706SOL    HW215018   3.495   0.362   6.538
 4707SOL     OW15019   1.861   6.669   0.838
 4707SOL    HW115020   1.925   6.733   0.881
 4707SOL    HW215021   1.907   6.582   0.822
 4708SOL     OW15022   1.283   1.731   6.670
 4708SOL    HW115023   1.214   1.672   6.628
 4708SOL    HW215024   1.352   1.755   6.601
 4709SOL     OW15025   4.616   5.997   5.824
 4709SOL    HW115026   4.547   5.926   5.839
 4709SOL    HW215027   4.703   5.954   5.801
 4710SOL     OW15028   4.241   1.015   5.352
 4710SOL    HW115029   4.185   0.933   5.358
 4710SOL    HW215030   4.294   1.027   5.436
 4711SOL     OW15031   5.731   0.739   1.221
 4711SOL    HW115032   5.717   0.686   1.305
 4711SOL    HW215033   5.808   0.702   1.170
 4712SOL     OW15034   2.761   4.411   6.962
 4712SOL    HW115035   2.758   4.350   0.018
 4712SOL    HW215036   2.672   4.456   6.952
 4713SOL     OW15037   3.176   3.482   0.369
 4713SOL    HW115038   3.182   3.470   0.468
 4713SOL    HW215039   3.081   3.494   0.342
 4714SOL     OW15040   1.116   2.485   0.204
 4714SOL    HW115041   1.124   2.504   0.107
 4714SOL    HW215042   1.079   2.565   0.251
 4715SOL     OW15043   5.346   2.419   2.786
 4715SOL    HW115044   5.394   2.342   2.744
 4715SOL    HW215045   5.339   2.494   2.720
 4716SOL     OW15046   4.999   5.593   6.681
 4716SOL    HW115047   4.998   5.497   6.652
 4716SOL    HW215048   4.930   5.644   6.630
 4717SOL     OW15049   0.089   0.147   3.879
 4717SOL    HW115050   0.098   0.144   3.780
 4717SOL    HW215051   0.048   0.062   3.912
 4718SOL     OW15052   5.374   2.738   1.641
 4718SOL    HW115053   5.447   2.754   1.574
 4718SOL    HW215054   5.300   2.686   1.597
 4719SOL     OW15055   5.252   3.199   1.832
 4719SOL    HW115056   5.229   3.117   1.883
 4719SOL    HW215057   5.266   3.275   1.895
 4720SOL     OW15058   2.261   5.351   5.889
 4720SOL    HW115059   2.325   5.427   5.896
 4720SOL    HW215060   2.182   5.378   5.835
 4721SOL     OW15061   6.631   2.125   2.017
 4721SOL    HW115062   6.588   2.040   1.988
 4721SOL    HW215063   6.725   2.106   2.045
 4722SOL     OW15064   0.983   6.090   6.195
 4722SOL    HW115065   0.986   6.010   6.136
 4722SOL    HW215066   1.076   6.114   6.223
 4723SOL     OW15067   2.436   3.690   5.798
 4723SOL    HW115068   2.456   3.762   5.865
 4723SOL    HW215069   2.395   3.731   5.717
 4724SOL     OW15070   6.126   5.845   2.870
 4724SOL    HW115071   6.110   5.908   2.946
 4724SOL    HW215072   6.141   5.897   2.786
 4725SOL     OW15073   6.516   5.749   2.736
 4725SOL    HW115074   6.582   5.711   2.801
 4725SOL    HW215075   6.565   5.791   2.660
 4726SOL     OW15076   1.805   2.642   5.774
 4726SOL    HW115077   1.878   2.595   5.724
 4726SOL    HW215078   1.720   2.592   5.762
 4727SOL     OW15079   1.102   5.965   1.101
 4727SOL    HW115080   1.010   5.994   1.127
 4727SOL    HW215081   1.098   5.871   1.067
 4728SOL     OW15082   6.324   1.025   1.988
 4728SOL    HW115083   6.295   1.118   2.009
 4728SOL    HW215084   6.387   1.027   1.911
 4729SOL     OW15085   2.739   1.489   0.626
 4729SOL    HW115086   2.703   1.495   0.533
 4729SOL    HW215087   2.663   1.490   0.691
 4730SOL     OW15088   3.214   5.767   4.857
 4730SOL    HW115089   3.159   5.696   4.901
 4730SOL    HW215090   3.174   5.857   4.876
 4731SOL     OW15091   4.577   0.212   0.101
 4731SOL    HW115092   4.628   0.221   0.015
 4731SOL    HW215093   4.641   0.221   0.178
 4732SOL     OW15094   0.789   3.047   6.114
 4732SOL    HW115095   0.826   3.095   6.194
 4732SOL    HW215096   0.729   3.109   6.063
 4733SOL     OW15097   1.078   3.824   3.273
 4733SOL    HW115098   1.135   3.742   3.273
 4733SOL    HW215099   1.136   3.905   3.269
 4734SOL     OW15100   4.452   2.721   0.878
 4734SOL    HW115101   4.528   2.657   0.892
 4734SOL    HW215102   4.487   2.806   0.838
 4735SOL     OW15103   7.015   5.883   4.563
 4735SOL    HW115104   6.935   5.841   4.519
 4735SOL    HW215105   0.073   5.865   4.509
 4736SOL     OW15106   0.146   1.864   6.332
 4736SOL    HW115107   0.104   1.818   6.254
 4736SOL    HW215108   0.075   1.895   6.395
 4737SOL     OW15109   2.227   4.386   2.102
 4737SOL    HW115110   2.155   4.438   2.056
 4737SOL    HW215111   2.275   4.445   2.166
 4738SOL     OW15112   0.250   6.477   3.176
 4738SOL    HW115113   0.209   6.540   3.242
 4738SOL    HW215114   0.311   6.414   3.224
 4739SOL     OW15115   4.103   6.552   3.543
 4739SOL    HW115116   4.049   6.626   3.504
 4739SOL    HW215117   4.043   6.476   3.567
 4740SOL     OW15118   0.804   1.328   1.282
 4740SOL    HW115119   0.851   1.364   1.363
 4740SOL    HW215120   0.727   1.388   1.260
 4741SOL     OW15121   4.065   3.462   1.012
 4741SOL    HW115122   4.040   3.548   1.056
 4741SOL    HW215123   4.085   3.478   0.916
 4742SOL     OW15124   3.652   6.762   5.767
 4742SOL    HW115125   3.694   6.778   5.856
 4742SOL    HW215126   3.697   6.820   5.698
 4743SOL     OW15127   1.706   3.260   3.345
 4743SOL    HW115128   1.770   3.191   3.311
 4743SOL    HW215129   1.756   3.344   3.367
 4744SOL     OW15130   1.775   4.556   0.531
 4744SOL    HW115131   1.772   4.462   0.499
 4744SOL    HW215132   1.742   4.560   0.626
 4745SOL     OW15133   3.305   4.170   5.811
 4745SOL    HW115134   3.395   4.126   5.802
 4745SOL    HW215135   3.234   4.099   5.816
 4746SOL     OW15136   5.590   6.085   2.267
 4746SOL    HW115137   5.508   6.031   2.286
 4746SOL    HW215138   5.668   6.045   2.316
 4747SOL     OW15139   1.391   3.989   0.010
 4747SOL    HW115140   1.488   3.975   7.018
 4747SOL    HW215141   1.376   4.083   0.042
 4748SOL     OW15142   2.348   5.187   0.921
 4748SOL    HW115143   2.379   5.255   0.988
 4748SOL    HW215144   2.265   5.219   0.877
 4749SOL     OW15145   2.126   6.398   5.653
 4749SOL    HW115146   2.114   6.318   5.593
 4749SOL    HW215147   2.113   6.482   5.600
 4750SOL     OW15148   0.352   3.931   4.482
 4750SOL    HW115149   0.271   3.912   4.538
 4750SOL    HW215150   0.426   3.966   4.541
 4751SOL     OW15151   3.937   2.138   2.111
 4751SOL    HW115152   3.978   2.081   2.181
 4751SOL    HW215153   3.918   2.229   2.148
 4752SOL     OW15154   4.046   1.535   6.484
 4752SOL    HW115155   4.136   1.580   6.489
 4752SOL    HW215156   3.981   1.585   6.541
 4753SOL     OW15157   6.120   0.156   3.560
 4753SOL    HW115158   6.220   0.159   3.552
 4753SOL    HW215159   6.079   0.189   3.475
 4754SOL     OW15160   5.750   5.148   4.914
 4754SOL    HW115161   5.723   5.166   5.008
 4754SOL    HW215162   5.728   5.227   4.857
 4755SOL     OW15163   3.060   0.483   0.209
 4755SOL    HW115164   3.013   0.538   0.139
 4755SOL    HW215165   3.151   0.457   0.175
 4756SOL     OW15166   6.001   2.638   6.940
 4756SOL    HW115167   5.928   2.706   6.947
 4756SOL    HW215168   6.019   2.617   6.844
 4757SOL     OW15169   2.558   1.459   0.817
 4757SOL    HW115170   2.571   1.362   0.837
 4757SOL    HW215171   2.589   1.514   0.896
 4758SOL     OW15172   1.523   6.207   3.686
 4758SOL    HW115173   1.459   6.204   3.609
 4758SOL    HW215174   1.489   6.151   3.761
 4759SOL     OW15175   6.316   4.672   4.916
 4759SOL    HW115176   6.387   4.641   4.853
 4759SOL    HW215177   6.311   4.772   4.914
 4760SOL     OW15178   2.330   2.239   0.685
 4760SOL    HW115179   2.420   2.195   0.679
 4760SOL    HW215180   2.287   2.215   0.772
 4761SOL     OW15181   0.531   5.834   0.150
 4761SOL    HW115182   0.594   5.879   0.087
 4761SOL    HW215183   0.437   5.863   0.130
 4762SOL     OW15184   1.452   5.829   1.954
 4762SOL    HW115185   1.366   5.804   1.999
 4762SOL    HW215186   1.529   5.808   2.015
 4763SOL     OW15187   5.851   0.049   2.843
 4763SOL    HW115188   5.823   0.119   2.778
 4763SOL    HW215189   5.951   0.052   2.855
 4764SOL     OW15190   4.862   3.880   5.093
 4764SOL    HW115191   4.936   3.885   5.026
 4764SOL    HW215192   4.827   3.786   5.097
 4765SOL     OW15193   4.916   1.167   4.955
 4765SOL    HW115194   4.818   1.162   4.940
 4765SOL    HW215195   4.957   1.229   4.887
 4766SOL     OW15196   5.658   5.806   4.158
 4766SOL    HW115197   5.659   5.736   4.230
 4766SOL    HW215198   5.655   5.897   4.200
 4767SOL     OW15199   2.930   5.343   5.130
 4767SOL    HW115200   3.022   5.310   5.154
 4767SOL    HW215201   2.862   5.282   5.170
 4768SOL     OW15202   4.319   2.356   6.536
 4768SOL    HW115203   4.368   2.301   6.467
 4768SOL    HW215204   4.232   2.386   6.498
 4769SOL     OW15205   4.608   5.170   0.028
 4769SOL    HW115206   4.572   5.136   0.115
 4769SOL    HW215207   4.648   5.093   7.001
 4770SOL     OW15208   0.314   1.162   4.042
 4770SOL    HW115209   0.336   1.150   4.139
 4770SOL    HW215210   0.270   1.251   4.029
 4771SOL     OW15211   2.800   5.545   5.255
 4771SOL    HW115212   2.851   5.475   5.205
 4771SOL    HW215213   2.814   5.533   5.353
 4772SOL     OW15214   4.005   5.005   0.884
 4772SOL    HW115215   3.940   4.935   0.854
 4772SOL    HW215216   4.098   4.971   0.870
 4773SOL     OW15217   6.980   5.419   4.571
 4773SOL    HW115218   6.936   5.425   4.482
 4773SOL    HW215219   0.055   5.405   4.559
 4774SOL     OW15220   1.819   3.240   1.747
 4774SOL    HW115221   1.798   3.324   1.798
 4774SOL    HW215222   1.909   3.249   1.703
 4775SOL     OW15223   5.423   6.702   3.035
 4775SOL    HW115224   5.360   6.779   3.035
 4775SOL    HW215225   5.465   6.693   2.944
 4776SOL     OW15226   1.114   6.259   5.935
 4776SOL    HW115227   1.078   6.332   5.877
 4776SOL    HW215228   1.052   6.245   6.012
 4777SOL     OW15229   1.920   5.462   1.425
 4777SOL    HW115230   1.835   5.441   1.473
 4777SOL    HW215231   1.923   5.559   1.402
 4778SOL     OW15232   6.597   2.703   3.761
 4778SOL    HW115233   6.515   2.650   3.784
 4778SOL    HW215234   6.572   2.782   3.706
 4779SOL     OW15235   5.848   6.044   2.366
 4779SOL    HW115236   5.931   6.045   2.310
 4779SOL    HW215237   5.856   5.973   2.436
 4780SOL     OW15238   5.984   1.849   0.166
 4780SOL    HW115239   5.949   1.906   0.091
 4780SOL    HW215240   5.943   1.878   0.252
 4781SOL     OW15241   2.469   5.828   2.566
 4781SOL    HW115242   2.436   5.850   2.474
 4781SOL    HW215243   2.420   5.748   2.600
 4782SOL     OW15244   5.898   5.377   6.991
 4782SOL    HW115245   5.978   5.331   6.954
 4782SOL    HW215246   5.818   5.353   6.936
 4783SOL     OW15247   4.772   3.923   6.942
 4783SOL    HW115248   4.822   3.990   6.886
 4783SOL    HW215249   4.697   3.884   6.888
 4784SOL     OW15250   6.587   3.494   6.416
 4784SOL    HW115251   6.655   3.446   6.361
 4784SOL    HW215252   6.587   3.591   6.392
 4785SOL     OW15253   1.462   6.138   2.895
 4785SOL    HW115254   1.403   6.210   2.932
 4785SOL    HW215255   1.407   6.061   2.866
 4786SOL     OW15256   2.626   0.050   0.277
 4786SOL    HW115257   2.675   6.993   0.309
 4786SOL    HW215258   2.577   0.093   0.353
 4787SOL     OW15259   3.925   1.182   2.622
 4787SOL    HW115260   3.827   1.183   2.602
 4787SOL    HW215261   3.938   1.181   2.722
 4788SOL     OW15262   6.422   6.080   6.949
 4788SOL    HW115263   6.502   6.075   6.890
 4788SOL    HW215264   6.402   6.176   6.970
 4789SOL     OW15265   4.883   2.152   1.387
 4789SOL    HW115266   4.814   2.082   1.406
 4789SOL    HW215267   4.848   2.242   1.414
 4790SOL     OW15268   6.156   1.553   5.580
 4790SOL    HW115269   6.167   1.466   5.531
 4790SOL    HW215270   6.206   1.624   5.530
 4791SOL     OW15271   0.084   2.955   1.276
 4791SOL    HW115272   0.090   3.051   1.303
 4791SOL    HW215273   7.013   2.934   1.249
 4792SOL     OW15274   2.762   4.730   3.487
 4792SOL    HW115275   2.834   4.705   3.422
 4792SOL    HW215276   2.745   4.829   3.482
 4793SOL     OW15277   2.496   2.470   5.212
 4793SOL    HW115278   2.507   2.563   5.177
 4793SOL    HW215279   2.399   2.446   5.215
 4794SOL     OW15280   5.455   0.142   4.857
 4794SOL    HW115281   5.468   0.140   4.957
 4794SOL    HW215282   5.380   0.080   4.832
 4795SOL     OW15283   6.184   2.203   3.823
 4795SOL    HW115284   6.116   2.142   3.783
 4795SOL    HW215285   6.169   2.210   3.922
 4796SOL     OW15286   4.468   1.360   5.065
 4796SOL    HW115287   4.517   1.361   5.152
 4796SOL    HW215288   4.377   1.402   5.078
 4797SOL     OW15289   0.606   6.450   5.594
 4797SOL    HW115290   0.655   6.491   5.516
 4797SOL    HW215291   0.648   6.480   5.679
 4798SOL     OW15292   0.040   4.298   5.520
 4798SOL    HW115293   0.135   4.272   5.506
 4798SOL    HW215294   7.015   4.224   5.566
 4799SOL     OW15295   4.190   1.798   0.706
 4799SOL    HW115296   4.102   1.828   0.744
 4799SOL    HW215297   4.261   1.812   0.774
 4800SOL     OW15298   2.920   2.652   6.946
 4800SOL    HW115299   2.856   2.680   6.875
 4800SOL    HW215300   2.977   2.578   6.912
 4801SOL     OW15301   3.007   2.270   6.651
 4801SOL    HW115302   2.988   2.260   6.553
 4801SOL    HW215303   3.071   2.199   6.679
 4802SOL     OW15304   0.417   6.696   2.033
 4802SOL    HW115305   0.433   6.681   2.131
 4802SOL    HW215306   0.347   6.766   2.021
 4803SOL     OW15307   6.866   4.822   0.053
 4803SOL    HW115308   6.902   4.881   0.125
 4803SOL    HW215309   6.770   4.801   0.072
 4804SOL     OW15310   6.661   6.665   1.768
 4804SOL    HW115311   6.707   6.753   1.775
 4804SOL    HW215312   6.718   6.594   1.809
 4805SOL     OW15313   5.847   1.486   2.260
 4805SOL    HW115314   5.750   1.474   2.282
 4805SOL    HW215315   5.874   1.419   2.192
 4806SOL     OW15316   1.038   4.352   2.792
 4806SOL    HW115317   1.043   4.282   2.721
 4806SOL    HW215318   1.114   4.415   2.782
 4807SOL     OW15319   0.405   5.435   0.169
 4807SOL    HW115320   0.324   5.470   0.122
 4807SOL    HW215321   0.420   5.487   0.253
 4808SOL     OW15322   4.507   5.298   0.955
 4808SOL    HW115323   4.492   5.290   0.857
 4808SOL    HW215324   4.517   5.394   0.980
 4809SOL     OW15325   3.728   4.819   0.103
 4809SOL    HW115326   3.809   4.766   0.130
 4809SOL    HW215327   3.699   4.876   0.179
 4810SOL     OW15328   1.777   4.331   2.481
 4810SOL    HW115329   1.770   4.431   2.485
 4810SOL    HW215330   1.686   4.291   2.486
 4811SOL     OW15331   2.529   4.164   1.760
 4811SOL    HW115332   2.550   4.076   1.717
 4811SOL    HW215333   2.570   4.238   1.706
 4812SOL     OW15334   0.564   5.635   2.167
 4812SOL    HW115335   0.597   5.582   2.089
 4812SOL    HW215336   0.553   5.576   2.246
 4813SOL     OW15337   5.871   1.683   6.553
 4813SOL    HW115338   5.782   1.726   6.569
 4813SOL    HW215339   5.858   1.585   6.538
 4814SOL     OW15340   7.006   3.249   1.210
 4814SOL    HW115341   0.001   3.344   1.182
 4814SOL    HW215342   6.995   3.192   1.129
 4815SOL     OW15343   5.065   3.970   2.713
 4815SOL    HW115344   4.995   3.901   2.730
 4815SOL    HW215345   5.053   4.047   2.775
 4816SOL     OW15346   2.329   4.723   0.949
 4816SOL    HW115347   2.331   4.823   0.954
 4816SOL    HW215348   2.411   4.686   0.993
 4817SOL     OW15349   2.046   1.465   6.959
 4817SOL    HW115350   2.014   1.447   6.865
 4817SOL    HW215351   2.137   1.427   6.971
 4818SOL     OW15352   0.719   6.603   4.649
 4818SOL    HW115353   0.799   6.633   4.598
 4818SOL    HW215354   0.641   6.594   4.587
 4819SOL     OW15355   2.403   1.686   0.721
 4819SOL    HW115356   2.475   1.625   0.754
 4819SOL    HW215357   2.315   1.639   0.725
 4820SOL     OW15358   6.028   2.636   2.459
 4820SOL    HW115359   5.980   2.641   2.371
 4820SOL    HW215360   6.029   2.542   2.492
 4821SOL     OW15361   0.446   6.885   2.496
 4821SOL    HW115362   0.346   6.884   2.488
 4821SOL    HW215363   0.486   6.828   2.424
 4822SOL     OW15364   2.138   3.374   4.377
 4822SOL    HW115365   2.175   3.408   4.463
 4822SOL    HW215366   2.061   3.314   4.395
 4823SOL     OW15367   1.371   0.401   4.630
 4823SOL    HW115368   1.291   0.461   4.635
 4823SOL    HW215369   1.441   0.431   4.694
 4824SOL     OW15370   5.387   2.242   4.594
 4824SOL    HW115371   5.435   2.200   4.671
 4824SOL    HW215372   5.417   2.200   4.509
 4825SOL     OW15373   1.918   2.302   4.812
 4825SOL    HW115374   2.006   2.257   4.798
 4825SOL    HW215375   1.929   2.401   4.806
 4826SOL     OW15376   6.753   1.531   6.254
 4826SOL    HW115377   6.696   1.481   6.189
 4826SOL    HW215378   6.807   1.466   6.308
 4827SOL     OW15379   6.475   1.251   1.330
 4827SOL    HW115380   6.536   1.176   1.305
 4827SOL    HW215381   6.387   1.240   1.282
 4828SOL     OW15382   5.447   2.841   0.831
 4828SOL    HW115383   5.528   2.782   0.831
 4828SOL    HW215384   5.463   2.920   0.772
 4829SOL     OW15385   4.579   6.953   0.206
 4829SOL    HW115386   4.581   0.017   0.159
 4829SOL    HW215387   4.484   6.921   0.212
 4830SOL     OW15388   4.469   6.691   3.862
 4830SOL    HW115389   4.435   6.649   3.777
 4830SOL    HW215390   4.516   6.622   3.916
 4831SOL     OW15391   0.411   4.632   6.367
 4831SOL    HW115392   0.475   4.555   6.359
 4831SOL    HW215393   0.333   4.617   6.305
 4832SOL     OW15394   3.233   3.513   4.648
 4832SOL    HW115395   3.135   3.536   4.651
 4832SOL    HW215396   3.284   3.579   4.704
 4833SOL     OW15397   4.803   1.676   3.474
 4833SOL    HW115398   4.823   1.668   3.377
 4833SOL    HW215399   4.797   1.772   3.500
 4834SOL     OW15400   3.815   6.258   1.127
 4834SOL    HW115401   3.724   6.275   1.165
 4834SOL    HW215402   3.884   6.298   1.187
 4835SOL     OW15403   6.916   1.374   6.404
 4835SOL    HW115404   7.008   1.340   6.420
 4835SOL    HW215405   6.881   1.416   6.487
 4836SOL     OW15406   5.005   2.819   4.578
 4836SOL    HW115407   5.075   2.747   4.587
 4836SOL    HW215408   5.050   2.908   4.578
 4837SOL     OW15409   6.113   3.734   2.676
 4837SOL    HW115410   6.114   3.663   2.746
 4837SOL    HW215411   6.107   3.691   2.586
 4838SOL     OW15412   1.170   5.226   0.084
 4838SOL    HW115413   1.082   5.252   0.044
 4838SOL    HW215414   1.174   5.127   0.093
 4839SOL     OW15415   1.705   3.176   6.500
 4839SOL    HW115416   1.797   3.137   6.499
 4839SOL    HW215417   1.711   3.276   6.494
 4840SOL     OW15418   6.806   4.904   6.294
 4840SOL    HW115419   6.801   4.883   6.197
 4840SOL    HW215420   6.882   4.854   6.335
 4841SOL     OW15421   3.214   5.244   1.802
 4841SOL    HW115422   3.289   5.220   1.864
 4841SOL    HW215423   3.249   5.305   1.730
 4842SOL     OW15424   3.637   4.903   2.552
 4842SOL    HW115425   3.656   4.839   2.627
 4842SOL    HW215426   3.719   4.957   2.534
 4843SOL     OW15427   6.653   2.772   0.955
 4843SOL    HW115428   6.685   2.755   1.049
 4843SOL    HW215429   6.565   2.727   0.942
 4844SOL     OW15430   0.201   3.071   5.865
 4844SOL    HW115431   0.109   3.038   5.887
 4844SOL    HW215432   0.205   3.170   5.878
 4845SOL     OW15433   5.344   5.357   6.272
 4845SOL    HW115434   5.406   5.345   6.350
 4845SOL    HW215435   5.253   5.323   6.296
 4846SOL     OW15436   6.663   3.313   3.589
 4846SOL    HW115437   6.664   3.217   3.616
 4846SOL    HW215438   6.756   3.349   3.589
 4847SOL     OW15439   2.574   1.130   6.248
 4847SOL    HW115440   2.672   1.149   6.247
 4847SOL    HW215441   2.527   1.199   6.303
 4848SOL     OW15442   1.765   0.649   3.922
 4848SOL    HW115443   1.696   0.615   3.858
 4848SOL    HW215444   1.772   0.587   3.999
 4849SOL     OW15445   1.147   6.124   6.588
 4849SOL    HW115446   1.135   6.165   6.498
 4849SOL    HW215447   1.163   6.026   6.579
 4850SOL     OW15448   3.960   1.729   1.840
 4850SOL    HW115449   3.968   1.812   1.785
 4850SOL    HW215450   3.882   1.738   1.903
 4851SOL     OW15451   4.687   6.624   5.534
 4851SOL    HW115452   4.685   6.628   5.634
 4851SOL    HW215453   4.605   6.668   5.497
 4852SOL     OW15454   1.592   6.318   5.249
 4852SOL    HW115455   1.515   6.254   5.256
 4852SOL    HW215456   1.677   6.271   5.274
 4853SOL     OW15457   3.077   1.306   3.372
 4853SOL    HW115458   3.107   1.385   3.318
 4853SOL    HW215459   3.085   1.223   3.317
 4854SOL     OW15460   4.648   6.863   1.389
 4854SOL    HW115461   4.593   6.937   1.351
 4854SOL    HW215462   4.707   6.825   1.317
 4855SOL     OW15463   6.229   2.457   3.300
 4855SOL    HW115464   6.298   2.527   3.316
 4855SOL    HW215465   6.162   2.490   3.234
 4856SOL     OW15466   1.333   3.648   2.814
 4856SOL    HW115467   1.322   3.655   2.914
 4856SOL    HW215468   1.247   3.673   2.769
 4857SOL     OW15469   2.387   1.720   4.976
 4857SOL    HW115470   2.345   1.738   5.065
 4857SOL    HW215471   2.486   1.712   4.988
 4858SOL     OW15472   0.383   0.691   4.312
 4858SOL    HW115473   0.297   0.730   4.280
 4858SOL    HW215474   0.364   0.612   4.370
 4859SOL     OW15475   0.578   0.096   4.568
 4859SOL    HW115476   0.489   0.051   4.573
 4859SOL    HW215477   0.650   0.031   4.590
 4860SOL     OW15478   4.356   4.460   1.660
 4860SOL    HW115479   4.388   4.385   1.718
 4860SOL    HW215480   4.407   4.543   1.683
 4861SOL     OW15481   6.140   4.868   0.061
 4861SOL    HW115482   6.145   4.852   0.159
 4861SOL    HW215483   6.098   4.789   0.016
 4862SOL     OW15484   2.272   4.778   4.932
 4862SOL    HW115485   2.323   4.703   4.889
 4862SOL    HW215486   2.229   4.745   5.016
 4863SOL     OW15487   5.463   3.606   1.419
 4863SOL    HW115488   5.510   3.533   1.370
 4863SOL    HW215489   5.365   3.586   1.423
 4864SOL     OW15490   4.124   1.356   2.580
 4864SOL    HW115491   4.068   1.434   2.552
 4864SOL    HW215492   4.069   1.272   2.575
 4865SOL     OW15493   2.038   6.397   4.342
 4865SOL    HW115494   2.051   6.407   4.244
 4865SOL    HW215495   1.940   6.398   4.364
 4866SOL     OW15496   6.002   3.301   1.955
 4866SOL    HW115497   5.912   3.260   1.937
 4866SOL    HW215498   6.002   3.343   2.045
 4867SOL     OW15499   3.694   5.216   1.986
 4867SOL    HW115500   3.686   5.259   2.076
 4867SOL    HW215501   3.603   5.198   1.949
 4868SOL     OW15502   6.688   4.752   2.834
 4868SOL    HW115503   6.756   4.679   2.826
 4868SOL    HW215504   6.653   4.776   2.744
 4869SOL     OW15505   1.196   1.071   1.790
 4869SOL    HW115506   1.174   0.990   1.736
 4869SOL    HW215507   1.286   1.106   1.764
 4870SOL     OW15508   0.320   5.910   2.640
 4870SOL    HW115509   0.325   5.812   2.623
 4870SOL    HW215510   0.225   5.939   2.645
 4871SOL     OW15511   1.335   0.753   3.995
 4871SOL    HW115512   1.337   0.703   4.082
 4871SOL    HW215513   1.422   0.801   3.983
 4872SOL     OW15514   6.189   6.162   3.754
 4872SOL    HW115515   6.121   6.143   3.682
 4872SOL    HW215516   6.167   6.107   3.835
 4873SOL     OW15517   0.171   4.738   3.514
 4873SOL    HW115518   0.266   4.764   3.530
 4873SOL    HW215519   0.133   4.698   3.598
 4874SOL     OW15520   6.252   3.106   3.082
 4874SOL    HW115521   6.329   3.116   3.019
 4874SOL    HW215522   6.254   3.015   3.124
 4875SOL     OW15523   5.804   2.662   1.672
 4875SOL    HW115524   5.711   2.677   1.708
 4875SOL    HW215525   5.804   2.585   1.609
 4876SOL     OW15526   5.559   1.670   4.331
 4876SOL    HW115527   5.593   1.648   4.422
 4876SOL    HW215528   5.459   1.659   4.330
 4877SOL     OW15529   1.360   2.298   6.988
 4877SOL    HW115530   1.365   2.397   6.974
 4877SOL    HW215531   1.275   2.264   6.949
 4878SOL     OW15532   6.505   0.583   3.108
 4878SOL    HW115533   6.595   0.551   3.078
 4878SOL    HW215534   6.453   0.615   3.028
 4879SOL     OW15535   4.394   6.237   2.448
 4879SOL    HW115536   4.461   6.176   2.490
 4879SOL    HW215537   4.320   6.184   2.407
 4880SOL     OW15538   5.585   3.520   0.116
 4880SOL    HW115539   5.517   3.457   0.154
 4880SOL    HW215540   5.636   3.563   0.190
 4881SOL     OW15541   1.591   1.035   6.488
 4881SOL    HW115542   1.683   1.035   6.526
 4881SOL    HW215543   1.588   1.099   6.410
 4882SOL     OW15544   5.339   1.451   4.992
 4882SOL    HW115545   5.436   1.469   5.006
 4882SOL    HW215546   5.316   1.360   5.026
 4883SOL     OW15547   5.432   4.739   2.022
 4883SOL    HW115548   5.340   4.706   2.001
 4883SOL    HW215549   5.496   4.662   2.021
 4884SOL     OW15550   2.947   6.793   1.465
 4884SOL    HW115551   2.866   6.800   1.408
 4884SOL    HW215552   2.987   6.702   1.457
 4885SOL     OW15553   1.994   5.213   1.873
 4885SOL    HW115554   2.008   5.287   1.807
 4885SOL    HW215555   2.083   5.179   1.905
 4886SOL     OW15556   1.382   5.383   1.048
 4886SOL    HW115557   1.374   5.476   1.014
 4886SOL    HW215558   1.473   5.369   1.088
 4887SOL     OW15559   0.897   0.252   2.563
 4887SOL    HW115560   0.849   0.276   2.648
 4887SOL    HW215561   0.834   0.206   2.501
 4888SOL     OW15562   2.446   6.637   4.202
 4888SOL    HW115563   2.536   6.656   4.163
 4888SOL    HW215564   2.457   6.580   4.283
 4889SOL     OW15565   6.612   1.356   6.111
 4889SOL    HW115566   6.608   1.259   6.087
 4889SOL    HW215567   6.544   1.406   6.058
 4890SOL     OW15568   1.092   1.341   6.998
 4890SOL    HW115569   1.154   1.284   6.944
 4890SOL    HW215570   1.146   1.392   0.043
 4891SOL     OW15571   1.409   4.635   6.568
 4891SOL    HW115572   1.432   4.539   6.558
 4891SOL    HW215573   1.478   4.681   6.624
 4892SOL     OW15574   3.020   5.932   2.234
 4892SOL    HW115575   2.994   5.989   2.312
 4892SOL    HW215576   3.067   5.988   2.166
 4893SOL     OW15577   6.431   3.835   1.510
 4893SOL    HW115578   6.364   3.872   1.575
 4893SOL    HW215579   6.385   3.772   1.447
 4894SOL     OW15580   2.486   1.370   2.939
 4894SOL    HW115581   2.443   1.317   2.866
 4894SOL    HW215582   2.421   1.436   2.976
 4895SOL     OW15583   0.843   4.815   3.645
 4895SOL    HW115584   0.776   4.757   3.691
 4895SOL    HW215585   0.850   4.902   3.694
 4896SOL     OW15586   1.743   5.397   2.188
 4896SOL    HW115587   1.746   5.298   2.201
 4896SOL    HW215588   1.828   5.428   2.146
 4897SOL     OW15589   2.759   4.041   6.219
 4897SOL    HW115590   2.772   4.113   6.151
 4897SOL    HW215591   2.706   4.078   6.296
 4898SOL     OW15592   3.769   0.590   4.420
 4898SOL    HW115593   3.819   0.540   4.349
 4898SOL    HW215594   3.832   0.614   4.494
 4899SOL     OW15595   5.973   5.056   3.208
 4899SOL    HW115596   5.877   5.074   3.189
 4899SOL    HW215597   6.013   5.004   3.132
 4900SOL     OW15598   2.228   6.119   4.068
 4900SOL    HW115599   2.307   6.103   4.009
 4900SOL    HW215600   2.150   6.067   4.035
 4901SOL     OW15601   3.171   6.947   5.731
 4901SOL    HW115602   3.264   6.936   5.768
 4901SOL    HW215603   3.142   6.862   5.688
 4902SOL     OW15604   2.332   1.809   4.363
 4902SOL    HW115605   2.296   1.868   4.291
 4902SOL    HW215606   2.263   1.797   4.434
 4903SOL     OW15607   3.816   6.186   6.752
 4903SOL    HW115608   3.901   6.238   6.762
 4903SOL    HW215609   3.836   6.099   6.707
 4904SOL     OW15610   1.853   6.451   3.926
 4904SOL    HW115611   1.859   6.537   3.977
 4904SOL    HW215612   1.934   6.441   3.868
 4905SOL     OW15613   4.834   0.125   2.517
 4905SOL    HW115614   4.869   0.041   2.476
 4905SOL    HW215615   4.735   0.130   2.505
 4906SOL     OW15616   4.564   2.050   5.895
 4906SOL    HW115617   4.498   2.013   5.829
 4906SOL    HW215618   4.654   2.009   5.878
 4907SOL     OW15619   4.240   6.250   1.430
 4907SOL    HW115620   4.185   6.326   1.464
 4907SOL    HW215621   4.337   6.267   1.449
 4908SOL     OW15622   5.494   4.888   6.449
 4908SOL    HW115623   5.528   4.967   6.399
 4908SOL    HW215624   5.539   4.882   6.538
 4909SOL     OW15625   6.639   0.205   4.275
 4909SOL    HW115626   6.690   0.201   4.361
 4909SOL    HW215627   6.542   0.192   4.293
 4910SOL     OW15628   5.771   0.162   5.059
 4910SOL    HW115629   5.767   0.257   5.089
 4910SOL    HW215630   5.864   0.127   5.073
 4911SOL     OW15631   1.397   3.391   4.282
 4911SOL    HW115632   1.366   3.485   4.292
 4911SOL    HW215633   1.335   3.341   4.222
 4912SOL     OW15634   5.198   1.346   6.600
 4912SOL    HW115635   5.146   1.402   6.535
 4912SOL    HW215636   5.236   1.405   6.671
 4913SOL     OW15637   3.881   2.915   5.143
 4913SOL    HW115638   3.842   2.830   5.177
 4913SOL    HW215639   3.874   2.918   5.043
 4914SOL     OW15640   4.062   0.685   5.073
 4914SOL    HW115641   4.085   0.599   5.028
 4914SOL    HW215642   4.090   0.761   5.015
 4915SOL     OW15643   4.829   0.123   4.956
 4915SOL    HW115644   4.843   0.217   4.924
 4915SOL    HW215645   4.745   0.119   5.010
 4916SOL     OW15646   1.801   6.922   4.168
 4916SOL    HW115647   1.812   6.912   4.267
 4916SOL    HW215648   1.719   6.976   4.149
 4917SOL     OW15649   2.717   4.831   1.268
 4917SOL    HW115650   2.737   4.783   1.354
 4917SOL    HW215651   2.759   4.782   1.192
 4918SOL     OW15652   4.345   5.642   2.387
 4918SOL    HW115653   4.311   5.632   2.481
 4918SOL    HW215654   4.271   5.671   2.328
 4919SOL     OW15655   3.147   2.083   0.010
 4919SOL    HW115656   3.147   2.003   0.070
 4919SOL    HW215657   3.143   2.166   0.065
 4920SOL     OW15658   6.102   0.776   4.022
 4920SOL    HW115659   6.156   0.852   3.985
 4920SOL    HW215660   6.005   0.802   4.024
 4921SOL     OW15661   1.246   4.743   0.855
 4921SOL    HW115662   1.315   4.772   0.789
 4921SOL    HW215663   1.168   4.703   0.807
 4922SOL     OW15664   2.033   1.909   5.256
 4922SOL    HW115665   2.020   2.006   5.279
 4922SOL    HW215666   2.056   1.858   5.338
 4923SOL     OW15667   4.178   1.885   1.912
 4923SOL    HW115668   4.083   1.870   1.938
 4923SOL    HW215669   4.235   1.812   1.948
 4924SOL     OW15670   2.944   1.558   5.237
 4924SOL    HW115671   3.029   1.509   5.218
 4924SOL    HW215672   2.899   1.518   5.316
 4925SOL     OW15673   6.528   6.291   2.217
 4925SOL    HW115674   6.437   6.334   2.221
 4925SOL    HW215675   6.531   6.213   2.280
 4926SOL     OW15676   5.594   1.512   0.691
 4926SOL    HW115677   5.640   1.433   0.733
 4926SOL    HW215678   5.535   1.481   0.617
 4927SOL     OW15679   3.711   3.822   4.488
 4927SOL    HW115680   3.766   3.902   4.512
 4927SOL    HW215681   3.749   3.779   4.406
 4928SOL     OW15682   1.264   0.146   0.130
 4928SOL    HW115683   1.280   0.096   0.045
 4928SOL    HW215684   1.337   0.214   0.143
 4929SOL     OW15685   0.535   5.525   4.928
 4929SOL    HW115686   0.451   5.485   4.893
 4929SOL    HW215687   0.514   5.603   4.987
 4930SOL     OW15688   4.772   0.895   3.200
 4930SOL    HW115689   4.824   0.979   3.218
 4930SOL    HW215690   4.765   0.881   3.101
 4931SOL     OW15691   0.131   6.987   0.885
 4931SOL    HW115692   0.189   7.020   0.960
 4931SOL    HW215693   0.149   6.890   0.869
 4932SOL     OW15694   2.641   3.271   1.720
 4932SOL    HW115695   2.701   3.194   1.741
 4932SOL    HW215696   2.655   3.344   1.787
 4933SOL     OW15697   2.430   6.949   3.547
 4933SOL    HW115698   2.420   0.004   3.485
 4933SOL    HW215699   2.380   6.871   3.509
 4934SOL     OW15700   2.747   5.875   2.569
 4934SOL    HW115701   2.648   5.864   2.577
 4934SOL    HW215702   2.793   5.820   2.639
 4935SOL     OW15703   1.507   0.722   6.067
 4935SOL    HW115704   1.483   0.639   6.017
 4935SOL    HW215705   1.533   0.794   6.003
 4936SOL     OW15706   2.537   4.599   1.979
 4936SOL    HW115707   2.636   4.607   1.971
 4936SOL    HW215708   2.508   4.510   1.942
 4937SOL     OW15709   6.680   3.092   5.879
 4937SOL    HW115710   6.674   3.089   5.979
 4937SOL    HW215711   6.642   3.009   5.840
 4938SOL     OW15712   2.184   5.817   5.688
 4938SOL    HW115713   2.154   5.906   5.722
 4938SOL    HW215714   2.281   5.805   5.707
 4939SOL     OW15715   6.444   2.074   3.778
 4939SOL    HW115716   6.434   2.020   3.861
 4939SOL    HW215717   6.358   2.122   3.758
 4940SOL     OW15718   0.273   0.816   5.318
 4940SOL    HW115719   0.196   0.768   5.275
 4940SOL    HW215720   0.340   0.749   5.350
 4941SOL     OW15721   4.847   2.272   5.307
 4941SOL    HW115722   4.836   2.301   5.401
 4941SOL    HW215723   4.940   2.238   5.293
 4942SOL     OW15724   5.480   3.210   6.056
 4942SOL    HW115725   5.577   3.187   6.069
 4942SOL    HW215726   5.425   3.128   6.070
 4943SOL     OW15727   4.467   3.736   6.214
 4943SOL    HW115728   4.522   3.713   6.295
 4943SOL    HW215729   4.478   3.665   6.145
 4944SOL     OW15730   2.263   4.089   1.713
 4944SOL    HW115731   2.230   4.138   1.632
 4944SOL    HW215732   2.356   4.119   1.734
 4945SOL     OW15733   0.789   0.284   4.520
 4945SOL    HW115734   0.822   0.299   4.613
 4945SOL    HW215735   0.720   0.212   4.521
 4946SOL     OW15736   1.423   4.976   0.014
 4946SOL    HW115737   1.372   4.898   7.002
 4946SOL    HW215738   1.495   5.001   6.972
 4947SOL     OW15739   2.417   0.565   1.072
 4947SOL    HW115740   2.372   0.647   1.107
 4947SOL    HW215741   2.516   0.581   1.066
 4948SOL     OW15742   1.663   2.719   2.657
 4948SOL    HW115743   1.621   2.674   2.578
 4948SOL    HW215744   1.593   2.763   2.712
 4949SOL     OW15745   5.585   5.604   6.405
 4949SOL    HW115746   5.559   5.688   6.358
 4949SOL    HW215747   5.539   5.599   6.494
 4950SOL     OW15748   2.476   5.321   4.514
 4950SOL    HW115749   2.502   5.379   4.591
 4950SOL    HW215750   2.415   5.249   4.546
 4951SOL     OW15751   6.043   1.365   5.105
 4951SOL    HW115752   6.059   1.307   5.026
 4951SOL    HW215753   6.031   1.308   5.186
 4952SOL     OW15754   0.702   1.104   6.018
 4952SOL    HW115755   0.643   1.116   6.098
 4952SOL    HW215756   0.798   1.111   6.046
 4953SOL     OW15757   2.090   6.054   2.888
 4953SOL    HW115758   2.081   6.112   2.969
 4953SOL    HW215759   2.028   6.086   2.817
 4954SOL     OW15760   3.610   2.966   0.334
 4954SOL    HW115761   3.563   3.028   0.397
 4954SOL    HW215762   3.544   2.931   0.267
 4955SOL     OW15763   3.091   6.632   6.651
 4955SOL    HW115764   3.014   6.641   6.588
 4955SOL    HW215765   3.175   6.660   6.604
 4956SOL     OW15766   2.082   0.123   5.206
 4956SOL    HW115767   2.051   0.158   5.295
 4956SOL    HW215768   2.154   0.055   5.221
 4957SOL     OW15769   5.968   2.280   2.251
 4957SOL    HW115770   5.988   2.283   2.349
 4957SOL    HW215771   5.904   2.353   2.228
 4958SOL     OW15772   0.079   5.533   5.545
 4958SOL    HW115773   0.122   5.575   5.464
 4958SOL    HW215774   0.146   5.475   5.591
 4959SOL     OW15775   6.308   1.778   0.056
 4959SOL    HW115776   6.370   1.834   0.112
 4959SOL    HW215777   6.216   1.783   0.094
 4960SOL     OW15778   3.353   4.960   3.340
 4960SOL    HW115779   3.265   4.986   3.378
 4960SOL    HW215780   3.394   5.039   3.293
 4961SOL     OW15781   4.405   1.252   5.894
 4961SOL    HW115782   4.365   1.211   5.813
 4961SOL    HW215783   4.365   1.342   5.910
 4962SOL     OW15784   6.199   2.137   0.662
 4962SOL    HW115785   6.174   2.130   0.566
 4962SOL    HW215786   6.298   2.122   0.672
 4963SOL     OW15787   6.232   5.683   0.543
 4963SOL    HW115788   6.237   5.700   0.445
 4963SOL    HW215789   6.243   5.585   0.561
 4964SOL     OW15790   3.055   0.204   3.643
 4964SOL    HW115791   2.973   0.153   3.668
 4964SOL    HW215792   3.034   0.301   3.637
 4965SOL     OW15793   0.570   1.129   2.582
 4965SOL    HW115794   0.484   1.169   2.615
 4965SOL    HW215795   0.646   1.166   2.635
 4966SOL     OW15796   2.256   6.955   5.342
 4966SOL    HW115797   2.256   6.984   5.437
 4966SOL    HW215798   2.234   6.857   5.336
 4967SOL     OW15799   3.519   5.351   5.622
 4967SOL    HW115800   3.477   5.310   5.540
 4967SOL    HW215801   3.454   5.413   5.665
 4968SOL     OW15802   6.774   1.583   3.657
 4968SOL    HW115803   6.797   1.624   3.745
 4968SOL    HW215804   6.846   1.520   3.628
 4969SOL     OW15805   2.610   6.290   2.795
 4969SOL    HW115806   2.623   6.355   2.720
 4969SOL    HW215807   2.517   6.297   2.830
 4970SOL     OW15808   1.997   2.726   3.012
 4970SOL    HW115809   1.922   2.705   3.075
 4970SOL    HW215810   2.073   2.663   3.028
 4971SOL     OW15811   5.952   5.479   3.676
 4971SOL    HW115812   5.920   5.518   3.590
 4971SOL    HW215813   6.020   5.409   3.658
 4972SOL     OW15814   1.618   3.742   0.680
 4972SOL    HW115815   1.573   3.678   0.617
 4972SOL    HW215816   1.565   3.827   0.684
 4973SOL     OW15817   1.571   6.791   2.280
 4973SOL    HW115818   1.560   6.730   2.202
 4973SOL    HW215819   1.566   6.886   2.248
 4974SOL     OW15820   6.161   4.518   1.192
 4974SOL    HW115821   6.171   4.522   1.291
 4974SOL    HW215822   6.075   4.562   1.165
 4975SOL     OW15823   5.697   4.228   5.325
 4975SOL    HW115824   5.706   4.322   5.358
 4975SOL    HW215825   5.785   4.182   5.329
 4976SOL     OW15826   1.911   0.595   3.614
 4976SOL    HW115827   2.007   0.619   3.608
 4976SOL    HW215828   1.880   0.556   3.528
 4977SOL     OW15829   3.995   4.732   0.209
 4977SOL    HW115830   4.066   4.662   0.218
 4977SOL    HW215831   3.965   4.761   0.300
 4978SOL     OW15832   6.803   3.942   4.657
 4978SOL    HW115833   6.864   3.997   4.714
 4978SOL    HW215834   6.852   3.863   4.622
 4979SOL     OW15835   0.264   0.402   6.210
 4979SOL    HW115836   0.360   0.401   6.182
 4979SOL    HW215837   0.206   0.414   6.129
 4980SOL     OW15838   5.230   6.349   3.144
 4980SOL    HW115839   5.216   6.337   3.243
 4980SOL    HW215840   5.146   6.385   3.103
 4981SOL     OW15841   4.603   6.284   0.142
 4981SOL    HW115842   4.616   6.190   0.175
 4981SOL    HW215843   4.614   6.286   0.043
 4982SOL     OW15844   2.632   1.255   5.970
 4982SOL    HW115845   2.563   1.292   6.032
 4982SOL    HW215846   2.629   1.155   5.972
 4983SOL     OW15847   5.905   3.124   4.884
 4983SOL    HW115848   5.933   3.162   4.972
 4983SOL    HW215849   5.806   3.112   4.883
 4984SOL     OW15850   5.774   4.015   3.371
 4984SOL    HW115851   5.687   4.065   3.380
 4984SOL    HW215852   5.756   3.917   3.370
 4985SOL     OW15853   6.449   6.597   3.519
 4985SOL    HW115854   6.450   6.536   3.440
 4985SOL    HW215855   6.543   6.618   3.546
 4986SOL     OW15856   6.070   4.322   1.857
 4986SOL    HW115857   6.014   4.259   1.912
 4986SOL    HW215858   6.166   4.310   1.881
 4987SOL     OW15859   1.199   0.373   1.551
 4987SOL    HW115860   1.130   0.365   1.479
 4987SOL    HW215861   1.239   0.284   1.569
 4988SOL     OW15862   5.182   0.691   3.260
 4988SOL    HW115863   5.248   0.655   3.194
 4988SOL    HW215864   5.095   0.641   3.251
 4989SOL     OW15865   4.659   7.009   1.996
 4989SOL    HW115866   4.678   0.067   1.942
 4989SOL    HW215867   4.667   6.928   1.938
 4990SOL     OW15868   2.059   2.161   5.359
 4990SOL    HW115869   2.040   2.259   5.360
 4990SOL    HW215870   2.152   2.144   5.391
 4991SOL     OW15871   6.633   5.117   4.170
 4991SOL    HW115872   6.569   5.073   4.233
 4991SOL    HW215873   6.726   5.106   4.205
 4992SOL     OW15874   4.947   0.975   4.062
 4992SOL    HW115875   4.852   0.947   4.076
 4992SOL    HW215876   4.982   0.935   3.977
 4993SOL     OW15877   3.044   6.102   3.819
 4993SOL    HW115878   2.991   6.090   3.903
 4993SOL    HW215879   3.093   6.017   3.799
 4994SOL     OW15880   2.076   0.036   3.183
 4994SOL    HW115881   2.100   0.083   3.269
 4994SOL    HW215882   2.137   6.982   3.170
 4995SOL     OW15883   0.106   2.679   5.897
 4995SOL    HW115884   0.063   2.727   5.821
 4995SOL    HW215885   0.138   2.589   5.867
 4996SOL     OW15886   1.421   1.279   2.455
 4996SOL    HW115887   1.370   1.291   2.541
 4996SOL    HW215888   1.365   1.309   2.378
 4997SOL     OW15889   5.470   2.316   3.001
 4997SOL    HW115890   5.429   2.366   2.925
 4997SOL    HW215891   5.473   2.373   3.082
 4998SOL     OW15892   2.190   4.209   5.074
 4998SOL    HW115893   2.265   4.238   5.133
 4998SOL    HW215894   2.211   4.119   5.035
 4999SOL     OW15895   6.384   4.216   0.408
 4999SOL    HW115896   6.369   4.237   0.311
 4999SOL    HW215897   6.467   4.261   0.440
 5000SOL     OW15898   2.916   6.476   3.404
 5000SOL    HW115899   2.937   6.378   3.399
 5000SOL    HW215900   2.869   6.496   3.490
 5001SOL     OW15901   0.324   4.148   0.898
 5001SOL    HW115902   0.328   4.050   0.918
 5001SOL    HW215903   0.298   4.197   0.981
 5002SOL     OW15904   0.544   3.217   3.525
 5002SOL    HW115905   0.594   3.297   3.557
 5002SOL    HW215906   0.455   3.246   3.488
 5003SOL     OW15907   2.523   6.289   2.409
 5003SOL    HW115908   2.604   6.322   2.457
 5003SOL    HW215909   2.466   6.235   2.472
 5004SOL     OW15910   3.425   5.032   5.977
 5004SOL    HW115911   3.525   5.024   5.978
 5004SOL    HW215912   3.384   4.942   5.993
 5005SOL     OW15913   3.115   2.459   0.536
 5005SOL    HW115914   3.189   2.423   0.480
 5005SOL    HW215915   3.031   2.466   0.482
 5006SOL     OW15916   5.338   1.207   0.375
 5006SOL    HW115917   5.249   1.253   0.370
 5006SOL    HW215918   5.327   1.112   0.346
 5007SOL     OW15919   1.422   6.940   0.197
 5007SOL    HW115920   1.347   6.873   0.205
 5007SOL    HW215921   1.385   0.009   0.197
 5008SOL     OW15922   6.777   6.509   3.174
 5008SOL    HW115923   6.862   6.461   3.195
 5008SOL    HW215924   6.717   6.448   3.122
 5009SOL     OW15925   1.414   6.406   0.984
 5009SOL    HW115926   1.326   6.395   0.939
 5009SOL    HW215927   1.405   6.381   1.081
 5010SOL     OW15928   3.382   3.416   2.896
 5010SOL    HW115929   3.458   3.358   2.867
 5010SOL    HW215930   3.334   3.451   2.815
 5011SOL     OW15931   1.909   3.532   2.926
 5011SOL    HW115932   1.998   3.553   2.885
 5011SOL    HW215933   1.875   3.446   2.888
 5012SOL     OW15934   5.312   4.321   6.131
 5012SOL    HW115935   5.226   4.364   6.159
 5012SOL    HW215936   5.384   4.343   6.198
 5013SOL     OW15937   5.081   1.503   6.412
 5013SOL    HW115938   5.115   1.597   6.417
 5013SOL    HW215939   5.057   1.480   6.318
 5014SOL     OW15940   5.364   4.515   0.683
 5014SOL    HW115941   5.450   4.564   0.679
 5014SOL    HW215942   5.375   4.425   0.641
 5015SOL     OW15943   4.591   2.016   4.438
 5015SOL    HW115944   4.627   1.981   4.351
 5015SOL    HW215945   4.619   2.111   4.450
 5016SOL     OW15946   1.978   2.081   0.755
 5016SOL    HW115947   1.896   2.137   0.769
 5016SOL    HW215948   1.991   2.066   0.657
 5017SOL     OW15949   1.804   2.137   0.183
 5017SOL    HW115950   1.758   2.168   0.100
 5017SOL    HW215951   1.777   2.195   0.260
 5018SOL     OW15952   7.019   4.229   2.034
 5018SOL    HW115953   0.089   4.264   2.040
 5018SOL    HW215954   7.015   4.138   2.076
 5019SOL     OW15955   0.847   4.957   6.589
 5019SOL    HW115956   0.939   4.997   6.580
 5019SOL    HW215957   0.796   4.971   6.504
 5020SOL     OW15958   5.324   0.126   6.427
 5020SOL    HW115959   5.250   0.194   6.426
 5020SOL    HW215960   5.410   0.172   6.447
 5021SOL     OW15961   1.587   1.909   6.201
 5021SOL    HW115962   1.546   1.876   6.116
 5021SOL    HW215963   1.522   1.969   6.248
 5022SOL     OW15964   1.149   0.806   0.142
 5022SOL    HW115965   1.175   0.899   0.120
 5022SOL    HW215966   1.225   0.760   0.188
 5023SOL     OW15967   6.445   3.178   1.305
 5023SOL    HW115968   6.363   3.156   1.358
 5023SOL    HW215969   6.435   3.269   1.263
 5024SOL     OW15970   5.389   5.837   2.190
 5024SOL    HW115971   5.457   5.865   2.122
 5024SOL    HW215972   5.404   5.741   2.214
 5025SOL     OW15973   3.761   2.196   1.657
 5025SOL    HW115974   3.731   2.254   1.733
 5025SOL    HW215975   3.805   2.253   1.587
 5026SOL     OW15976   6.404   6.380   6.343
 5026SOL    HW115977   6.389   6.375   6.245
 5026SOL    HW215978   6.367   6.466   6.378
 5027SOL     OW15979   0.653   5.982   2.391
 5027SOL    HW115980   0.680   5.919   2.463
 5027SOL    HW215981   0.569   6.030   2.418
 5028SOL     OW15982   1.020   0.311   3.290
 5028SOL    HW115983   0.997   0.312   3.387
 5028SOL    HW215984   1.060   0.398   3.264
 5029SOL     OW15985   0.194   2.268   2.999
 5029SOL    HW115986   0.150   2.188   2.959
 5029SOL    HW215987   0.213   2.250   3.096
 5030SOL     OW15988   6.702   6.879   6.979
 5030SOL    HW115989   6.626   6.821   6.950
 5030SOL    HW215990   6.779   6.822   7.006
 5031SOL     OW15991   5.896   0.879   4.809
 5031SOL    HW115992   5.891   0.789   4.766
 5031SOL    HW215993   5.977   0.927   4.776
 5032SOL     OW15994   1.113   3.701   1.291
 5032SOL    HW115995   1.156   3.777   1.340
 5032SOL    HW215996   1.170   3.620   1.299
 5033SOL     OW15997   3.129   6.347   6.067
 5033SOL    HW115998   3.170   6.325   5.979
 5033SOL    HW215999   3.188   6.316   6.141
 5034SOL     OW16000   5.262   0.944   2.872
 5034SOL    HW116001   5.179   0.972   2.823
 5034SOL    HW216002   5.250   0.850   2.905
 5035SOL     OW16003   0.372   4.425   0.481
 5035SOL    HW116004   0.315   4.429   0.563
 5035SOL    HW216005   0.380   4.330   0.450
 5036SOL     OW16006   7.002   4.981   0.224
 5036SOL    HW116007   7.000   4.898   0.279
 5036SOL    HW216008   6.983   5.060   0.283
 5037SOL     OW16009   5.181   2.474   3.403
 5037SOL    HW116010   5.157   2.569   3.382
 5037SOL    HW216011   5.103   2.429   3.447
 5038SOL     OW16012   1.700   4.113   6.914
 5038SOL    HW116013   1.703   4.059   6.830
 5038SOL    HW216014   1.621   4.174   6.913
 5039SOL     OW16015   3.070   4.354   5.309
 5039SOL    HW116016   3.036   4.428   5.251
 5039SOL    HW216017   3.033   4.363   5.401
 5040SOL     OW16018   1.891   4.794   6.023
 5040SOL    HW116019   1.924   4.845   5.943
 5040SOL    HW216020   1.967   4.779   6.086
 5041SOL     OW16021   1.512   1.833   1.774
 5041SOL    HW116022   1.472   1.919   1.744
 5041SOL    HW216023   1.612   1.838   1.767
 5042SOL     OW16024   6.142   3.123   0.736
 5042SOL    HW116025   6.076   3.192   0.708
 5042SOL    HW216026   6.162   3.063   0.658
 5043SOL     OW16027   3.055   1.012   6.099
 5043SOL    HW116028   3.006   1.006   6.012
 5043SOL    HW216029   3.010   1.078   6.159
 5044SOL     OW16030   0.081   6.182   1.734
 5044SOL    HW116031   0.104   6.122   1.658
 5044SOL    HW216032   0.134   6.156   1.814
 5045SOL     OW16033   5.837   1.902   0.372
 5045SOL    HW116034   5.819   1.851   0.456
 5045SOL    HW216035   5.758   1.895   0.311
 5046SOL     OW16036   3.394   4.155   3.648
 5046SOL    HW116037   3.321   4.215   3.683
 5046SOL    HW216038   3.457   4.132   3.722
 5047SOL     OW16039   0.265   3.183   2.651
 5047SOL    HW116040   0.343   3.234   2.685
 5047SOL    HW216041   0.287   3.085   2.648
 5048SOL     OW16042   0.711   0.653   1.944
 5048SOL    HW116043   0.807   0.656   1.971
 5048SOL    HW216044   0.703   0.674   1.846
 5049SOL     OW16045   6.475   1.764   5.236
 5049SOL    HW116046   6.445   1.757   5.141
 5049SOL    HW216047   6.575   1.759   5.240
 5050SOL     OW16048   1.531   0.461   1.918
 5050SOL    HW116049   1.581   0.460   2.005
 5050SOL    HW216050   1.499   0.369   1.898
 5051SOL     OW16051   4.284   4.152   1.266
 5051SOL    HW116052   4.278   4.150   1.366
 5051SOL    HW216053   4.349   4.082   1.235
 5052SOL     OW16054   2.152   6.116   6.063
 5052SOL    HW116055   2.148   6.205   6.017
 5052SOL    HW216056   2.246   6.099   6.092
 5053SOL     OW16057   2.145   4.268   3.837
 5053SOL    HW116058   2.195   4.338   3.785
 5053SOL    HW216059   2.209   4.218   3.895
 5054SOL     OW16060   3.644   6.321   4.953
 5054SOL    HW116061   3.687   6.399   4.998
 5054SOL    HW216062   3.555   6.347   4.917
 5055SOL     OW16063   2.006   0.198   5.481
 5055SOL    HW116064   2.085   0.233   5.530
 5055SOL    HW216065   1.962   0.273   5.431
 5056SOL     OW16066   6.435   4.167   0.729
 5056SOL    HW116067   6.447   4.178   0.630
 5056SOL    HW216068   6.498   4.228   0.777
 5057SOL     OW16069   6.626   6.036   5.397
 5057SOL    HW116070   6.642   5.965   5.465
 5057SOL    HW216071   6.599   5.994   5.311
 5058SOL     OW16072   2.675   3.081   5.382
 5058SOL    HW116073   2.615   3.083   5.302
 5058SOL    HW216074   2.644   3.009   5.445
 5059SOL     OW16075   5.439   2.379   3.437
 5059SOL    HW116076   5.493   2.406   3.357
 5059SOL    HW216077   5.348   2.419   3.430
 5060SOL     OW16078   0.296   2.143   5.925
 5060SOL    HW116079   0.384   2.098   5.907
 5060SOL    HW216080   0.286   2.156   6.024
 5061SOL     OW16081   3.797   3.336   2.905
 5061SOL    HW116082   3.778   3.327   3.003
 5061SOL    HW216083   3.896   3.337   2.890
 5062SOL     OW16084   5.351   0.024   3.281
 5062SOL    HW116085   5.382   0.115   3.308
 5062SOL    HW216086   5.319   6.997   3.361
 5063SOL     OW16087   1.231   0.063   2.196
 5063SOL    HW116088   1.193   7.008   2.244
 5063SOL    HW216089   1.179   0.145   2.220
 5064SOL     OW16090   4.347   3.857   1.605
 5064SOL    HW116091   4.378   3.943   1.564
 5064SOL    HW216092   4.422   3.817   1.658
 5065SOL     OW16093   1.722   1.684   3.525
 5065SOL    HW116094   1.755   1.605   3.576
 5065SOL    HW216095   1.777   1.764   3.548
 5066SOL     OW16096   3.440   4.510   0.934
 5066SOL    HW116097   3.359   4.456   0.954
 5066SOL    HW216098   3.506   4.454   0.884
 5067SOL     OW16099   3.203   1.120   2.501
 5067SOL    HW116100   3.109   1.133   2.469
 5067SOL    HW216101   3.201   1.073   2.590
 5068SOL     OW16102   3.035   4.831   6.775
 5068SOL    HW116103   3.010   4.757   6.837
 5068SOL    HW216104   3.121   4.873   6.806
 5069SOL     OW16105   2.001   3.094   5.969
 5069SOL    HW116106   1.968   3.166   5.907
 5069SOL    HW216107   1.974   3.005   5.933
 5070SOL     OW16108   5.160   4.277   4.085
 5070SOL    HW116109   5.152   4.219   4.165
 5070SOL    HW216110   5.253   4.315   4.081
 5071SOL     OW16111   4.070   1.045   4.066
 5071SOL    HW116112   3.991   0.992   4.097
 5071SOL    HW216113   4.039   1.135   4.035
 5072SOL     OW16114   1.129   0.849   1.629
 5072SOL    HW116115   1.155   0.871   1.535
 5072SOL    HW216116   1.141   0.751   1.645
 5073SOL     OW16117   1.575   4.415   1.420
 5073SOL    HW116118   1.636   4.495   1.417
 5073SOL    HW216119   1.493   4.434   1.367
 5074SOL     OW16120   3.371   2.213   1.327
 5074SOL    HW116121   3.288   2.264   1.349
 5074SOL    HW216122   3.398   2.157   1.406
 5075SOL     OW16123   1.192   2.354   5.959
 5075SOL    HW116124   1.248   2.406   6.022
 5075SOL    HW216125   1.239   2.269   5.934
 5076SOL     OW16126   4.847   0.457   0.987
 5076SOL    HW116127   4.844   0.480   0.890
 5076SOL    HW216128   4.869   0.360   0.998
 5077SOL     OW16129   1.932   4.213   5.362
 5077SOL    HW116130   1.970   4.185   5.451
 5077SOL    HW216131   1.938   4.313   5.355
 5078SOL     OW16132   0.752   0.468   4.046
 5078SOL    HW116133   0.653   0.454   4.056
 5078SOL    HW216134   0.783   0.534   4.115
 5079SOL     OW16135   2.173   3.355   4.696
 5079SOL    HW116136   2.129   3.280   4.646
 5079SOL    HW216137   2.207   3.320   4.784
 5080SOL     OW16138   5.913   6.559   6.218
 5080SOL    HW116139   5.960   6.617   6.285
 5080SOL    HW216140   5.918   6.602   6.128
 5081SOL     OW16141   2.879   3.708   5.103
 5081SOL    HW116142   2.790   3.668   5.083
 5081SOL    HW216143   2.892   3.790   5.047
 5082SOL     OW16144   5.300   5.898   1.450
 5082SOL    HW116145   5.300   5.804   1.414
 5082SOL    HW216146   5.386   5.943   1.426
 5083SOL     OW16147   2.369   0.429   2.878
 5083SOL    HW116148   2.430   0.353   2.899
 5083SOL    HW216149   2.366   0.443   2.779
 5084SOL     OW16150   0.589   4.131   4.204
 5084SOL    HW116151   0.658   4.169   4.143
 5084SOL    HW216152   0.624   4.048   4.247
 5085SOL     OW16153   6.493   2.475   6.068
 5085SOL    HW116154   6.590   2.497   6.071
 5085SOL    HW216155   6.442   2.537   6.129
 5086SOL     OW16156   1.278   4.955   2.901
 5086SOL    HW116157   1.322   4.866   2.913
 5086SOL    HW216158   1.293   5.012   2.982
 5087SOL     OW16159   1.650   5.247   2.516
 5087SOL    HW116160   1.596   5.263   2.433
 5087SOL    HW216161   1.637   5.323   2.579
 5088SOL     OW16162   5.886   7.023   3.968
 5088SOL    HW116163   5.938   0.078   3.935
 5088SOL    HW216164   5.885   6.951   3.899
 5089SOL     OW16165   5.983   3.748   4.148
 5089SOL    HW116166   5.905   3.687   4.163
 5089SOL    HW216167   5.976   3.790   4.057
 5090SOL     OW16168   2.117   3.553   2.765
 5090SOL    HW116169   2.201   3.608   2.762
 5090SOL    HW216170   2.101   3.511   2.676
 5091SOL     OW16171   6.828   1.252   1.826
 5091SOL    HW116172   6.886   1.291   1.754
 5091SOL    HW216173   6.885   1.203   1.892
 5092SOL     OW16174   3.526   3.800   3.232
 5092SOL    HW116175   3.473   3.767   3.310
 5092SOL    HW216176   3.527   3.731   3.160
 5093SOL     OW16177   3.073   0.608   0.452
 5093SOL    HW116178   3.048   0.557   0.370
 5093SOL    HW216179   3.108   0.698   0.426
 5094SOL     OW16180   2.468   5.868   5.719
 5094SOL    HW116181   2.541   5.891   5.783
 5094SOL    HW216182   2.500   5.797   5.657
 5095SOL     OW16183   6.337   1.812   3.602
 5095SOL    HW116184   6.371   1.890   3.653
 5095SOL    HW216185   6.287   1.844   3.521
 5096SOL     OW16186   3.823   5.078   6.219
 5096SOL    HW116187   3.816   5.070   6.319
 5096SOL    HW216188   3.883   5.155   6.196
 5097SOL     OW16189   0.945   6.996   6.311
 5097SOL    HW116190   0.871   0.021   6.358
 5097SOL    HW216191   0.996   0.036   6.254
 5098SOL     OW16192   3.186   0.852   2.434
 5098SOL    HW116193   3.246   0.860   2.514
 5098SOL    HW216194   3.158   0.943   2.404
 5099SOL     OW16195   0.372   0.188   0.795
 5099SOL    HW116196   0.402   0.201   0.701
 5099SOL    HW216197   0.320   0.103   0.802
 5100SOL     OW16198   3.242   5.444   4.603
 5100SOL    HW116199   3.150   5.419   4.575
 5100SOL    HW216200   3.285   5.501   4.533
 5101SOL     OW16201   4.473   0.614   6.849
 5101SOL    HW116202   4.386   0.663   6.834
 5101SOL    HW216203   4.454   0.522   6.882
 5102SOL     OW16204   5.750   6.917   4.258
 5102SOL    HW116205   5.725   6.883   4.167
 5102SOL    HW216206   5.834   6.970   4.251
 5103SOL     OW16207   0.210   0.469   3.908
 5103SOL    HW116208   0.117   0.435   3.923
 5103SOL    HW216209   0.270   0.392   3.887
 5104SOL     OW16210   1.583   6.368   1.898
 5104SOL    HW116211   1.611   6.320   1.981
 5104SOL    HW216212   1.487   6.395   1.906
 5105SOL     OW16213   1.961   2.511   0.283
 5105SOL    HW116214   1.991   2.444   0.350
 5105SOL    HW216215   1.871   2.547   0.310
 5106SOL     OW16216   4.245   2.511   0.373
 5106SOL    HW116217   4.162   2.474   0.332
 5106SOL    HW216218   4.319   2.509   0.306
 5107SOL     OW16219   4.109   1.622   1.237
 5107SOL    HW116220   4.065   1.705   1.203
 5107SOL    HW216221   4.146   1.638   1.328
 5108SOL     OW16222   3.966   4.020   4.863
 5108SOL    HW116223   4.059   4.056   4.857
 5108SOL    HW216224   3.963   3.928   4.824
 5109SOL     OW16225   0.849   1.841   6.861
 5109SOL    HW116226   0.756   1.831   6.827
 5109SOL    HW216227   0.848   1.885   6.951
 5110SOL     OW16228   0.804   0.509   5.746
 5110SOL    HW116229   0.794   0.539   5.840
 5110SOL    HW216230   0.717   0.474   5.712
 5111SOL     OW16231   1.198   0.331   4.952
 5111SOL    HW116232   1.178   0.332   5.050
 5111SOL    HW216233   1.257   0.409   4.930
 5112SOL     OW16234   1.523   0.531   3.347
 5112SOL    HW116235   1.598   0.478   3.386
 5112SOL    HW216236   1.441   0.474   3.341
 5113SOL     OW16237   1.737   6.925   1.101
 5113SOL    HW116238   1.737   6.952   1.197
 5113SOL    HW216239   1.820   6.872   1.082
 5114SOL     OW16240   3.524   0.600   6.880
 5114SOL    HW116241   3.570   0.582   6.967
 5114SOL    HW216242   3.469   0.520   6.854
 5115SOL     OW16243   1.616   4.727   3.942
 5115SOL    HW116244   1.647   4.634   3.961
 5115SOL    HW216245   1.644   4.788   4.016
 5116SOL     OW16246   0.575   6.932   6.682
 5116SOL    HW116247   0.610   6.839   6.693
 5116SOL    HW216248   0.615   6.973   6.600
 5117SOL     OW16249   2.173   3.915   4.759
 5117SOL    HW116250   2.224   3.921   4.845
 5117SOL    HW216251   2.163   3.819   4.733
 5118SOL     OW16252   4.774   1.161   0.003
 5118SOL    HW116253   4.773   1.076   6.974
 5118SOL    HW216254   4.781   1.239   6.963
 5119SOL     OW16255   5.197   0.634   1.932
 5119SOL    HW116256   5.116   0.610   1.879
 5119SOL    HW216257   5.182   0.610   2.028
 5120SOL     OW16258   3.571   0.343   4.102
 5120SOL    HW116259   3.517   0.263   4.129
 5120SOL    HW216260   3.556   0.417   4.168
 5121SOL     OW16261   2.643   1.923   6.854
 5121SOL    HW116262   2.665   1.860   6.780
 5121SOL    HW216263   2.662   1.879   6.942
 5122SOL     OW16264   3.619   6.610   3.474
 5122SOL    HW116265   3.654   6.702   3.485
 5122SOL    HW216266   3.687   6.553   3.427
 5123SOL     OW16267   4.224   2.273   4.217
 5123SOL    HW116268   4.254   2.365   4.243
 5123SOL    HW216269   4.267   2.206   4.278
 5124SOL     OW16270   2.677   5.830   4.508
 5124SOL    HW116271   2.685   5.741   4.551
 5124SOL    HW216272   2.596   5.832   4.449
 5125SOL     OW16273   6.123   3.169   3.898
 5125SOL    HW116274   6.165   3.259   3.906
 5125SOL    HW216275   6.118   3.126   3.988
 5126SOL     OW16276   5.969   5.309   5.799
 5126SOL    HW116277   6.048   5.367   5.778
 5126SOL    HW216278   5.885   5.358   5.776
 5127SOL     OW16279   0.929   4.162   6.948
 5127SOL    HW116280   0.907   4.259   6.935
 5127SOL    HW216281   0.999   4.134   6.883
 5128SOL     OW16282   0.051   0.621   6.928
 5128SOL    HW116283   0.140   0.582   6.952
 5128SOL    HW216284   0.047   0.637   6.830
 5129SOL     OW16285   6.199   6.909   2.660
 5129SOL    HW116286   6.150   6.924   2.574
 5129SOL    HW216287   6.211   6.811   2.675
 5130SOL     OW16288   0.398   5.876   3.685
 5130SOL    HW116289   0.445   5.949   3.635
 5130SOL    HW216290   0.461   5.835   3.751
 5131SOL     OW16291   2.202   5.108   4.134
 5131SOL    HW116292   2.135   5.126   4.062
 5131SOL    HW216293   2.258   5.029   4.109
 5132SOL     OW16294   3.131   2.525   6.352
 5132SOL    HW116295   3.137   2.537   6.451
 5132SOL    HW216296   3.118   2.614   6.308
 5133SOL     OW16297   1.852   5.707   6.673
 5133SOL    HW116298   1.862   5.630   6.736
 5133SOL    HW216299   1.935   5.716   6.618
 5134SOL     OW16300   0.236   2.997   2.360
 5134SOL    HW116301   0.249   2.967   2.455
 5134SOL    HW216302   0.146   3.041   2.352
 5135SOL     OW16303   5.624   3.288   4.647
 5135SOL    HW116304   5.612   3.358   4.577
 5135SOL    HW216305   5.541   3.282   4.702
 5136SOL     OW16306   4.782   0.597   6.486
 5136SOL    HW116307   4.828   0.533   6.546
 5136SOL    HW216308   4.701   0.634   6.532
 5137SOL     OW16309   5.305   4.048   5.708
 5137SOL    HW116310   5.295   3.949   5.700
 5137SOL    HW216311   5.388   4.077   5.661
 5138SOL     OW16312   4.119   3.332   5.226
 5138SOL    HW116313   4.082   3.317   5.134
 5138SOL    HW216314   4.103   3.251   5.282
 5139SOL     OW16315   1.384   1.410   3.177
 5139SOL    HW116316   1.376   1.342   3.249
 5139SOL    HW216317   1.471   1.459   3.185
 5140SOL     OW16318   3.862   2.998   6.454
 5140SOL    HW116319   3.850   3.088   6.497
 5140SOL    HW216320   3.777   2.969   6.412
 5141SOL     OW16321   6.171   3.873   1.206
 5141SOL    HW116322   6.181   3.937   1.283
 5141SOL    HW216323   6.247   3.886   1.142
 5142SOL     OW16324   6.248   6.683   2.791
 5142SOL    HW116325   6.314   6.673   2.865
 5142SOL    HW216326   6.156   6.670   2.827
 5143SOL     OW16327   6.291   4.428   4.087
 5143SOL    HW116328   6.227   4.494   4.048
 5143SOL    HW216329   6.381   4.438   4.044
 5144SOL     OW16330   1.036   4.470   5.418
 5144SOL    HW116331   0.952   4.521   5.400
 5144SOL    HW216332   1.072   4.496   5.507
 5145SOL     OW16333   2.870   5.459   5.485
 5145SOL    HW116334   2.963   5.434   5.511
 5145SOL    HW216335   2.823   5.500   5.564
 5146SOL     OW16336   3.378   3.947   5.387
 5146SOL    HW116337   3.405   4.009   5.314
 5146SOL    HW216338   3.304   3.989   5.441
 5147SOL     OW16339   6.858   5.469   2.631
 5147SOL    HW116340   6.857   5.378   2.591
 5147SOL    HW216341   6.831   5.463   2.727
 5148SOL     OW16342   6.105   6.962   1.672
 5148SOL    HW116343   6.179   6.898   1.648
 5148SOL    HW216344   6.036   6.963   1.600
 5149SOL     OW16345   6.693   5.194   3.174
 5149SOL    HW116346   6.654   5.109   3.210
 5149SOL    HW216347   6.621   5.262   3.165
 5150SOL     OW16348   2.159   5.543   3.178
 5150SOL    HW116349   2.135   5.639   3.193
 5150SOL    HW216350   2.114   5.487   3.247
 5151SOL     OW16351   6.398   2.820   1.752
 5151SOL    HW116352   6.323   2.886   1.743
 5151SOL    HW216353   6.366   2.741   1.806
 5152SOL     OW16354   1.609   4.604   6.854
 5152SOL    HW116355   1.589   4.571   6.946
 5152SOL    HW216356   1.611   4.704   6.854
 5153SOL     OW16357   1.881   0.983   6.827
 5153SOL    HW116358   1.863   0.934   6.742
 5153SOL    HW216359   1.975   0.967   6.856
 5154SOL     OW16360   0.867   2.791   6.098
 5154SOL    HW116361   0.824   2.747   6.020
 5154SOL    HW216362   0.862   2.890   6.087
 5155SOL     OW16363   4.393   0.454   2.228
 5155SOL    HW116364   4.393   0.384   2.300
 5155SOL    HW216365   4.448   0.532   2.258
 5156SOL     OW16366   5.642   3.667   6.375
 5156SOL    HW116367   5.561   3.641   6.428
 5156SOL    HW216368   5.659   3.597   6.305
 5157SOL     OW16369   3.831   2.039   3.334
 5157SOL    HW116370   3.874   1.963   3.287
 5157SOL    HW216371   3.862   2.125   3.294
 5158SOL     OW16372   3.796   1.517   1.760
 5158SOL    HW116373   3.701   1.534   1.786
 5158SOL    HW216374   3.851   1.597   1.784
 5159SOL     OW16375   6.432   4.045   4.443
 5159SOL    HW116376   6.356   3.993   4.483
 5159SOL    HW216377   6.516   3.991   4.448
 5160SOL     OW16378   0.286   5.176   2.909
 5160SOL    HW116379   0.286   5.119   2.992
 5160SOL    HW216380   0.340   5.259   2.926
 5161SOL     OW16381   1.846   3.964   5.981
 5161SOL    HW116382   1.896   3.974   5.894
 5161SOL    HW216383   1.898   3.906   6.043
 5162SOL     OW16384   0.982   4.927   2.860
 5162SOL    HW116385   0.930   5.004   2.898
 5162SOL    HW216386   1.078   4.952   2.850
 5163SOL     OW16387   3.495   6.264   0.109
 5163SOL    HW116388   3.525   6.349   0.065
 5163SOL    HW216389   3.486   6.193   0.039
 5164SOL     OW16390   3.858   2.710   6.536
 5164SOL    HW116391   3.897   2.674   6.451
 5164SOL    HW216392   3.871   2.810   6.539
 5165SOL     OW16393   6.412   4.214   5.594
 5165SOL    HW116394   6.490   4.235   5.535
 5165SOL    HW216395   6.330   4.257   5.557
 5166SOL     OW16396   0.448   5.114   2.224
 5166SOL    HW116397   0.438   5.181   2.299
 5166SOL    HW216398   0.488   5.030   2.260
 5167SOL     OW16399   6.743   6.345   6.374
 5167SOL    HW116400   6.768   6.409   6.301
 5167SOL    HW216401   6.804   6.266   6.371
 5168SOL     OW16402   5.112   3.451   1.697
 5168SOL    HW116403   5.118   3.473   1.794
 5168SOL    HW216404   5.085   3.355   1.686
 5169SOL     OW16405   3.982   1.976   4.311
 5169SOL    HW116406   3.909   2.027   4.265
 5169SOL    HW216407   4.048   2.040   4.351
 5170SOL     OW16408   0.554   4.613   5.612
 5170SOL    HW116409   0.581   4.570   5.699
 5170SOL    HW216410   0.563   4.546   5.538
 5171SOL     OW16411   0.663   5.226   4.637
 5171SOL    HW116412   0.713   5.230   4.724
 5171SOL    HW216413   0.570   5.260   4.650
 5172SOL     OW16414   1.469   2.608   2.497
 5172SOL    HW116415   1.405   2.534   2.518
 5172SOL    HW216416   1.418   2.691   2.475
 5173SOL     OW16417   5.424   5.077   5.883
 5173SOL    HW116418   5.432   5.088   5.982
 5173SOL    HW216419   5.434   4.980   5.860
 5174SOL     OW16420   2.248   4.948   3.431
 5174SOL    HW116421   2.346   4.968   3.427
 5174SOL    HW216422   2.197   5.033   3.446
 5175SOL     OW16423   3.108   3.482   6.848
 5175SOL    HW116424   3.196   3.526   6.828
 5175SOL    HW216425   3.098   3.473   6.947
 5176SOL     OW16426   4.798   3.220   6.761
 5176SOL    HW116427   4.879   3.198   6.707
 5176SOL    HW216428   4.803   3.173   6.850
 5177SOL     OW16429   5.138   0.770   0.200
 5177SOL    HW116430   5.046   0.759   0.238
 5177SOL    HW216431   5.180   0.680   0.187
 5178SOL     OW16432   1.076   4.374   2.366
 5178SOL    HW116433   0.998   4.327   2.407
 5178SOL    HW216434   1.113   4.320   2.291
 5179SOL     OW16435   4.104   5.654   3.631
 5179SOL    HW116436   4.087   5.652   3.533
 5179SOL    HW216437   4.199   5.628   3.649
 5180SOL     OW16438   2.296   2.055   1.104
 5180SOL    HW116439   2.267   2.151   1.110
 5180SOL    HW216440   2.395   2.050   1.116
 5181SOL     OW16441   5.826   1.210   2.515
 5181SOL    HW116442   5.865   1.282   2.572
 5181SOL    HW216443   5.880   1.201   2.431
 5182SOL     OW16444   3.907   4.371   1.668
 5182SOL    HW116445   3.966   4.297   1.636
 5182SOL    HW216446   3.811   4.348   1.651
 5183SOL     OW16447   3.991   1.335   2.853
 5183SOL    HW116448   4.069   1.278   2.880
 5183SOL    HW216449   4.013   1.383   2.768
 5184SOL     OW16450   0.700   1.771   4.371
 5184SOL    HW116451   0.751   1.689   4.395
 5184SOL    HW216452   0.754   1.852   4.396
 5185SOL     OW16453   5.783   0.657   2.428
 5185SOL    HW116454   5.808   0.562   2.411
 5185SOL    HW216455   5.728   0.691   2.351
 5186SOL     OW16456   6.674   2.604   0.684
 5186SOL    HW116457   6.650   2.685   0.629
 5186SOL    HW216458   6.743   2.551   0.636
 5187SOL     OW16459   1.132   6.958   4.464
 5187SOL    HW116460   1.104   6.954   4.560
 5187SOL    HW216461   1.178   6.873   4.438
 5188SOL     OW16462   0.674   5.595   0.895
 5188SOL    HW116463   0.706   5.651   0.819
 5188SOL    HW216464   0.753   5.559   0.945
 5189SOL     OW16465   3.667   4.330   0.795
 5189SOL    HW116466   3.737   4.303   0.861
 5189SOL    HW216467   3.709   4.381   0.720
 5190SOL     OW16468   0.810   1.696   4.065
 5190SOL    HW116469   0.778   1.790   4.051
 5190SOL    HW216470   0.739   1.632   4.038
 5191SOL     OW16471   3.972   0.305   1.816
 5191SOL    HW116472   4.035   0.381   1.800
 5191SOL    HW216473   3.878   0.340   1.817
 5192SOL     OW16474   2.693   5.415   2.643
 5192SOL    HW116475   2.632   5.360   2.700
 5192SOL    HW216476   2.771   5.446   2.698
 5193SOL     OW16477   4.959   4.579   4.912
 5193SOL    HW116478   4.993   4.633   4.835
 5193SOL    HW216479   5.036   4.549   4.968
 5194SOL     OW16480   4.837   2.334   0.151
 5194SOL    HW116481   4.813   2.242   0.120
 5194SOL    HW216482   4.827   2.339   0.250
 5195SOL     OW16483   6.248   6.440   3.923
 5195SOL    HW116484   6.259   6.341   3.914
 5195SOL    HW216485   6.229   6.463   4.019
 5196SOL     OW16486   3.205   5.219   0.231
 5196SOL    HW116487   3.249   5.231   0.320
 5196SOL    HW216488   3.224   5.127   0.197
 5197SOL     OW16489   1.892   5.225   5.387
 5197SOL    HW116490   1.868   5.310   5.434
 5197SOL    HW216491   1.940   5.164   5.451
 5198SOL     OW16492   4.362   6.602   3.637
 5198SOL    HW116493   4.265   6.585   3.619
 5198SOL    HW216494   4.404   6.518   3.672
 5199SOL     OW16495   1.708   5.848   0.334
 5199SOL    HW116496   1.638   5.800   0.387
 5199SOL    HW216497   1.693   5.833   0.237
 5200SOL     OW16498   0.895   2.529   5.219
 5200SOL    HW116499   0.947   2.536   5.304
 5200SOL    HW216500   0.946   2.573   5.145
 5201SOL     OW16501   0.420   6.680   3.884
 5201SOL    HW116502   0.360   6.709   3.809
 5201SOL    HW216503   0.464   6.759   3.926
 5202SOL     OW16504   5.984   4.087   5.832
 5202SOL    HW116505   5.960   4.086   5.929
 5202SOL    HW216506   6.075   4.049   5.819
 5203SOL     OW16507   2.405   1.274   6.662
 5203SOL    HW116508   2.307   1.292   6.662
 5203SOL    HW216509   2.452   1.349   6.710
 5204SOL     OW16510   4.268   5.812   6.650
 5204SOL    HW116511   4.329   5.771   6.718
 5204SOL    HW216512   4.254   5.748   6.575
 5205SOL     OW16513   0.650   5.918   0.520
 5205SOL    HW116514   0.572   5.920   0.457
 5205SOL    HW216515   0.632   5.979   0.597
 5206SOL     OW16516   0.453   4.843   6.521
 5206SOL    HW116517   0.436   4.760   6.467
 5206SOL    HW216518   0.489   4.818   6.610
 5207SOL     OW16519   1.131   6.018   4.273
 5207SOL    HW116520   1.056   6.026   4.208
 5207SOL    HW216521   1.097   6.033   4.366
 5208SOL     OW16522   5.094   2.598   6.475
 5208SOL    HW116523   5.042   2.557   6.400
 5208SOL    HW216524   5.032   2.632   6.545
 5209SOL     OW16525   5.803   6.508   2.340
 5209SOL    HW116526   5.734   6.506   2.412
 5209SOL    HW216527   5.778   6.446   2.266
 5210SOL     OW16528   4.692   2.860   0.457
 5210SOL    HW116529   4.768   2.904   0.504
 5210SOL    HW216530   4.728   2.801   0.385
 5211SOL     OW16531   3.715   2.500   5.822
 5211SOL    HW116532   3.621   2.471   5.838
 5211SOL    HW216533   3.717   2.568   5.749
 5212SOL     OW16534   0.092   2.727   0.468
 5212SOL    HW116535   0.065   2.666   0.394
 5212SOL    HW216536   0.186   2.757   0.455
 5213SOL     OW16537   4.857   4.171   6.845
 5213SOL    HW116538   4.943   4.220   6.850
 5213SOL    HW216539   4.783   4.227   6.882
 5214SOL     OW16540   5.540   1.893   6.241
 5214SOL    HW116541   5.586   1.891   6.329
 5214SOL    HW216542   5.604   1.925   6.170
 5215SOL     OW16543   0.841   4.221   4.071
 5215SOL    HW116544   0.905   4.186   4.138
 5215SOL    HW216545   0.847   4.166   3.987
 5216SOL     OW16546   4.537   4.999   2.027
 5216SOL    HW116547   4.495   5.078   2.072
 5216SOL    HW216548   4.633   5.019   2.007
 5217SOL     OW16549   3.681   5.159   4.340
 5217SOL    HW116550   3.598   5.186   4.390
 5217SOL    HW216551   3.656   5.107   4.259
 5218SOL     OW16552   0.908   0.950   2.190
 5218SOL    HW116553   0.908   0.950   2.290
 5218SOL    HW216554   1.001   0.939   2.156
 5219SOL     OW16555   4.484   1.477   4.821
 5219SOL    HW116556   4.564   1.538   4.818
 5219SOL    HW216557   4.481   1.430   4.909
 5220SOL     OW16558   0.880   6.162   2.321
 5220SOL    HW116559   0.882   6.139   2.224
 5220SOL    HW216560   0.814   6.103   2.368
 5221SOL     OW16561   6.088   1.361   3.866
 5221SOL    HW116562   6.016   1.426   3.842
 5221SOL    HW216563   6.069   1.273   3.821
 5222SOL     OW16564   4.169   6.348   3.258
 5222SOL    HW116565   4.226   6.411   3.312
 5222SOL    HW216566   4.227   6.274   3.222
 5223SOL     OW16567   6.200   2.630   0.568
 5223SOL    HW116568   6.291   2.591   0.579
 5223SOL    HW216569   6.148   2.576   0.502
 5224SOL     OW16570   6.110   2.973   4.853
 5224SOL    HW116571   6.077   2.893   4.903
 5224SOL    HW216572   6.036   3.039   4.845
 5225SOL     OW16573   0.193   0.711   3.767
 5225SOL    HW116574   0.227   0.713   3.673
 5225SOL    HW216575   0.212   0.621   3.807
 5226SOL     OW16576   6.747   7.020   5.096
 5226SOL    HW116577   6.774   6.939   5.149
 5226SOL    HW216578   6.794   0.077   5.132
 5227SOL     OW16579   0.164   3.419   4.963
 5227SOL    HW116580   0.098   3.352   4.930
 5227SOL    HW216581   0.140   3.448   5.055
 5228SOL     OW16582   6.157   2.289   1.010
 5228SOL    HW116583   6.152   2.352   1.087
 5228SOL    HW216584   6.140   2.339   0.925
 5229SOL     OW16585   2.707   6.000   0.287
 5229SOL    HW116586   2.628   5.944   0.263
 5229SOL    HW216587   2.684   6.061   0.362
 5230SOL     OW16588   0.765   5.681   1.560
 5230SOL    HW116589   0.680   5.669   1.610
 5230SOL    HW216590   0.772   5.776   1.528
 5231SOL     OW16591   4.897   2.454   4.580
 5231SOL    HW116592   4.985   2.410   4.597
 5231SOL    HW216593   4.833   2.427   4.652
 5232SOL     OW16594   2.193   3.447   6.290
 5232SOL    HW116595   2.172   3.544   6.291
 5232SOL    HW216596   2.281   3.431   6.335
 5233SOL     OW16597   4.500   1.155   2.091
 5233SOL    HW116598   4.526   1.153   1.995
 5233SOL    HW216599   4.443   1.075   2.112
 5234SOL     OW16600   2.565   1.616   5.894
 5234SOL    HW116601   2.567   1.625   5.993
 5234SOL    HW216602   2.471   1.628   5.861
 5235SOL     OW16603   1.902   2.358   0.915
 5235SOL    HW116604   1.813   2.392   0.885
 5235SOL    HW216605   1.975   2.411   0.871
 5236SOL     OW16606   4.824   4.997   2.042
 5236SOL    HW116607   4.858   4.907   2.015
 5236SOL    HW216608   4.819   5.001   2.142
 5237SOL     OW16609   1.597   1.444   4.931
 5237SOL    HW116610   1.692   1.447   4.900
 5237SOL    HW216611   1.580   1.357   4.979
 5238SOL     OW16612   0.355   4.446   0.105
 5238SOL    HW116613   0.354   4.347   0.116
 5238SOL    HW216614   0.300   4.472   0.025
 5239SOL     OW16615   3.284   2.999   4.443
 5239SOL    HW116616   3.222   3.000   4.522
 5239SOL    HW216617   3.273   3.082   4.390
 5240SOL     OW16618   3.020   2.130   5.688
 5240SOL    HW116619   2.999   2.201   5.621
 5240SOL    HW216620   3.100   2.078   5.657
 5241SOL     OW16621   0.389   5.289   4.686
 5241SOL    HW116622   0.400   5.220   4.758
 5241SOL    HW216623   0.333   5.364   4.720
 5242SOL     OW16624   6.748   6.509   6.658
 5242SOL    HW116625   6.671   6.455   6.692
 5242SOL    HW216626   6.790   6.462   6.580
 5243SOL     OW16627   1.513   5.469   1.574
 5243SOL    HW116628   1.457   5.390   1.603
 5243SOL    HW216629   1.609   5.448   1.588
 5244SOL     OW16630   3.251   5.440   0.087
 5244SOL    HW116631   3.236   5.353   0.134
 5244SOL    HW216632   3.169   5.464   0.035
 5245SOL     OW16633   3.838   4.848   6.794
 5245SOL    HW116634   3.880   4.874   6.881
 5245SOL    HW216635   3.749   4.893   6.785
 5246SOL     OW16636   5.344   3.834   1.752
 5246SOL    HW116637   5.259   3.782   1.760
 5246SOL    HW216638   5.362   3.855   1.655
 5247SOL     OW16639   1.748   0.883   0.042
 5247SOL    HW116640   1.798   0.936   0.110
 5247SOL    HW216641   1.772   0.915   6.974
 5248SOL     OW16642   5.814   1.512   3.833
 5248SOL    HW116643   5.767   1.462   3.906
 5248SOL    HW216644   5.771   1.491   3.745
 5249SOL     OW16645   6.955   5.023   5.913
 5249SOL    HW116646   6.903   4.939   5.922
 5249SOL    HW216647   6.976   5.060   6.004
 5250SOL     OW16648   2.262   5.800   6.168
 5250SOL    HW116649   2.294   5.873   6.107
 5250SOL    HW216650   2.175   5.765   6.135
 5251SOL     OW16651   0.437   3.417   0.111
 5251SOL    HW116652   0.439   3.517   0.109
 5251SOL    HW216653   0.343   3.385   0.119
 5252SOL     OW16654   1.762   6.353   0.379
 5252SOL    HW116655   1.675   6.373   0.333
 5252SOL    HW216656   1.744   6.301   0.462
 5253SOL     OW16657   6.024   4.997   4.427
 5253SOL    HW116658   6.013   5.040   4.517
 5253SOL    HW216659   5.969   4.914   4.423
 5254SOL     OW16660   4.206   1.080   2.928
 5254SOL    HW116661   4.258   1.004   2.968
 5254SOL    HW216662   4.244   1.103   2.839
 5255SOL     OW16663   5.920   1.636   5.101
 5255SOL    HW116664   5.873   1.632   5.013
 5255SOL    HW216665   5.984   1.560   5.108
 5256SOL     OW16666   3.959   1.377   3.517
 5256SOL    HW116667   4.007   1.314   3.578
 5256SOL    HW216668   3.988   1.361   3.422
 5257SOL     OW16669   5.875   6.702   1.820
 5257SOL    HW116670   5.960   6.753   1.828
 5257SOL    HW216671   5.895   6.607   1.799
 5258SOL     OW16672   5.620   3.328   1.668
 5258SOL    HW116673   5.699   3.329   1.606
 5258SOL    HW216674   5.549   3.269   1.631
 5259SOL     OW16675   5.504   6.349   2.072
 5259SOL    HW116676   5.438   6.280   2.043
 5259SOL    HW216677   5.588   6.304   2.101
 5260SOL     OW16678   5.342   3.554   0.958
 5260SOL    HW116679   5.268   3.606   0.916
 5260SOL    HW216680   5.305   3.472   1.002
 5261SOL     OW16681   0.435   3.685   0.014
 5261SOL    HW116682   0.489   3.626   6.977
 5261SOL    HW216683   0.487   3.767   0.036
 5262SOL     OW16684   2.671   0.876   3.299
 5262SOL    HW116685   2.631   0.923   3.221
 5262SOL    HW216686   2.689   0.941   3.373
 5263SOL     OW16687   1.886   1.606   4.401
 5263SOL    HW116688   1.935   1.556   4.329
 5263SOL    HW216689   1.793   1.627   4.369
 5264SOL     OW16690   6.546   2.408   2.754
 5264SOL    HW116691   6.564   2.506   2.744
 5264SOL    HW216692   6.461   2.385   2.706
 5265SOL     OW16693   6.516   3.775   3.953
 5265SOL    HW116694   6.601   3.727   3.975
 5265SOL    HW216695   6.487   3.830   4.031
 5266SOL     OW16696   2.773   5.550   0.733
 5266SOL    HW116697   2.705   5.583   0.799
 5266SOL    HW216698   2.728   5.493   0.664
 5267SOL     OW16699   5.350   3.880   4.956
 5267SOL    HW116700   5.331   3.846   4.864
 5267SOL    HW216701   5.410   3.815   5.004
 5268SOL     OW16702   5.794   0.709   6.681
 5268SOL    HW116703   5.841   0.684   6.596
 5268SOL    HW216704   5.717   0.769   6.661
 5269SOL     OW16705   1.263   6.946   3.810
 5269SOL    HW116706   1.244   6.891   3.729
 5269SOL    HW216707   1.203   0.002   3.811
 5270SOL     OW16708   5.985   0.930   0.981
 5270SOL    HW116709   5.976   0.838   1.018
 5270SOL    HW216710   5.953   0.932   0.887
 5271SOL     OW16711   6.133   5.531   5.212
 5271SOL    HW116712   6.112   5.626   5.237
 5271SOL    HW216713   6.060   5.494   5.155
 5272SOL     OW16714   2.994   5.191   1.937
 5272SOL    HW116715   3.017   5.105   1.982
 5272SOL    HW216716   3.068   5.217   1.874
 5273SOL     OW16717   6.727   2.952   3.450
 5273SOL    HW116718   6.713   2.860   3.414
 5273SOL    HW216719   6.654   2.975   3.514
 5274SOL     OW16720   6.836   6.974   2.996
 5274SOL    HW116721   6.751   7.005   3.037
 5274SOL    HW216722   6.823   6.960   2.897
 5275SOL     OW16723   3.719   2.529   1.342
 5275SOL    HW116724   3.759   2.582   1.267
 5275SOL    HW216725   3.629   2.495   1.314
 5276SOL     OW16726   2.030   0.633   0.993
 5276SOL    HW116727   2.095   0.630   0.917
 5276SOL    HW216728   2.053   0.561   1.059
 5277SOL     OW16729   1.651   1.445   2.561
 5277SOL    HW116730   1.688   1.478   2.475
 5277SOL    HW216731   1.578   1.379   2.544
 5278SOL     OW16732   5.914   0.244   3.358
 5278SOL    HW116733   5.866   0.330   3.371
 5278SOL    HW216734   5.891   0.205   3.269
 5279SOL     OW16735   2.022   5.229   6.175
 5279SOL    HW116736   1.949   5.180   6.224
 5279SOL    HW216737   2.008   5.220   6.077
 5280SOL     OW16738   2.478   6.225   5.139
 5280SOL    HW116739   2.502   6.165   5.063
 5280SOL    HW216740   2.417   6.298   5.107
 5281SOL     OW16741   0.369   1.726   2.876
 5281SOL    HW116742   0.422   1.800   2.918
 5281SOL    HW216743   0.303   1.691   2.943
 5282SOL     OW16744   2.345   1.854   2.997
 5282SOL    HW116745   2.282   1.918   2.953
 5282SOL    HW216746   2.339   1.865   3.096
 5283SOL     OW16747   4.187   6.773   0.904
 5283SOL    HW116748   4.219   6.680   0.926
 5283SOL    HW216749   4.201   6.832   0.984
 5284SOL     OW16750   4.868   3.876   3.339
 5284SOL    HW116751   4.851   3.783   3.370
 5284SOL    HW216752   4.870   3.937   3.418
 5285SOL     OW16753   2.938   5.340   3.318
 5285SOL    HW116754   2.915   5.242   3.320
 5285SOL    HW216755   2.936   5.376   3.412
 5286SOL     OW16756   1.199   4.670   0.299
 5286SOL    HW116757   1.284   4.723   0.297
 5286SOL    HW216758   1.159   4.675   0.391
 5287SOL     OW16759   2.749   6.776   1.037
 5287SOL    HW116760   2.800   6.695   1.008
 5287SOL    HW216761   2.767   6.851   0.974
 5288SOL     OW16762   3.295   0.423   1.690
 5288SOL    HW116763   3.246   0.336   1.678
 5288SOL    HW216764   3.307   0.440   1.788
 5289SOL     OW16765   1.844   4.361   5.754
 5289SOL    HW116766   1.748   4.334   5.741
 5289SOL    HW216767   1.858   4.453   5.717
 5290SOL     OW16768   1.594   5.077   4.939
 5290SOL    HW116769   1.575   5.127   4.855
 5290SOL    HW216770   1.666   5.124   4.990
 5291SOL     OW16771   2.404   5.133   5.981
 5291SOL    HW116772   2.341   5.082   6.039
 5291SOL    HW216773   2.353   5.198   5.925
 5292SOL     OW16774   6.501   2.851   6.457
 5292SOL    HW116775   6.507   2.839   6.358
 5292SOL    HW216776   6.561   2.925   6.485
 5293SOL     OW16777   0.509   0.233   4.839
 5293SOL    HW116778   0.550   0.157   4.788
 5293SOL    HW216779   0.487   0.202   4.931
 5294SOL     OW16780   4.759   3.547   5.690
 5294SOL    HW116781   4.779   3.450   5.676
 5294SOL    HW216782   4.661   3.563   5.680
 5295SOL     OW16783   5.500   0.645   2.846
 5295SOL    HW116784   5.571   0.597   2.795
 5295SOL    HW216785   5.521   0.743   2.850
 5296SOL     OW16786   2.162   5.204   7.003
 5296SOL    HW116787   2.169   5.303   7.010
 5296SOL    HW216788   2.253   5.164   7.010
 5297SOL     OW16789   2.970   1.991   1.545
 5297SOL    HW116790   2.980   2.088   1.523
 5297SOL    HW216791   2.887   1.977   1.599
 5298SOL     OW16792   0.746   5.504   0.379
 5298SOL    HW116793   0.756   5.603   0.385
 5298SOL    HW216794   0.831   5.464   0.345
 5299SOL     OW16795   2.440   2.451   0.533
 5299SOL    HW116796   2.503   2.503   0.591
 5299SOL    HW216797   2.394   2.382   0.589
 5300SOL     OW16798   0.369   5.916   2.067
 5300SOL    HW116799   0.305   5.857   2.117
 5300SOL    HW216800   0.461   5.903   2.101
 5301SOL     OW16801   4.425   2.177   0.837
 5301SOL    HW116802   4.511   2.214   0.802
 5301SOL    HW216803   4.404   2.092   0.788
 5302SOL     OW16804   5.751   4.049   2.871
 5302SOL    HW116805   5.820   3.996   2.821
 5302SOL    HW216806   5.703   4.110   2.807
 5303SOL     OW16807   6.664   5.926   3.366
 5303SOL    HW116808   6.580   5.899   3.318
 5303SOL    HW216809   6.662   5.890   3.459
 5304SOL     OW16810   6.885   1.784   5.888
 5304SOL    HW116811   6.929   1.805   5.801
 5304SOL    HW216812   6.893   1.863   5.949
 5305SOL     OW16813   1.640   6.640   4.916
 5305SOL    HW116814   1.728   6.680   4.891
 5305SOL    HW216815   1.593   6.608   4.834
 5306SOL     OW16816   0.220   6.149   5.007
 5306SOL    HW116817   0.205   6.244   5.036
 5306SOL    HW216818   0.151   6.090   5.048
 5307SOL     OW16819   4.362   0.372   0.134
 5307SOL    HW116820   4.427   0.303   0.101
 5307SOL    HW216821   4.337   0.352   0.229
 5308SOL     OW16822   0.838   6.573   4.963
 5308SOL    HW116823   0.900   6.595   4.888
 5308SOL    HW216824   0.744   6.578   4.931
 5309SOL     OW16825   3.077   3.696   2.189
 5309SOL    HW116826   3.065   3.616   2.248
 5309SOL    HW216827   3.025   3.684   2.105
 5310SOL     OW16828   5.194   2.969   1.965
 5310SOL    HW116829   5.101   2.957   2.000
 5310SOL    HW216830   5.229   2.882   1.930
 5311SOL     OW16831   0.420   5.759   1.035
 5311SOL    HW116832   0.399   5.709   1.119
 5311SOL    HW216833   0.519   5.771   1.027
 5312SOL     OW16834   0.093   4.290   2.681
 5312SOL    HW116835   0.017   4.262   2.739
 5312SOL    HW216836   0.060   4.351   2.609
 5313SOL     OW16837   0.913   5.061   6.972
 5313SOL    HW116838   0.839   5.017   6.920
 5313SOL    HW216839   0.957   4.993   0.007
 5314SOL     OW16840   3.228   4.972   0.112
 5314SOL    HW116841   3.158   4.904   0.134
 5314SOL    HW216842   3.316   4.926   0.096
 5315SOL     OW16843   3.763   3.848   1.207
 5315SOL    HW116844   3.733   3.866   1.113
 5315SOL    HW216845   3.829   3.918   1.235
 5316SOL     OW16846   6.935   5.439   5.309
 5316SOL    HW116847   7.001   5.447   5.384
 5316SOL    HW216848   6.882   5.355   5.320
 5317SOL     OW16849   6.820   0.950   4.655
 5317SOL    HW116850   6.809   0.906   4.744
 5317SOL    HW216851   6.866   1.038   4.666
 5318SOL     OW16852   0.599   1.940   6.030
 5318SOL    HW116853   0.543   1.860   6.053
 5318SOL    HW216854   0.575   1.974   5.939
 5319SOL     OW16855   4.739   6.746   0.134
 5319SOL    HW116856   4.702   6.688   0.206
 5319SOL    HW216857   4.680   6.826   0.121
 5320SOL     OW16858   5.583   4.911   6.707
 5320SOL    HW116859   5.537   4.996   6.735
 5320SOL    HW216860   5.675   4.933   6.675
 5321SOL     OW16861   0.862   4.060   2.746
 5321SOL    HW116862   0.879   4.029   2.652
 5321SOL    HW216863   0.944   4.047   2.801
 5322SOL     OW16864   3.972   6.375   6.042
 5322SOL    HW116865   3.914   6.437   5.990
 5322SOL    HW216866   3.981   6.409   6.136
 5323SOL     OW16867   3.708   3.218   0.706
 5323SOL    HW116868   3.746   3.169   0.628
 5323SOL    HW216869   3.754   3.188   0.790
 5324SOL     OW16870   3.610   2.696   1.858
 5324SOL    HW116871   3.693   2.748   1.838
 5324SOL    HW216872   3.636   2.602   1.882
 5325SOL     OW16873   5.758   6.247   3.630
 5325SOL    HW116874   5.667   6.211   3.610
 5325SOL    HW216875   5.757   6.292   3.719
 5326SOL     OW16876   0.008   5.144   2.691
 5326SOL    HW116877   0.064   5.085   2.633
 5326SOL    HW216878   0.054   5.232   2.702
 5327SOL     OW16879   0.310   5.156   5.526
 5327SOL    HW116880   0.248   5.088   5.565
 5327SOL    HW216881   0.297   5.243   5.574
 5328SOL     OW16882   4.218   3.005   5.536
 5328SOL    HW116883   4.194   3.072   5.606
 5328SOL    HW216884   4.134   2.972   5.492
 5329SOL     OW16885   0.424   4.066   6.809
 5329SOL    HW116886   0.453   4.062   6.905
 5329SOL    HW216887   0.458   3.985   6.760
 5330SOL     OW16888   3.309   4.850   6.823
 5330SOL    HW116889   3.349   4.758   6.830
 5330SOL    HW216890   3.360   4.903   6.755
 5331SOL     OW16891   5.302   1.406   1.549
 5331SOL    HW116892   5.385   1.461   1.538
 5331SOL    HW216893   5.221   1.462   1.533
 5332SOL     OW16894   6.716   4.175   0.595
 5332SOL    HW116895   6.719   4.089   0.545
 5332SOL    HW216896   6.773   4.169   0.677
 5333SOL     OW16897   1.168   0.577   3.832
 5333SOL    HW116898   1.225   0.621   3.902
 5333SOL    HW216899   1.145   0.484   3.862
 5334SOL     OW16900   3.595   5.080   5.663
 5334SOL    HW116901   3.613   5.073   5.761
 5334SOL    HW216902   3.594   5.176   5.635
 5335SOL     OW16903   0.259   4.955   2.077
 5335SOL    HW116904   0.312   5.004   2.146
 5335SOL    HW216905   0.309   4.955   1.991
 5336SOL     OW16906   2.217   2.069   3.402
 5336SOL    HW116907   2.208   2.017   3.487
 5336SOL    HW216908   2.147   2.141   3.399
 5337SOL     OW16909   5.357   4.608   1.763
 5337SOL    HW116910   5.401   4.664   1.693
 5337SOL    HW216911   5.258   4.612   1.751
 5338SOL     OW16912   5.851   0.957   6.358
 5338SOL    HW116913   5.885   0.952   6.264
 5338SOL    HW216914   5.751   0.951   6.358
 5339SOL     OW16915   5.748   1.285   3.119
 5339SOL    HW116916   5.781   1.263   3.027
 5339SOL    HW216917   5.753   1.204   3.177
 5340SOL     OW16918   6.171   4.076   1.371
 5340SOL    HW116919   6.140   4.033   1.456
 5340SOL    HW216920   6.096   4.128   1.331
 5341SOL     OW16921   3.134   5.111   5.258
 5341SOL    HW116922   3.141   5.012   5.250
 5341SOL    HW216923   3.064   5.134   5.326
 5342SOL     OW16924   5.547   6.256   4.676
 5342SOL    HW116925   5.526   6.272   4.579
 5342SOL    HW216926   5.553   6.343   4.724
 5343SOL     OW16927   3.878   3.418   4.510
 5343SOL    HW116928   3.790   3.431   4.466
 5343SOL    HW216929   3.865   3.396   4.607
 5344SOL     OW16930   0.605   1.754   0.560
 5344SOL    HW116931   0.555   1.695   0.496
 5344SOL    HW216932   0.699   1.721   0.569
 5345SOL     OW16933   4.995   0.748   6.970
 5345SOL    HW116934   5.069   0.810   6.944
 5345SOL    HW216935   5.007   0.718   0.041
 5346SOL     OW16936   3.332   5.575   4.011
 5346SOL    HW116937   3.399   5.521   4.062
 5346SOL    HW216938   3.320   5.664   4.056
 5347SOL     OW16939   6.519   4.046   3.212
 5347SOL    HW116940   6.581   4.084   3.144
 5347SOL    HW216941   6.456   4.118   3.243
 5348SOL     OW16942   0.465   1.473   6.503
 5348SOL    HW116943   0.529   1.467   6.580
 5348SOL    HW216944   0.447   1.381   6.468
 5349SOL     OW16945   2.496   2.928   0.845
 5349SOL    HW116946   2.435   2.919   0.767
 5349SOL    HW216947   2.446   2.967   0.922
 5350SOL     OW16948   2.666   6.836   5.272
 5350SOL    HW116949   2.697   6.786   5.191
 5350SOL    HW216950   2.641   6.929   5.247
 5351SOL     OW16951   0.283   5.510   2.233
 5351SOL    HW116952   0.368   5.524   2.283
 5351SOL    HW216953   0.300   5.452   2.153
 5352SOL     OW16954   2.023   4.832   3.231
 5352SOL    HW116955   2.080   4.840   3.313
 5352SOL    HW216956   2.051   4.752   3.178
 5353SOL     OW16957   3.812   6.235   4.105
 5353SOL    HW116958   3.731   6.290   4.121
 5353SOL    HW216959   3.788   6.153   4.053
 5354SOL     OW16960   1.945   4.889   0.637
 5354SOL    HW116961   1.964   4.953   0.562
 5354SOL    HW216962   2.005   4.810   0.629
 5355SOL     OW16963   6.310   5.023   4.017
 5355SOL    HW116964   6.310   4.936   3.969
 5355SOL    HW216965   6.366   5.016   4.099
 5356SOL     OW16966   6.661   3.529   2.724
 5356SOL    HW116967   6.760   3.537   2.733
 5356SOL    HW216968   6.624   3.614   2.687
 5357SOL     OW16969   3.825   4.517   0.675
 5357SOL    HW116970   3.817   4.568   0.761
 5357SOL    HW216971   3.885   4.567   0.613
 5358SOL     OW16972   4.548   2.659   1.295
 5358SOL    HW116973   4.523   2.670   1.391
 5358SOL    HW216974   4.547   2.562   1.271
 5359SOL     OW16975   2.333   1.903   6.142
 5359SOL    HW116976   2.392   1.953   6.204
 5359SOL    HW216977   2.244   1.887   6.185
 5360SOL     OW16978   5.127   6.245   3.796
 5360SOL    HW116979   5.185   6.163   3.798
 5360SOL    HW216980   5.081   6.256   3.884
 5361SOL     OW16981   2.156   6.388   4.063
 5361SOL    HW116982   2.151   6.392   3.964
 5361SOL    HW216983   2.176   6.295   4.093
 5362SOL     OW16984   6.673   5.866   2.554
 5362SOL    HW116985   6.720   5.870   2.642
 5362SOL    HW216986   6.666   5.958   2.515
 5363SOL     OW16987   5.378   6.433   5.961
 5363SOL    HW116988   5.359   6.365   5.891
 5363SOL    HW216989   5.331   6.408   6.046
 5364SOL     OW16990   5.973   6.604   1.508
 5364SOL    HW116991   6.047   6.616   1.574
 5364SOL    HW216992   5.920   6.522   1.531
 5365SOL     OW16993   3.130   3.108   2.183
 5365SOL    HW116994   3.104   3.112   2.086
 5365SOL    HW216995   3.053   3.137   2.240
 5366SOL     OW16996   6.843   6.589   2.521
 5366SOL    HW116997   6.855   6.597   2.422
 5366SOL    HW216998   6.913   6.643   2.568
 5367SOL     OW16999   0.205   6.653   1.467
 5367SOL    HW117000   0.210   6.614   1.558
 5367SOL    HW217001   0.125   6.714   1.461
 5368SOL     OW17002   6.455   7.002   2.678
 5368SOL    HW117003   6.495   6.990   2.587
 5368SOL    HW217004   6.356   6.985   2.673
 5369SOL     OW17005   3.185   6.348   1.126
 5369SOL    HW117006   3.250   6.280   1.091
 5369SOL    HW217007   3.092   6.314   1.113
 5370SOL     OW17008   4.054   4.074   1.105
 5370SOL    HW117009   4.143   4.103   1.139
 5370SOL    HW217010   4.054   3.976   1.089
 5371SOL     OW17011   6.845   4.965   5.188
 5371SOL    HW117012   6.896   4.950   5.272
 5371SOL    HW217013   6.791   5.048   5.197
 5372SOL     OW17014   0.886   6.113   2.785
 5372SOL    HW117015   0.965   6.139   2.841
 5372SOL    HW217016   0.825   6.191   2.775
 5373SOL     OW17017   3.980   6.836   5.471
 5373SOL    HW117018   4.001   6.831   5.569
 5373SOL    HW217019   4.019   6.757   5.424
 5374SOL     OW17020   2.070   4.655   0.700
 5374SOL    HW117021   2.152   4.610   0.735
 5374SOL    HW217022   1.989   4.619   0.746
 5375SOL     OW17023   0.405   5.576   5.748
 5375SOL    HW117024   0.386   5.658   5.803
 5375SOL    HW217025   0.469   5.517   5.797
 5376SOL     OW17026   1.171   2.255   1.295
 5376SOL    HW117027   1.093   2.261   1.358
 5376SOL    HW217028   1.194   2.347   1.261
 5377SOL     OW17029   1.263   0.302   2.808
 5377SOL    HW117030   1.196   0.230   2.823
 5377SOL    HW217031   1.261   0.367   2.883
 5378SOL     OW17032   6.833   0.275   2.269
 5378SOL    HW117033   6.924   0.240   2.292
 5378SOL    HW217034   6.837   0.324   2.182
 5379SOL     OW17035   0.999   3.324   4.764
 5379SOL    HW117036   0.973   3.296   4.672
 5379SOL    HW217037   1.088   3.368   4.761
 5380SOL     OW17038   2.552   6.448   1.181
 5380SOL    HW117039   2.626   6.477   1.242
 5380SOL    HW217040   2.525   6.525   1.123
 5381SOL     OW17041   7.002   6.285   2.087
 5381SOL    HW117042   0.056   6.332   2.129
 5381SOL    HW217043   0.001   6.259   1.994
 5382SOL     OW17044   2.993   2.185   2.341
 5382SOL    HW117045   2.947   2.198   2.253
 5382SOL    HW217046   2.947   2.238   2.411
 5383SOL     OW17047   1.220   2.707   4.695
 5383SOL    HW117048   1.299   2.646   4.696
 5383SOL    HW217049   1.207   2.744   4.603
 5384SOL     OW17050   4.914   6.154   4.765
 5384SOL    HW117051   4.988   6.142   4.832
 5384SOL    HW217052   4.827   6.159   4.813
 5385SOL     OW17053   5.067   3.183   5.561
 5385SOL    HW117054   5.155   3.145   5.589
 5385SOL    HW217055   5.080   3.241   5.480
 5386SOL     OW17056   5.546   1.102   4.079
 5386SOL    HW117057   5.558   1.089   4.177
 5386SOL    HW217058   5.568   1.018   4.031
 5387SOL     OW17059   2.689   6.086   3.246
 5387SOL    HW117060   2.729   6.107   3.157
 5387SOL    HW217061   2.601   6.040   3.232
 5388SOL     OW17062   1.280   6.827   2.660
 5388SOL    HW117063   1.337   6.909   2.666
 5388SOL    HW217064   1.218   6.835   2.582
 5389SOL     OW17065   4.027   1.697   4.709
 5389SOL    HW117066   4.068   1.606   4.704
 5389SOL    HW217067   3.987   1.721   4.621
 5390SOL     OW17068   5.528   4.390   3.423
 5390SOL    HW117069   5.547   4.382   3.521
 5390SOL    HW217070   5.473   4.472   3.406
 5391SOL     OW17071   2.262   1.867   0.205
 5391SOL    HW117072   2.312   1.861   0.291
 5391SOL    HW217073   2.190   1.936   0.213
 5392SOL     OW17074   5.645   4.121   0.969
 5392SOL    HW117075   5.592   4.108   1.053
 5392SOL    HW217076   5.623   4.209   0.928
 5393SOL     OW17077   5.035   1.159   5.199
 5393SOL    HW117078   5.010   1.157   5.102
 5393SOL    HW217079   5.000   1.243   5.241
 5394SOL     OW17080   0.881   5.452   1.033
 5394SOL    HW117081   0.959   5.399   0.999
 5394SOL    HW217082   0.895   5.474   1.130
 5395SOL     OW17083   5.075   0.322   1.635
 5395SOL    HW117084   5.161   0.285   1.669
 5395SOL    HW217085   5.025   0.250   1.587
 5396SOL     OW17086   5.596   5.190   1.911
 5396SOL    HW117087   5.558   5.190   1.819
 5396SOL    HW217088   5.524   5.168   1.977
 5397SOL     OW17089   7.006   1.878   2.436
 5397SOL    HW117090   6.911   1.864   2.464
 5397SOL    HW217091   0.040   1.892   2.516
 5398SOL     OW17092   2.638   2.020   3.966
 5398SOL    HW117093   2.723   1.998   4.014
 5398SOL    HW217094   2.650   2.008   3.868
 5399SOL     OW17095   3.027   6.908   6.462
 5399SOL    HW117096   2.954   6.843   6.486
 5399SOL    HW217097   3.100   6.859   6.414
 5400SOL     OW17098   2.861   3.263   0.531
 5400SOL    HW117099   2.929   3.190   0.528
 5400SOL    HW217100   2.778   3.229   0.575
 5401SOL     OW17101   5.484   4.217   2.283
 5401SOL    HW117102   5.418   4.146   2.259
 5401SOL    HW217103   5.553   4.223   2.211
 5402SOL     OW17104   2.477   6.791   1.150
 5402SOL    HW117105   2.552   6.793   1.084
 5402SOL    HW217106   2.490   6.864   1.217
 5403SOL     OW17107   5.198   3.619   6.241
 5403SOL    HW117108   5.138   3.541   6.261
 5403SOL    HW217109   5.180   3.692   6.306
 5404SOL     OW17110   0.815   0.186   1.519
 5404SOL    HW117111   0.912   0.160   1.527
 5404SOL    HW217112   0.761   0.105   1.496
 5405SOL     OW17113   6.376   4.717   6.754
 5405SOL    HW117114   6.319   4.767   6.819
 5405SOL    HW217115   6.355   4.619   6.759
 5406SOL     OW17116   2.386   1.018   4.967
 5406SOL    HW117117   2.308   1.080   4.973
 5406SOL    HW217118   2.470   1.070   4.981
 5407SOL     OW17119   3.465   1.883   0.889
 5407SOL    HW117120   3.434   1.974   0.862
 5407SOL    HW217121   3.389   1.818   0.884
 5408SOL     OW17122   4.268   0.879   5.100
 5408SOL    HW117123   4.289   0.942   5.026
 5408SOL    HW217124   4.269   0.929   5.187
 5409SOL     OW17125   6.141   1.140   2.716
 5409SOL    HW117126   6.097   1.064   2.668
 5409SOL    HW217127   6.215   1.177   2.659
 5410SOL     OW17128   0.873   2.350   6.748
 5410SOL    HW117129   0.881   2.264   6.699
 5410SOL    HW217130   0.959   2.401   6.739
 5411SOL     OW17131   4.892   4.944   6.231
 5411SOL    HW117132   4.884   4.971   6.135
 5411SOL    HW217133   4.956   5.005   6.278
 5412SOL     OW17134   2.940   1.427   6.374
 5412SOL    HW117135   2.989   1.511   6.350
 5412SOL    HW217136   2.849   1.451   6.409
 5413SOL     OW17137   0.401   0.217   0.019
 5413SOL    HW117138   0.417   0.131   0.066
 5413SOL    HW217139   0.460   0.288   0.058
 5414SOL     OW17140   6.386   4.904   4.751
 5414SOL    HW117141   6.478   4.895   4.713
 5414SOL    HW217142   6.319   4.874   4.684
 5415SOL     OW17143   2.841   6.313   0.872
 5415SOL    HW117144   2.875   6.279   0.960
 5415SOL    HW217145   2.899   6.280   0.798
 5416SOL     OW17146   2.585   4.767   5.091
 5416SOL    HW117147   2.547   4.728   5.007
 5416SOL    HW217148   2.670   4.719   5.114
 5417SOL     OW17149   3.974   0.291   5.016
 5417SOL    HW117150   3.913   0.242   4.954
 5417SOL    HW217151   3.960   0.259   5.109
 5418SOL     OW17152   5.757   5.663   5.042
 5418SOL    HW117153   5.794   5.725   4.972
 5418SOL    HW217154   5.657   5.660   5.034
 5419SOL     OW17155   3.803   5.818   0.834
 5419SOL    HW117156   3.755   5.887   0.779
 5419SOL    HW217157   3.738   5.773   0.895
 5420SOL     OW17158   2.143   1.882   0.842
 5420SOL    HW117159   2.232   1.913   0.873
 5420SOL    HW217160   2.094   1.958   0.800
 5421SOL     OW17161   3.338   4.995   1.097
 5421SOL    HW117162   3.347   4.988   1.197
 5421SOL    HW217163   3.242   4.997   1.072
 5422SOL     OW17164   1.113   4.746   4.499
 5422SOL    HW117165   1.062   4.738   4.413
 5422SOL    HW217166   1.201   4.698   4.490
 5423SOL     OW17167   5.253   5.015   0.054
 5423SOL    HW117168   5.159   4.996   0.082
 5423SOL    HW217169   5.306   5.049   0.132
 5424SOL     OW17170   5.726   4.015   4.323
 5424SOL    HW117171   5.785   3.974   4.392
 5424SOL    HW217172   5.630   4.002   4.347
 5425SOL     OW17173   6.360   2.562   4.870
 5425SOL    HW117174   6.340   2.584   4.775
 5425SOL    HW217175   6.382   2.645   4.921
 5426SOL     OW17176   5.124   5.510   2.323
 5426SOL    HW117177   5.096   5.547   2.234
 5426SOL    HW217178   5.194   5.440   2.309
 5427SOL     OW17179   5.354   3.195   6.985
 5427SOL    HW117180   5.373   3.161   6.893
 5427SOL    HW217181   5.375   3.292   6.991
 5428SOL     OW17182   5.317   6.502   1.675
 5428SOL    HW117183   5.417   6.497   1.680
 5428SOL    HW217184   5.282   6.549   1.756
 5429SOL     OW17185   2.045   6.784   5.088
 5429SOL    HW117186   2.086   6.747   5.171
 5429SOL    HW217187   2.117   6.821   5.029
 5430SOL     OW17188   1.844   3.022   4.710
 5430SOL    HW117189   1.791   3.056   4.632
 5430SOL    HW217190   1.786   2.963   4.766
 5431SOL     OW17191   2.821   3.609   6.432
 5431SOL    HW117192   2.920   3.600   6.443
 5431SOL    HW217193   2.780   3.642   6.517
 5432SOL     OW17194   3.973   5.686   6.518
 5432SOL    HW117195   4.070   5.689   6.498
 5432SOL    HW217196   3.925   5.754   6.462
 5433SOL     OW17197   0.854   0.204   1.101
 5433SOL    HW117198   0.827   0.113   1.132
 5433SOL    HW217199   0.831   0.215   1.004
 5434SOL     OW17200   4.287   0.999   4.819
 5434SOL    HW117201   4.239   1.087   4.814
 5434SOL    HW217202   4.374   1.007   4.770
 5435SOL     OW17203   6.507   3.682   0.428
 5435SOL    HW117204   6.569   3.711   0.501
 5435SOL    HW217205   6.558   3.674   0.343
 5436SOL     OW17206   6.283   4.149   4.126
 5436SOL    HW117207   6.186   4.124   4.114
 5436SOL    HW217208   6.294   4.247   4.112
 5437SOL     OW17209   3.297   4.917   5.028
 5437SOL    HW117210   3.313   4.884   4.935
 5437SOL    HW217211   3.209   4.882   5.061
 5438SOL     OW17212   5.151   4.647   2.059
 5438SOL    HW117213   5.194   4.603   2.137
 5438SOL    HW217214   5.123   4.577   1.992
 5439SOL     OW17215   0.495   3.436   6.560
 5439SOL    HW117216   0.579   3.401   6.601
 5439SOL    HW217217   0.486   3.403   6.466
 5440SOL     OW17218   6.449   6.216   3.784
 5440SOL    HW117219   6.497   6.232   3.698
 5440SOL    HW217220   6.352   6.198   3.765
 5441SOL     OW17221   5.245   3.208   3.657
 5441SOL    HW117222   5.327   3.264   3.663
 5441SOL    HW217223   5.164   3.267   3.656
 5442SOL     OW17224   4.069   6.984   3.790
 5442SOL    HW117225   4.020   0.047   3.779
 5442SOL    HW217226   4.090   6.969   3.887
 5443SOL     OW17227   4.558   5.936   3.669
 5443SOL    HW117228   4.472   5.965   3.626
 5443SOL    HW217229   4.576   5.993   3.749
 5444SOL     OW17230   0.140   0.755   4.251
 5444SOL    HW117231   0.070   0.692   4.285
 5444SOL    HW217232   0.119   0.781   4.157
 5445SOL     OW17233   6.216   4.179   3.506
 5445SOL    HW117234   6.225   4.080   3.512
 5445SOL    HW217235   6.129   4.207   3.548
 5446SOL     OW17236   6.088   5.379   4.303
 5446SOL    HW117237   6.019   5.440   4.264
 5446SOL    HW217238   6.128   5.323   4.230
 5447SOL     OW17239   1.797   1.290   1.085
 5447SOL    HW117240   1.860   1.359   1.048
 5447SOL    HW217241   1.783   1.218   1.017
 5448SOL     OW17242   4.445   4.583   3.900
 5448SOL    HW117243   4.473   4.575   3.804
 5448SOL    HW217244   4.347   4.566   3.908
 5449SOL     OW17245   1.968   1.107   0.862
 5449SOL    HW117246   1.965   1.077   0.766
 5449SOL    HW217247   2.004   1.200   0.866
 5450SOL     OW17248   3.256   0.243   1.243
 5450SOL    HW117249   3.255   0.143   1.250
 5450SOL    HW217250   3.250   0.271   1.147
 5451SOL     OW17251   1.838   6.031   3.490
 5451SOL    HW117252   1.761   5.999   3.435
 5451SOL    HW217253   1.806   6.101   3.555
 5452SOL     OW17254   2.552   4.408   0.869
 5452SOL    HW117255   2.648   4.431   0.856
 5452SOL    HW217256   2.538   4.312   0.848
 5453SOL     OW17257   5.142   3.672   1.964
 5453SOL    HW117258   5.223   3.614   1.969
 5453SOL    HW217259   5.157   3.754   2.019
 5454SOL     OW17260   5.583   5.504   0.717
 5454SOL    HW117261   5.485   5.522   0.707
 5454SOL    HW217262   5.605   5.417   0.674
 5455SOL     OW17263   0.235   2.108   3.556
 5455SOL    HW117264   0.191   2.145   3.474
 5455SOL    HW217265   0.265   2.184   3.615
 5456SOL     OW17266   3.484   1.883   6.550
 5456SOL    HW117267   3.396   1.836   6.543
 5456SOL    HW217268   3.513   1.887   6.646
 5457SOL     OW17269   6.271   2.018   1.442
 5457SOL    HW117270   6.363   1.982   1.426
 5457SOL    HW217271   6.274   2.085   1.516
 5458SOL     OW17272   6.765   5.147   0.717
 5458SOL    HW117273   6.837   5.194   0.769
 5458SOL    HW217274   6.716   5.084   0.776
 5459SOL     OW17275   2.233   4.901   5.476
 5459SOL    HW117276   2.279   4.934   5.559
 5459SOL    HW217277   2.264   4.808   5.456
 5460SOL     OW17278   2.864   6.824   2.061
 5460SOL    HW117279   2.805   6.777   1.995
 5460SOL    HW217280   2.887   6.915   2.026
 5461SOL     OW17281   0.708   0.138   4.216
 5461SOL    HW117282   0.705   0.044   4.180
 5461SOL    HW217283   0.788   0.185   4.180
 5462SOL     OW17284   5.664   6.127   6.981
 5462SOL    HW117285   5.647   6.037   6.940
 5462SOL    HW217286   5.614   6.134   0.044
 5463SOL     OW17287   0.205   1.969   0.238
 5463SOL    HW117288   0.303   1.967   0.216
 5463SOL    HW217289   0.153   1.929   0.163
 5464SOL     OW17290   6.031   6.031   4.532
 5464SOL    HW117291   5.997   6.125   4.523
 5464SOL    HW217292   5.955   5.967   4.522
 5465SOL     OW17293   6.230   0.745   3.454
 5465SOL    HW117294   6.203   0.837   3.483
 5465SOL    HW217295   6.290   0.705   3.522
 5466SOL     OW17296   5.440   2.545   5.749
 5466SOL    HW117297   5.368   2.524   5.816
 5466SOL    HW217298   5.516   2.590   5.796
 5467SOL     OW17299   6.093   3.383   3.377
 5467SOL    HW117300   6.167   3.446   3.398
 5467SOL    HW217301   6.081   3.319   3.453
 5468SOL     OW17302   6.944   2.295   4.524
 5468SOL    HW117303   7.006   2.364   4.559
 5468SOL    HW217304   6.974   2.266   4.433
 5469SOL     OW17305   2.911   5.788   5.381
 5469SOL    HW117306   3.010   5.778   5.391
 5469SOL    HW217307   2.876   5.713   5.324
 5470SOL     OW17308   4.242   5.568   3.993
 5470SOL    HW117309   4.158   5.547   3.944
 5470SOL    HW217310   4.308   5.494   3.980
 5471SOL     OW17311   6.096   0.373   2.909
 5471SOL    HW117312   6.061   0.439   2.975
 5471SOL    HW217313   6.189   0.399   2.881
 5472SOL     OW17314   3.347   3.548   6.748
 5472SOL    HW117315   3.416   3.515   6.813
 5472SOL    HW217316   3.393   3.586   6.668
 5473SOL     OW17317   1.174   3.539   0.498
 5473SOL    HW117318   1.186   3.589   0.583
 5473SOL    HW217319   1.076   3.523   0.482
 5474SOL     OW17320   0.932   5.133   5.049
 5474SOL    HW117321   0.891   5.165   5.134
 5474SOL    HW217322   0.862   5.133   4.977
 5475SOL     OW17323   1.701   2.315   0.405
 5475SOL    HW117324   1.606   2.289   0.424
 5475SOL    HW217325   1.755   2.311   0.490
 5476SOL     OW17326   2.326   4.497   4.900
 5476SOL    HW117327   2.229   4.471   4.896
 5476SOL    HW217328   2.372   4.463   4.817
 5477SOL     OW17329   2.116   3.877   3.410
 5477SOL    HW117330   2.158   3.924   3.488
 5477SOL    HW217331   2.029   3.920   3.388
 5478SOL     OW17332   4.500   7.014   5.424
 5478SOL    HW117333   4.494   0.084   5.459
 5478SOL    HW217334   4.408   6.976   5.414
 5479SOL     OW17335   5.001   2.243   4.945
 5479SOL    HW117336   5.040   2.210   4.859
 5479SOL    HW217337   5.070   2.296   4.994
 5480SOL     OW17338   5.303   5.551   4.390
 5480SOL    HW117339   5.232   5.596   4.444
 5480SOL    HW217340   5.352   5.486   4.448
 5481SOL     OW17341   4.506   1.874   4.694
 5481SOL    HW117342   4.588   1.857   4.748
 5481SOL    HW217343   4.527   1.939   4.621
 5482SOL     OW17344   3.568   3.647   1.925
 5482SOL    HW117345   3.479   3.630   1.881
 5482SOL    HW217346   3.584   3.578   1.995
 5483SOL     OW17347   0.538   1.949   5.354
 5483SOL    HW117348   0.463   1.989   5.406
 5483SOL    HW217349   0.625   1.985   5.387
 5484SOL     OW17350   5.377   0.380   4.342
 5484SOL    HW117351   5.403   0.349   4.433
 5484SOL    HW217352   5.458   0.418   4.295
 5485SOL     OW17353   3.072   0.287   5.388
 5485SOL    HW117354   3.122   0.214   5.434
 5485SOL    HW217355   3.066   0.367   5.448
 5486SOL     OW17356   1.768   5.653   4.930
 5486SOL    HW117357   1.691   5.610   4.882
 5486SOL    HW217358   1.786   5.604   5.015
 5487SOL     OW17359   5.051   3.158   6.614
 5487SOL    HW117360   5.116   3.231   6.635
 5487SOL    HW217361   5.091   3.069   6.638
 5488SOL     OW17362   5.116   0.945   1.034
 5488SOL    HW117363   5.099   0.870   0.970
 5488SOL    HW217364   5.214   0.966   1.035
 5489SOL     OW17365   1.416   5.147   0.869
 5489SOL    HW117366   1.435   5.085   0.946
 5489SOL    HW217367   1.377   5.232   0.903
 5490SOL     OW17368   3.929   6.941   0.281
 5490SOL    HW117369   3.894   6.923   0.373
 5490SOL    HW217370   3.974   0.007   0.280
 5491SOL     OW17371   1.896   4.294   0.335
 5491SOL    HW117372   1.933   4.285   0.242
 5491SOL    HW217373   1.958   4.349   0.390
 5492SOL     OW17374   0.509   2.093   6.475
 5492SOL    HW117375   0.590   2.104   6.417
 5492SOL    HW217376   0.529   2.127   6.567
 5493SOL     OW17377   4.134   3.607   3.623
 5493SOL    HW117378   4.162   3.701   3.601
 5493SOL    HW217379   4.122   3.555   3.539
 5494SOL     OW17380   6.894   2.726   6.317
 5494SOL    HW117381   6.908   2.645   6.374
 5494SOL    HW217382   6.976   2.743   6.263
 5495SOL     OW17383   3.502   2.691   1.605
 5495SOL    HW117384   3.518   2.595   1.581
 5495SOL    HW217385   3.530   2.706   1.700
 5496SOL     OW17386   2.365   0.251   3.137
 5496SOL    HW117387   2.429   0.305   3.083
 5496SOL    HW217388   2.316   0.187   3.077
 5497SOL     OW17389   0.404   2.042   4.001
 5497SOL    HW117390   0.411   2.135   3.964
 5497SOL    HW217391   0.478   2.027   4.066
 5498SOL     OW17392   5.233   6.681   1.430
 5498SOL    HW117393   5.246   6.614   1.502
 5498SOL    HW217394   5.297   6.756   1.442
 5499SOL     OW17395   6.925   1.265   4.250
 5499SOL    HW117396   6.997   1.238   4.314
 5499SOL    HW217397   6.849   1.307   4.300
 5500SOL     OW17398   2.028   0.072   0.533
 5500SOL    HW117399   1.993   7.005   0.555
 5500SOL    HW217400   2.051   0.076   0.435
 5501SOL     OW17401   4.100   6.698   0.361
 5501SOL    HW117402   4.176   6.711   0.296
 5501SOL    HW217403   4.015   6.730   0.320
 5502SOL     OW17404   5.906   3.299   0.051
 5502SOL    HW117405   5.942   3.206   0.064
 5502SOL    HW217406   5.837   3.298   7.002
 5503SOL     OW17407   0.365   5.439   2.938
 5503SOL    HW117408   0.282   5.491   2.920
 5503SOL    HW217409   0.433   5.499   2.980
 5504SOL     OW17410   3.983   1.134   4.985
 5504SOL    HW117411   4.003   1.161   4.890
 5504SOL    HW217412   4.053   1.171   5.046
 5505SOL     OW17413   1.423   5.761   4.814
 5505SOL    HW117414   1.436   5.833   4.883
 5505SOL    HW217415   1.484   5.685   4.834
 5506SOL     OW17416   1.572   1.572   6.220
 5506SOL    HW117417   1.627   1.510   6.276
 5506SOL    HW217418   1.565   1.661   6.266
 5507SOL     OW17419   2.890   0.048   3.966
 5507SOL    HW117420   2.983   0.083   3.966
 5507SOL    HW217421   2.840   0.087   4.043
 5508SOL     OW17422   2.069   0.691   6.477
 5508SOL    HW117423   2.049   0.788   6.490
 5508SOL    HW217424   2.060   0.668   6.380
 5509SOL     OW17425   0.884   6.371   0.843
 5509SOL    HW117426   0.972   6.412   0.864
 5509SOL    HW217427   0.823   6.441   0.804
 5510SOL     OW17428   4.658   6.025   1.075
 5510SOL    HW117429   4.594   5.997   1.003
 5510SOL    HW217430   4.620   6.001   1.164
 5511SOL     OW17431   2.470   0.974   4.339
 5511SOL    HW117432   2.557   0.989   4.293
 5511SOL    HW217433   2.431   0.887   4.309
 5512SOL     OW17434   5.750   2.099   1.920
 5512SOL    HW117435   5.668   2.090   1.864
 5512SOL    HW217436   5.768   2.196   1.937
 5513SOL     OW17437   4.321   4.748   6.518
 5513SOL    HW117438   4.391   4.808   6.481
 5513SOL    HW217439   4.235   4.763   6.469
 5514SOL     OW17440   4.526   6.351   3.436
 5514SOL    HW117441   4.542   6.362   3.535
 5514SOL    HW217442   4.439   6.395   3.412
 5515SOL     OW17443   0.001   4.821   1.268
 5515SOL    HW117444   0.011   4.762   1.188
 5515SOL    HW217445   0.091   4.855   1.295
 5516SOL     OW17446   1.255   3.559   6.560
 5516SOL    HW117447   1.253   3.645   6.509
 5516SOL    HW217448   1.188   3.563   6.634
 5517SOL     OW17449   2.114   3.187   2.054
 5517SOL    HW117450   2.166   3.269   2.030
 5517SOL    HW217451   2.047   3.168   1.982
 5518SOL     OW17452   6.215   6.790   6.798
 5518SOL    HW117453   6.250   6.850   6.726
 5518SOL    HW217454   6.139   6.834   6.844
 5519SOL     OW17455   5.280   2.884   3.259
 5519SOL    HW117456   5.367   2.917   3.296
 5519SOL    HW217457   5.226   2.843   3.332
 5520SOL     OW17458   6.689   6.051   1.973
 5520SOL    HW117459   6.623   6.112   1.929
 5520SOL    HW217460   6.727   6.095   2.054
 5521SOL     OW17461   5.265   6.705   1.905
 5521SOL    HW117462   5.203   6.750   1.841
 5521SOL    HW217463   5.333   6.771   1.937
 5522SOL     OW17464   6.517   5.325   0.808
 5522SOL    HW117465   6.562   5.236   0.805
 5522SOL    HW217466   6.583   5.394   0.837
 5523SOL     OW17467   3.887   0.145   2.238
 5523SOL    HW117468   3.862   0.145   2.335
 5523SOL    HW217469   3.876   0.236   2.200
 5524SOL     OW17470   5.239   5.203   5.005
 5524SOL    HW117471   5.167   5.272   5.001
 5524SOL    HW217472   5.221   5.130   4.939
 5525SOL     OW17473   0.350   2.651   0.189
 5525SOL    HW117474   0.276   2.613   0.133
 5525SOL    HW217475   0.416   2.579   0.210
 5526SOL     OW17476   4.793   4.871   4.646
 5526SOL    HW117477   4.730   4.796   4.625
 5526SOL    HW217478   4.775   4.906   4.738
 5527SOL     OW17479   6.047   3.936   4.398
 5527SOL    HW117480   5.998   3.875   4.336
 5527SOL    HW217481   6.144   3.913   4.398
 5528SOL     OW17482   1.268   1.724   6.977
 5528SOL    HW117483   1.284   1.727   6.878
 5528SOL    HW217484   1.178   1.685   6.995
 5529SOL     OW17485   2.441   0.172   3.383
 5529SOL    HW117486   2.415   0.215   3.296
 5529SOL    HW217487   2.515   0.225   3.424
 5530SOL     OW17488   6.321   2.176   2.366
 5530SOL    HW117489   6.310   2.256   2.307
 5530SOL    HW217490   6.256   2.105   2.339
 5531SOL     OW17491   3.843   2.962   2.309
 5531SOL    HW117492   3.760   2.910   2.328
 5531SOL    HW217493   3.902   2.960   2.390
 5532SOL     OW17494   1.265   2.573   0.774
 5532SOL    HW117495   1.308   2.505   0.714
 5532SOL    HW217496   1.301   2.664   0.752
 5533SOL     OW17497   3.544   1.199   3.156
 5533SOL    HW117498   3.459   1.211   3.106
 5533SOL    HW217499   3.549   1.106   3.192
 5534SOL     OW17500   0.973   1.943   5.919
 5534SOL    HW117501   0.900   2.001   5.882
 5534SOL    HW217502   0.933   1.865   5.967
 5535SOL     OW17503   0.094   3.295   3.606
 5535SOL    HW117504   0.153   3.349   3.546
 5535SOL    HW217505   0.145   3.266   3.687
 5536SOL     OW17506   3.016   1.213   4.056
 5536SOL    HW117507   2.954   1.159   3.999
 5536SOL    HW217508   3.105   1.220   4.011
 5537SOL     OW17509   2.653   0.789   2.872
 5537SOL    HW117510   2.560   0.753   2.873
 5537SOL    HW217511   2.677   0.818   2.780
 5538SOL     OW17512   2.820   6.777   5.499
 5538SOL    HW117513   2.788   6.793   5.406
 5538SOL    HW217514   2.760   6.824   5.564
 5539SOL     OW17515   1.155   3.563   0.790
 5539SOL    HW117516   1.142   3.509   0.873
 5539SOL    HW217517   1.082   3.631   0.783
 5540SOL     OW17518   5.792   3.580   3.764
 5540SOL    HW117519   5.824   3.654   3.823
 5540SOL    HW217520   5.867   3.516   3.747
 5541SOL     OW17521   6.173   0.357   6.155
 5541SOL    HW117522   6.157   0.445   6.110
 5541SOL    HW217523   6.092   0.300   6.146
 5542SOL     OW17524   6.332   5.131   6.136
 5542SOL    HW117525   6.303   5.200   6.070
 5542SOL    HW217526   6.263   5.121   6.207
 5543SOL     OW17527   3.285   5.565   5.864
 5543SOL    HW117528   3.203   5.607   5.825
 5543SOL    HW217529   3.264   5.472   5.895
 5544SOL     OW17530   5.661   6.563   6.305
 5544SOL    HW117531   5.760   6.575   6.302
 5544SOL    HW217532   5.626   6.547   6.213
 5545SOL     OW17533   4.193   1.689   2.334
 5545SOL    HW117534   4.234   1.640   2.258
 5545SOL    HW217535   4.234   1.779   2.343
 5546SOL     OW17536   0.691   6.381   4.793
 5546SOL    HW117537   0.606   6.397   4.844
 5546SOL    HW217538   0.701   6.451   4.723
 5547SOL     OW17539   3.573   0.249   4.835
 5547SOL    HW117540   3.657   0.196   4.844
 5547SOL    HW217541   3.595   0.339   4.797
 5548SOL     OW17542   5.477   3.291   5.788
 5548SOL    HW117543   5.488   3.390   5.786
 5548SOL    HW217544   5.467   3.260   5.883
 5549SOL     OW17545   4.780   3.914   0.666
 5549SOL    HW117546   4.747   3.842   0.727
 5549SOL    HW217547   4.767   3.886   0.571
 5550SOL     OW17548   2.095   4.150   1.920
 5550SOL    HW117549   2.029   4.162   1.846
 5550SOL    HW217550   2.188   4.163   1.886
 5551SOL     OW17551   1.821   6.768   3.235
 5551SOL    HW117552   1.829   6.835   3.309
 5551SOL    HW217553   1.795   6.813   3.150
 5552SOL     OW17554   6.679   0.223   0.266
 5552SOL    HW117555   6.763   0.277   0.263
 5552SOL    HW217556   6.702   0.127   0.283
 5553SOL     OW17557   5.261   6.105   6.710
 5553SOL    HW117558   5.330   6.035   6.692
 5553SOL    HW217559   5.259   6.125   6.808
 5554SOL     OW17560   4.846   1.730   5.459
 5554SOL    HW117561   4.909   1.668   5.505
 5554SOL    HW217562   4.752   1.708   5.486
 5555SOL     OW17563   2.269   4.635   4.085
 5555SOL    HW117564   2.304   4.544   4.106
 5555SOL    HW217565   2.171   4.639   4.106
 5556SOL     OW17566   6.940   1.192   3.572
 5556SOL    HW117567   7.015   1.159   3.629
 5556SOL    HW217568   6.968   1.188   3.476
 5557SOL     OW17569   3.721   6.932   2.683
 5557SOL    HW117570   3.664   7.008   2.651
 5557SOL    HW217571   3.734   6.867   2.608
 5558SOL     OW17572   4.820   3.655   5.935
 5558SOL    HW117573   4.798   3.586   6.004
 5558SOL    HW217574   4.800   3.620   5.844
 5559SOL     OW17575   2.214   0.365   2.056
 5559SOL    HW117576   2.214   0.328   2.149
 5559SOL    HW217577   2.219   0.465   2.060
 5560SOL     OW17578   1.580   6.600   2.833
 5560SOL    HW117579   1.538   6.608   2.742
 5560SOL    HW217580   1.607   6.690   2.865
 5561SOL     OW17581   1.504   1.886   4.153
 5561SOL    HW117582   1.602   1.902   4.139
 5561SOL    HW217583   1.483   1.892   4.250
 5562SOL     OW17584   3.326   2.191   6.603
 5562SOL    HW117585   3.269   2.117   6.568
 5562SOL    HW217586   3.349   2.172   6.699
 5563SOL     OW17587   4.259   5.559   2.642
 5563SOL    HW117588   4.302   5.470   2.658
 5563SOL    HW217589   4.161   5.552   2.658
 5564SOL     OW17590   4.269   0.890   1.761
 5564SOL    HW117591   4.339   0.821   1.780
 5564SOL    HW217592   4.199   0.886   1.833
 5565SOL     OW17593   4.564   1.720   5.901
 5565SOL    HW117594   4.658   1.751   5.915
 5565SOL    HW217595   4.524   1.767   5.823
 5566SOL     OW17596   1.609   5.088   6.834
 5566SOL    HW117597   1.569   5.171   6.797
 5566SOL    HW217598   1.707   5.102   6.850
 5567SOL     OW17599   6.835   3.253   1.778
 5567SOL    HW117600   6.859   3.231   1.684
 5567SOL    HW217601   6.843   3.351   1.793
 5568SOL     OW17602   4.264   1.818   3.846
 5568SOL    HW117603   4.289   1.915   3.841
 5568SOL    HW217604   4.337   1.767   3.892
 5569SOL     OW17605   1.568   1.633   2.181
 5569SOL    HW117606   1.595   1.537   2.188
 5569SOL    HW217607   1.549   1.670   2.272
 5570SOL     OW17608   6.252   4.402   4.573
 5570SOL    HW117609   6.220   4.490   4.538
 5570SOL    HW217610   6.179   4.335   4.566
 5571SOL     OW17611   6.950   5.563   0.879
 5571SOL    HW117612   0.012   5.516   0.899
 5571SOL    HW217613   6.965   5.629   0.805
 5572SOL     OW17614   1.095   2.251   5.090
 5572SOL    HW117615   1.000   2.237   5.119
 5572SOL    HW217616   1.114   2.195   5.010
 5573SOL     OW17617   2.059   3.869   6.505
 5573SOL    HW117618   2.154   3.837   6.496
 5573SOL    HW217619   2.043   3.942   6.438
 5574SOL     OW17620   6.301   1.366   2.928
 5574SOL    HW117621   6.373   1.371   2.998
 5574SOL    HW217622   6.304   1.277   2.883
 5575SOL     OW17623   6.681   1.428   1.345
 5575SOL    HW117624   6.748   1.353   1.347
 5575SOL    HW217625   6.589   1.390   1.350
 5576SOL     OW17626   1.312   5.572   2.411
 5576SOL    HW117627   1.300   5.668   2.434
 5576SOL    HW217628   1.370   5.564   2.329
 5577SOL     OW17629   2.791   2.634   5.282
 5577SOL    HW117630   2.843   2.698   5.339
 5577SOL    HW217631   2.827   2.541   5.294
 5578SOL     OW17632   4.018   4.174   0.165
 5578SOL    HW117633   4.008   4.251   0.101
 5578SOL    HW217634   3.941   4.111   0.153
 5579SOL     OW17635   0.518   3.606   6.007
 5579SOL    HW117636   0.496   3.555   6.090
 5579SOL    HW217637   0.610   3.644   6.015
 5580SOL     OW17638   5.372   2.786   5.914
 5580SOL    HW117639   5.344   2.856   5.979
 5580SOL    HW217640   5.294   2.726   5.893
 5581SOL     OW17641   2.849   0.711   1.728
 5581SOL    HW117642   2.935   0.755   1.754
 5581SOL    HW217643   2.852   0.614   1.756
 5582SOL     OW17644   3.623   3.468   4.418
 5582SOL    HW117645   3.670   3.454   4.331
 5582SOL    HW217646   3.540   3.521   4.403
 5583SOL     OW17647   4.004   0.680   2.943
 5583SOL    HW117648   3.996   0.780   2.940
 5583SOL    HW217649   4.046   0.647   2.858
 5584SOL     OW17650   5.567   4.048   3.896
 5584SOL    HW117651   5.548   4.140   3.930
 5584SOL    HW217652   5.484   3.993   3.902
 5585SOL     OW17653   4.878   6.299   4.275
 5585SOL    HW117654   4.872   6.232   4.348
 5585SOL    HW217655   4.955   6.360   4.291
 5586SOL     OW17656   0.066   2.246   0.191
 5586SOL    HW117657   0.055   2.268   0.094
 5586SOL    HW217658   0.122   2.164   0.200
 5587SOL     OW17659   3.823   5.929   2.594
 5587SOL    HW117660   3.798   5.864   2.523
 5587SOL    HW217661   3.909   5.900   2.637
 5588SOL     OW17662   1.845   6.820   2.757
 5588SOL    HW117663   1.817   6.902   2.707
 5588SOL    HW217664   1.806   6.822   2.849
 5589SOL     OW17665   6.030   3.614   5.658
 5589SOL    HW117666   5.953   3.559   5.690
 5589SOL    HW217667   6.085   3.644   5.736
 5590SOL     OW17668   6.590   5.170   3.623
 5590SOL    HW117669   6.531   5.155   3.544
 5590SOL    HW217670   6.676   5.121   3.610
 5591SOL     OW17671   6.044   1.313   6.716
 5591SOL    HW117672   6.096   1.247   6.770
 5591SOL    HW217673   5.949   1.313   6.748
 5592SOL     OW17674   0.231   4.372   2.903
 5592SOL    HW117675   0.177   4.330   2.976
 5592SOL    HW217676   0.193   4.346   2.814
 5593SOL     OW17677   0.219   2.429   5.846
 5593SOL    HW117678   0.291   2.360   5.853
 5593SOL    HW217679   0.172   2.419   5.758
 5594SOL     OW17680   3.315   1.257   6.629
 5594SOL    HW117681   3.363   1.344   6.621
 5594SOL    HW217682   3.271   1.252   6.719
 5595SOL     OW17683   6.409   0.553   5.211
 5595SOL    HW117684   6.440   0.461   5.188
 5595SOL    HW217685   6.485   0.618   5.199
 5596SOL     OW17686   4.814   0.120   2.905
 5596SOL    HW117687   4.813   0.189   2.833
 5596SOL    HW217688   4.906   0.110   2.940
 5597SOL     OW17689   6.573   1.756   5.540
 5597SOL    HW117690   6.515   1.803   5.472
 5597SOL    HW217691   6.572   1.658   5.521
 5598SOL     OW17692   6.354   2.904   3.975
 5598SOL    HW117693   6.267   2.940   4.008
 5598SOL    HW217694   6.389   2.836   4.039
 5599SOL     OW17695   0.492   2.389   1.976
 5599SOL    HW117696   0.494   2.295   1.942
 5599SOL    HW217697   0.413   2.436   1.937
 5600SOL     OW17698   2.525   0.121   2.587
 5600SOL    HW117699   2.589   0.198   2.586
 5600SOL    HW217700   2.553   0.053   2.519
 5601SOL     OW17701   2.900   1.199   6.548
 5601SOL    HW117702   2.920   1.102   6.536
 5601SOL    HW217703   2.917   1.248   6.463
 5602SOL     OW17704   0.550   0.056   2.016
 5602SOL    HW117705   0.626   0.119   2.000
 5602SOL    HW217706   0.480   0.102   2.069
 5603SOL     OW17707   5.474   1.927   0.092
 5603SOL    HW117708   5.492   1.959   0.185
 5603SOL    HW217709   5.375   1.925   0.076
 5604SOL     OW17710   0.190   2.152   5.318
 5604SOL    HW117711   0.241   2.182   5.399
 5604SOL    HW217712   0.215   2.208   5.240
 5605SOL     OW17713   1.530   0.451   4.839
 5605SOL    HW117714   1.611   0.488   4.886
 5605SOL    HW217715   1.546   0.354   4.818
 5606SOL     OW17716   5.906   0.988   0.739
 5606SOL    HW117717   5.986   1.032   0.699
 5606SOL    HW217718   5.828   1.051   0.735
 5607SOL     OW17719   5.711   1.307   4.014
 5607SOL    HW117720   5.722   1.349   4.104
 5607SOL    HW217721   5.661   1.220   4.024
 5608SOL     OW17722   6.000   1.095   3.196
 5608SOL    HW117723   6.004   1.194   3.208
 5608SOL    HW217724   5.906   1.064   3.209
 5609SOL     OW17725   4.366   6.013   1.628
 5609SOL    HW117726   4.295   5.980   1.566
 5609SOL    HW217727   4.328   6.025   1.719
 5610SOL     OW17728   4.933   4.218   1.326
 5610SOL    HW117729   4.889   4.263   1.403
 5610SOL    HW217730   5.000   4.152   1.360
 5611SOL     OW17731   0.838   5.134   2.997
 5611SOL    HW117732   0.760   5.192   2.975
 5611SOL    HW217733   0.810   5.063   3.060
 5612SOL     OW17734   4.472   3.337   0.196
 5612SOL    HW117735   4.497   3.245   0.226
 5612SOL    HW217736   4.457   3.395   0.276
 5613SOL     OW17737   5.535   5.488   5.296
 5613SOL    HW117738   5.618   5.499   5.350
 5613SOL    HW217739   5.466   5.440   5.351
 5614SOL     OW17740   5.254   3.548   5.156
 5614SOL    HW117741   5.155   3.545   5.171
 5614SOL    HW217742   5.283   3.465   5.109
 5615SOL     OW17743   6.753   1.709   4.101
 5615SOL    HW117744   6.833   1.752   4.059
 5615SOL    HW217745   6.722   1.632   4.045
 5616SOL     OW17746   2.129   2.762   4.954
 5616SOL    HW117747   2.149   2.828   4.882
 5616SOL    HW217748   2.204   2.696   4.960
 5617SOL     OW17749   1.671   4.589   4.941
 5617SOL    HW117750   1.594   4.640   4.979
 5617SOL    HW217751   1.688   4.619   4.847
 5618SOL     OW17752   6.820   4.994   3.714
 5618SOL    HW117753   6.896   5.003   3.778
 5618SOL    HW217754   6.854   4.960   3.627
 5619SOL     OW17755   3.339   3.706   3.959
 5619SOL    HW117756   3.375   3.799   3.972
 5619SOL    HW217757   3.414   3.645   3.931
 5620SOL     OW17758   4.383   3.950   0.089
 5620SOL    HW117759   4.442   4.030   0.077
 5620SOL    HW217760   4.436   3.867   0.073
 5621SOL     OW17761   1.413   3.137   7.019
 5621SOL    HW117762   1.415   3.222   0.049
 5621SOL    HW217763   1.352   3.149   6.940
 5622SOL     OW17764   5.216   0.655   5.794
 5622SOL    HW117765   5.298   0.618   5.838
 5622SOL    HW217766   5.237   0.681   5.700
 5623SOL     OW17767   4.590   6.499   5.019
 5623SOL    HW117768   4.586   6.405   5.053
 5623SOL    HW217769   4.631   6.499   4.927
 5624SOL     OW17770   0.469   4.619   4.111
 5624SOL    HW117771   0.411   4.582   4.038
 5624SOL    HW217772   0.432   4.594   4.200
 5625SOL     OW17773   0.293   6.743   5.795
 5625SOL    HW117774   0.291   6.661   5.737
 5625SOL    HW217775   0.212   6.799   5.775
 5626SOL     OW17776   2.538   5.261   3.729
 5626SOL    HW117777   2.581   5.352   3.735
 5626SOL    HW217778   2.577   5.202   3.800
 5627SOL     OW17779   0.264   5.031   6.540
 5627SOL    HW117780   0.349   4.979   6.536
 5627SOL    HW217781   0.281   5.118   6.588
 5628SOL     OW17782   1.956   2.769   1.593
 5628SOL    HW117783   1.876   2.820   1.624
 5628SOL    HW217784   1.930   2.702   1.524
 5629SOL     OW17785   4.855   3.199   1.817
 5629SOL    HW117786   4.890   3.215   1.725
 5629SOL    HW217787   4.776   3.138   1.813
 5630SOL     OW17788   1.486   4.523   0.093
 5630SOL    HW117789   1.387   4.505   0.085
 5630SOL    HW217790   1.528   4.449   0.146
 5631SOL     OW17791   4.562   1.941   1.665
 5631SOL    HW117792   4.584   1.878   1.739
 5631SOL    HW217793   4.485   1.904   1.612
 5632SOL     OW17794   3.206   2.160   5.378
 5632SOL    HW117795   3.118   2.112   5.367
 5632SOL    HW217796   3.217   2.226   5.304
 5633SOL     OW17797   6.218   4.879   4.295
 5633SOL    HW117798   6.164   4.869   4.211
 5633SOL    HW217799   6.166   4.931   4.362
 5634SOL     OW17800   2.291   5.101   4.586
 5634SOL    HW117801   2.250   5.057   4.666
 5634SOL    HW217802   2.227   5.096   4.509
 5635SOL     OW17803   1.419   6.225   6.634
 5635SOL    HW117804   1.418   6.323   6.614
 5635SOL    HW217805   1.325   6.191   6.638
 5636SOL     OW17806   6.387   6.834   5.082
 5636SOL    HW117807   6.296   6.849   5.120
 5636SOL    HW217808   6.402   6.897   5.006
 5637SOL     OW17809   3.910   6.391   3.660
 5637SOL    HW117810   3.952   6.375   3.749
 5637SOL    HW217811   3.820   6.434   3.673
 5638SOL     OW17812   6.506   3.971   1.235
 5638SOL    HW117813   6.458   3.910   1.172
 5638SOL    HW217814   6.496   3.937   1.328
 5639SOL     OW17815   2.696   0.344   2.536
 5639SOL    HW117816   2.772   0.294   2.495
 5639SOL    HW217817   2.726   0.436   2.563
 5640SOL     OW17818   3.450   0.943   2.433
 5640SOL    HW117819   3.520   1.004   2.393
 5640SOL    HW217820   3.373   0.936   2.370
 5641SOL     OW17821   1.053   4.561   5.676
 5641SOL    HW117822   1.049   4.660   5.688
 5641SOL    HW217823   1.006   4.516   5.752
 5642SOL     OW17824   0.389   5.961   5.119
 5642SOL    HW117825   0.319   6.020   5.079
 5642SOL    HW217826   0.480   5.997   5.097
 5643SOL     OW17827   3.528   1.062   4.117
 5643SOL    HW117828   3.617   1.088   4.156
 5643SOL    HW217829   3.458   1.126   4.149
 5644SOL     OW17830   3.738   6.972   4.553
 5644SOL    HW117831   3.816   6.912   4.533
 5644SOL    HW217832   3.736   0.024   4.488
 5645SOL     OW17833   5.653   4.565   2.846
 5645SOL    HW117834   5.678   4.486   2.902
 5645SOL    HW217835   5.694   4.555   2.755
 5646SOL     OW17836   1.092   5.561   3.007
 5646SOL    HW117837   1.083   5.490   2.937
 5646SOL    HW217838   1.042   5.643   2.977
 5647SOL     OW17839   5.355   0.494   0.753
 5647SOL    HW117840   5.413   0.555   0.699
 5647SOL    HW217841   5.366   0.400   0.719
 5648SOL     OW17842   1.818   0.089   3.827
 5648SOL    HW117843   1.767   0.093   3.741
 5648SOL    HW217844   1.771   0.142   3.897
 5649SOL     OW17845   0.098   0.196   5.123
 5649SOL    HW117846   0.146   0.172   5.039
 5649SOL    HW217847   0.017   0.250   5.100
 5650SOL     OW17848   1.502   5.173   0.541
 5650SOL    HW117849   1.546   5.085   0.525
 5650SOL    HW217850   1.472   5.180   0.636
 5651SOL     OW17851   0.635   1.068   1.575
 5651SOL    HW117852   0.580   0.989   1.603
 5651SOL    HW217853   0.581   1.152   1.586
 5652SOL     OW17854   6.702   0.019   1.974
 5652SOL    HW117855   6.617   0.011   1.923
 5652SOL    HW217856   6.721   0.116   1.991
 5653SOL     OW17857   0.556   6.246   6.984
 5653SOL    HW117858   0.565   6.270   6.887
 5653SOL    HW217859   0.604   6.314   0.016
 5654SOL     OW17860   6.810   0.400   5.618
 5654SOL    HW117861   6.831   0.304   5.597
 5654SOL    HW217862   6.739   0.433   5.555
 5655SOL     OW17863   1.566   3.732   4.761
 5655SOL    HW117864   1.582   3.677   4.843
 5655SOL    HW217865   1.646   3.789   4.743
 5656SOL     OW17866   0.129   3.719   0.016
 5656SOL    HW117867   0.223   3.724   7.006
 5656SOL    HW217868   0.076   3.796   7.003
 5657SOL     OW17869   5.587   1.686   0.121
 5657SOL    HW117870   5.548   1.776   0.105
 5657SOL    HW217871   5.660   1.669   0.055
 5658SOL     OW17872   3.614   4.533   5.743
 5658SOL    HW117873   3.636   4.446   5.787
 5658SOL    HW217874   3.659   4.608   5.792
 5659SOL     OW17875   3.716   3.376   4.167
 5659SOL    HW117876   3.623   3.358   4.138
 5659SOL    HW217877   3.778   3.308   4.128
 5660SOL     OW17878   5.599   1.060   0.393
 5660SOL    HW117879   5.619   0.962   0.403
 5660SOL    HW217880   5.500   1.074   0.387
 5661SOL     OW17881   1.450   5.112   5.233
 5661SOL    HW117882   1.376   5.155   5.181
 5661SOL    HW217883   1.442   5.137   5.329
 5662SOL     OW17884   2.635   5.551   3.244
 5662SOL    HW117885   2.720   5.587   3.205
 5662SOL    HW217886   2.565   5.546   3.174
 5663SOL     OW17887   2.143   3.250   0.644
 5663SOL    HW117888   2.222   3.200   0.680
 5663SOL    HW217889   2.070   3.251   0.712
 5664SOL     OW17890   6.422   4.266   4.754
 5664SOL    HW117891   6.374   4.322   4.686
 5664SOL    HW217892   6.368   4.185   4.774
 5665SOL     OW17893   1.463   1.245   0.456
 5665SOL    HW117894   1.477   1.266   0.552
 5665SOL    HW217895   1.549   1.256   0.406
 5666SOL     OW17896   5.818   5.950   1.954
 5666SOL    HW117897   5.842   5.886   1.881
 5666SOL    HW217898   5.833   5.907   2.043
 5667SOL     OW17899   1.239   4.920   4.734
 5667SOL    HW117900   1.204   5.012   4.751
 5667SOL    HW217901   1.170   4.866   4.687
 5668SOL     OW17902   5.569   2.180   4.777
 5668SOL    HW117903   5.568   2.083   4.799
 5668SOL    HW217904   5.533   2.232   4.854
 5669SOL     OW17905   0.214   3.252   6.644
 5669SOL    HW117906   0.260   3.248   6.556
 5669SOL    HW217907   0.273   3.298   6.711
 5670SOL     OW17908   6.589   2.715   3.326
 5670SOL    HW117909   6.495   2.744   3.348
 5670SOL    HW217910   6.586   2.637   3.263
 5671SOL     OW17911   0.094   6.306   0.294
 5671SOL    HW117912   0.184   6.290   0.254
 5671SOL    HW217913   0.105   6.351   0.383
 5672SOL     OW17914   3.648   4.602   6.115
 5672SOL    HW117915   3.678   4.507   6.115
 5672SOL    HW217916   3.695   4.653   6.187
 5673SOL     OW17917   0.993   7.010   2.328
 5673SOL    HW117918   0.900   7.015   2.293
 5673SOL    HW217919   1.005   0.051   2.404
 5674SOL     OW17920   0.388   5.074   4.875
 5674SOL    HW117921   0.403   5.053   4.972
 5674SOL    HW217922   0.305   5.028   4.843
 5675SOL     OW17923   3.619   2.099   5.923
 5675SOL    HW117924   3.688   2.088   5.851
 5675SOL    HW217925   3.630   2.025   5.990
 5676SOL     OW17926   1.564   2.902   1.890
 5676SOL    HW117927   1.610   2.866   1.972
 5676SOL    HW217928   1.466   2.883   1.897
 5677SOL     OW17929   0.277   1.063   1.393
 5677SOL    HW117930   0.253   0.989   1.456
 5677SOL    HW217931   0.308   1.023   1.306
 5678SOL     OW17932   4.115   6.114   2.844
 5678SOL    HW117933   4.211   6.097   2.820
 5678SOL    HW217934   4.100   6.213   2.853
 5679SOL     OW17935   0.906   1.209   3.792
 5679SOL    HW117936   0.894   1.306   3.772
 5679SOL    HW217937   0.868   1.189   3.882
 5680SOL     OW17938   1.164   4.815   6.348
 5680SOL    HW117939   1.175   4.729   6.398
 5680SOL    HW217940   1.141   4.888   6.411
 5681SOL     OW17941   0.257   4.723   0.488
 5681SOL    HW117942   0.305   4.805   0.518
 5681SOL    HW217943   0.171   4.749   0.444
 5682SOL     OW17944   2.522   4.419   5.592
 5682SOL    HW117945   2.459   4.343   5.610
 5682SOL    HW217946   2.469   4.503   5.579
 5683SOL     OW17947   3.913   0.706   6.147
 5683SOL    HW117948   3.947   0.719   6.240
 5683SOL    HW217949   3.981   0.657   6.093
 5684SOL     OW17950   2.644   3.406   5.894
 5684SOL    HW117951   2.710   3.428   5.966
 5684SOL    HW217952   2.552   3.408   5.932
 5685SOL     OW17953   1.558   3.065   2.411
 5685SOL    HW117954   1.569   3.076   2.312
 5685SOL    HW217955   1.476   3.012   2.430
 5686SOL     OW17956   3.331   1.409   5.815
 5686SOL    HW117957   3.401   1.411   5.886
 5686SOL    HW217958   3.250   1.362   5.850
 5687SOL     OW17959   0.663   4.977   6.395
 5687SOL    HW117960   0.600   4.912   6.439
 5687SOL    HW217961   0.702   4.935   6.313
 5688SOL     OW17962   0.507   2.288   1.201
 5688SOL    HW117963   0.445   2.352   1.246
 5688SOL    HW217964   0.591   2.335   1.174
 5689SOL     OW17965   3.927   1.492   0.822
 5689SOL    HW117966   3.853   1.521   0.883
 5689SOL    HW217967   4.005   1.462   0.877
 5690SOL     OW17968   2.609   6.203   0.455
 5690SOL    HW117969   2.613   6.186   0.553
 5690SOL    HW217970   2.577   6.296   0.439
 5691SOL     OW17971   2.908   0.400   2.079
 5691SOL    HW117972   2.989   0.422   2.025
 5691SOL    HW217973   2.850   0.481   2.088
 5692SOL     OW17974   5.862   3.215   0.697
 5692SOL    HW117975   5.905   3.306   0.692
 5692SOL    HW217976   5.835   3.186   0.605
 5693SOL     OW17977   5.725   2.250   2.448
 5693SOL    HW117978   5.666   2.279   2.373
 5693SOL    HW217979   5.748   2.153   2.438
 5694SOL     OW17980   0.619   1.893   3.335
 5694SOL    HW117981   0.702   1.925   3.289
 5694SOL    HW217982   0.629   1.796   3.357
 5695SOL     OW17983   1.048   2.583   2.914
 5695SOL    HW117984   0.963   2.615   2.955
 5695SOL    HW217985   1.123   2.595   2.980
 5696SOL     OW17986   1.412   1.379   2.894
 5696SOL    HW117987   1.400   1.392   2.992
 5696SOL    HW217988   1.476   1.448   2.859
 5697SOL     OW17989   5.903   2.353   1.791
 5697SOL    HW117990   5.836   2.410   1.839
 5697SOL    HW217991   5.954   2.298   1.857
 5698SOL     OW17992   0.676   3.423   3.650
 5698SOL    HW117993   0.752   3.449   3.591
 5698SOL    HW217994   0.712   3.379   3.732
 5699SOL     OW17995   0.354   1.940   3.288
 5699SOL    HW117996   0.323   1.988   3.369
 5699SOL    HW217997   0.454   1.945   3.283
 5700SOL     OW17998   6.883   6.985   3.892
 5700SOL    HW117999   6.809   6.928   3.927
 5700SOL    HW218000   6.948   6.929   3.841
 5701SOL     OW18001   1.602   0.692   2.304
 5701SOL    HW118002   1.533   0.673   2.374
 5701SOL    HW218003   1.622   0.607   2.255
 5702SOL     OW18004   2.878   6.226   5.015
 5702SOL    HW118005   2.841   6.273   5.095
 5702SOL    HW218006   2.851   6.130   5.017
 5703SOL     OW18007   6.696   4.565   1.275
 5703SOL    HW118008   6.760   4.568   1.352
 5703SOL    HW218009   6.714   4.483   1.220
 5704SOL     OW18010   4.645   4.377   2.392
 5704SOL    HW118011   4.696   4.459   2.417
 5704SOL    HW218012   4.581   4.399   2.318
 5705SOL     OW18013   5.014   1.021   0.733
 5705SOL    HW118014   4.992   1.045   0.639
 5705SOL    HW218015   5.066   1.096   0.775
 5706SOL     OW18016   6.638   3.785   0.655
 5706SOL    HW118017   6.717   3.830   0.613
 5706SOL    HW218018   6.606   3.839   0.733
 5707SOL     OW18019   0.096   6.625   0.721
 5707SOL    HW118020   0.129   6.559   0.789
 5707SOL    HW218021   0.167   6.693   0.703
 5708SOL     OW18022   5.055   6.049   1.538
 5708SOL    HW118023   5.150   6.040   1.508
 5708SOL    HW218024   5.029   6.146   1.538
 5709SOL     OW18025   1.164   0.085   2.544
 5709SOL    HW118026   1.106   0.117   2.618
 5709SOL    HW218027   1.255   0.127   2.552
 5710SOL     OW18028   2.650   3.072   0.614
 5710SOL    HW118029   2.692   3.034   0.697
 5710SOL    HW218030   2.628   2.997   0.551
 5711SOL     OW18031   4.997   1.239   2.375
 5711SOL    HW118032   5.080   1.282   2.340
 5711SOL    HW218033   4.929   1.309   2.394
 5712SOL     OW18034   0.196   6.435   6.630
 5712SOL    HW118035   0.157   6.349   6.598
 5712SOL    HW218036   0.127   6.485   6.683
 5713SOL     OW18037   3.053   2.891   1.840
 5713SOL    HW118038   3.023   2.811   1.891
 5713SOL    HW218039   3.132   2.866   1.784
 5714SOL     OW18040   7.015   5.649   0.171
 5714SOL    HW118041   0.003   5.739   0.130
 5714SOL    HW218042   0.031   5.580   0.110
 5715SOL     OW18043   0.736   6.978   3.451
 5715SOL    HW118044   0.644   6.992   3.417
 5715SOL    HW218045   0.802   7.011   3.383
 5716SOL     OW18046   1.246   3.864   0.215
 5716SOL    HW118047   1.158   3.909   0.226
 5716SOL    HW218048   1.305   3.919   0.157
 5717SOL     OW18049   2.202   5.378   0.453
 5717SOL    HW118050   2.155   5.356   0.539
 5717SOL    HW218051   2.169   5.465   0.417
 5718SOL     OW18052   0.407   2.784   5.481
 5718SOL    HW118053   0.487   2.823   5.525
 5718SOL    HW218054   0.410   2.684   5.488
 5719SOL     OW18055   2.549   1.946   6.536
 5719SOL    HW118056   2.581   1.854   6.558
 5719SOL    HW218057   2.624   2.011   6.551
 5720SOL     OW18058   1.820   5.311   4.946
 5720SOL    HW118059   1.913   5.281   4.965
 5720SOL    HW218060   1.784   5.360   5.025
 5721SOL     OW18061   0.123   3.873   1.373
 5721SOL    HW118062   0.067   3.804   1.418
 5721SOL    HW218063   0.188   3.912   1.439
 5722SOL     OW18064   6.387   1.438   5.279
 5722SOL    HW118065   6.345   1.429   5.369
 5722SOL    HW218066   6.414   1.349   5.245
 5723SOL     OW18067   4.472   3.771   0.564
 5723SOL    HW118068   4.528   3.738   0.641
 5723SOL    HW218069   4.491   3.868   0.549
 5724SOL     OW18070   5.487   3.187   5.069
 5724SOL    HW118071   5.541   3.128   5.009
 5724SOL    HW218072   5.453   3.265   5.016
 5725SOL     OW18073   5.015   5.056   3.819
 5725SOL    HW118074   4.923   5.016   3.818
 5725SOL    HW218075   5.023   5.119   3.897
 5726SOL     OW18076   0.444   4.873   5.073
 5726SOL    HW118077   0.538   4.906   5.065
 5726SOL    HW218078   0.434   4.823   5.159
 5727SOL     OW18079   6.616   1.487   4.053
 5727SOL    HW118080   6.538   1.453   4.106
 5727SOL    HW218081   6.634   1.425   3.977
 5728SOL     OW18082   4.006   0.763   6.392
 5728SOL    HW118083   3.963   0.853   6.399
 5728SOL    HW218084   4.022   0.726   6.484
 5729SOL     OW18085   1.136   1.097   0.794
 5729SOL    HW118086   1.109   1.155   0.870
 5729SOL    HW218087   1.141   1.152   0.710
 5730SOL     OW18088   4.946   5.260   6.272
 5730SOL    HW118089   4.851   5.262   6.242
 5730SOL    HW218090   5.005   5.237   6.195
 5731SOL     OW18091   0.603   7.012   3.918
 5731SOL    HW118092   0.620   0.087   3.914
 5731SOL    HW218093   0.505   6.994   3.913
 5732SOL     OW18094   6.593   5.379   4.615
 5732SOL    HW118095   6.604   5.374   4.516
 5732SOL    HW218096   6.501   5.350   4.640
 5733SOL     OW18097   3.936   6.763   5.119
 5733SOL    HW118098   3.966   6.788   5.211
 5733SOL    HW218099   3.972   6.829   5.053
 5734SOL     OW18100   1.104   6.669   5.600
 5734SOL    HW118101   1.174   6.621   5.547
 5734SOL    HW218102   1.148   6.738   5.659
 5735SOL     OW18103   4.008   2.239   1.867
 5735SOL    HW118104   3.974   2.207   1.955
 5735SOL    HW218105   3.931   2.245   1.802
 5736SOL     OW18106   6.039   4.290   0.384
 5736SOL    HW118107   6.083   4.361   0.439
 5736SOL    HW218108   5.941   4.310   0.375
 5737SOL     OW18109   5.098   6.110   0.609
 5737SOL    HW118110   5.198   6.105   0.619
 5737SOL    HW218111   5.054   6.069   0.688
 5738SOL     OW18112   2.858   3.315   6.199
 5738SOL    HW118113   2.859   3.377   6.121
 5738SOL    HW218114   2.925   3.344   6.266
 5739SOL     OW18115   1.455   0.566   5.471
 5739SOL    HW118116   1.498   0.480   5.499
 5739SOL    HW218117   1.408   0.553   5.384
 5740SOL     OW18118   4.118   3.737   1.583
 5740SOL    HW118119   4.138   3.641   1.564
 5740SOL    HW218120   4.203   3.789   1.587
 5741SOL     OW18121   0.144   3.802   4.241
 5741SOL    HW118122   0.066   3.832   4.295
 5741SOL    HW218123   0.214   3.873   4.240
 5742SOL     OW18124   4.782   6.558   2.875
 5742SOL    HW118125   4.706   6.612   2.911
 5742SOL    HW218126   4.760   6.529   2.781
 5743SOL     OW18127   2.665   5.188   5.621
 5743SOL    HW118128   2.567   5.193   5.643
 5743SOL    HW218129   2.682   5.105   5.567
 5744SOL     OW18130   5.280   1.219   1.748
 5744SOL    HW118131   5.276   1.287   1.674
 5744SOL    HW218132   5.231   1.136   1.719
 5745SOL     OW18133   2.163   0.560   3.932
 5745SOL    HW118134   2.123   0.468   3.927
 5745SOL    HW218135   2.100   0.620   3.981
 5746SOL     OW18136   5.552   6.652   1.361
 5746SOL    HW118137   5.557   6.641   1.261
 5746SOL    HW218138   5.476   6.713   1.384
 5747SOL     OW18139   0.035   4.356   3.087
 5747SOL    HW118140   7.007   4.441   3.097
 5747SOL    HW218141   0.054   4.317   3.177
 5748SOL     OW18142   1.499   5.638   0.435
 5748SOL    HW118143   1.431   5.661   0.366
 5748SOL    HW218144   1.481   5.691   0.518
 5749SOL     OW18145   1.815   6.412   4.645
 5749SOL    HW118146   1.834   6.367   4.733
 5749SOL    HW218147   1.791   6.343   4.577
 5750SOL     OW18148   6.553   6.403   4.437
 5750SOL    HW118149   6.522   6.474   4.374
 5750SOL    HW218150   6.509   6.416   4.526
 5751SOL     OW18151   3.151   2.177   4.567
 5751SOL    HW118152   3.173   2.219   4.480
 5751SOL    HW218153   3.052   2.175   4.579
 5752SOL     OW18154   6.461   1.020   0.359
 5752SOL    HW118155   6.430   1.110   0.326
 5752SOL    HW218156   6.398   0.950   0.326
 5753SOL     OW18157   3.918   3.074   4.695
 5753SOL    HW118158   3.840   3.023   4.731
 5753SOL    HW218159   3.973   3.014   4.637
 5754SOL     OW18160   6.284   4.799   1.152
 5754SOL    HW118161   6.255   4.741   1.076
 5754SOL    HW218162   6.241   4.767   1.236
 5755SOL     OW18163   1.954   3.479   6.009
 5755SOL    HW118164   1.895   3.410   5.969
 5755SOL    HW218165   2.042   3.479   5.962
 5756SOL     OW18166   6.428   6.877   3.378
 5756SOL    HW118167   6.469   6.961   3.414
 5756SOL    HW218168   6.435   6.805   3.447
 5757SOL     OW18169   6.602   6.335   3.066
 5757SOL    HW118170   6.591   6.323   3.164
 5757SOL    HW218171   6.591   6.247   3.020
 5758SOL     OW18172   2.521   0.981   4.646
 5758SOL    HW118173   2.497   1.003   4.551
 5758SOL    HW218174   2.532   1.065   4.698
 5759SOL     OW18175   4.683   1.649   6.909
 5759SOL    HW118176   4.589   1.652   6.873
 5759SOL    HW218177   4.740   1.714   6.859
 5760SOL     OW18178   0.219   4.286   0.694
 5760SOL    HW118179   0.218   4.381   0.723
 5760SOL    HW218180   0.246   4.228   0.771
 5761SOL     OW18181   5.611   6.305   6.592
 5761SOL    HW118182   5.573   6.317   6.683
 5761SOL    HW218183   5.539   6.314   6.523
 5762SOL     OW18184   4.875   5.718   0.121
 5762SOL    HW118185   4.950   5.770   0.163
 5762SOL    HW218186   4.837   5.655   0.188
 5763SOL     OW18187   0.168   0.042   0.271
 5763SOL    HW118188   0.072   0.033   0.298
 5763SOL    HW218189   0.218   0.094   0.340
 5764SOL     OW18190   4.836   5.206   5.285
 5764SOL    HW118191   4.820   5.179   5.190
 5764SOL    HW218192   4.844   5.306   5.290
 5765SOL     OW18193   6.303   3.600   6.922
 5765SOL    HW118194   6.362   3.519   6.929
 5765SOL    HW218195   6.209   3.571   6.908
 5766SOL     OW18196   2.035   2.775   6.856
 5766SOL    HW118197   2.031   2.774   6.956
 5766SOL    HW218198   1.978   2.848   6.821
 5767SOL     OW18199   1.965   0.714   0.586
 5767SOL    HW118200   1.988   0.699   0.489
 5767SOL    HW218201   2.039   0.679   0.643
 5768SOL     OW18202   0.644   6.240   3.190
 5768SOL    HW118203   0.642   6.286   3.101
 5768SOL    HW218204   0.552   6.238   3.229
 5769SOL     OW18205   2.272   5.855   4.217
 5769SOL    HW118206   2.272   5.955   4.204
 5769SOL    HW218207   2.219   5.832   4.298
 5770SOL     OW18208   5.835   0.054   0.403
 5770SOL    HW118209   5.890   0.039   0.321
 5770SOL    HW218210   5.758   7.014   0.404
 5771SOL     OW18211   1.765   6.501   3.379
 5771SOL    HW118212   1.821   6.582   3.363
 5771SOL    HW218213   1.669   6.529   3.389
 5772SOL     OW18214   6.212   1.898   1.194
 5772SOL    HW118215   6.254   1.963   1.257
 5772SOL    HW218216   6.250   1.912   1.102
 5773SOL     OW18217   4.551   0.927   3.863
 5773SOL    HW118218   4.589   0.988   3.794
 5773SOL    HW218219   4.453   0.944   3.873
 5774SOL     OW18220   2.992   5.434   3.607
 5774SOL    HW118221   2.962   5.510   3.549
 5774SOL    HW218222   2.946   5.440   3.695
 5775SOL     OW18223   1.594   0.990   1.936
 5775SOL    HW118224   1.662   0.943   1.880
 5775SOL    HW218225   1.503   0.977   1.897
 5776SOL     OW18226   6.856   0.998   6.059
 5776SOL    HW118227   6.916   1.077   6.046
 5776SOL    HW218228   6.912   0.915   6.069
 5777SOL     OW18229   6.528   0.291   5.173
 5777SOL    HW118230   6.504   0.227   5.101
 5777SOL    HW218231   6.619   0.330   5.155
 5778SOL     OW18232   1.535   0.448   1.444
 5778SOL    HW118233   1.499   0.362   1.409
 5778SOL    HW218234   1.460   0.508   1.471
 5779SOL     OW18235   4.295   1.861   0.962
 5779SOL    HW118236   4.367   1.852   1.030
 5779SOL    HW218237   4.253   1.951   0.968
 5780SOL     OW18238   6.434   4.980   3.076
 5780SOL    HW118239   6.409   4.970   2.980
 5780SOL    HW218240   6.528   4.948   3.090
 5781SOL     OW18241   0.063   4.014   4.583
 5781SOL    HW118242   0.105   4.039   4.670
 5781SOL    HW218243   0.082   4.084   4.515
 5782SOL     OW18244   0.897   0.925   0.690
 5782SOL    HW118245   0.816   0.866   0.698
 5782SOL    HW218246   0.955   0.911   0.770
 5783SOL     OW18247   1.717   0.518   1.654
 5783SOL    HW118248   1.661   0.522   1.571
 5783SOL    HW218249   1.662   0.484   1.730
 5784SOL     OW18250   6.805   6.752   0.240
 5784SOL    HW118251   6.869   6.679   0.217
 5784SOL    HW218252   6.713   6.725   0.211
 5785SOL     OW18253   1.728   1.724   0.978
 5785SOL    HW118254   1.666   1.647   0.977
 5785SOL    HW218255   1.821   1.693   0.998
 5786SOL     OW18256   0.682   3.830   0.736
 5786SOL    HW118257   0.734   3.833   0.821
 5786SOL    HW218258   0.584   3.835   0.757
 5787SOL     OW18259   3.937   2.937   5.481
 5787SOL    HW118260   3.883   2.879   5.541
 5787SOL    HW218261   3.991   2.880   5.419
 5788SOL     OW18262   2.967   1.361   1.251
 5788SOL    HW118263   2.985   1.360   1.349
 5788SOL    HW218264   3.044   1.317   1.203
 5789SOL     OW18265   3.600   3.994   6.482
 5789SOL    HW118266   3.512   3.948   6.468
 5789SOL    HW218267   3.596   4.086   6.442
 5790SOL     OW18268   0.333   4.672   4.896
 5790SOL    HW118269   0.356   4.753   4.949
 5790SOL    HW218270   0.411   4.645   4.840
 5791SOL     OW18271   2.969   1.797   2.130
 5791SOL    HW118272   2.967   1.815   2.228
 5791SOL    HW218273   2.933   1.706   2.111
 5792SOL     OW18274   5.224   2.679   2.320
 5792SOL    HW118275   5.279   2.669   2.237
 5792SOL    HW218276   5.144   2.736   2.300
 5793SOL     OW18277   5.903   0.981   4.178
 5793SOL    HW118278   5.940   1.067   4.212
 5793SOL    HW218279   5.897   0.985   4.078
 5794SOL     OW18280   2.640   0.155   6.199
 5794SOL    HW118281   2.600   0.072   6.239
 5794SOL    HW218282   2.716   0.186   6.255
 5795SOL     OW18283   0.034   6.265   1.230
 5795SOL    HW118284   7.023   6.342   1.284
 5795SOL    HW218285   0.117   6.293   1.182
 5796SOL     OW18286   4.434   1.272   6.630
 5796SOL    HW118287   4.490   1.201   6.587
 5796SOL    HW218288   4.419   1.346   6.564
 5797SOL     OW18289   4.945   1.935   0.413
 5797SOL    HW118290   4.969   1.907   0.507
 5797SOL    HW218291   4.852   1.903   0.392
 5798SOL     OW18292   6.996   5.441   4.875
 5798SOL    HW118293   6.995   5.350   4.916
 5798SOL    HW218294   6.912   5.455   4.823
 5799SOL     OW18295   0.315   0.785   4.616
 5799SOL    HW118296   0.293   0.858   4.552
 5799SOL    HW218297   0.398   0.737   4.585
 5800SOL     OW18298   0.719   6.968   2.215
 5800SOL    HW118299   0.710   6.870   2.234
 5800SOL    HW218300   0.658   6.992   2.139
 5801SOL     OW18301   1.721   2.111   3.393
 5801SOL    HW118302   1.664   2.146   3.468
 5801SOL    HW218303   1.801   2.169   3.382
 5802SOL     OW18304   6.362   3.175   2.297
 5802SOL    HW118305   6.298   3.126   2.238
 5802SOL    HW218306   6.417   3.110   2.348
 5803SOL     OW18307   1.837   5.897   3.069
 5803SOL    HW118308   1.753   5.951   3.082
 5803SOL    HW218309   1.912   5.958   3.045
 5804SOL     OW18310   0.385   5.617   3.209
 5804SOL    HW118311   0.342   5.684   3.271
 5804SOL    HW218312   0.326   5.537   3.202
 5805SOL     OW18313   1.331   3.178   0.827
 5805SOL    HW118314   1.327   3.264   0.878
 5805SOL    HW218315   1.321   3.196   0.730
 5806SOL     OW18316   6.701   5.349   4.871
 5806SOL    HW118317   6.670   5.367   4.778
 5806SOL    HW218318   6.740   5.258   4.877
 5807SOL     OW18319   1.121   5.588   0.409
 5807SOL    HW118320   1.114   5.488   0.402
 5807SOL    HW218321   1.197   5.620   0.353
 5808SOL     OW18322   6.911   6.606   4.238
 5808SOL    HW118323   6.991   6.584   4.294
 5808SOL    HW218324   6.867   6.521   4.209
 5809SOL     OW18325   6.714   1.598   5.238
 5809SOL    HW118326   6.701   1.566   5.144
 5809SOL    HW218327   6.669   1.535   5.302
 5810SOL     OW18328   5.123   1.154   5.668
 5810SOL    HW118329   5.070   1.228   5.626
 5810SOL    HW218330   5.206   1.139   5.615
 5811SOL     OW18331   3.310   1.411   4.907
 5811SOL    HW118332   3.370   1.353   4.962
 5811SOL    HW218333   3.278   1.359   4.828
 5812SOL     OW18334   5.190   3.323   6.005
 5812SOL    HW118335   5.289   3.329   6.015
 5812SOL    HW218336   5.161   3.374   5.924
 5813SOL     OW18337   2.646   0.825   0.867
 5813SOL    HW118338   2.634   0.859   0.960
 5813SOL    HW218339   2.735   0.780   0.859
 5814SOL     OW18340   6.687   3.052   1.964
 5814SOL    HW118341   6.752   3.072   1.891
 5814SOL    HW218342   6.614   3.120   1.964
 5815SOL     OW18343   4.070   1.548   3.813
 5815SOL    HW118344   4.122   1.514   3.735
 5815SOL    HW218345   4.110   1.634   3.845
 5816SOL     OW18346   5.148   4.116   0.030
 5816SOL    HW118347   5.202   4.155   0.104
 5816SOL    HW218348   5.138   4.184   6.981
 5817SOL     OW18349   6.117   5.020   5.469
 5817SOL    HW118350   6.095   5.110   5.431
 5817SOL    HW218351   6.196   5.028   5.530
 5818SOL     OW18352   6.708   5.567   5.861
 5818SOL    HW118353   6.756   5.516   5.789
 5818SOL    HW218354   6.646   5.506   5.910
 5819SOL     OW18355   4.101   6.908   6.680
 5819SOL    HW118356   4.150   6.828   6.646
 5819SOL    HW218357   4.005   6.885   6.693
 5820SOL     OW18358   4.322   4.675   2.845
 5820SOL    HW118359   4.362   4.594   2.888
 5820SOL    HW218360   4.224   4.676   2.862
 5821SOL     OW18361   6.749   0.861   1.944
 5821SOL    HW118362   6.796   0.808   2.014
 5821SOL    HW218363   6.811   0.873   1.865
 5822SOL     OW18364   1.865   2.586   1.430
 5822SOL    HW118365   1.806   2.530   1.488
 5822SOL    HW218366   1.924   2.526   1.375
 5823SOL     OW18367   3.298   7.013   4.439
 5823SOL    HW118368   3.374   0.038   4.398
 5823SOL    HW218369   3.223   0.053   4.456
 5824SOL     OW18370   0.123   6.105   3.064
 5824SOL    HW118371   0.038   6.138   3.023
 5824SOL    HW218372   0.132   6.142   3.157
 5825SOL     OW18373   0.215   6.688   4.679
 5825SOL    HW118374   0.275   6.763   4.651
 5825SOL    HW218375   0.121   6.722   4.689
 5826SOL     OW18376   7.003   6.004   6.567
 5826SOL    HW118377   6.980   6.057   6.486
 5826SOL    HW218378   6.919   5.978   6.615
 5827SOL     OW18379   1.848   3.318   4.469
 5827SOL    HW118380   1.832   3.341   4.565
 5827SOL    HW218381   1.828   3.398   4.412
 5828SOL     OW18382   5.111   1.588   2.378
 5828SOL    HW118383   5.020   1.600   2.339
 5828SOL    HW218384   5.140   1.493   2.367
 5829SOL     OW18385   1.632   0.298   4.255
 5829SOL    HW118386   1.552   0.349   4.285
 5829SOL    HW218387   1.667   0.242   4.330
 5830SOL     OW18388   5.734   0.035   5.959
 5830SOL    HW118389   5.652   0.092   5.960
 5830SOL    HW218390   5.726   6.987   6.028
 5831SOL     OW18391   1.281   0.900   6.060
 5831SOL    HW118392   1.346   0.827   6.079
 5831SOL    HW218393   1.188   0.867   6.080
 5832SOL     OW18394   3.012   4.570   6.919
 5832SOL    HW118395   2.953   4.529   6.989
 5832SOL    HW218396   3.105   4.579   6.954
 5833SOL     OW18397   4.157   3.748   5.254
 5833SOL    HW118398   4.105   3.697   5.324
 5833SOL    HW218399   4.192   3.832   5.295
 5834SOL     OW18400   6.954   4.197   6.477
 5834SOL    HW118401   7.013   4.117   6.464
 5834SOL    HW218402   6.883   4.175   6.545
 5835SOL     OW18403   5.676   2.177   3.108
 5835SOL    HW118404   5.618   2.113   3.157
 5835SOL    HW218405   5.627   2.263   3.093
 5836SOL     OW18406   3.070   0.333   1.430
 5836SOL    HW118407   3.143   0.305   1.368
 5836SOL    HW218408   2.981   0.318   1.385
 5837SOL     OW18409   3.634   3.081   0.068
 5837SOL    HW118410   3.662   3.035   0.153
 5837SOL    HW218411   3.640   3.016   7.016
 5838SOL     OW18412   2.936   1.822   1.016
 5838SOL    HW118413   2.915   1.786   0.925
 5838SOL    HW218414   3.018   1.778   1.052
 5839SOL     OW18415   0.596   2.072   1.391
 5839SOL    HW118416   0.641   2.000   1.337
 5839SOL    HW218417   0.499   2.052   1.399
 5840SOL     OW18418   1.269   3.800   6.433
 5840SOL    HW118419   1.207   3.876   6.453
 5840SOL    HW218420   1.361   3.835   6.417
 5841SOL     OW18421   5.222   1.379   1.987
 5841SOL    HW118422   5.221   1.319   1.907
 5841SOL    HW218423   5.219   1.475   1.957
 5842SOL     OW18424   4.667   3.012   1.397
 5842SOL    HW118425   4.655   2.992   1.495
 5842SOL    HW218426   4.706   3.103   1.387
 5843SOL     OW18427   1.169   4.763   1.837
 5843SOL    HW118428   1.255   4.805   1.866
 5843SOL    HW218429   1.176   4.734   1.742
 5844SOL     OW18430   1.610   6.093   5.993
 5844SOL    HW118431   1.514   6.097   5.964
 5844SOL    HW218432   1.622   6.149   6.075
 5845SOL     OW18433   0.694   0.302   1.751
 5845SOL    HW118434   0.710   0.253   1.665
 5845SOL    HW218435   0.603   0.343   1.749
 5846SOL     OW18436   6.411   3.767   6.082
 5846SOL    HW118437   6.377   3.678   6.114
 5846SOL    HW218438   6.334   3.822   6.050
 5847SOL     OW18439   2.677   2.306   2.222
 5847SOL    HW118440   2.773   2.316   2.196
 5847SOL    HW218441   2.653   2.209   2.225
 5848SOL     OW18442   1.679   5.499   3.068
 5848SOL    HW118443   1.665   5.543   2.980
 5848SOL    HW218444   1.773   5.465   3.075
 5849SOL     OW18445   1.926   0.421   5.353
 5849SOL    HW118446   1.982   0.494   5.314
 5849SOL    HW218447   1.830   0.449   5.353
 5850SOL     OW18448   6.741   3.418   2.199
 5850SOL    HW118449   6.703   3.403   2.108
 5850SOL    HW218450   6.841   3.419   2.194
 5851SOL     OW18451   4.894   3.605   3.446
 5851SOL    HW118452   4.873   3.531   3.382
 5851SOL    HW218453   4.992   3.623   3.444
 5852SOL     OW18454   5.667   6.284   2.980
 5852SOL    HW118455   5.573   6.254   2.964
 5852SOL    HW218456   5.700   6.245   3.066
 5853SOL     OW18457   4.187   5.198   5.441
 5853SOL    HW118458   4.206   5.223   5.346
 5853SOL    HW218459   4.088   5.203   5.458
 5854SOL     OW18460   4.358   4.071   5.644
 5854SOL    HW118461   4.290   4.052   5.715
 5854SOL    HW218462   4.444   4.099   5.688
 5855SOL     OW18463   1.770   0.881   4.548
 5855SOL    HW118464   1.846   0.838   4.499
 5855SOL    HW218465   1.720   0.942   4.486
 5856SOL     OW18466   1.746   5.749   3.577
 5856SOL    HW118467   1.821   5.808   3.547
 5856SOL    HW218468   1.675   5.805   3.620
 5857SOL     OW18469   6.046   3.492   5.403
 5857SOL    HW118470   6.103   3.410   5.404
 5857SOL    HW218471   6.044   3.533   5.494
 5858SOL     OW18472   2.578   2.461   2.446
 5858SOL    HW118473   2.611   2.410   2.366
 5858SOL    HW218474   2.482   2.437   2.463
 5859SOL     OW18475   6.411   6.136   1.553
 5859SOL    HW118476   6.382   6.227   1.525
 5859SOL    HW218477   6.511   6.132   1.554
 5860SOL     OW18478   0.391   4.608   3.216
 5860SOL    HW118479   0.306   4.567   3.249
 5860SOL    HW218480   0.449   4.633   3.294
 5861SOL     OW18481   5.763   0.788   4.273
 5861SOL    HW118482   5.822   0.864   4.245
 5861SOL    HW218483   5.670   0.820   4.284
 5862SOL     OW18484   5.841   5.406   0.900
 5862SOL    HW118485   5.925   5.419   0.847
 5862SOL    HW218486   5.859   5.425   0.996
 5863SOL     OW18487   2.931   2.256   5.211
 5863SOL    HW118488   2.902   2.184   5.148
 5863SOL    HW218489   3.030   2.264   5.208
 5864SOL     OW18490   3.829   4.019   2.519
 5864SOL    HW118491   3.851   4.061   2.430
 5864SOL    HW218492   3.773   3.937   2.504
 5865SOL     OW18493   6.043   0.411   5.494
 5865SOL    HW118494   6.012   0.439   5.403
 5865SOL    HW218495   5.999   0.469   5.563
 5866SOL     OW18496   3.915   3.197   0.934
 5866SOL    HW118497   3.996   3.179   0.879
 5866SOL    HW218498   3.926   3.284   0.983
 5867SOL     OW18499   2.109   3.436   0.916
 5867SOL    HW118500   2.082   3.522   0.959
 5867SOL    HW218501   2.193   3.402   0.959
 5868SOL     OW18502   1.801   1.600   5.692
 5868SOL    HW118503   1.786   1.672   5.624
 5868SOL    HW218504   1.829   1.516   5.646
 5869SOL     OW18505   1.827   6.244   3.270
 5869SOL    HW118506   1.851   6.242   3.367
 5869SOL    HW218507   1.811   6.339   3.242
 5870SOL     OW18508   5.305   6.261   4.835
 5870SOL    HW118509   5.360   6.264   4.752
 5870SOL    HW218510   5.282   6.355   4.862
 5871SOL     OW18511   3.655   3.370   1.756
 5871SOL    HW118512   3.566   3.342   1.791
 5871SOL    HW218513   3.658   3.470   1.747
 5872SOL     OW18514   4.787   6.769   1.193
 5872SOL    HW118515   4.757   6.737   1.104
 5872SOL    HW218516   4.878   6.732   1.213
 5873SOL     OW18517   3.519   0.843   1.927
 5873SOL    HW118518   3.487   0.790   2.005
 5873SOL    HW218519   3.495   0.795   1.842
 5874SOL     OW18520   2.181   4.585   5.388
 5874SOL    HW118521   2.236   4.575   5.305
 5874SOL    HW218522   2.240   4.612   5.464
 5875SOL     OW18523   4.309   1.630   6.513
 5875SOL    HW118524   4.328   1.542   6.471
 5875SOL    HW218525   4.367   1.643   6.593
 5876SOL     OW18526   3.851   3.211   1.653
 5876SOL    HW118527   3.789   3.133   1.642
 5876SOL    HW218528   3.802   3.286   1.697
 5877SOL     OW18529   6.869   6.649   1.195
 5877SOL    HW118530   6.875   6.593   1.113
 5877SOL    HW218531   6.929   6.612   1.266
 5878SOL     OW18532   0.215   5.608   4.066
 5878SOL    HW118533   0.235   5.612   3.968
 5878SOL    HW218534   0.116   5.604   4.079
 5879SOL     OW18535   1.140   4.099   6.737
 5879SOL    HW118536   1.166   4.020   6.792
 5879SOL    HW218537   1.221   4.134   6.689
 5880SOL     OW18538   4.427   4.167   6.719
 5880SOL    HW118539   4.428   4.067   6.723
 5880SOL    HW218540   4.431   4.204   6.812
 5881SOL     OW18541   0.922   6.823   2.703
 5881SOL    HW118542   0.990   6.815   2.630
 5881SOL    HW218543   0.837   6.779   2.674
 5882SOL     OW18544   0.118   5.772   1.539
 5882SOL    HW118545   0.063   5.711   1.483
 5882SOL    HW218546   0.156   5.721   1.616
 5883SOL     OW18547   1.040   1.230   6.576
 5883SOL    HW118548   1.012   1.136   6.556
 5883SOL    HW218549   0.959   1.286   6.592
 5884SOL     OW18550   2.816   1.482   4.770
 5884SOL    HW118551   2.787   1.559   4.828
 5884SOL    HW218552   2.788   1.499   4.676
 5885SOL     OW18553   0.699   0.276   3.263
 5885SOL    HW118554   0.799   0.271   3.261
 5885SOL    HW218555   0.663   0.202   3.319
 5886SOL     OW18556   0.851   1.987   4.696
 5886SOL    HW118557   0.898   2.076   4.695
 5886SOL    HW218558   0.771   1.994   4.756
 5887SOL     OW18559   2.532   1.831   2.773
 5887SOL    HW118560   2.496   1.819   2.865
 5887SOL    HW218561   2.490   1.764   2.711
 5888SOL     OW18562   2.946   1.054   1.609
 5888SOL    HW118563   2.983   0.990   1.542
 5888SOL    HW218564   2.869   1.103   1.570
 5889SOL     OW18565   1.323   6.714   0.564
 5889SOL    HW118566   1.405   6.767   0.542
 5889SOL    HW218567   1.318   6.699   0.662
 5890SOL     OW18568   2.458   1.050   3.583
 5890SOL    HW118569   2.496   1.031   3.673
 5890SOL    HW218570   2.443   0.964   3.533
 5891SOL     OW18571   3.769   3.027   6.129
 5891SOL    HW118572   3.791   3.123   6.146
 5891SOL    HW218573   3.722   2.989   6.209
 5892SOL     OW18574   0.861   5.198   1.390
 5892SOL    HW118575   0.888   5.198   1.293
 5892SOL    HW218576   0.765   5.223   1.398
 5893SOL     OW18577   2.159   3.850   4.080
 5893SOL    HW118578   2.189   3.763   4.119
 5893SOL    HW218579   2.177   3.851   3.982
 5894SOL     OW18580   6.873   5.170   4.282
 5894SOL    HW118581   6.971   5.162   4.264
 5894SOL    HW218582   6.848   5.267   4.286
 5895SOL     OW18583   5.613   4.329   3.984
 5895SOL    HW118584   5.584   4.423   3.999
 5895SOL    HW218585   5.682   4.304   4.052
 5896SOL     OW18586   3.751   0.835   0.264
 5896SOL    HW118587   3.671   0.878   0.306
 5896SOL    HW218588   3.821   0.905   0.248
 5897SOL     OW18589   3.869   0.572   1.402
 5897SOL    HW118590   3.941   0.599   1.466
 5897SOL    HW218591   3.852   0.474   1.410
 5898SOL     OW18592   2.070   6.858   3.457
 5898SOL    HW118593   2.122   6.942   3.473
 5898SOL    HW218594   2.015   6.837   3.538
 5899SOL     OW18595   5.350   5.968   6.023
 5899SOL    HW118596   5.425   6.022   5.985
 5899SOL    HW218597   5.264   6.019   6.013
 5900SOL     OW18598   5.802   5.180   3.508
 5900SOL    HW118599   5.709   5.144   3.516
 5900SOL    HW218600   5.824   5.196   3.412
 5901SOL     OW18601   2.401   0.725   0.436
 5901SOL    HW118602   2.386   0.628   0.457
 5901SOL    HW218603   2.391   0.739   0.337
 5902SOL     OW18604   6.731   2.533   5.771
 5902SOL    HW118605   6.636   2.558   5.751
 5902SOL    HW218606   6.747   2.539   5.869
 5903SOL     OW18607   4.725   4.892   6.866
 5903SOL    HW118608   4.692   4.850   6.781
 5903SOL    HW218609   4.701   4.834   6.944
 5904SOL     OW18610   1.229   4.647   1.593
 5904SOL    HW118611   1.292   4.698   1.534
 5904SOL    HW218612   1.248   4.550   1.585
 5905SOL     OW18613   6.001   6.150   3.574
 5905SOL    HW118614   6.059   6.154   3.493
 5905SOL    HW218615   5.922   6.211   3.563
 5906SOL     OW18616   3.605   1.951   3.604
 5906SOL    HW118617   3.616   1.949   3.704
 5906SOL    HW218618   3.642   1.868   3.564
 5907SOL     OW18619   0.768   5.341   0.685
 5907SOL    HW118620   0.691   5.393   0.722
 5907SOL    HW218621   0.736   5.282   0.610
 5908SOL     OW18622   0.341   2.642   6.710
 5908SOL    HW118623   0.292   2.675   6.629
 5908SOL    HW218624   0.385   2.720   6.756
 5909SOL     OW18625   6.514   5.719   0.795
 5909SOL    HW118626   6.442   5.685   0.734
 5909SOL    HW218627   6.536   5.814   0.771
 5910SOL     OW18628   6.851   3.559   3.923
 5910SOL    HW118629   6.883   3.564   4.018
 5910SOL    HW218630   6.763   3.512   3.920
 5911SOL     OW18631   6.535   6.415   6.831
 5911SOL    HW118632   6.455   6.362   6.804
 5911SOL    HW218633   6.580   6.372   6.909
 5912SOL     OW18634   6.518   1.439   5.751
 5912SOL    HW118635   6.615   1.417   5.757
 5912SOL    HW218636   6.486   1.476   5.838
 5913SOL     OW18637   4.987   2.981   6.233
 5913SOL    HW118638   5.045   3.023   6.163
 5913SOL    HW218639   4.940   3.053   6.284
 5914SOL     OW18640   1.438   4.725   6.018
 5914SOL    HW118641   1.526   4.684   5.995
 5914SOL    HW218642   1.396   4.675   6.094
 5915SOL     OW18643   4.499   5.567   1.071
 5915SOL    HW118644   4.550   5.552   1.156
 5915SOL    HW218645   4.406   5.598   1.094
 5916SOL     OW18646   5.662   6.560   4.238
 5916SOL    HW118647   5.618   6.628   4.181
 5916SOL    HW218648   5.738   6.519   4.188
 5917SOL     OW18649   3.006   3.555   4.255
 5917SOL    HW118650   3.004   3.485   4.183
 5917SOL    HW218651   3.072   3.527   4.325
 5918SOL     OW18652   1.590   3.770   5.840
 5918SOL    HW118653   1.636   3.741   5.755
 5918SOL    HW218654   1.658   3.780   5.912
 5919SOL     OW18655   3.405   3.193   3.183
 5919SOL    HW118656   3.474   3.122   3.194
 5919SOL    HW218657   3.372   3.193   3.089
 5920SOL     OW18658   4.594   1.105   6.478
 5920SOL    HW118659   4.568   1.109   6.381
 5920SOL    HW218660   4.681   1.057   6.487
 5921SOL     OW18661   3.356   5.622   6.418
 5921SOL    HW118662   3.431   5.559   6.402
 5921SOL    HW218663   3.361   5.658   6.511
 5922SOL     OW18664   5.080   4.694   2.847
 5922SOL    HW118665   5.050   4.629   2.777
 5922SOL    HW218666   5.157   4.655   2.897
 5923SOL     OW18667   6.808   1.733   2.017
 5923SOL    HW118668   6.878   1.661   2.021
 5923SOL    HW218669   6.849   1.817   1.980
 5924SOL     OW18670   6.098   0.098   2.956
 5924SOL    HW118671   6.106   0.197   2.945
 5924SOL    HW218672   6.190   0.057   2.955
 5925SOL     OW18673   4.036   6.935   2.185
 5925SOL    HW118674   4.032   0.006   2.216
 5925SOL    HW218675   4.096   6.882   2.245
 5926SOL     OW18676   3.951   5.290   1.829
 5926SOL    HW118677   3.873   5.306   1.890
 5926SOL    HW218678   3.989   5.378   1.800
 5927SOL     OW18679   1.503   4.269   2.381
 5927SOL    HW118680   1.437   4.329   2.427
 5927SOL    HW218681   1.490   4.276   2.282
 5928SOL     OW18682   3.879   0.221   1.129
 5928SOL    HW118683   3.825   0.285   1.075
 5928SOL    HW218684   3.818   0.158   1.177
 5929SOL     OW18685   6.915   0.098   6.486
 5929SOL    HW118686   6.856   0.026   6.525
 5929SOL    HW218687   6.885   0.187   6.520
 5930SOL     OW18688   6.209   4.049   2.875
 5930SOL    HW118689   6.131   4.015   2.823
 5930SOL    HW218690   6.250   4.126   2.827
 5931SOL     OW18691   0.739   5.614   2.918
 5931SOL    HW118692   0.651   5.661   2.927
 5931SOL    HW218693   0.813   5.679   2.939
 5932SOL     OW18694   3.285   0.336   0.481
 5932SOL    HW118695   3.323   0.338   0.573
 5932SOL    HW218696   3.341   0.392   0.420
 5933SOL     OW18697   0.062   5.084   3.215
 5933SOL    HW118698   0.162   5.071   3.216
 5933SOL    HW218699   0.027   5.057   3.125
 5934SOL     OW18700   3.647   3.213   5.047
 5934SOL    HW118701   3.632   3.236   5.143
 5934SOL    HW218702   3.618   3.290   4.990
 5935SOL     OW18703   5.791   5.008   6.556
 5935SOL    HW118704   5.806   4.964   6.468
 5935SOL    HW218705   5.871   5.063   6.580
 5936SOL     OW18706   3.121   2.283   1.451
 5936SOL    HW118707   3.181   2.306   1.527
 5936SOL    HW218708   3.026   2.281   1.482
 5937SOL     OW18709   6.333   3.793   2.260
 5937SOL    HW118710   6.380   3.730   2.197
 5937SOL    HW218711   6.306   3.875   2.210
 5938SOL     OW18712   6.718   5.611   2.901
 5938SOL    HW118713   6.789   5.607   2.971
 5938SOL    HW218714   6.651   5.538   2.917
 5939SOL     OW18715   2.334   6.494   2.926
 5939SOL    HW118716   2.401   6.564   2.901
 5939SOL    HW218717   2.345   6.471   3.023
 5940SOL     OW18718   4.373   5.760   1.980
 5940SOL    HW118719   4.465   5.728   1.957
 5940SOL    HW218720   4.378   5.853   2.016
 5941SOL     OW18721   5.783   3.233   2.477
 5941SOL    HW118722   5.847   3.215   2.551
 5941SOL    HW218723   5.765   3.332   2.472
 5942SOL     OW18724   5.781   3.796   0.218
 5942SOL    HW118725   5.757   3.887   0.252
 5942SOL    HW218726   5.773   3.730   0.293
 5943SOL     OW18727   2.961   4.401   5.907
 5943SOL    HW118728   2.872   4.368   5.876
 5943SOL    HW218729   3.006   4.451   5.833
 5944SOL     OW18730   6.971   2.582   1.270
 5944SOL    HW118731   0.021   2.643   1.240
 5944SOL    HW218732   6.914   2.558   1.192
 5945SOL     OW18733   6.758   5.066   4.913
 5945SOL    HW118734   6.667   5.053   4.953
 5945SOL    HW218735   6.826   5.021   4.971
 5946SOL     OW18736   3.900   3.598   5.791
 5946SOL    HW118737   3.857   3.594   5.701
 5946SOL    HW218738   3.895   3.507   5.834
 5947SOL     OW18739   3.174   3.420   2.085
 5947SOL    HW118740   3.250   3.357   2.068
 5947SOL    HW218741   3.122   3.388   2.165
 5948SOL     OW18742   4.081   4.784   2.933
 5948SOL    HW118743   4.088   4.879   2.903
 5948SOL    HW218744   3.984   4.761   2.945
 5949SOL     OW18745   4.969   4.034   1.686
 5949SOL    HW118746   4.994   4.131   1.689
 5949SOL    HW218747   4.955   4.006   1.591
 5950SOL     OW18748   5.026   0.984   5.412
 5950SOL    HW118749   5.080   0.996   5.495
 5950SOL    HW218750   5.047   1.059   5.349
 5951SOL     OW18751   1.264   5.662   3.707
 5951SOL    HW118752   1.314   5.728   3.763
 5951SOL    HW218753   1.221   5.595   3.768
 5952SOL     OW18754   5.490   4.674   3.422
 5952SOL    HW118755   5.437   4.685   3.506
 5952SOL    HW218756   5.433   4.694   3.343
 5953SOL     OW18757   6.148   3.128   5.664
 5953SOL    HW118758   6.068   3.179   5.697
 5953SOL    HW218759   6.195   3.183   5.594
 5954SOL     OW18760   6.254   5.127   5.091
 5954SOL    HW118761   6.172   5.090   5.135
 5954SOL    HW218762   6.230   5.166   5.002
 5955SOL     OW18763   4.625   5.665   2.316
 5955SOL    HW118764   4.535   5.655   2.356
 5955SOL    HW218765   4.625   5.742   2.251
 5956SOL     OW18766   4.703   1.889   5.077
 5956SOL    HW118767   4.684   1.793   5.096
 5956SOL    HW218768   4.678   1.910   4.983
 5957SOL     OW18769   3.749   1.313   5.117
 5957SOL    HW118770   3.783   1.226   5.081
 5957SOL    HW218771   3.760   1.314   5.217
 5958SOL     OW18772   5.516   5.988   2.755
 5958SOL    HW118773   5.463   5.956   2.833
 5958SOL    HW218774   5.504   6.087   2.745
 5959SOL     OW18775   4.448   3.076   5.372
 5959SOL    HW118776   4.430   3.173   5.355
 5959SOL    HW218777   4.364   3.031   5.401
 5960SOL     OW18778   3.968   5.645   5.004
 5960SOL    HW118779   3.901   5.599   4.945
 5960SOL    HW218780   3.972   5.742   4.979
 5961SOL     OW18781   4.673   1.711   2.759
 5961SOL    HW118782   4.656   1.794   2.705
 5961SOL    HW218783   4.641   1.725   2.853
 5962SOL     OW18784   5.910   6.701   0.361
 5962SOL    HW118785   5.973   6.777   0.347
 5962SOL    HW218786   5.914   6.639   0.283
 5963SOL     OW18787   4.077   3.628   6.646
 5963SOL    HW118788   4.110   3.716   6.612
 5963SOL    HW218789   4.153   3.576   6.685
 5964SOL     OW18790   1.021   5.829   5.241
 5964SOL    HW118791   0.936   5.783   5.218
 5964SOL    HW218792   1.003   5.899   5.310
 5965SOL     OW18793   1.792   1.473   0.059
 5965SOL    HW118794   1.736   1.517   7.012
 5965SOL    HW218795   1.886   1.464   0.026
 5966SOL     OW18796   1.883   6.238   5.232
 5966SOL    HW118797   1.859   6.244   5.135
 5966SOL    HW218798   1.976   6.271   5.246
 5967SOL     OW18799   3.540   6.965   6.331
 5967SOL    HW118800   3.597   7.015   6.397
 5967SOL    HW218801   3.480   0.005   6.283
 5968SOL     OW18802   5.310   2.373   0.321
 5968SOL    HW118803   5.331   2.440   0.392
 5968SOL    HW218804   5.242   2.309   0.354
 5969SOL     OW18805   6.619   0.043   6.814
 5969SOL    HW118806   6.643   6.984   6.865
 5969SOL    HW218807   6.576   0.109   6.876
 5970SOL     OW18808   0.234   4.037   2.619
 5970SOL    HW118809   0.216   4.129   2.654
 5970SOL    HW218810   0.181   4.023   2.535
 5971SOL     OW18811   0.305   1.239   2.654
 5971SOL    HW118812   0.267   1.153   2.622
 5971SOL    HW218813   0.267   1.260   2.744
 5972SOL     OW18814   5.857   5.825   6.404
 5972SOL    HW118815   5.815   5.913   6.382
 5972SOL    HW218816   5.941   5.813   6.350
 5973SOL     OW18817   1.366   3.434   2.654
 5973SOL    HW118818   1.375   3.351   2.708
 5973SOL    HW218819   1.365   3.514   2.715
 5974SOL     OW18820   5.614   5.931   6.800
 5974SOL    HW118821   5.634   5.838   6.829
 5974SOL    HW218822   5.687   5.964   6.740
 5975SOL     OW18823   4.403   0.105   0.574
 5975SOL    HW118824   4.342   0.033   0.543
 5975SOL    HW218825   4.368   0.146   0.658
 5976SOL     OW18826   3.847   2.740   6.052
 5976SOL    HW118827   3.843   2.839   6.067
 5976SOL    HW218828   3.756   2.701   6.066
 5977SOL     OW18829   1.448   5.798   6.552
 5977SOL    HW118830   1.485   5.788   6.460
 5977SOL    HW218831   1.516   5.842   6.611
 5978SOL     OW18832   4.252   5.628   1.732
 5978SOL    HW118833   4.268   5.543   1.782
 5978SOL    HW218834   4.311   5.630   1.651
 5979SOL     OW18835   5.048   0.305   3.401
 5979SOL    HW118836   5.034   0.385   3.343
 5979SOL    HW218837   5.142   0.272   3.390
 5980SOL     OW18838   3.418   3.779   1.054
 5980SOL    HW118839   3.490   3.714   1.075
 5980SOL    HW218840   3.441   3.830   0.971
 5981SOL     OW18841   5.518   2.012   1.552
 5981SOL    HW118842   5.481   2.082   1.613
 5981SOL    HW218843   5.581   1.953   1.603
 5982SOL     OW18844   5.867   2.946   1.995
 5982SOL    HW118845   5.876   2.976   2.090
 5982SOL    HW218846   5.958   2.933   1.955
 5983SOL     OW18847   1.859   1.657   3.836
 5983SOL    HW118848   1.829   1.744   3.797
 5983SOL    HW218849   1.831   1.582   3.776
 5984SOL     OW18850   6.489   5.532   3.543
 5984SOL    HW118851   6.538   5.576   3.468
 5984SOL    HW218852   6.449   5.602   3.602
 5985SOL     OW18853   6.815   3.034   4.015
 5985SOL    HW118854   6.901   3.048   3.967
 5985SOL    HW218855   6.792   2.937   4.018
 5986SOL     OW18856   3.626   4.148   4.221
 5986SOL    HW118857   3.722   4.124   4.229
 5986SOL    HW218858   3.583   4.146   4.311
 5987SOL     OW18859   5.702   0.183   4.085
 5987SOL    HW118860   5.757   0.099   4.083
 5987SOL    HW218861   5.610   0.161   4.117
 5988SOL     OW18862   4.644   0.461   6.105
 5988SOL    HW118863   4.699   0.382   6.077
 5988SOL    HW218864   4.644   0.529   6.033
 5989SOL     OW18865   2.337   5.610   6.672
 5989SOL    HW118866   2.408   5.632   6.739
 5989SOL    HW218867   2.365   5.529   6.621
 5990SOL     OW18868   3.695   3.471   0.560
 5990SOL    HW118869   3.740   3.536   0.622
 5990SOL    HW218870   3.675   3.387   0.610
 5991SOL     OW18871   3.655   5.329   6.657
 5991SOL    HW118872   3.725   5.302   6.724
 5991SOL    HW218873   3.687   5.306   6.565
 5992SOL     OW18874   3.783   0.380   2.099
 5992SOL    HW118875   3.877   0.412   2.088
 5992SOL    HW218876   3.737   0.379   2.011
 5993SOL     OW18877   3.962   4.955   5.938
 5993SOL    HW118878   4.001   5.047   5.931
 5993SOL    HW218879   4.011   4.904   6.009
 5994SOL     OW18880   5.952   2.668   2.209
 5994SOL    HW118881   5.923   2.762   2.187
 5994SOL    HW218882   5.878   2.605   2.188
 5995SOL     OW18883   4.973   3.481   2.243
 5995SOL    HW118884   4.961   3.574   2.277
 5995SOL    HW218885   4.938   3.476   2.149
 5996SOL     OW18886   1.199   6.008   1.425
 5996SOL    HW118887   1.278   5.964   1.381
 5996SOL    HW218888   1.116   5.956   1.405
 5997SOL     OW18889   0.251   5.584   2.661
 5997SOL    HW118890   0.205   5.585   2.750
 5997SOL    HW218891   0.266   5.489   2.633
 5998SOL     OW18892   6.072   1.241   3.533
 5998SOL    HW118893   6.074   1.287   3.444
 5998SOL    HW218894   6.027   1.301   3.600
 5999SOL     OW18895   2.176   2.763   1.399
 5999SOL    HW118896   2.171   2.675   1.446
 5999SOL    HW218897   2.095   2.817   1.419
 6000SOL     OW18898   2.691   7.005   0.821
 6000SOL    HW118899   2.677   0.079   0.805
 6000SOL    HW218900   2.786   6.989   0.847
 6001SOL     OW18901   0.430   4.245   6.607
 6001SOL    HW118902   0.458   4.197   6.690
 6001SOL    HW218903   0.331   4.240   6.598
 6002SOL     OW18904   6.149   1.150   0.714
 6002SOL    HW118905   6.087   1.196   0.778
 6002SOL    HW218906   6.198   1.218   0.660
 6003SOL     OW18907   6.090   2.035   4.586
 6003SOL    HW118908   6.167   1.989   4.542
 6003SOL    HW218909   6.050   2.101   4.522
 6004SOL     OW18910   6.946   3.764   2.903
 6004SOL    HW118911   7.006   3.687   2.923
 6004SOL    HW218912   7.001   3.846   2.889
 6005SOL     OW18913   4.653   5.198   3.809
 6005SOL    HW118914   4.640   5.235   3.900
 6005SOL    HW218915   4.689   5.105   3.815
 6006SOL     OW18916   2.504   1.132   5.352
 6006SOL    HW118917   2.472   1.042   5.322
 6006SOL    HW218918   2.473   1.149   5.445
 6007SOL     OW18919   5.306   4.223   5.417
 6007SOL    HW118920   5.393   4.202   5.462
 6007SOL    HW218921   5.275   4.143   5.366
 6008SOL     OW18922   2.367   4.522   5.177
 6008SOL    HW118923   2.378   4.527   5.078
 6008SOL    HW218924   2.443   4.472   5.217
 6009SOL     OW18925   2.312   1.322   3.161
 6009SOL    HW118926   2.278   1.406   3.202
 6009SOL    HW218927   2.248   1.291   3.091
 6010SOL     OW18928   1.273   4.841   4.077
 6010SOL    HW118929   1.182   4.819   4.113
 6010SOL    HW218930   1.325   4.891   4.146
 6011SOL     OW18931   5.103   2.727   3.400
 6011SOL    HW118932   5.041   2.757   3.473
 6011SOL    HW218933   5.052   2.713   3.316
 6012SOL     OW18934   5.791   1.186   0.515
 6012SOL    HW118935   5.879   1.152   0.482
 6012SOL    HW218936   5.717   1.135   0.472
 6013SOL     OW18937   5.180   1.979   2.665
 6013SOL    HW118938   5.161   2.077   2.657
 6013SOL    HW218939   5.155   1.948   2.757
 6014SOL     OW18940   4.079   3.338   2.842
 6014SOL    HW118941   4.094   3.395   2.761
 6014SOL    HW218942   4.088   3.241   2.817
 6015SOL     OW18943   6.391   3.909   4.156
 6015SOL    HW118944   6.358   3.999   4.126
 6015SOL    HW218945   6.367   3.895   4.252
 6016SOL     OW18946   6.836   1.683   5.488
 6016SOL    HW118947   6.836   1.655   5.392
 6016SOL    HW218948   6.749   1.728   5.509
 6017SOL     OW18949   6.884   4.622   3.495
 6017SOL    HW118950   6.969   4.606   3.546
 6017SOL    HW218951   6.807   4.622   3.558
 6018SOL     OW18952   4.318   0.548   6.488
 6018SOL    HW118953   4.353   0.612   6.557
 6018SOL    HW218954   4.341   0.455   6.514
 6019SOL     OW18955   0.178   2.612   4.175
 6019SOL    HW118956   0.217   2.690   4.225
 6019SOL    HW218957   0.199   2.622   4.077
 6020SOL     OW18958   1.019   5.361   0.796
 6020SOL    HW118959   1.080   5.301   0.745
 6020SOL    HW218960   0.924   5.342   0.771
 6021SOL     OW18961   4.463   0.426   3.063
 6021SOL    HW118962   4.373   0.469   3.074
 6021SOL    HW218963   4.533   0.497   3.054
 6022SOL     OW18964   5.407   1.427   4.107
 6022SOL    HW118965   5.489   1.484   4.104
 6022SOL    HW218966   5.424   1.341   4.057
 6023SOL     OW18967   5.731   0.969   1.356
 6023SOL    HW118968   5.718   0.887   1.300
 6023SOL    HW218969   5.667   0.968   1.433
 6024SOL     OW18970   1.746   4.757   2.916
 6024SOL    HW118971   1.751   4.854   2.944
 6024SOL    HW218972   1.835   4.729   2.881
 6025SOL     OW18973   3.772   1.675   3.296
 6025SOL    HW118974   3.721   1.676   3.382
 6025SOL    HW218975   3.864   1.711   3.312
 6026SOL     OW18976   6.753   4.396   5.236
 6026SOL    HW118977   6.804   4.455   5.299
 6026SOL    HW218978   6.774   4.423   5.142
 6027SOL     OW18979   0.138   3.466   5.636
 6027SOL    HW118980   0.172   3.548   5.591
 6027SOL    HW218981   0.183   3.456   5.725
 6028SOL     OW18982   6.549   5.209   0.437
 6028SOL    HW118983   6.614   5.253   0.499
 6028SOL    HW218984   6.505   5.132   0.484
 6029SOL     OW18985   2.407   6.952   5.063
 6029SOL    HW118986   2.387   6.982   5.156
 6029SOL    HW218987   2.336   6.986   5.001
 6030SOL     OW18988   4.044   5.297   2.460
 6030SOL    HW118989   4.139   5.266   2.451
 6030SOL    HW218990   4.021   5.356   2.383
 6031SOL     OW18991   2.941   5.294   3.911
 6031SOL    HW118992   3.039   5.313   3.905
 6031SOL    HW218993   2.890   5.366   3.864
 6032SOL     OW18994   2.266   4.555   2.659
 6032SOL    HW118995   2.174   4.561   2.697
 6032SOL    HW218996   2.318   4.484   2.707
 6033SOL     OW18997   2.844   2.275   2.553
 6033SOL    HW118998   2.801   2.187   2.533
 6033SOL    HW218999   2.775   2.348   2.548
 6034SOL     OW19000   1.331   6.656   5.423
 6034SOL    HW119001   1.323   6.675   5.325
 6034SOL    HW219002   1.425   6.630   5.444
 6035SOL     OW19003   0.164   1.081   2.413
 6035SOL    HW119004   0.241   1.050   2.357
 6035SOL    HW219005   0.150   1.179   2.398
 6036SOL     OW19006   5.011   4.377   3.202
 6036SOL    HW119007   5.035   4.457   3.257
 6036SOL    HW219008   4.913   4.380   3.180
 6037SOL     OW19009   4.440   5.866   0.286
 6037SOL    HW119010   4.379   5.880   0.209
 6037SOL    HW219011   4.417   5.780   0.333
 6038SOL     OW19012   1.861   2.896   5.819
 6038SOL    HW119013   1.850   2.802   5.787
 6038SOL    HW219014   1.780   2.923   5.871
 6039SOL     OW19015   3.061   3.095   2.731
 6039SOL    HW119016   3.041   3.044   2.647
 6039SOL    HW219017   3.085   3.031   2.804
 6040SOL     OW19018   1.112   1.579   0.621
 6040SOL    HW119019   1.091   1.566   0.718
 6040SOL    HW219020   1.210   1.593   0.610
 6041SOL     OW19021   2.893   0.310   4.683
 6041SOL    HW119022   2.848   0.392   4.646
 6041SOL    HW219023   2.829   0.233   4.682
 6042SOL     OW19024   4.491   6.368   2.226
 6042SOL    HW119025   4.590   6.380   2.231
 6042SOL    HW219026   4.456   6.343   2.316
 6043SOL     OW19027   0.904   5.052   6.013
 6043SOL    HW119028   0.936   4.959   6.027
 6043SOL    HW219029   0.813   5.062   6.054
 6044SOL     OW19030   1.616   2.459   1.332
 6044SOL    HW119031   1.691   2.401   1.302
 6044SOL    HW219032   1.624   2.475   1.431
 6045SOL     OW19033   5.744   4.213   2.396
 6045SOL    HW119034   5.698   4.292   2.437
 6045SOL    HW219035   5.675   4.153   2.356
 6046SOL     OW19036   3.655   2.011   0.029
 6046SOL    HW119037   3.640   1.997   6.955
 6046SOL    HW219038   3.742   1.970   0.056
 6047SOL     OW19039   4.979   1.744   1.955
 6047SOL    HW119040   4.956   1.648   1.969
 6047SOL    HW219041   4.902   1.801   1.984
 6048SOL     OW19042   4.798   5.485   5.345
 6048SOL    HW119043   4.700   5.497   5.363
 6048SOL    HW219044   4.818   5.513   5.251
 6049SOL     OW19045   5.058   3.214   0.176
 6049SOL    HW119046   5.127   3.286   0.168
 6049SOL    HW219047   4.994   3.237   0.249
 6050SOL     OW19048   3.728   5.626   5.404
 6050SOL    HW119049   3.726   5.726   5.404
 6050SOL    HW219050   3.689   5.591   5.319
 6051SOL     OW19051   2.358   6.580   3.772
 6051SOL    HW119052   2.389   6.571   3.677
 6051SOL    HW219053   2.361   6.677   3.799
 6052SOL     OW19054   6.125   1.166   0.103
 6052SOL    HW119055   6.110   1.071   0.077
 6052SOL    HW219056   6.211   1.174   0.153
 6053SOL     OW19057   3.801   1.489   6.692
 6053SOL    HW119058   3.826   1.411   6.749
 6053SOL    HW219059   3.806   1.573   6.746
 6054SOL     OW19060   2.140   2.926   0.340
 6054SOL    HW119061   2.075   2.854   0.366
 6054SOL    HW219062   2.090   3.004   0.303
 6055SOL     OW19063   5.144   0.015   4.906
 6055SOL    HW119064   5.067   6.976   4.907
 6055SOL    HW219065   5.141   0.072   4.989
 6056SOL     OW19066   4.949   3.310   4.369
 6056SOL    HW119067   4.948   3.402   4.330
 6056SOL    HW219068   4.901   3.248   4.308
 6057SOL     OW19069   5.962   1.959   3.402
 6057SOL    HW119070   5.943   2.046   3.448
 6057SOL    HW219071   6.050   1.965   3.355
 6058SOL     OW19072   4.646   3.830   1.642
 6058SOL    HW119073   4.635   3.732   1.623
 6058SOL    HW219074   4.721   3.866   1.587
 6059SOL     OW19075   4.935   4.999   5.438
 6059SOL    HW119076   4.893   5.064   5.374
 6059SOL    HW219077   4.983   5.050   5.510
 6060SOL     OW19078   2.840   3.558   6.805
 6060SOL    HW119079   2.938   3.546   6.822
 6060SOL    HW219080   2.825   3.640   6.750
 6061SOL     OW19081   3.505   2.694   0.815
 6061SOL    HW119082   3.594   2.736   0.797
 6061SOL    HW219083   3.441   2.763   0.848
 6062SOL     OW19084   2.582   0.688   5.074
 6062SOL    HW119085   2.623   0.603   5.043
 6062SOL    HW219086   2.636   0.765   5.041
 6063SOL     OW19087   4.382   3.016   5.863
 6063SOL    HW119088   4.401   3.091   5.799
 6063SOL    HW219089   4.313   3.045   5.929
 6064SOL     OW19090   1.658   5.998   0.955
 6064SOL    HW119091   1.719   6.020   1.031
 6064SOL    HW219092   1.665   5.901   0.934
 6065SOL     OW19093   0.210   6.861   2.293
 6065SOL    HW119094   0.228   6.775   2.246
 6065SOL    HW219095   0.221   6.937   2.228
 6066SOL     OW19096   4.834   1.500   5.754
 6066SOL    HW119097   4.911   1.550   5.793
 6066SOL    HW219098   4.764   1.486   5.825
 6067SOL     OW19099   5.703   0.748   5.483
 6067SOL    HW119100   5.650   0.801   5.549
 6067SOL    HW219101   5.682   0.780   5.390
 6068SOL     OW19102   5.239   3.330   4.457
 6068SOL    HW119103   5.269   3.316   4.363
 6068SOL    HW219104   5.142   3.356   4.458
 6069SOL     OW19105   6.400   3.606   5.294
 6069SOL    HW119106   6.335   3.671   5.334
 6069SOL    HW219107   6.484   3.655   5.269
 6070SOL     OW19108   3.140   2.248   0.983
 6070SOL    HW119109   3.135   2.150   0.963
 6070SOL    HW219110   3.060   2.275   1.037
 6071SOL     OW19111   5.294   5.638   4.125
 6071SOL    HW119112   5.283   5.561   4.062
 6071SOL    HW219113   5.331   5.605   4.212
 6072SOL     OW19114   6.996   0.426   1.630
 6072SOL    HW119115   7.017   0.435   1.532
 6072SOL    HW219116   6.940   0.345   1.645
 6073SOL     OW19117   6.185   2.952   0.017
 6073SOL    HW119118   6.085   2.944   0.009
 6073SOL    HW219119   6.228   2.871   7.002
 6074SOL     OW19120   0.628   6.392   2.958
 6074SOL    HW119121   0.542   6.442   2.971
 6074SOL    HW219122   0.649   6.387   2.861
 6075SOL     OW19123   6.153   0.853   6.011
 6075SOL    HW119124   6.172   0.755   6.013
 6075SOL    HW219125   6.238   0.903   5.994
 6076SOL     OW19126   3.547   5.688   4.223
 6076SOL    HW119127   3.642   5.657   4.212
 6076SOL    HW219128   3.547   5.780   4.263
 6077SOL     OW19129   6.002   5.762   0.896
 6077SOL    HW119130   6.027   5.720   0.984
 6077SOL    HW219131   6.009   5.861   0.903
 6078SOL     OW19132   4.820   4.921   0.478
 6078SOL    HW119133   4.738   4.898   0.531
 6078SOL    HW219134   4.901   4.905   0.534
 6079SOL     OW19135   4.205   3.979   5.892
 6079SOL    HW119136   4.195   3.884   5.865
 6079SOL    HW219137   4.162   3.994   5.981
 6080SOL     OW19138   0.431   6.813   1.399
 6080SOL    HW119139   0.359   6.747   1.423
 6080SOL    HW219140   0.405   6.861   1.315
 6081SOL     OW19141   6.805   2.904   5.241
 6081SOL    HW119142   6.888   2.896   5.297
 6081SOL    HW219143   6.782   3.000   5.229
 6082SOL     OW19144   1.983   1.318   3.769
 6082SOL    HW119145   2.030   1.236   3.737
 6082SOL    HW219146   1.916   1.293   3.839
 6083SOL     OW19147   6.382   5.620   6.774
 6083SOL    HW119148   6.377   5.634   6.873
 6083SOL    HW219149   6.341   5.531   6.751
 6084SOL     OW19150   0.764   6.901   3.723
 6084SOL    HW119151   0.728   6.925   3.633
 6084SOL    HW219152   0.706   6.944   3.794
 6085SOL     OW19153   7.005   5.766   0.705
 6085SOL    HW119154   6.920   5.774   0.653
 6085SOL    HW219155   0.051   5.825   0.664
 6086SOL     OW19156   3.779   0.549   5.925
 6086SOL    HW119157   3.688   0.567   5.889
 6086SOL    HW219158   3.807   0.623   5.985
 6087SOL     OW19159   3.467   5.451   1.034
 6087SOL    HW119160   3.423   5.398   1.106
 6087SOL    HW219161   3.403   5.463   0.958
 6088SOL     OW19162   5.164   5.878   4.190
 6088SOL    HW119163   5.213   5.795   4.163
 6088SOL    HW219164   5.223   5.958   4.178
 6089SOL     OW19165   5.045   3.171   1.623
 6089SOL    HW119166   5.117   3.204   1.684
 6089SOL    HW219167   5.055   3.072   1.612
 6090SOL     OW19168   1.847   5.734   5.250
 6090SOL    HW119169   1.941   5.755   5.221
 6090SOL    HW219170   1.841   5.737   5.349
 6091SOL     OW19171   1.845   1.044   0.247
 6091SOL    HW119172   1.842   1.035   0.347
 6091SOL    HW219173   1.941   1.047   0.217
 6092SOL     OW19174   4.260   6.812   2.759
 6092SOL    HW119175   4.289   6.888   2.817
 6092SOL    HW219176   4.339   6.754   2.738
 6093SOL     OW19177   1.959   3.461   2.015
 6093SOL    HW119178   1.909   3.382   2.051
 6093SOL    HW219179   2.057   3.440   2.013
 6094SOL     OW19180   2.409   6.826   1.857
 6094SOL    HW119181   2.349   6.886   1.909
 6094SOL    HW219182   2.367   6.736   1.848
 6095SOL     OW19183   5.182   3.988   0.600
 6095SOL    HW119184   5.151   3.926   0.528
 6095SOL    HW219185   5.261   4.040   0.568
 6096SOL     OW19186   6.176   6.586   4.160
 6096SOL    HW119187   6.106   6.595   4.231
 6096SOL    HW219188   6.141   6.620   4.074
 6097SOL     OW19189   2.132   6.220   2.117
 6097SOL    HW119190   2.145   6.227   2.216
 6097SOL    HW219191   2.218   6.237   2.070
 6098SOL     OW19192   1.738   1.848   5.220
 6098SOL    HW119193   1.829   1.890   5.217
 6098SOL    HW219194   1.670   1.914   5.189
 6099SOL     OW19195   5.834   6.494   0.132
 6099SOL    HW119196   5.894   6.562   0.090
 6099SOL    HW219197   5.742   6.532   0.140
 6100SOL     OW19198   5.244   5.668   0.792
 6100SOL    HW119199   5.286   5.758   0.795
 6100SOL    HW219200   5.230   5.641   0.696
 6101SOL     OW19201   6.496   2.940   3.655
 6101SOL    HW119202   6.409   2.894   3.634
 6101SOL    HW219203   6.477   3.029   3.696
 6102SOL     OW19204   3.491   6.715   2.875
 6102SOL    HW119205   3.501   6.636   2.815
 6102SOL    HW219206   3.567   6.779   2.860
 6103SOL     OW19207   6.522   1.910   1.844
 6103SOL    HW119208   6.550   1.833   1.786
 6103SOL    HW219209   6.424   1.902   1.864
 6104SOL     OW19210   6.282   0.934   5.416
 6104SOL    HW119211   6.252   0.928   5.511
 6104SOL    HW219212   6.209   0.975   5.361
 6105SOL     OW19213   3.229   6.389   6.443
 6105SOL    HW119214   3.251   6.470   6.497
 6105SOL    HW219215   3.290   6.314   6.469
 6106SOL     OW19216   1.402   4.093   6.651
 6106SOL    HW119217   1.369   4.016   6.707
 6106SOL    HW219218   1.481   4.063   6.597
 6107SOL     OW19219   3.760   5.423   4.361
 6107SOL    HW119220   3.736   5.327   4.363
 6107SOL    HW219221   3.694   5.476   4.415
 6108SOL     OW19222   1.815   3.238   2.108
 6108SOL    HW119223   1.871   3.204   2.183
 6108SOL    HW219224   1.726   3.193   2.108
 6109SOL     OW19225   5.713   2.278   5.092
 6109SOL    HW119226   5.620   2.261   5.058
 6109SOL    HW219227   5.779   2.239   5.028
 6110SOL     OW19228   3.984   4.252   0.665
 6110SOL    HW119229   3.917   4.326   0.676
 6110SOL    HW219230   4.058   4.282   0.606
 6111SOL     OW19231   1.874   4.030   2.303
 6111SOL    HW119232   1.915   3.939   2.311
 6111SOL    HW219233   1.831   4.055   2.390
 6112SOL     OW19234   4.065   0.062   2.521
 6112SOL    HW119235   4.039   0.113   2.602
 6112SOL    HW219236   4.021   6.995   2.522
 6113SOL     OW19237   2.556   1.049   6.680
 6113SOL    HW119238   2.497   0.977   6.716
 6113SOL    HW219239   2.502   1.131   6.662
 6114SOL     OW19240   5.022   5.455   1.437
 6114SOL    HW119241   5.018   5.510   1.353
 6114SOL    HW219242   5.102   5.483   1.491
 6115SOL     OW19243   5.300   6.789   4.269
 6115SOL    HW119244   5.303   6.871   4.212
 6115SOL    HW219245   5.334   6.711   4.216
 6116SOL     OW19246   3.752   1.222   6.238
 6116SOL    HW119247   3.660   1.186   6.254
 6116SOL    HW219248   3.760   1.312   6.281
 6117SOL     OW19249   1.549   1.266   3.683
 6117SOL    HW119250   1.628   1.285   3.742
 6117SOL    HW219251   1.569   1.295   3.590
 6118SOL     OW19252   6.866   0.951   2.367
 6118SOL    HW119253   6.889   0.916   2.276
 6118SOL    HW219254   6.939   0.927   2.431
 6119SOL     OW19255   0.862   3.899   6.287
 6119SOL    HW119256   0.844   3.916   6.190
 6119SOL    HW219257   0.814   3.967   6.342
 6120SOL     OW19258   3.407   6.486   4.920
 6120SOL    HW119259   3.377   6.444   5.006
 6120SOL    HW219260   3.345   6.561   4.896
 6121SOL     OW19261   0.610   3.428   5.527
 6121SOL    HW119262   0.683   3.365   5.501
 6121SOL    HW219263   0.607   3.505   5.463
 6122SOL     OW19264   3.965   5.115   0.633
 6122SOL    HW119265   3.890   5.083   0.692
 6122SOL    HW219266   4.052   5.101   0.681
 6123SOL     OW19267   5.385   0.028   6.825
 6123SOL    HW119268   5.357   6.977   6.765
 6123SOL    HW219269   5.477   0.010   6.861
 6124SOL     OW19270   2.244   0.088   6.264
 6124SOL    HW119271   2.329   0.037   6.255
 6124SOL    HW219272   2.182   0.039   6.326
 6125SOL     OW19273   1.853   5.138   0.453
 6125SOL    HW119274   1.839   5.206   0.381
 6125SOL    HW219275   1.924   5.169   0.515
 6126SOL     OW19276   0.994   0.020   4.703
 6126SOL    HW119277   1.026   6.989   4.781
 6126SOL    HW219278   1.007   0.117   4.723
 6127SOL     OW19279   3.423   0.324   0.709
 6127SOL    HW119280   3.520   0.303   0.717
 6127SOL    HW219281   3.379   0.313   0.798
 6128SOL     OW19282   5.890   4.076   0.643
 6128SOL    HW119283   5.906   3.981   0.614
 6128SOL    HW219284   5.976   4.116   0.673
 6129SOL     OW19285   6.814   3.339   3.138
 6129SOL    HW119286   6.807   3.252   3.187
 6129SOL    HW219287   6.835   3.412   3.202
 6130SOL     OW19288   6.054   2.489   3.563
 6130SOL    HW119289   6.010   2.579   3.572
 6130SOL    HW219290   6.119   2.491   3.488
 6131SOL     OW19291   0.671   1.478   5.211
 6131SOL    HW119292   0.751   1.431   5.250
 6131SOL    HW219293   0.588   1.438   5.249
 6132SOL     OW19294   5.001   2.568   6.842
 6132SOL    HW119295   5.093   2.607   6.833
 6132SOL    HW219296   4.957   2.565   6.753
 6133SOL     OW19297   1.802   2.964   1.772
 6133SOL    HW119298   1.802   3.062   1.751
 6133SOL    HW219299   1.717   2.940   1.819
 6134SOL     OW19300   4.024   4.634   6.387
 6134SOL    HW119301   4.020   4.606   6.483
 6134SOL    HW219302   4.054   4.557   6.331
 6135SOL     OW19303   0.458   0.875   1.675
 6135SOL    HW119304   0.501   0.794   1.714
 6135SOL    HW219305   0.437   0.859   1.579
 6136SOL     OW19306   1.096   2.845   2.257
 6136SOL    HW119307   1.010   2.816   2.297
 6136SOL    HW219308   1.116   2.789   2.176
 6137SOL     OW19309   6.436   2.964   2.679
 6137SOL    HW119310   6.470   3.040   2.735
 6137SOL    HW219311   6.485   2.961   2.592
 6138SOL     OW19312   3.573   6.326   2.856
 6138SOL    HW119313   3.639   6.251   2.849
 6138SOL    HW219314   3.514   6.312   2.936
 6139SOL     OW19315   1.218   0.028   5.882
 6139SOL    HW119316   1.135   0.006   5.830
 6139SOL    HW219317   1.288   6.982   5.864
 6140SOL     OW19318   0.457   6.168   1.449
 6140SOL    HW119319   0.386   6.100   1.470
 6140SOL    HW219320   0.465   6.232   1.526
 6141SOL     OW19321   0.071   6.660   6.413
 6141SOL    HW119322   0.030   6.571   6.428
 6141SOL    HW219323   0.153   6.651   6.356
 6142SOL     OW19324   1.252   6.236   6.989
 6142SOL    HW119325   1.195   6.295   6.932
 6142SOL    HW219326   1.348   6.264   6.982
 6143SOL     OW19327   6.721   3.711   1.387
 6143SOL    HW119328   6.650   3.643   1.372
 6143SOL    HW219329   6.809   3.665   1.400
 6144SOL     OW19330   5.750   4.720   3.310
 6144SOL    HW119331   5.656   4.708   3.341
 6144SOL    HW219332   5.790   4.631   3.290
 6145SOL     OW19333   4.815   4.959   3.041
 6145SOL    HW119334   4.802   4.994   3.134
 6145SOL    HW219335   4.869   4.874   3.045
 6146SOL     OW19336   3.413   5.673   3.760
 6146SOL    HW119337   3.504   5.708   3.781
 6146SOL    HW219338   3.365   5.649   3.845
 6147SOL     OW19339   2.172   2.145   4.796
 6147SOL    HW119340   2.163   2.045   4.790
 6147SOL    HW219341   2.215   2.169   4.883
 6148SOL     OW19342   5.638   6.371   4.442
 6148SOL    HW119343   5.628   6.438   4.516
 6148SOL    HW219344   5.664   6.418   4.358
 6149SOL     OW19345   2.578   5.833   0.724
 6149SOL    HW119346   2.575   5.764   0.796
 6149SOL    HW219347   2.525   5.801   0.645
 6150SOL     OW19348   4.174   5.679   6.938
 6150SOL    HW119349   4.249   5.623   6.972
 6150SOL    HW219350   4.099   5.679   7.004
 6151SOL     OW19351   5.676   4.193   6.307
 6151SOL    HW119352   5.668   4.218   6.211
 6151SOL    HW219353   5.674   4.093   6.316
 6152SOL     OW19354   6.232   5.301   4.557
 6152SOL    HW119355   6.177   5.300   4.473
 6152SOL    HW219356   6.308   5.238   4.549
 6153SOL     OW19357   5.003   4.795   1.374
 6153SOL    HW119358   4.982   4.818   1.469
 6153SOL    HW219359   5.008   4.879   1.320
 6154SOL     OW19360   5.829   1.713   2.776
 6154SOL    HW119361   5.775   1.730   2.858
 6154SOL    HW219362   5.774   1.729   2.695
 6155SOL     OW19363   1.858   1.534   4.105
 6155SOL    HW119364   1.761   1.517   4.126
 6155SOL    HW219365   1.866   1.577   4.015
 6156SOL     OW19366   3.894   4.529   0.972
 6156SOL    HW119367   3.898   4.430   0.975
 6156SOL    HW219368   3.813   4.561   1.021
 6157SOL     OW19369   0.376   0.850   4.950
 6157SOL    HW119370   0.392   0.805   5.037
 6157SOL    HW219371   0.321   0.790   4.891
 6158SOL     OW19372   3.383   2.011   5.658
 6158SOL    HW119373   3.330   2.086   5.696
 6158SOL    HW219374   3.389   2.021   5.559
 6159SOL     OW19375   5.025   2.854   2.284
 6159SOL    HW119376   5.044   2.942   2.241
 6159SOL    HW219377   4.955   2.865   2.354
 6160SOL     OW19378   4.990   1.457   6.163
 6160SOL    HW119379   4.979   1.554   6.138
 6160SOL    HW219380   4.899   1.416   6.174
 6161SOL     OW19381   4.565   1.652   5.387
 6161SOL    HW119382   4.600   1.659   5.294
 6161SOL    HW219383   4.475   1.696   5.393
 6162SOL     OW19384   0.838   6.157   3.349
 6162SOL    HW119385   0.778   6.187   3.274
 6162SOL    HW219386   0.909   6.097   3.312
 6163SOL     OW19387   5.975   0.053   0.890
 6163SOL    HW119388   6.004   0.119   0.959
 6163SOL    HW219389   5.988   0.092   0.799
 6164SOL     OW19390   4.135   3.752   2.143
 6164SOL    HW119391   4.152   3.671   2.199
 6164SOL    HW219392   4.217   3.809   2.141
 6165SOL     OW19393   4.520   1.457   0.086
 6165SOL    HW119394   4.507   1.379   0.025
 6165SOL    HW219395   4.484   1.434   0.177
 6166SOL     OW19396   5.275   1.194   6.374
 6166SOL    HW119397   5.323   1.122   6.424
 6166SOL    HW219398   5.254   1.270   6.436
 6167SOL     OW19399   1.345   5.292   3.557
 6167SOL    HW119400   1.404   5.234   3.499
 6167SOL    HW219401   1.340   5.383   3.517
 6168SOL     OW19402   1.053   4.316   1.839
 6168SOL    HW119403   1.002   4.242   1.795
 6168SOL    HW219404   0.994   4.364   1.903
 6169SOL     OW19405   1.117   2.058   1.120
 6169SOL    HW119406   1.189   1.989   1.109
 6169SOL    HW219407   1.129   2.105   1.208
 6170SOL     OW19408   0.756   3.943   5.593
 6170SOL    HW119409   0.744   3.854   5.637
 6170SOL    HW219410   0.816   3.934   5.514
 6171SOL     OW19411   0.788   2.732   0.936
 6171SOL    HW119412   0.845   2.748   1.016
 6171SOL    HW219413   0.845   2.702   0.859
 6172SOL     OW19414   1.938   2.794   2.748
 6172SOL    HW119415   1.970   2.772   2.840
 6172SOL    HW219416   1.848   2.753   2.733
 6173SOL     OW19417   6.708   5.593   1.424
 6173SOL    HW119418   6.691   5.622   1.519
 6173SOL    HW219419   6.663   5.505   1.408
 6174SOL     OW19420   5.521   5.062   3.028
 6174SOL    HW119421   5.508   4.987   2.963
 6174SOL    HW219422   5.597   5.041   3.089
 6175SOL     OW19423   4.253   0.564   3.635
 6175SOL    HW119424   4.305   0.569   3.549
 6175SOL    HW219425   4.233   0.469   3.657
 6176SOL     OW19426   4.934   4.072   6.188
 6176SOL    HW119427   4.932   4.119   6.099
 6176SOL    HW219428   4.878   3.990   6.183
 6177SOL     OW19429   5.542   1.307   0.931
 6177SOL    HW119430   5.573   1.286   1.024
 6177SOL    HW219431   5.615   1.284   0.866
 6178SOL     OW19432   4.747   4.825   2.529
 6178SOL    HW119433   4.774   4.840   2.624
 6178SOL    HW219434   4.651   4.795   2.526
 6179SOL     OW19435   6.207   4.496   3.191
 6179SOL    HW119436   6.249   4.580   3.225
 6179SOL    HW219437   6.128   4.519   3.134
 6180SOL     OW19438   3.465   4.035   0.173
 6180SOL    HW119439   3.470   3.940   0.142
 6180SOL    HW219440   3.419   4.090   0.104
 6181SOL     OW19441   4.476   6.610   1.050
 6181SOL    HW119442   4.389   6.564   1.037
 6181SOL    HW219443   4.460   6.707   1.070
 6182SOL     OW19444   5.457   3.830   5.394
 6182SOL    HW119445   5.445   3.789   5.304
 6182SOL    HW219446   5.404   3.915   5.399
 6183SOL     OW19447   1.100   2.216   3.151
 6183SOL    HW119448   1.107   2.300   3.204
 6183SOL    HW219449   1.153   2.144   3.196
 6184SOL     OW19450   2.325   0.107   6.553
 6184SOL    HW119451   2.246   0.059   6.514
 6184SOL    HW219452   2.313   0.206   6.539
 6185SOL     OW19453   0.728   3.674   5.680
 6185SOL    HW119454   0.799   3.614   5.717
 6185SOL    HW219455   0.657   3.618   5.637
 6186SOL     OW19456   0.169   0.373   0.220
 6186SOL    HW119457   0.217   0.293   0.183
 6186SOL    HW219458   0.191   0.453   0.164
 6187SOL     OW19459   5.019   4.228   3.841
 6187SOL    HW119460   5.053   4.259   3.930
 6187SOL    HW219461   4.966   4.145   3.852
 6188SOL     OW19462   2.102   1.046   0.125
 6188SOL    HW119463   2.191   1.066   0.166
 6188SOL    HW219464   2.097   1.085   0.033
 6189SOL     OW19465   4.613   4.508   2.712
 6189SOL    HW119466   4.596   4.581   2.646
 6189SOL    HW219467   4.582   4.421   2.673
 6190SOL     OW19468   0.945   4.249   5.243
 6190SOL    HW119469   0.994   4.162   5.238
 6190SOL    HW219470   0.971   4.297   5.326
 6191SOL     OW19471   3.000   1.768   0.090
 6191SOL    HW119472   2.958   1.844   0.138
 6191SOL    HW219473   2.930   1.703   0.061
 6192SOL     OW19474   3.354   2.736   5.483
 6192SOL    HW119475   3.291   2.686   5.543
 6192SOL    HW219476   3.301   2.789   5.417
 6193SOL     OW19477   4.778   0.190   1.839
 6193SOL    HW119478   4.764   0.271   1.895
 6193SOL    HW219479   4.768   0.213   1.742
 6194SOL     OW19480   1.734   0.248   1.221
 6194SOL    HW119481   1.680   0.313   1.167
 6194SOL    HW219482   1.686   0.161   1.226
 6195SOL     OW19483   4.050   6.138   5.608
 6195SOL    HW119484   4.080   6.151   5.702
 6195SOL    HW219485   3.962   6.184   5.595
 6196SOL     OW19486   5.383   3.205   1.604
 6196SOL    HW119487   5.321   3.201   1.682
 6196SOL    HW219488   5.364   3.130   1.542
 6197SOL     OW19489   3.374   4.780   0.849
 6197SOL    HW119490   3.424   4.700   0.882
 6197SOL    HW219491   3.430   4.862   0.860
 6198SOL     OW19492   4.211   6.723   1.263
 6198SOL    HW119493   4.285   6.666   1.296
 6198SOL    HW219494   4.217   6.814   1.305
 6199SOL     OW19495   0.661   1.324   0.644
 6199SOL    HW119496   0.750   1.280   0.651
 6199SOL    HW219497   0.656   1.375   0.559
 6200SOL     OW19498   1.179   1.129   5.645
 6200SOL    HW119499   1.237   1.199   5.603
 6200SOL    HW219500   1.236   1.057   5.684
 6201SOL     OW19501   0.416   3.946   4.986
 6201SOL    HW119502   0.320   3.926   4.968
 6201SOL    HW219503   0.466   3.949   4.899
 6202SOL     OW19504   4.148   1.420   2.155
 6202SOL    HW119505   4.057   1.408   2.195
 6202SOL    HW219506   4.142   1.420   2.055
 6203SOL     OW19507   6.707   5.617   2.466
 6203SOL    HW119508   6.761   5.572   2.537
 6203SOL    HW219509   6.686   5.711   2.493
 6204SOL     OW19510   0.138   5.177   4.331
 6204SOL    HW119511   0.203   5.250   4.355
 6204SOL    HW219512   0.104   5.133   4.414
 6205SOL     OW19513   6.346   5.611   0.034
 6205SOL    HW119514   6.285   5.539   0.067
 6205SOL    HW219515   6.441   5.580   0.039
 6206SOL     OW19516   5.574   1.612   3.380
 6206SOL    HW119517   5.564   1.561   3.295
 6206SOL    HW219518   5.621   1.698   3.362
 6207SOL     OW19519   0.565   5.131   5.181
 6207SOL    HW119520   0.591   5.227   5.189
 6207SOL    HW219521   0.635   5.073   5.222
 6208SOL     OW19522   5.269   2.161   5.493
 6208SOL    HW119523   5.251   2.256   5.466
 6208SOL    HW219524   5.327   2.117   5.425
 6209SOL     OW19525   4.009   5.944   6.773
 6209SOL    HW119526   4.098   5.901   6.756
 6209SOL    HW219527   3.971   5.978   6.687
 6210SOL     OW19528   5.534   3.710   4.208
 6210SOL    HW119529   5.632   3.694   4.197
 6210SOL    HW219530   5.519   3.803   4.242
 6211SOL     OW19531   2.991   6.251   5.637
 6211SOL    HW119532   3.055   6.282   5.707
 6211SOL    HW219533   3.016   6.292   5.549
 6212SOL     OW19534   2.588   5.018   4.553
 6212SOL    HW119535   2.580   5.029   4.454
 6212SOL    HW219536   2.502   5.047   4.596
 6213SOL     OW19537   6.631   0.832   0.497
 6213SOL    HW119538   6.701   0.882   0.549
 6213SOL    HW219539   6.570   0.898   0.453
 6214SOL     OW19540   4.351   5.288   3.941
 6214SOL    HW119541   4.444   5.274   3.974
 6214SOL    HW219542   4.341   5.242   3.852
 6215SOL     OW19543   4.364   2.149   0.045
 6215SOL    HW119544   4.287   2.141   0.108
 6215SOL    HW219545   4.374   2.244   0.016
 6216SOL     OW19546   6.586   1.183   2.133
 6216SOL    HW119547   6.561   1.192   2.037
 6216SOL    HW219548   6.533   1.249   2.188
 6217SOL     OW19549   0.644   3.595   2.385
 6217SOL    HW119550   0.552   3.563   2.406
 6217SOL    HW219551   0.639   3.679   2.330
 6218SOL     OW19552   3.928   6.039   0.070
 6218SOL    HW119553   3.901   5.968   0.135
 6218SOL    HW219554   3.964   5.997   7.010
 6219SOL     OW19555   1.628   1.960   4.649
 6219SOL    HW119556   1.645   2.058   4.652
 6219SOL    HW219557   1.713   1.912   4.626
 6220SOL     OW19558   2.681   1.358   4.479
 6220SOL    HW119559   2.618   1.350   4.402
 6220SOL    HW219560   2.745   1.433   4.462
 6221SOL     OW19561   5.549   5.881   0.469
 6221SOL    HW119562   5.610   5.882   0.390
 6221SOL    HW219563   5.594   5.834   0.545
 6222SOL     OW19564   0.965   6.449   1.716
 6222SOL    HW119565   0.949   6.418   1.623
 6222SOL    HW219566   1.022   6.531   1.715
 6223SOL     OW19567   1.555   4.942   3.771
 6223SOL    HW119568   1.579   4.884   3.848
 6223SOL    HW219569   1.615   4.922   3.694
 6224SOL     OW19570   3.511   1.459   6.006
 6224SOL    HW119571   3.584   1.512   6.048
 6224SOL    HW219572   3.446   1.429   6.076
 6225SOL     OW19573   4.170   3.358   6.311
 6225SOL    HW119574   4.244   3.362   6.378
 6225SOL    HW219575   4.208   3.352   6.219
 6226SOL     OW19576   0.240   1.655   5.653
 6226SOL    HW119577   0.336   1.662   5.626
 6226SOL    HW219578   0.206   1.564   5.629
 6227SOL     OW19579   3.374   5.486   5.175
 6227SOL    HW119580   3.467   5.516   5.150
 6227SOL    HW219581   3.350   5.405   5.122
 6228SOL     OW19582   0.918   3.556   2.309
 6228SOL    HW119583   0.963   3.473   2.275
 6228SOL    HW219584   0.823   3.535   2.333
 6229SOL     OW19585   1.287   1.830   3.805
 6229SOL    HW119586   1.214   1.897   3.791
 6229SOL    HW219587   1.259   1.742   3.765
 6230SOL     OW19588   1.073   1.991   3.744
 6230SOL    HW119589   1.065   2.087   3.767
 6230SOL    HW219590   0.982   1.949   3.740
 6231SOL     OW19591   6.315   6.605   0.539
 6231SOL    HW119592   6.225   6.561   0.547
 6231SOL    HW219593   6.345   6.634   0.630
 6232SOL     OW19594   6.297   1.215   1.018
 6232SOL    HW119595   6.256   1.125   1.035
 6232SOL    HW219596   6.340   1.215   0.928
 6233SOL     OW19597   6.494   1.890   1.380
 6233SOL    HW119598   6.452   1.799   1.376
 6233SOL    HW219599   6.590   1.882   1.406
 6234SOL     OW19600   6.972   1.026   5.397
 6234SOL    HW119601   6.991   1.051   5.302
 6234SOL    HW219602   0.035   1.013   5.446
 6235SOL     OW19603   0.272   0.035   1.134
 6235SOL    HW119604   0.237   6.967   1.155
 6235SOL    HW219605   0.249   0.097   1.209
 6236SOL     OW19606   0.790   4.027   1.245
 6236SOL    HW119607   0.874   3.979   1.271
 6236SOL    HW219608   0.777   4.020   1.146
 6237SOL     OW19609   3.941   0.252   6.189
 6237SOL    HW119610   3.977   0.254   6.096
 6237SOL    HW219611   3.843   0.271   6.187
 6238SOL     OW19612   4.175   5.176   2.726
 6238SOL    HW119613   4.076   5.163   2.737
 6238SOL    HW219614   4.218   5.180   2.816
 6239SOL     OW19615   3.151   0.949   1.435
 6239SOL    HW119616   3.203   0.945   1.520
 6239SOL    HW219617   3.211   0.926   1.358
 6240SOL     OW19618   2.538   3.983   5.573
 6240SOL    HW119619   2.479   3.911   5.537
 6240SOL    HW219620   2.612   4.001   5.509
 6241SOL     OW19621   3.060   0.220   1.687
 6241SOL    HW119622   3.043   0.123   1.671
 6241SOL    HW219623   3.049   0.270   1.601
 6242SOL     OW19624   4.117   0.561   4.054
 6242SOL    HW119625   4.152   0.599   4.139
 6242SOL    HW219626   4.135   0.624   3.979
 6243SOL     OW19627   6.512   6.798   5.312
 6243SOL    HW119628   6.610   6.815   5.312
 6243SOL    HW219629   6.473   6.825   5.224
 6244SOL     OW19630   5.861   2.443   2.891
 6244SOL    HW119631   5.812   2.369   2.844
 6244SOL    HW219632   5.951   2.455   2.850
 6245SOL     OW19633   1.588   3.682   0.246
 6245SOL    HW119634   1.594   3.593   0.202
 6245SOL    HW219635   1.607   3.754   0.179
 6246SOL     OW19636   1.357   2.162   5.866
 6246SOL    HW119637   1.324   2.071   5.840
 6246SOL    HW219638   1.438   2.184   5.813
 6247SOL     OW19639   0.552   5.528   3.969
 6247SOL    HW119640   0.509   5.439   3.955
 6247SOL    HW219641   0.530   5.562   4.060
 6248SOL     OW19642   3.389   3.223   0.061
 6248SOL    HW119643   3.300   3.178   0.057
 6248SOL    HW219644   3.458   3.164   0.018
 6249SOL     OW19645   0.017   4.288   0.541
 6249SOL    HW119646   0.108   4.290   0.582
 6249SOL    HW219647   7.010   4.193   0.532
 6250SOL     OW19648   6.826   0.571   0.689
 6250SOL    HW119649   6.813   0.614   0.599
 6250SOL    HW219650   6.794   0.477   0.686
 6251SOL     OW19651   3.786   6.276   5.613
 6251SOL    HW119652   3.799   6.370   5.646
 6251SOL    HW219653   3.689   6.253   5.617
 6252SOL     OW19654   2.254   6.111   5.357
 6252SOL    HW119655   2.213   6.197   5.327
 6252SOL    HW219656   2.262   6.110   5.457
 6253SOL     OW19657   2.670   5.211   4.158
 6253SOL    HW119658   2.754   5.202   4.212
 6253SOL    HW219659   2.613   5.130   4.171
 6254SOL     OW19660   5.639   1.354   1.662
 6254SOL    HW119661   5.561   1.410   1.633
 6254SOL    HW219662   5.690   1.325   1.581
 6255SOL     OW19663   2.804   0.628   0.526
 6255SOL    HW119664   2.785   0.599   0.619
 6255SOL    HW219665   2.903   0.625   0.510
 6256SOL     OW19666   3.516   5.291   1.520
 6256SOL    HW119667   3.582   5.347   1.470
 6256SOL    HW219668   3.556   5.200   1.536
 6257SOL     OW19669   4.890   2.254   0.863
 6257SOL    HW119670   4.856   2.210   0.946
 6257SOL    HW219671   4.815   2.302   0.818
 6258SOL     OW19672   2.767   0.865   3.608
 6258SOL    HW119673   2.843   0.848   3.547
 6258SOL    HW219674   2.722   0.779   3.631
 6259SOL     OW19675   1.727   2.684   6.925
 6259SOL    HW119676   1.788   2.609   6.949
 6259SOL    HW219677   1.771   2.771   6.945
 6260SOL     OW19678   3.662   5.943   0.637
 6260SOL    HW119679   3.711   5.961   0.551
 6260SOL    HW219680   3.601   6.020   0.657
 6261SOL     OW19681   3.867   1.272   6.882
 6261SOL    HW119682   3.779   1.238   6.916
 6261SOL    HW219683   3.899   1.346   6.941
 6262SOL     OW19684   2.418   6.058   1.615
 6262SOL    HW119685   2.323   6.082   1.597
 6262SOL    HW219686   2.436   6.063   1.713
 6263SOL     OW19687   0.134   6.843   4.122
 6263SOL    HW119688   0.042   6.857   4.157
 6263SOL    HW219689   0.192   6.805   4.194
 6264SOL     OW19690   1.995   0.353   1.707
 6264SOL    HW119691   2.035   0.427   1.653
 6264SOL    HW219692   1.905   0.380   1.741
 6265SOL     OW19693   3.783   3.586   0.175
 6265SOL    HW119694   3.721   3.509   0.157
 6265SOL    HW219695   3.824   3.616   0.089
 6266SOL     OW19696   4.157   1.193   3.680
 6266SOL    HW119697   4.151   1.125   3.754
 6266SOL    HW219698   4.226   1.261   3.704
 6267SOL     OW19699   2.219   7.009   5.639
 6267SOL    HW119700   2.125   6.976   5.628
 6267SOL    HW219701   2.222   0.084   5.621
 6268SOL     OW19702   2.701   0.619   3.099
 6268SOL    HW119703   2.674   0.697   3.042
 6268SOL    HW219704   2.619   0.579   3.141
 6269SOL     OW19705   0.168   6.874   1.966
 6269SOL    HW119706   0.172   6.885   1.867
 6269SOL    HW219707   0.185   6.962   2.010
 6270SOL     OW19708   1.370   0.328   6.106
 6270SOL    HW119709   1.435   0.360   6.175
 6270SOL    HW219710   1.288   0.385   6.108
 6271SOL     OW19711   6.282   2.623   6.165
 6271SOL    HW119712   6.236   2.710   6.182
 6271SOL    HW219713   6.276   2.601   6.068
 6272SOL     OW19714   0.803   2.668   0.276
 6272SOL    HW119715   0.872   2.664   0.348
 6272SOL    HW219716   0.839   2.719   0.198
 6273SOL     OW19717   0.908   6.399   2.747
 6273SOL    HW119718   0.903   6.498   2.759
 6273SOL    HW219719   0.900   6.377   2.650
 6274SOL     OW19720   3.375   6.146   5.498
 6274SOL    HW119721   3.422   6.071   5.451
 6274SOL    HW219722   3.278   6.126   5.504
 6275SOL     OW19723   2.198   6.700   6.495
 6275SOL    HW119724   2.141   6.779   6.517
 6275SOL    HW219725   2.293   6.730   6.484
 6276SOL     OW19726   2.093   4.826   3.889
 6276SOL    HW119727   2.024   4.765   3.849
 6276SOL    HW219728   2.164   4.846   3.821
 6277SOL     OW19729   5.039   2.908   0.827
 6277SOL    HW119730   5.069   3.003   0.822
 6277SOL    HW219731   4.980   2.896   0.907
 6278SOL     OW19732   5.288   6.981   4.710
 6278SOL    HW119733   5.228   6.991   4.790
 6278SOL    HW219734   5.240   7.014   4.629
 6279SOL     OW19735   4.029   6.575   0.026
 6279SOL    HW119736   4.095   6.508   7.017
 6279SOL    HW219737   3.946   6.529   0.055
 6280SOL     OW19738   0.871   1.548   5.833
 6280SOL    HW119739   0.799   1.492   5.793
 6280SOL    HW219740   0.952   1.492   5.849
 6281SOL     OW19741   0.437   4.994   4.269
 6281SOL    HW119742   0.484   4.937   4.201
 6281SOL    HW219743   0.431   5.088   4.235
 6282SOL     OW19744   0.074   5.330   5.901
 6282SOL    HW119745   0.074   5.419   5.946
 6282SOL    HW219746   0.038   5.261   5.964
 6283SOL     OW19747   6.992   3.746   4.546
 6283SOL    HW119748   0.014   3.835   4.541
 6283SOL    HW219749   0.028   3.681   4.593
 6284SOL     OW19750   1.432   4.849   4.946
 6284SOL    HW119751   1.475   4.940   4.946
 6284SOL    HW219752   1.383   4.836   4.860
 6285SOL     OW19753   0.060   3.385   4.342
 6285SOL    HW119754   0.052   3.413   4.438
 6285SOL    HW219755   0.019   3.294   4.330
 6286SOL     OW19756   6.240   2.040   4.152
 6286SOL    HW119757   6.334   2.006   4.161
 6286SOL    HW219758   6.234   2.132   4.190
 6287SOL     OW19759   3.338   4.931   4.720
 6287SOL    HW119760   3.348   5.012   4.778
 6287SOL    HW219761   3.394   4.943   4.638
 6288SOL     OW19762   4.938   4.552   2.222
 6288SOL    HW119763   4.988   4.468   2.244
 6288SOL    HW219764   4.996   4.611   2.165
 6289SOL     OW19765   2.430   4.860   0.348
 6289SOL    HW119766   2.490   4.849   0.427
 6289SOL    HW219767   2.480   4.835   0.265
 6290SOL     OW19768   6.320   5.121   5.657
 6290SOL    HW119769   6.367   5.188   5.600
 6290SOL    HW219770   6.243   5.164   5.704
 6291SOL     OW19771   4.052   3.707   3.871
 6291SOL    HW119772   4.086   3.676   3.782
 6291SOL    HW219773   4.036   3.628   3.929
 6292SOL     OW19774   1.848   1.702   4.873
 6292SOL    HW119775   1.873   1.754   4.791
 6292SOL    HW219776   1.782   1.754   4.927
 6293SOL     OW19777   4.584   1.268   1.159
 6293SOL    HW119778   4.651   1.241   1.090
 6293SOL    HW219779   4.517   1.195   1.171
 6294SOL     OW19780   3.581   6.619   4.226
 6294SOL    HW119781   3.511   6.672   4.179
 6294SOL    HW219782   3.649   6.587   4.160
 6295SOL     OW19783   5.264   4.566   4.827
 6295SOL    HW119784   5.319   4.483   4.835
 6295SOL    HW219785   5.190   4.552   4.761
 6296SOL     OW19786   0.222   5.906   5.905
 6296SOL    HW119787   0.140   5.940   5.860
 6296SOL    HW219788   0.295   5.893   5.837
 6297SOL     OW19789   5.580   0.645   5.204
 6297SOL    HW119790   5.638   0.689   5.136
 6297SOL    HW219791   5.503   0.706   5.226
 6298SOL     OW19792   1.271   3.600   0.242
 6298SOL    HW119793   1.218   3.591   0.326
 6298SOL    HW219794   1.274   3.696   0.215
 6299SOL     OW19795   6.190   2.184   1.666
 6299SOL    HW119796   6.176   2.202   1.764
 6299SOL    HW219797   6.264   2.241   1.632
 6300SOL     OW19798   0.258   1.649   6.973
 6300SOL    HW119799   0.229   1.635   0.044
 6300SOL    HW219800   0.358   1.639   6.967
 6301SOL     OW19801   3.935   0.166   0.010
 6301SOL    HW119802   3.843   0.131   7.015
 6301SOL    HW219803   3.991   0.158   6.951
 6302SOL     OW19804   1.408   0.784   3.640
 6302SOL    HW119805   1.419   0.700   3.693
 6302SOL    HW219806   1.491   0.803   3.588
 6303SOL     OW19807   1.096   1.030   4.207
 6303SOL    HW119808   1.190   1.037   4.242
 6303SOL    HW219809   1.097   1.023   4.108
 6304SOL     OW19810   2.490   1.091   1.328
 6304SOL    HW119811   2.570   1.137   1.367
 6304SOL    HW219812   2.408   1.140   1.356
 6305SOL     OW19813   6.036   6.781   0.913
 6305SOL    HW119814   5.999   6.869   0.883
 6305SOL    HW219815   6.129   6.771   0.878
 6306SOL     OW19816   0.301   4.165   4.715
 6306SOL    HW119817   0.342   4.217   4.790
 6306SOL    HW219818   0.372   4.114   4.666
 6307SOL     OW19819   3.813   4.126   4.559
 6307SOL    HW119820   3.834   4.208   4.507
 6307SOL    HW219821   3.888   4.060   4.549
 6308SOL     OW19822   2.175   2.274   4.519
 6308SOL    HW119823   2.263   2.256   4.476
 6308SOL    HW219824   2.165   2.218   4.601
 6309SOL     OW19825   5.931   4.863   4.863
 6309SOL    HW119826   5.958   4.852   4.959
 6309SOL    HW219827   5.963   4.952   4.830
 6310SOL     OW19828   2.172   5.790   2.961
 6310SOL    HW119829   2.205   5.777   3.055
 6310SOL    HW219830   2.131   5.881   2.953
 6311SOL     OW19831   5.552   1.577   5.612
 6311SOL    HW119832   5.463   1.539   5.637
 6311SOL    HW219833   5.598   1.610   5.694
 6312SOL     OW19834   7.001   6.649   5.546
 6312SOL    HW119835   0.039   6.663   5.468
 6312SOL    HW219836   6.913   6.617   5.514
 6313SOL     OW19837   0.085   6.162   3.803
 6313SOL    HW119838   0.001   6.110   3.787
 6313SOL    HW219839   0.153   6.103   3.845
 6314SOL     OW19840   4.030   0.269   1.520
 6314SOL    HW119841   3.949   0.293   1.466
 6314SOL    HW219842   4.007   0.272   1.617
 6315SOL     OW19843   2.657   2.252   5.565
 6315SOL    HW119844   2.628   2.305   5.644
 6315SOL    HW219845   2.755   2.265   5.550
 6316SOL     OW19846   5.343   1.989   6.523
 6316SOL    HW119847   5.440   2.010   6.535
 6316SOL    HW219848   5.303   2.052   6.456
 6317SOL     OW19849   4.828   5.052   1.639
 6317SOL    HW119850   4.735   5.080   1.619
 6317SOL    HW219851   4.890   5.087   1.568
 6318SOL     OW19852   4.338   6.999   5.787
 6318SOL    HW119853   4.414   6.956   5.837
 6318SOL    HW219854   4.344   0.075   5.797
 6319SOL     OW19855   6.466   2.017   4.977
 6319SOL    HW119856   6.493   2.077   5.053
 6319SOL    HW219857   6.548   1.982   4.931
 6320SOL     OW19858   6.397   6.358   5.095
 6320SOL    HW119859   6.343   6.307   5.162
 6320SOL    HW219860   6.338   6.423   5.047
 6321SOL     OW19861   3.935   3.997   0.742
 6321SOL    HW119862   4.026   3.983   0.701
 6321SOL    HW219863   3.908   4.092   0.732
 6322SOL     OW19864   1.588   2.796   0.690
 6322SOL    HW119865   1.671   2.831   0.735
 6322SOL    HW219866   1.509   2.811   0.750
 6323SOL     OW19867   2.402   2.300   1.505
 6323SOL    HW119868   2.471   2.316   1.434
 6323SOL    HW219869   2.341   2.227   1.477
 6324SOL     OW19870   4.780   1.198   0.920
 6324SOL    HW119871   4.861   1.226   0.972
 6324SOL    HW219872   4.745   1.112   0.957
 6325SOL     OW19873   1.724   3.030   2.698
 6325SOL    HW119874   1.625   3.021   2.687
 6325SOL    HW219875   1.765   2.939   2.705
 6326SOL     OW19876   5.259   5.078   1.344
 6326SOL    HW119877   5.335   5.141   1.332
 6326SOL    HW219878   5.293   4.985   1.355
 6327SOL     OW19879   0.930   1.079   5.081
 6327SOL    HW119880   0.997   1.153   5.090
 6327SOL    HW219881   0.866   1.083   5.158
 6328SOL     OW19882   3.351   3.293   0.325
 6328SOL    HW119883   3.351   3.264   0.229
 6328SOL    HW219884   3.302   3.379   0.334
 6329SOL     OW19885   1.792   2.716   3.181
 6329SOL    HW119886   1.808   2.768   3.265
 6329SOL    HW219887   1.733   2.768   3.120
 6330SOL     OW19888   5.727   0.101   1.573
 6330SOL    HW119889   5.781   0.017   1.572
 6330SOL    HW219890   5.658   0.096   1.500
 6331SOL     OW19891   6.262   2.722   5.202
 6331SOL    HW119892   6.333   2.744   5.135
 6331SOL    HW219893   6.173   2.718   5.156
 6332SOL     OW19894   0.229   2.680   1.222
 6332SOL    HW119895   0.217   2.641   1.131
 6332SOL    HW219896   0.239   2.780   1.214
 6333SOL     OW19897   4.640   6.755   5.081
 6333SOL    HW119898   4.629   6.658   5.060
 6333SOL    HW219899   4.551   6.799   5.089
 6334SOL     OW19900   2.556   1.150   2.468
 6334SOL    HW119901   2.597   1.173   2.556
 6334SOL    HW219902   2.542   1.234   2.415
 6335SOL     OW19903   4.144   0.971   0.575
 6335SOL    HW119904   4.177   0.961   0.481
 6335SOL    HW219905   4.127   0.881   0.614
 6336SOL     OW19906   1.373   2.571   6.958
 6336SOL    HW119907   1.405   2.613   0.019
 6336SOL    HW219908   1.421   2.611   6.880
 6337SOL     OW19909   4.776   5.129   5.039
 6337SOL    HW119910   4.709   5.064   5.074
 6337SOL    HW219911   4.740   5.174   4.957
 6338SOL     OW19912   3.150   2.086   3.955
 6338SOL    HW119913   3.233   2.065   4.006
 6338SOL    HW219914   3.088   2.140   4.012
 6339SOL     OW19915   0.991   3.940   3.724
 6339SOL    HW119916   0.999   4.035   3.694
 6339SOL    HW219917   0.961   3.884   3.647
 6340SOL     OW19918   1.408   4.931   1.680
 6340SOL    HW119919   1.491   4.970   1.641
 6340SOL    HW219920   1.337   4.924   1.610
 6341SOL     OW19921   6.654   4.186   4.563
 6341SOL    HW119922   6.557   4.202   4.577
 6341SOL    HW219923   6.678   4.095   4.599
 6342SOL     OW19924   2.683   0.892   1.855
 6342SOL    HW119925   2.752   0.951   1.897
 6342SOL    HW219926   2.726   0.808   1.823
 6343SOL     OW19927   4.601   1.440   5.945
 6343SOL    HW119928   4.569   1.535   5.935
 6343SOL    HW219929   4.524   1.377   5.935
 6344SOL     OW19930   5.043   2.090   4.545
 6344SOL    HW119931   5.101   2.055   4.471
 6344SOL    HW219932   5.064   2.187   4.560
 6345SOL     OW19933   5.517   2.924   2.706
 6345SOL    HW119934   5.600   2.912   2.761
 6345SOL    HW219935   5.441   2.875   2.750
 6346SOL     OW19936   6.963   5.620   4.122
 6346SOL    HW119937   6.945   5.716   4.098
 6346SOL    HW219938   6.920   5.560   4.056
 6347SOL     OW19939   2.187   0.842   1.253
 6347SOL    HW119940   2.269   0.834   1.197
 6347SOL    HW219941   2.116   0.889   1.200
 6348SOL     OW19942   1.397   2.988   5.797
 6348SOL    HW119943   1.465   2.939   5.853
 6348SOL    HW219944   1.309   2.988   5.844
 6349SOL     OW19945   2.036   0.475   1.246
 6349SOL    HW119946   2.081   0.542   1.305
 6349SOL    HW219947   2.080   0.386   1.257
 6350SOL     OW19948   0.770   4.998   4.052
 6350SOL    HW119949   0.773   5.069   3.981
 6350SOL    HW219950   0.806   5.036   4.138
 6351SOL     OW19951   5.912   3.360   3.662
 6351SOL    HW119952   5.866   3.348   3.574
 6351SOL    HW219953   6.005   3.325   3.656
 6352SOL     OW19954   3.208   6.672   4.862
 6352SOL    HW119955   3.153   6.741   4.908
 6352SOL    HW219956   3.289   6.715   4.822
 6353SOL     OW19957   1.230   6.600   5.977
 6353SOL    HW119958   1.308   6.544   6.003
 6353SOL    HW219959   1.153   6.581   6.038
 6354SOL     OW19960   2.927   5.046   3.312
 6354SOL    HW119961   2.922   4.963   3.257
 6354SOL    HW219962   3.007   5.042   3.372
 6355SOL     OW19963   1.482   5.313   6.710
 6355SOL    HW119964   1.512   5.398   6.668
 6355SOL    HW219965   1.386   5.321   6.737
 6356SOL     OW19966   4.895   6.017   1.751
 6356SOL    HW119967   4.945   6.010   1.665
 6356SOL    HW219968   4.934   6.090   1.807
 6357SOL     OW19969   6.475   3.756   2.713
 6357SOL    HW119970   6.408   3.708   2.770
 6357SOL    HW219971   6.427   3.818   2.650
 6358SOL     OW19972   0.219   2.099   6.768
 6358SOL    HW119973   0.186   2.043   6.692
 6358SOL    HW219974   0.210   2.196   6.745
 6359SOL     OW19975   6.391   0.705   0.504
 6359SOL    HW119976   6.483   0.739   0.520
 6359SOL    HW219977   6.357   0.742   0.417
 6360SOL     OW19978   1.273   4.084   4.543
 6360SOL    HW119979   1.251   4.169   4.496
 6360SOL    HW219980   1.332   4.103   4.621
 6361SOL     OW19981   1.353   6.781   0.851
 6361SOL    HW119982   1.263   6.739   0.834
 6361SOL    HW219983   1.395   6.739   0.931
 6362SOL     OW19984   0.254   5.757   0.208
 6362SOL    HW119985   0.183   5.819   0.175
 6362SOL    HW219986   0.218   5.664   0.213
 6363SOL     OW19987   2.310   5.458   3.552
 6363SOL    HW119988   2.307   5.379   3.613
 6363SOL    HW219989   2.231   5.517   3.570
 6364SOL     OW19990   2.449   1.750   5.620
 6364SOL    HW119991   2.435   1.815   5.545
 6364SOL    HW219992   2.430   1.796   5.707
 6365SOL     OW19993   5.337   6.958   4.073
 6365SOL    HW119994   5.274   7.011   4.015
 6365SOL    HW219995   5.366   7.015   4.150
 6366SOL     OW19996   0.807   5.664   5.260
 6366SOL    HW119997   0.767   5.691   5.348
 6366SOL    HW219998   0.758   5.585   5.224
 6367SOL     OW19999   4.069   1.232   4.716
 6367SOL    HW120000   4.104   1.324   4.733
 6367SOL    HW220001   4.032   1.227   4.623
 6368SOL     OW20002   3.583   4.930   3.466
 6368SOL    HW120003   3.575   4.951   3.564
 6368SOL    HW220004   3.496   4.896   3.432
 6369SOL     OW20005   2.574   6.855   4.331
 6369SOL    HW120006   2.501   6.792   4.304
 6369SOL    HW220007   2.540   6.949   4.329
 6370SOL     OW20008   0.210   2.763   3.393
 6370SOL    HW120009   0.133   2.827   3.404
 6370SOL    HW220010   0.276   2.802   3.328
 6371SOL     OW20011   4.993   4.757   3.120
 6371SOL    HW120012   5.033   4.738   3.030
 6371SOL    HW220013   5.050   4.823   3.168
 6372SOL     OW20014   2.020   1.310   1.326
 6372SOL    HW120015   1.937   1.296   1.272
 6372SOL    HW220016   2.062   1.397   1.300
 6373SOL     OW20017   4.332   4.646   2.374
 6373SOL    HW120018   4.232   4.651   2.369
 6373SOL    HW220019   4.365   4.572   2.315
 6374SOL     OW20020   4.057   3.569   3.003
 6374SOL    HW120021   4.070   3.535   2.910
 6374SOL    HW220022   4.084   3.665   3.008
 6375SOL     OW20023   0.169   1.590   3.034
 6375SOL    HW120024   0.090   1.595   2.974
 6375SOL    HW220025   0.140   1.603   3.129
 6376SOL     OW20026   5.175   2.390   5.366
 6376SOL    HW120027   5.226   2.473   5.389
 6376SOL    HW220028   5.104   2.375   5.435
 6377SOL     OW20029   0.461   1.272   5.152
 6377SOL    HW120030   0.514   1.203   5.201
 6377SOL    HW220031   0.378   1.231   5.116
 6378SOL     OW20032   4.707   4.335   3.790
 6378SOL    HW120033   4.725   4.345   3.888
 6378SOL    HW220034   4.635   4.399   3.762
 6379SOL     OW20035   1.674   4.102   4.893
 6379SOL    HW120036   1.720   4.045   4.824
 6379SOL    HW220037   1.733   4.180   4.916
 6380SOL     OW20038   0.610   1.647   5.005
 6380SOL    HW120039   0.629   1.590   5.084
 6380SOL    HW220040   0.648   1.605   4.923
 6381SOL     OW20041   4.140   3.095   1.449
 6381SOL    HW120042   4.083   3.028   1.403
 6381SOL    HW220043   4.229   3.101   1.403
 6382SOL     OW20044   2.898   1.722   0.768
 6382SOL    HW120045   2.923   1.797   0.707
 6382SOL    HW220046   2.839   1.658   0.719
 6383SOL     OW20047   2.236   2.565   3.052
 6383SOL    HW120048   2.260   2.566   2.955
 6383SOL    HW220049   2.316   2.592   3.106
 6384SOL     OW20050   6.041   3.739   3.041
 6384SOL    HW120051   6.126   3.781   3.071
 6384SOL    HW220052   5.964   3.800   3.064
 6385SOL     OW20053   0.043   3.926   3.308
 6385SOL    HW120054   7.004   3.932   3.386
 6385SOL    HW220055   0.135   3.908   3.341
 6386SOL     OW20056   1.906   3.625   6.467
 6386SOL    HW120057   1.935   3.545   6.518
 6386SOL    HW220058   1.966   3.702   6.489
 6387SOL     OW20059   6.240   1.747   6.562
 6387SOL    HW120060   6.275   1.659   6.594
 6387SOL    HW220061   6.310   1.818   6.578
 6388SOL     OW20062   3.990   6.716   1.975
 6388SOL    HW120063   3.959   6.762   2.059
 6388SOL    HW220064   4.081   6.676   1.991
 6389SOL     OW20065   6.985   5.639   2.016
 6389SOL    HW120066   6.951   5.635   2.110
 6389SOL    HW220067   6.908   5.630   1.952
 6390SOL     OW20068   0.678   0.674   5.955
 6390SOL    HW120069   0.677   0.751   5.890
 6390SOL    HW220070   0.648   0.706   6.045
 6391SOL     OW20071   2.392   0.242   5.869
 6391SOL    HW120072   2.419   0.339   5.874
 6391SOL    HW220073   2.336   0.219   5.948
 6392SOL     OW20074   2.638   5.701   2.924
 6392SOL    HW120075   2.614   5.796   2.905
 6392SOL    HW220076   2.733   5.684   2.895
 6393SOL     OW20077   0.295   5.811   1.822
 6393SOL    HW120078   0.307   5.850   1.913
 6393SOL    HW220079   0.236   5.731   1.827
 6394SOL     OW20080   2.551   5.405   0.554
 6394SOL    HW120081   2.545   5.450   0.465
 6394SOL    HW220082   2.489   5.327   0.556
 6395SOL     OW20083   6.962   2.523   1.728
 6395SOL    HW120084   7.023   2.450   1.696
 6395SOL    HW220085   6.972   2.604   1.670
 6396SOL     OW20086   5.345   3.460   6.923
 6396SOL    HW120087   5.445   3.462   6.916
 6396SOL    HW220088   5.310   3.553   6.923
 6397SOL     OW20089   5.758   1.253   1.397
 6397SOL    HW120090   5.769   1.159   1.363
 6397SOL    HW220091   5.846   1.300   1.395
 6398SOL     OW20092   2.683   6.682   1.580
 6398SOL    HW120093   2.735   6.604   1.616
 6398SOL    HW220094   2.700   6.690   1.482
 6399SOL     OW20095   1.816   6.758   6.638
 6399SOL    HW120096   1.740   6.822   6.624
 6399SOL    HW220097   1.833   6.708   6.554
 6400SOL     OW20098   2.703   5.265   1.893
 6400SOL    HW120099   2.674   5.278   1.798
 6400SOL    HW220100   2.802   5.248   1.896
 6401SOL     OW20101   5.513   5.907   3.473
 6401SOL    HW120102   5.458   5.832   3.511
 6401SOL    HW220103   5.461   5.992   3.479
 6402SOL     OW20104   2.709   2.322   2.890
 6402SOL    HW120105   2.649   2.378   2.832
 6402SOL    HW220106   2.709   2.227   2.856
 6403SOL     OW20107   7.004   5.109   6.175
 6403SOL    HW120108   6.930   5.064   6.225
 6403SOL    HW220109   0.059   5.122   6.236
 6404SOL     OW20110   4.115   0.579   2.688
 6404SOL    HW120111   4.160   0.492   2.706
 6404SOL    HW220112   4.031   0.563   2.637
 6405SOL     OW20113   3.401   0.084   3.994
 6405SOL    HW120114   3.394   0.145   3.915
 6405SOL    HW220115   3.463   0.008   3.973
 6406SOL     OW20116   0.614   2.764   2.937
 6406SOL    HW120117   0.542   2.726   2.995
 6406SOL    HW220118   0.610   2.864   2.939
 6407SOL     OW20119   2.779   6.768   3.861
 6407SOL    HW120120   2.866   6.779   3.909
 6407SOL    HW220121   2.749   6.857   3.825
 6408SOL     OW20122   5.499   1.431   0.465
 6408SOL    HW120123   5.417   1.410   0.411
 6408SOL    HW220124   5.573   1.370   0.438
 6409SOL     OW20125   6.374   4.432   3.777
 6409SOL    HW120126   6.283   4.471   3.760
 6409SOL    HW220127   6.424   4.426   3.690
 6410SOL     OW20128   1.850   1.466   6.368
 6410SOL    HW120129   1.781   1.465   6.440
 6410SOL    HW220130   1.919   1.536   6.388
 6411SOL     OW20131   0.690   2.944   3.258
 6411SOL    HW120132   0.611   3.002   3.278
 6411SOL    HW220133   0.660   2.862   3.210
 6412SOL     OW20134   1.263   2.234   4.706
 6412SOL    HW120135   1.227   2.167   4.772
 6412SOL    HW220136   1.227   2.325   4.727
 6413SOL     OW20137   3.896   4.906   3.517
 6413SOL    HW120138   3.798   4.923   3.509
 6413SOL    HW220139   3.931   4.873   3.429
 6414SOL     OW20140   5.852   1.266   0.086
 6414SOL    HW120141   5.946   1.247   0.111
 6414SOL    HW220142   5.823   1.352   0.128
 6415SOL     OW20143   2.123   3.219   3.148
 6415SOL    HW120144   2.120   3.311   3.187
 6415SOL    HW220145   2.115   3.225   3.048
 6416SOL     OW20146   1.139   0.953   6.806
 6416SOL    HW120147   1.057   0.921   6.853
 6416SOL    HW220148   1.219   0.936   6.864
 6417SOL     OW20149   5.768   5.097   0.584
 6417SOL    HW120150   5.823   5.081   0.501
 6417SOL    HW220151   5.825   5.080   0.665
 6418SOL     OW20152   4.888   3.669   1.829
 6418SOL    HW120153   4.849   3.761   1.824
 6418SOL    HW220154   4.982   3.673   1.862
 6419SOL     OW20155   1.362   4.546   3.110
 6419SOL    HW120156   1.346   4.499   3.196
 6419SOL    HW220157   1.274   4.561   3.063
 6420SOL     OW20158   2.607   5.984   4.059
 6420SOL    HW120159   2.623   5.910   3.995
 6420SOL    HW220160   2.531   6.040   4.027
 6421SOL     OW20161   4.717   6.907   3.044
 6421SOL    HW120162   4.755   6.986   2.996
 6421SOL    HW220163   4.631   6.879   3.000
 6422SOL     OW20164   7.009   1.192   4.718
 6422SOL    HW120165   6.994   1.280   4.766
 6422SOL    HW220166   0.069   1.150   4.752
 6423SOL     OW20167   5.029   5.344   3.204
 6423SOL    HW120168   4.999   5.249   3.200
 6423SOL    HW220169   5.017   5.387   3.114
 6424SOL     OW20170   0.109   5.024   5.652
 6424SOL    HW120171   0.134   5.088   5.725
 6424SOL    HW220172   0.060   4.946   5.691
 6425SOL     OW20173   6.453   5.888   3.209
 6425SOL    HW120174   6.449   5.808   3.149
 6425SOL    HW220175   6.363   5.902   3.251
 6426SOL     OW20176   1.337   5.046   3.148
 6426SOL    HW120177   1.360   5.141   3.125
 6426SOL    HW220178   1.263   5.045   3.215
 6427SOL     OW20179   3.553   4.126   4.476
 6427SOL    HW120180   3.492   4.154   4.550
 6427SOL    HW220181   3.647   4.128   4.509
 6428SOL     OW20182   6.004   3.709   6.061
 6428SOL    HW120183   5.925   3.717   6.000
 6428SOL    HW220184   5.985   3.640   6.131
 6429SOL     OW20185   0.786   2.026   5.735
 6429SOL    HW120186   0.695   1.988   5.750
 6429SOL    HW220187   0.839   1.963   5.679
 6430SOL     OW20188   5.753   1.095   3.669
 6430SOL    HW120189   5.821   1.053   3.609
 6430SOL    HW220190   5.687   1.147   3.614
 6431SOL     OW20191   4.963   6.852   4.028
 6431SOL    HW120192   4.921   6.853   4.119
 6431SOL    HW220193   4.898   6.817   3.961
 6432SOL     OW20194   4.423   4.651   5.857
 6432SOL    HW120195   4.410   4.621   5.951
 6432SOL    HW220196   4.334   4.651   5.810
 6433SOL     OW20197   1.529   5.507   5.752
 6433SOL    HW120198   1.595   5.431   5.755
 6433SOL    HW220199   1.455   5.489   5.817
 6434SOL     OW20200   2.468   5.179   6.316
 6434SOL    HW120201   2.410   5.138   6.386
 6434SOL    HW220202   2.412   5.230   6.251
 6435SOL     OW20203   5.120   6.666   0.977
 6435SOL    HW120204   5.074   6.687   0.891
 6435SOL    HW220205   5.170   6.580   0.967
 6436SOL     OW20206   1.232   2.891   2.903
 6436SOL    HW120207   1.180   2.860   2.823
 6436SOL    HW220208   1.212   2.988   2.920
 6437SOL     OW20209   2.601   1.209   0.403
 6437SOL    HW120210   2.592   1.308   0.413
 6437SOL    HW220211   2.568   1.164   0.486
 6438SOL     OW20212   6.204   4.363   5.520
 6438SOL    HW120213   6.251   4.448   5.500
 6438SOL    HW220214   6.151   4.334   5.440
 6439SOL     OW20215   5.697   1.219   1.896
 6439SOL    HW120216   5.668   1.260   1.810
 6439SOL    HW220217   5.618   1.206   1.955
 6440SOL     OW20218   2.157   1.634   6.172
 6440SOL    HW120219   2.086   1.674   6.230
 6440SOL    HW220220   2.149   1.671   6.079
 6441SOL     OW20221   6.877   6.868   2.101
 6441SOL    HW120222   6.788   6.902   2.068
 6441SOL    HW220223   6.940   6.945   2.112
 6442SOL     OW20224   2.524   1.352   4.236
 6442SOL    HW120225   2.532   1.274   4.174
 6442SOL    HW220226   2.486   1.430   4.186
 6443SOL     OW20227   3.835   2.265   5.466
 6443SOL    HW120228   3.841   2.166   5.469
 6443SOL    HW220229   3.748   2.294   5.508
 6444SOL     OW20230   5.187   3.011   4.768
 6444SOL    HW120231   5.167   2.932   4.827
 6444SOL    HW220232   5.149   3.094   4.811
 6445SOL     OW20233   3.694   2.973   4.900
 6445SOL    HW120234   3.608   2.923   4.898
 6445SOL    HW220235   3.687   3.051   4.962
 6446SOL     OW20236   1.219   1.062   0.065
 6446SOL    HW120237   1.259   1.141   0.111
 6446SOL    HW220238   1.123   1.080   0.044
 6447SOL     OW20239   5.510   4.813   3.928
 6447SOL    HW120240   5.566   4.887   3.889
 6447SOL    HW220241   5.428   4.852   3.969
 6448SOL     OW20242   4.253   5.990   1.863
 6448SOL    HW120243   4.162   6.014   1.897
 6448SOL    HW220244   4.275   5.896   1.890
 6449SOL     OW20245   3.380   6.154   1.108
 6449SOL    HW120246   3.427   6.073   1.144
 6449SOL    HW220247   3.429   6.236   1.135
 6450SOL     OW20248   1.044   3.978   1.415
 6450SOL    HW120249   0.985   3.902   1.440
 6450SOL    HW220250   1.139   3.948   1.414
 6451SOL     OW20251   2.291   0.583   5.041
 6451SOL    HW120252   2.210   0.533   5.009
 6451SOL    HW220253   2.361   0.519   5.071
 6452SOL     OW20254   4.628   5.214   3.330
 6452SOL    HW120255   4.660   5.309   3.338
 6452SOL    HW220256   4.540   5.205   3.377
 6453SOL     OW20257   2.538   6.406   1.759
 6453SOL    HW120258   2.486   6.492   1.763
 6453SOL    HW220259   2.542   6.375   1.664
 6454SOL     OW20260   0.872   2.332   3.083
 6454SOL    HW120261   0.938   2.266   3.120
 6454SOL    HW220262   0.922   2.410   3.045
 6455SOL     OW20263   6.673   3.351   3.934
 6455SOL    HW120264   6.685   3.252   3.942
 6455SOL    HW220265   6.634   3.373   3.845
 6456SOL     OW20266   1.273   0.799   3.381
 6456SOL    HW120267   1.351   0.799   3.318
 6456SOL    HW220268   1.306   0.777   3.473
 6457SOL     OW20269   5.208   1.679   1.491
 6457SOL    HW120270   5.113   1.698   1.468
 6457SOL    HW220271   5.253   1.764   1.519
 6458SOL     OW20272   1.004   6.001   4.553
 6458SOL    HW120273   0.928   6.053   4.593
 6458SOL    HW220274   1.090   6.037   4.588
 6459SOL     OW20275   6.200   3.030   1.063
 6459SOL    HW120276   6.292   3.069   1.060
 6459SOL    HW220277   6.144   3.071   0.992
 6460SOL     OW20278   5.509   6.184   6.267
 6460SOL    HW120279   5.421   6.230   6.257
 6460SOL    HW220280   5.578   6.232   6.213
 6461SOL     OW20281   2.290   4.307   6.271
 6461SOL    HW120282   2.347   4.321   6.190
 6461SOL    HW220283   2.194   4.298   6.243
 6462SOL     OW20284   2.563   2.500   4.437
 6462SOL    HW120285   2.653   2.532   4.406
 6462SOL    HW220286   2.550   2.524   4.533
 6463SOL     OW20287   6.032   2.447   0.113
 6463SOL    HW120288   6.112   2.499   0.144
 6463SOL    HW220289   5.970   2.508   0.064
 6464SOL     OW20290   1.189   5.198   5.170
 6464SOL    HW120291   1.169   5.204   5.268
 6464SOL    HW220292   1.103   5.192   5.119
 6465SOL     OW20293   6.870   2.924   2.789
 6465SOL    HW120294   6.897   3.018   2.812
 6465SOL    HW220295   6.866   2.869   2.873
 6466SOL     OW20296   0.558   0.818   6.151
 6466SOL    HW120297   0.576   0.917   6.152
 6466SOL    HW220298   0.595   0.777   6.234
 6467SOL     OW20299   3.880   1.614   0.177
 6467SOL    HW120300   3.926   1.666   0.249
 6467SOL    HW220301   3.818   1.547   0.219
 6468SOL     OW20302   2.975   6.731   0.709
 6468SOL    HW120303   3.000   6.637   0.687
 6468SOL    HW220304   2.948   6.778   0.626
 6469SOL     OW20305   4.507   1.714   3.911
 6469SOL    HW120306   4.490   1.633   3.855
 6469SOL    HW220307   4.560   1.780   3.858
 6470SOL     OW20308   6.021   2.839   0.804
 6470SOL    HW120309   6.013   2.758   0.862
 6470SOL    HW220310   6.116   2.849   0.774
 6471SOL     OW20311   6.869   6.479   6.168
 6471SOL    HW120312   6.835   6.573   6.170
 6471SOL    HW220313   6.964   6.478   6.139
 6472SOL     OW20314   0.153   5.748   2.181
 6472SOL    HW120315   0.086   5.724   2.110
 6472SOL    HW220316   0.212   5.670   2.200
 6473SOL     OW20317   3.125   1.673   4.506
 6473SOL    HW120318   3.220   1.667   4.476
 6473SOL    HW220319   3.119   1.650   4.603
 6474SOL     OW20320   2.793   4.967   5.997
 6474SOL    HW120321   2.854   4.891   5.977
 6474SOL    HW220322   2.846   5.045   6.031
 6475SOL     OW20323   5.683   5.009   3.821
 6475SOL    HW120324   5.645   4.998   3.729
 6475SOL    HW220325   5.754   5.079   3.820
 6476SOL     OW20326   4.407   3.686   1.074
 6476SOL    HW120327   4.454   3.598   1.082
 6476SOL    HW220328   4.331   3.678   1.010
 6477SOL     OW20329   5.952   4.611   1.056
 6477SOL    HW120330   6.007   4.619   0.973
 6477SOL    HW220331   5.855   4.605   1.031
 6478SOL     OW20332   3.404   0.470   1.941
 6478SOL    HW120333   3.332   0.519   1.991
 6478SOL    HW220334   3.421   0.382   1.986
 6479SOL     OW20335   4.385   5.153   3.434
 6479SOL    HW120336   4.320   5.211   3.384
 6479SOL    HW220337   4.384   5.061   3.395
 6480SOL     OW20338   3.087   1.003   6.642
 6480SOL    HW120339   3.115   1.094   6.611
 6480SOL    HW220340   3.167   0.943   6.643
 6481SOL     OW20341   3.475   2.062   2.226
 6481SOL    HW120342   3.378   2.085   2.235
 6481SOL    HW220343   3.492   2.024   2.135
 6482SOL     OW20344   6.729   1.119   5.751
 6482SOL    HW120345   6.738   1.216   5.777
 6482SOL    HW220346   6.673   1.072   5.819
 6483SOL     OW20347   1.191   6.413   2.813
 6483SOL    HW120348   1.178   6.406   2.714
 6483SOL    HW220349   1.105   6.441   2.856
 6484SOL     OW20350   3.057   0.183   0.856
 6484SOL    HW120351   3.026   0.195   0.762
 6484SOL    HW220352   3.056   0.271   0.903
 6485SOL     OW20353   2.242   5.209   3.696
 6485SOL    HW120354   2.189   5.198   3.781
 6485SOL    HW220355   2.323   5.151   3.700
 6486SOL     OW20356   1.878   4.398   3.486
 6486SOL    HW120357   1.848   4.416   3.393
 6486SOL    HW220358   1.845   4.471   3.547
 6487SOL     OW20359   0.559   6.570   5.263
 6487SOL    HW120360   0.657   6.552   5.260
 6487SOL    HW220361   0.510   6.486   5.285
 6488SOL     OW20362   3.497   5.928   4.385
 6488SOL    HW120363   3.537   5.904   4.474
 6488SOL    HW220364   3.398   5.910   4.388
 6489SOL     OW20365   3.063   2.824   5.956
 6489SOL    HW120366   3.133   2.756   5.980
 6489SOL    HW220367   3.045   2.882   6.035
 6490SOL     OW20368   3.839   0.844   6.958
 6490SOL    HW120369   3.750   0.847   6.913
 6490SOL    HW220370   3.856   0.751   6.991
 6491SOL     OW20371   4.043   1.025   0.835
 6491SOL    HW120372   4.092   1.011   0.749
 6491SOL    HW220373   3.963   1.083   0.818
 6492SOL     OW20374   3.982   4.513   6.649
 6492SOL    HW120375   3.916   4.502   6.723
 6492SOL    HW220376   4.033   4.427   6.637
 6493SOL     OW20377   1.523   4.069   5.104
 6493SOL    HW120378   1.578   4.088   5.023
 6493SOL    HW220379   1.562   4.116   5.183
 6494SOL     OW20380   6.599   0.142   3.825
 6494SOL    HW120381   6.605   0.042   3.827
 6494SOL    HW220382   6.690   0.180   3.815
 6495SOL     OW20383   6.239   0.444   4.550
 6495SOL    HW120384   6.286   0.497   4.479
 6495SOL    HW220385   6.143   0.431   4.524
 6496SOL     OW20386   6.266   1.079   3.252
 6496SOL    HW120387   6.287   1.000   3.310
 6496SOL    HW220388   6.168   1.083   3.236
 6497SOL     OW20389   1.054   1.524   0.874
 6497SOL    HW120390   1.077   1.437   0.918
 6497SOL    HW220391   1.107   1.598   0.916
 6498SOL     OW20392   1.846   3.418   4.101
 6498SOL    HW120393   1.929   3.453   4.058
 6498SOL    HW220394   1.821   3.476   4.178
 6499SOL     OW20395   5.677   3.629   5.487
 6499SOL    HW120396   5.666   3.702   5.554
 6499SOL    HW220397   5.693   3.670   5.397
 6500SOL     OW20398   6.610   3.826   4.408
 6500SOL    HW120399   6.651   3.753   4.462
 6500SOL    HW220400   6.592   3.793   4.315
 6501SOL     OW20401   6.977   1.864   6.574
 6501SOL    HW120402   0.049   1.838   6.586
 6501SOL    HW220403   6.922   1.825   6.648
 6502SOL     OW20404   6.550   2.042   2.426
 6502SOL    HW120405   6.576   1.963   2.371
 6502SOL    HW220406   6.471   2.088   2.383
 6503SOL     OW20407   5.261   0.586   3.527
 6503SOL    HW120408   5.250   0.601   3.429
 6503SOL    HW220409   5.172   0.570   3.569
 6504SOL     OW20410   4.368   6.366   5.354
 6504SOL    HW120411   4.365   6.415   5.267
 6504SOL    HW220412   4.461   6.369   5.391
 6505SOL     OW20413   5.420   5.895   6.605
 6505SOL    HW120414   5.471   5.930   6.683
 6505SOL    HW220415   5.427   5.795   6.603
 6506SOL     OW20416   6.566   2.677   2.761
 6506SOL    HW120417   6.576   2.725   2.848
 6506SOL    HW220418   6.593   2.738   2.686
 6507SOL     OW20419   1.313   5.212   5.848
 6507SOL    HW120420   1.333   5.298   5.895
 6507SOL    HW220421   1.283   5.144   5.915
 6508SOL     OW20422   1.774   0.429   2.706
 6508SOL    HW120423   1.857   0.374   2.699
 6508SOL    HW220424   1.795   0.524   2.683
 6509SOL     OW20425   3.529   1.555   4.630
 6509SOL    HW120426   3.576   1.496   4.695
 6509SOL    HW220427   3.541   1.650   4.656
 6510SOL     OW20428   6.181   5.425   0.123
 6510SOL    HW120429   6.111   5.381   0.067
 6510SOL    HW220430   6.242   5.356   0.161
 6511SOL     OW20431   4.336   1.754   4.515
 6511SOL    HW120432   4.302   1.837   4.471
 6511SOL    HW220433   4.381   1.778   4.601
 6512SOL     OW20434   4.171   6.597   2.364
 6512SOL    HW120435   4.251   6.625   2.312
 6512SOL    HW220436   4.142   6.506   2.334
 6513SOL     OW20437   2.461   4.834   3.025
 6513SOL    HW120438   2.413   4.920   3.040
 6513SOL    HW220439   2.431   4.793   2.939
 6514SOL     OW20440   6.414   0.948   3.877
 6514SOL    HW120441   6.487   0.977   3.816
 6514SOL    HW220442   6.340   1.015   3.874
 6515SOL     OW20443   0.535   4.881   4.047
 6515SOL    HW120444   0.629   4.911   4.029
 6515SOL    HW220445   0.532   4.781   4.050
 6516SOL     OW20446   0.236   3.550   1.442
 6516SOL    HW120447   0.325   3.593   1.428
 6516SOL    HW220448   0.192   3.589   1.523
 6517SOL     OW20449   6.280   0.964   1.399
 6517SOL    HW120450   6.246   0.967   1.306
 6517SOL    HW220451   6.225   1.024   1.457
 6518SOL     OW20452   0.305   0.810   0.197
 6518SOL    HW120453   0.219   0.861   0.203
 6518SOL    HW220454   0.326   0.770   0.286
 6519SOL     OW20455   1.129   2.473   3.264
 6519SOL    HW120456   1.111   2.471   3.362
 6519SOL    HW220457   1.126   2.568   3.232
 6520SOL     OW20458   5.685   5.482   1.588
 6520SOL    HW120459   5.781   5.493   1.614
 6520SOL    HW220460   5.658   5.555   1.525
 6521SOL     OW20461   2.042   2.364   3.737
 6521SOL    HW120462   2.084   2.389   3.650
 6521SOL    HW220463   1.950   2.327   3.720
 6522SOL     OW20464   3.039   5.384   6.316
 6522SOL    HW120465   3.017   5.338   6.402
 6522SOL    HW220466   3.105   5.329   6.264
 6523SOL     OW20467   3.477   1.518   6.610
 6523SOL    HW120468   3.440   1.546   6.521
 6523SOL    HW220469   3.566   1.562   6.625
 6524SOL     OW20470   3.812   3.617   1.584
 6524SOL    HW120471   3.886   3.677   1.554
 6524SOL    HW220472   3.755   3.593   1.506
 6525SOL     OW20473   2.581   4.928   2.653
 6525SOL    HW120474   2.547   5.021   2.640
 6525SOL    HW220475   2.515   4.875   2.707
 6526SOL     OW20476   2.083   0.100   6.744
 6526SOL    HW120477   2.177   0.118   6.715
 6526SOL    HW220478   2.073   0.122   6.841
 6527SOL     OW20479   0.489   1.653   4.516
 6527SOL    HW120480   0.554   1.690   4.450
 6527SOL    HW220481   0.413   1.717   4.528
 6528SOL     OW20482   0.193   0.602   5.934
 6528SOL    HW120483   0.136   0.588   5.852
 6528SOL    HW220484   0.284   0.631   5.906
 6529SOL     OW20485   1.856   0.672   3.167
 6529SOL    HW120486   1.937   0.705   3.119
 6529SOL    HW220487   1.795   0.627   3.102
 6530SOL     OW20488   6.772   2.754   0.466
 6530SOL    HW120489   6.837   2.744   0.391
 6530SOL    HW220490   6.685   2.710   0.442
 6531SOL     OW20491   5.309   3.078   5.321
 6531SOL    HW120492   5.340   3.149   5.385
 6531SOL    HW220493   5.358   3.087   5.235
 6532SOL     OW20494   6.738   1.306   1.032
 6532SOL    HW120495   6.787   1.222   1.055
 6532SOL    HW220496   6.689   1.339   1.113
 6533SOL     OW20497   4.648   6.917   0.831
 6533SOL    HW120498   4.691   6.868   0.755
 6533SOL    HW220499   4.683   7.011   0.833
 6534SOL     OW20500   4.152   4.706   1.499
 6534SOL    HW120501   4.148   4.747   1.408
 6534SOL    HW220502   4.236   4.653   1.509
 6535SOL     OW20503   6.129   3.507   4.211
 6535SOL    HW120504   6.075   3.591   4.201
 6535SOL    HW220505   6.068   3.429   4.218
 6536SOL     OW20506   1.040   0.889   5.788
 6536SOL    HW120507   1.034   0.916   5.884
 6536SOL    HW220508   0.978   0.947   5.734
 6537SOL     OW20509   6.787   5.492   0.230
 6537SOL    HW120510   6.702   5.536   0.260
 6537SOL    HW220511   6.855   5.561   0.210
 6538SOL     OW20512   2.505   3.827   6.474
 6538SOL    HW120513   2.472   3.910   6.430
 6538SOL    HW220514   2.517   3.755   6.405
 6539SOL     OW20515   4.186   0.480   6.072
 6539SOL    HW120516   4.216   0.517   5.984
 6539SOL    HW220517   4.259   0.491   6.139
 6540SOL     OW20518   4.519   2.394   5.633
 6540SOL    HW120519   4.550   2.301   5.614
 6540SOL    HW220520   4.595   2.448   5.668
 6541SOL     OW20521   4.382   2.442   4.795
 6541SOL    HW120522   4.347   2.350   4.809
 6541SOL    HW220523   4.354   2.501   4.871
 6542SOL     OW20524   6.236   3.427   3.954
 6542SOL    HW120525   6.197   3.473   4.034
 6542SOL    HW220526   6.256   3.495   3.884
 6543SOL     OW20527   5.152   2.573   5.890
 6543SOL    HW120528   5.111   2.597   5.802
 6543SOL    HW220529   5.101   2.617   5.964
 6544SOL     OW20530   1.268   6.233   3.280
 6544SOL    HW120531   1.280   6.134   3.266
 6544SOL    HW220532   1.306   6.283   3.203
 6545SOL     OW20533   4.094   2.064   0.154
 6545SOL    HW120534   4.026   1.999   0.119
 6545SOL    HW220535   4.101   2.053   0.253
 6546SOL     OW20536   2.790   4.191   0.115
 6546SOL    HW120537   2.725   4.115   0.125
 6546SOL    HW220538   2.880   4.154   0.091
 6547SOL     OW20539   4.724   1.181   5.744
 6547SOL    HW120540   4.690   1.232   5.823
 6547SOL    HW220541   4.702   1.084   5.755
 6548SOL     OW20542   0.606   4.058   0.588
 6548SOL    HW120543   0.653   4.009   0.661
 6548SOL    HW220544   0.635   4.153   0.588
 6549SOL     OW20545   5.074   0.964   1.511
 6549SOL    HW120546   5.061   1.063   1.513
 6549SOL    HW220547   5.057   0.930   1.419
 6550SOL     OW20548   0.387   6.455   4.057
 6550SOL    HW120549   0.289   6.435   4.054
 6550SOL    HW220550   0.412   6.514   3.980
 6551SOL     OW20551   1.865   4.612   2.193
 6551SOL    HW120552   1.773   4.617   2.155
 6551SOL    HW220553   1.878   4.686   2.259
 6552SOL     OW20554   1.628   6.933   6.894
 6552SOL    HW120555   1.647   6.934   6.795
 6552SOL    HW220556   1.530   6.947   6.909
 6553SOL     OW20557   0.134   1.787   3.361
 6553SOL    HW120558   0.044   1.826   3.344
 6553SOL    HW220559   0.201   1.830   3.300
 6554SOL     OW20560   0.530   0.310   4.389
 6554SOL    HW120561   0.518   0.214   4.415
 6554SOL    HW220562   0.621   0.321   4.347
 6555SOL     OW20563   6.020   1.685   3.209
 6555SOL    HW120564   5.955   1.705   3.136
 6555SOL    HW220565   5.985   1.722   3.296
 6556SOL     OW20566   5.270   4.766   4.467
 6556SOL    HW120567   5.309   4.698   4.529
 6556SOL    HW220568   5.339   4.795   4.401
 6557SOL     OW20569   3.355   6.671   2.529
 6557SOL    HW120570   3.416   6.743   2.498
 6557SOL    HW220571   3.407   6.602   2.579
 6558SOL     OW20572   6.892   5.234   0.179
 6558SOL    HW120573   6.810   5.177   0.174
 6558SOL    HW220574   6.866   5.329   0.196
 6559SOL     OW20575   0.622   3.135   6.460
 6559SOL    HW120576   0.627   3.180   6.549
 6559SOL    HW220577   0.657   3.042   6.468
 6560SOL     OW20578   4.427   5.265   1.443
 6560SOL    HW120579   4.455   5.270   1.347
 6560SOL    HW220580   4.395   5.173   1.464
 6561SOL     OW20581   3.358   3.804   1.311
 6561SOL    HW120582   3.260   3.795   1.331
 6561SOL    HW220583   3.372   3.804   1.212
 6562SOL     OW20584   5.723   3.478   0.858
 6562SOL    HW120585   5.809   3.529   0.854
 6562SOL    HW220586   5.743   3.380   0.860
 6563SOL     OW20587   5.535   6.375   6.861
 6563SOL    HW120588   5.583   6.462   6.863
 6563SOL    HW220589   5.593   6.304   6.901
 6564SOL     OW20590   6.875   4.540   3.109
 6564SOL    HW120591   6.804   4.507   3.047
 6564SOL    HW220592   6.839   4.618   3.161
 6565SOL     OW20593   5.412   1.599   3.610
 6565SOL    HW120594   5.437   1.536   3.683
 6565SOL    HW220595   5.465   1.578   3.528
 6566SOL     OW20596   3.659   6.153   2.495
 6566SOL    HW120597   3.727   6.097   2.448
 6566SOL    HW220598   3.690   6.174   2.587
 6567SOL     OW20599   4.178   0.851   2.681
 6567SOL    HW120600   4.081   0.869   2.698
 6567SOL    HW220601   4.198   0.755   2.699
 6568SOL     OW20602   3.354   0.922   3.463
 6568SOL    HW120603   3.318   0.840   3.419
 6568SOL    HW220604   3.437   0.951   3.415
 6569SOL     OW20605   3.011   3.368   6.400
 6569SOL    HW120606   3.036   3.459   6.434
 6569SOL    HW220607   3.064   3.299   6.449
 6570SOL     OW20608   4.095   0.714   2.204
 6570SOL    HW120609   4.112   0.773   2.283
 6570SOL    HW220610   4.042   0.635   2.232
 6571SOL     OW20611   3.140   5.351   1.368
 6571SOL    HW120612   3.046   5.341   1.336
 6571SOL    HW220613   3.144   5.336   1.467
 6572SOL     OW20614   6.382   4.888   5.791
 6572SOL    HW120615   6.363   4.979   5.754
 6572SOL    HW220616   6.438   4.837   5.725
 6573SOL     OW20617   1.844   1.556   2.046
 6573SOL    HW120618   1.889   1.619   1.984
 6573SOL    HW220619   1.751   1.537   2.013
 6574SOL     OW20620   2.975   5.678   2.204
 6574SOL    HW120621   3.026   5.641   2.127
 6574SOL    HW220622   3.001   5.774   2.218
 6575SOL     OW20623   1.123   6.943   3.106
 6575SOL    HW120624   1.204   6.968   3.053
 6575SOL    HW220625   1.047   6.924   3.043
 6576SOL     OW20626   2.325   5.923   6.406
 6576SOL    HW120627   2.306   6.020   6.416
 6576SOL    HW220628   2.313   5.896   6.310
 6577SOL     OW20629   0.766   1.030   4.416
 6577SOL    HW120630   0.714   0.959   4.462
 6577SOL    HW220631   0.756   1.021   4.317
 6578SOL     OW20632   1.141   5.560   3.275
 6578SOL    HW120633   1.132   5.546   3.176
 6578SOL    HW220634   1.051   5.560   3.317
 6579SOL     OW20635   6.737   3.589   4.537
 6579SOL    HW120636   6.741   3.515   4.470
 6579SOL    HW220637   6.827   3.631   4.546
 6580SOL     OW20638   0.806   2.854   1.340
 6580SOL    HW120639   0.725   2.798   1.321
 6580SOL    HW220640   0.885   2.817   1.292
 6581SOL     OW20641   2.799   0.412   6.615
 6581SOL    HW120642   2.752   0.389   6.700
 6581SOL    HW220643   2.874   0.348   6.599
 6582SOL     OW20644   0.991   1.392   2.120
 6582SOL    HW120645   0.975   1.389   2.218
 6582SOL    HW220646   0.947   1.313   2.077
 6583SOL     OW20647   4.629   0.925   5.117
 6583SOL    HW120648   4.667   0.849   5.065
 6583SOL    HW220649   4.643   1.010   5.067
 6584SOL     OW20650   4.368   3.061   1.327
 6584SOL    HW120651   4.421   3.023   1.402
 6584SOL    HW220652   4.359   2.993   1.254
 6585SOL     OW20653   5.496   0.019   0.258
 6585SOL    HW120654   5.438   7.015   0.182
 6585SOL    HW220655   5.525   6.961   0.309
 6586SOL     OW20656   0.376   1.724   4.863
 6586SOL    HW120657   0.460   1.706   4.913
 6586SOL    HW220658   0.334   1.638   4.835
 6587SOL     OW20659   2.136   6.566   4.733
 6587SOL    HW120660   2.194   6.492   4.768
 6587SOL    HW220661   2.164   6.587   4.639
 6588SOL     OW20662   0.822   3.577   1.660
 6588SOL    HW120663   0.909   3.537   1.687
 6588SOL    HW220664   0.765   3.506   1.617
 6589SOL     OW20665   5.370   1.510   0.190
 6589SOL    HW120666   5.450   1.558   0.152
 6589SOL    HW220667   5.353   1.427   0.138
 6590SOL     OW20668   0.985   1.130   6.116
 6590SOL    HW120669   0.910   1.148   6.180
 6590SOL    HW220670   1.068   1.177   6.148
 6591SOL     OW20671   5.332   5.382   2.615
 6591SOL    HW120672   5.412   5.374   2.674
 6591SOL    HW220673   5.331   5.307   2.549
 6592SOL     OW20674   5.381   6.998   3.758
 6592SOL    HW120675   5.302   7.014   3.817
 6592SOL    HW220676   5.457   0.031   3.789
 6593SOL     OW20677   1.921   2.346   2.250
 6593SOL    HW120678   1.924   2.378   2.345
 6593SOL    HW220679   1.992   2.392   2.197
 6594SOL     OW20680   3.503   1.680   0.280
 6594SOL    HW120681   3.531   1.589   0.311
 6594SOL    HW220682   3.408   1.697   0.309
 6595SOL     OW20683   0.488   3.718   6.624
 6595SOL    HW120684   0.486   3.691   6.720
 6595SOL    HW220685   0.529   3.645   6.570
 6596SOL     OW20686   3.146   6.134   4.658
 6596SOL    HW120687   3.221   6.190   4.623
 6596SOL    HW220688   3.067   6.192   4.675
 6597SOL     OW20689   1.521   5.240   1.734
 6597SOL    HW120690   1.564   5.199   1.815
 6597SOL    HW220691   1.436   5.193   1.714
 6598SOL     OW20692   1.747   6.227   4.445
 6598SOL    HW120693   1.772   6.198   4.352
 6598SOL    HW220694   1.736   6.147   4.503
 6599SOL     OW20695   4.820   6.935   6.420
 6599SOL    HW120696   4.747   6.868   6.420
 6599SOL    HW220697   4.905   6.893   6.452
 6600SOL     OW20698   5.182   5.011   4.804
 6600SOL    HW120699   5.135   5.039   4.720
 6600SOL    HW220700   5.177   4.911   4.813
 6601SOL     OW20701   1.560   2.145   5.541
 6601SOL    HW120702   1.625   2.212   5.575
 6601SOL    HW220703   1.520   2.178   5.455
 6602SOL     OW20704   1.250   0.958   2.255
 6602SOL    HW120705   1.200   1.022   2.196
 6602SOL    HW220706   1.348   0.969   2.239
 6603SOL     OW20707   6.700   2.457   3.672
 6603SOL    HW120708   6.730   2.458   3.576
 6603SOL    HW220709   6.640   2.535   3.689
 6604SOL     OW20710   2.004   0.305   0.691
 6604SOL    HW120711   2.012   0.222   0.635
 6604SOL    HW220712   1.945   0.286   0.770
 6605SOL     OW20713   5.325   4.171   1.869
 6605SOL    HW120714   5.337   4.270   1.863
 6605SOL    HW220715   5.402   4.130   1.917
 6606SOL     OW20716   6.906   6.327   1.633
 6606SOL    HW120717   6.865   6.398   1.691
 6606SOL    HW220718   6.978   6.281   1.684
 6607SOL     OW20719   1.592   3.331   2.350
 6607SOL    HW120720   1.549   3.341   2.260
 6607SOL    HW220721   1.566   3.243   2.390
 6608SOL     OW20722   5.831   6.454   1.102
 6608SOL    HW120723   5.828   6.393   1.181
 6608SOL    HW220724   5.888   6.534   1.123
 6609SOL     OW20725   4.731   0.667   5.936
 6609SOL    HW120726   4.816   0.686   5.886
 6609SOL    HW220727   4.746   0.685   6.034
 6610SOL     OW20728   2.983   0.144   6.566
 6610SOL    HW120729   2.998   0.057   6.518
 6610SOL    HW220730   2.959   0.125   6.661
 6611SOL     OW20731   4.922   2.531   3.782
 6611SOL    HW120732   4.987   2.578   3.842
 6611SOL    HW220733   4.832   2.529   3.825
 6612SOL     OW20734   5.831   2.520   5.767
 6612SOL    HW120735   5.850   2.421   5.764
 6612SOL    HW220736   5.752   2.537   5.825
 6613SOL     OW20737   6.507   6.509   5.336
 6613SOL    HW120738   6.489   6.606   5.324
 6613SOL    HW220739   6.502   6.463   5.247
 6614SOL     OW20740   5.494   6.386   0.794
 6614SOL    HW120741   5.412   6.329   0.788
 6614SOL    HW220742   5.468   6.480   0.816
 6615SOL     OW20743   1.292   5.150   2.532
 6615SOL    HW120744   1.278   5.059   2.572
 6615SOL    HW220745   1.242   5.218   2.585
 6616SOL     OW20746   4.268   0.815   6.325
 6616SOL    HW120747   4.300   0.758   6.248
 6616SOL    HW220748   4.172   0.795   6.344
 6617SOL     OW20749   4.347   4.915   3.343
 6617SOL    HW120750   4.335   4.880   3.250
 6617SOL    HW220751   4.352   4.839   3.407
 6618SOL     OW20752   1.155   2.600   2.425
 6618SOL    HW120753   1.106   2.670   2.373
 6618SOL    HW220754   1.110   2.512   2.415
 6619SOL     OW20755   6.161   6.744   3.502
 6619SOL    HW120756   6.100   6.822   3.485
 6619SOL    HW220757   6.216   6.727   3.420
 6620SOL     OW20758   1.936   3.112   5.293
 6620SOL    HW120759   1.989   3.073   5.217
 6620SOL    HW220760   1.951   3.210   5.297
 6621SOL     OW20761   3.050   3.039   5.753
 6621SOL    HW120762   3.077   2.963   5.811
 6621SOL    HW220763   3.116   3.048   5.677
 6622SOL     OW20764   5.775   0.007   1.095
 6622SOL    HW120765   5.849   0.013   1.163
 6622SOL    HW220766   5.808   0.046   1.009
 6623SOL     OW20767   3.079   3.043   5.403
 6623SOL    HW120768   3.003   3.108   5.401
 6623SOL    HW220769   3.165   3.092   5.417
 6624SOL     OW20770   0.224   5.106   6.280
 6624SOL    HW120771   0.240   5.077   6.374
 6624SOL    HW220772   0.291   5.175   6.254
 6625SOL     OW20773   5.391   1.899   5.406
 6625SOL    HW120774   5.291   1.896   5.401
 6625SOL    HW220775   5.419   1.922   5.500
 6626SOL     OW20776   4.572   5.004   5.170
 6626SOL    HW120777   4.561   5.052   5.257
 6626SOL    HW220778   4.519   4.920   5.171
 6627SOL     OW20779   2.013   6.008   4.657
 6627SOL    HW120780   1.919   5.975   4.644
 6627SOL    HW220781   2.010   6.105   4.680
 6628SOL     OW20782   4.582   4.853   4.865
 6628SOL    HW120783   4.645   4.818   4.934
 6628SOL    HW220784   4.490   4.819   4.882
 6629SOL     OW20785   4.591   6.169   6.888
 6629SOL    HW120786   4.634   6.081   6.908
 6629SOL    HW220787   4.647   6.218   6.820
 6630SOL     OW20788   4.010   1.212   1.532
 6630SOL    HW120789   4.023   1.311   1.526
 6630SOL    HW220790   3.930   1.192   1.588
 6631SOL     OW20791   2.736   5.474   3.468
 6631SOL    HW120792   2.765   5.380   3.452
 6631SOL    HW220793   2.710   5.516   3.381
 6632SOL     OW20794   0.396   0.112   1.548
 6632SOL    HW120795   0.412   0.194   1.602
 6632SOL    HW220796   0.424   0.031   1.600
 6633SOL     OW20797   0.943   4.553   6.064
 6633SOL    HW120798   0.938   4.556   6.164
 6633SOL    HW220799   0.939   4.458   6.033
 6634SOL     OW20800   5.426   2.122   4.340
 6634SOL    HW120801   5.461   2.069   4.263
 6634SOL    HW220802   5.330   2.147   4.323
 6635SOL     OW20803   4.589   4.713   3.200
 6635SOL    HW120804   4.564   4.803   3.236
 6635SOL    HW220805   4.571   4.711   3.101
 6636SOL     OW20806   4.986   2.045   5.945
 6636SOL    HW120807   4.964   2.106   6.022
 6636SOL    HW220808   5.084   2.051   5.925
 6637SOL     OW20809   1.280   0.009   6.919
 6637SOL    HW120810   1.250   6.959   6.981
 6637SOL    HW220811   1.200   0.059   6.885
 6638SOL     OW20812   3.138   3.703   3.779
 6638SOL    HW120813   3.214   3.701   3.844
 6638SOL    HW220814   3.159   3.767   3.705
 6639SOL     OW20815   5.189   4.943   6.269
 6639SOL    HW120816   5.181   5.028   6.216
 6639SOL    HW220817   5.168   4.865   6.210
 6640SOL     OW20818   1.406   1.954   4.834
 6640SOL    HW120819   1.468   1.986   4.762
 6640SOL    HW220820   1.426   1.859   4.855
 6641SOL     OW20821   1.755   2.175   6.476
 6641SOL    HW120822   1.717   2.109   6.541
 6641SOL    HW220823   1.690   2.249   6.462
 6642SOL     OW20824   2.301   5.713   0.031
 6642SOL    HW120825   2.358   5.687   6.976
 6642SOL    HW220826   2.246   5.635   0.059
 6643SOL     OW20827   6.189   4.843   0.320
 6643SOL    HW120828   6.268   4.864   0.377
 6643SOL    HW220829   6.105   4.855   0.374
 6644SOL     OW20830   2.361   5.567   1.669
 6644SOL    HW120831   2.303   5.639   1.631
 6644SOL    HW220832   2.409   5.602   1.749
 6645SOL     OW20833   6.451   5.036   0.628
 6645SOL    HW120834   6.408   4.959   0.581
 6645SOL    HW220835   6.387   5.076   0.693
 6646SOL     OW20836   4.742   0.784   4.579
 6646SOL    HW120837   4.790   0.755   4.497
 6646SOL    HW220838   4.685   0.709   4.613
 6647SOL     OW20839   5.038   1.229   1.445
 6647SOL    HW120840   5.053   1.188   1.355
 6647SOL    HW220841   5.013   1.325   1.434
 6648SOL     OW20842   4.602   6.379   3.692
 6648SOL    HW120843   4.662   6.310   3.652
 6648SOL    HW220844   4.632   6.400   3.785
 6649SOL     OW20845   4.936   1.036   6.595
 6649SOL    HW120846   5.001   1.076   6.660
 6649SOL    HW220847   4.978   1.032   6.504
 6650SOL     OW20848   3.976   1.480   5.226
 6650SOL    HW120849   3.939   1.559   5.275
 6650SOL    HW220850   3.911   1.451   5.156
 6651SOL     OW20851   2.041   1.793   5.539
 6651SOL    HW120852   1.941   1.794   5.531
 6651SOL    HW220853   2.071   1.872   5.592
 6652SOL     OW20854   0.944   4.095   0.958
 6652SOL    HW120855   0.922   4.186   0.994
 6652SOL    HW220856   1.039   4.093   0.929
 6653SOL     OW20857   3.113   3.883   2.611
 6653SOL    HW120858   3.162   3.967   2.633
 6653SOL    HW220859   3.058   3.898   2.529
 6654SOL     OW20860   1.432   4.748   1.414
 6654SOL    HW120861   1.497   4.825   1.419
 6654SOL    HW220862   1.429   4.713   1.320
 6655SOL     OW20863   0.938   6.935   3.938
 6655SOL    HW120864   1.001   6.859   3.950
 6655SOL    HW220865   0.874   6.914   3.864
 6656SOL     OW20866   5.919   1.736   4.107
 6656SOL    HW120867   6.001   1.683   4.089
 6656SOL    HW220868   5.934   1.797   4.185
 6657SOL     OW20869   5.931   5.749   6.072
 6657SOL    HW120870   5.997   5.685   6.113
 6657SOL    HW220871   5.860   5.698   6.025
 6658SOL     OW20872   6.760   1.371   4.426
 6658SOL    HW120873   6.783   1.465   4.399
 6658SOL    HW220874   6.750   1.366   4.525
 6659SOL     OW20875   1.991   2.760   0.473
 6659SOL    HW120876   1.995   2.834   0.540
 6659SOL    HW220877   1.901   2.716   0.478
 6660SOL     OW20878   0.902   4.794   1.290
 6660SOL    HW120879   0.941   4.869   1.344
 6660SOL    HW220880   0.964   4.772   1.215
 6661SOL     OW20881   1.163   6.361   4.925
 6661SOL    HW120882   1.066   6.350   4.948
 6661SOL    HW220883   1.208   6.272   4.928
 6662SOL     OW20884   1.319   0.301   6.685
 6662SOL    HW120885   1.276   0.211   6.677
 6662SOL    HW220886   1.387   0.299   6.758
 6663SOL     OW20887   6.552   4.561   4.034
 6663SOL    HW120888   6.619   4.618   4.082
 6663SOL    HW220889   6.599   4.488   3.985
 6664SOL     OW20890   2.046   6.247   0.488
 6664SOL    HW120891   1.965   6.241   0.547
 6664SOL    HW220892   2.025   6.210   0.398
 6665SOL     OW20893   1.933   5.591   4.484
 6665SOL    HW120894   2.025   5.590   4.523
 6665SOL    HW220895   1.875   5.527   4.534
 6666SOL     OW20896   6.328   0.278   5.574
 6666SOL    HW120897   6.250   0.320   5.527
 6666SOL    HW220898   6.403   0.267   5.509
 6667SOL     OW20899   6.604   6.059   6.735
 6667SOL    HW120900   6.581   6.090   6.643
 6667SOL    HW220901   6.690   6.102   6.764
 6668SOL     OW20902   7.016   5.104   1.187
 6668SOL    HW120903   0.000   5.005   1.180
 6668SOL    HW220904   0.006   5.132   1.282
 6669SOL     OW20905   1.814   2.429   3.222
 6669SOL    HW120906   1.792   2.523   3.194
 6669SOL    HW220907   1.746   2.397   3.288
 6670SOL     OW20908   3.422   1.748   5.419
 6670SOL    HW120909   3.503   1.737   5.476
 6670SOL    HW220910   3.393   1.844   5.422
 6671SOL     OW20911   5.892   6.223   0.475
 6671SOL    HW120912   5.887   6.125   0.492
 6671SOL    HW220913   5.829   6.270   0.536
 6672SOL     OW20914   6.397   2.239   6.608
 6672SOL    HW120915   6.338   2.203   6.681
 6672SOL    HW220916   6.351   2.314   6.561
 6673SOL     OW20917   4.928   5.262   4.090
 6673SOL    HW120918   4.901   5.173   4.127
 6673SOL    HW220919   4.872   5.334   4.131
 6674SOL     OW20920   0.539   4.397   6.212
 6674SOL    HW120921   0.602   4.323   6.188
 6674SOL    HW220922   0.502   4.438   6.128
 6675SOL     OW20923   4.525   3.333   1.320
 6675SOL    HW120924   4.463   3.255   1.314
 6675SOL    HW220925   4.531   3.363   1.415
 6676SOL     OW20926   0.202   3.653   5.430
 6676SOL    HW120927   0.190   3.608   5.341
 6676SOL    HW220928   0.133   3.724   5.441
 6677SOL     OW20929   1.527   1.286   6.334
 6677SOL    HW120930   1.548   1.343   6.414
 6677SOL    HW220931   1.525   1.344   6.252
 6678SOL     OW20932   3.383   3.366   6.451
 6678SOL    HW120933   3.285   3.375   6.433
 6678SOL    HW220934   3.408   3.424   6.529
 6679SOL     OW20935   3.321   0.951   3.993
 6679SOL    HW120936   3.271   1.037   4.004
 6679SOL    HW220937   3.410   0.958   4.038
 6680SOL     OW20938   4.914   6.532   0.002
 6680SOL    HW120939   4.990   6.563   0.059
 6680SOL    HW220940   4.827   6.553   0.047
 6681SOL     OW20941   3.681   6.411   1.401
 6681SOL    HW120942   3.776   6.443   1.401
 6681SOL    HW220943   3.629   6.459   1.471
 6682SOL     OW20944   0.566   4.671   2.449
 6682SOL    HW120945   0.559   4.743   2.518
 6682SOL    HW220946   0.612   4.591   2.488
 6683SOL     OW20947   5.693   3.258   5.224
 6683SOL    HW120948   5.615   3.239   5.165
 6683SOL    HW220949   5.669   3.234   5.318
 6684SOL     OW20950   2.850   0.328   1.294
 6684SOL    HW120951   2.771   0.386   1.314
 6684SOL    HW220952   2.840   0.287   1.204
 6685SOL     OW20953   6.760   3.526   5.951
 6685SOL    HW120954   6.819   3.571   6.018
 6685SOL    HW220955   6.697   3.592   5.912
 6686SOL     OW20956   5.532   5.868   4.567
 6686SOL    HW120957   5.497   5.804   4.635
 6686SOL    HW220958   5.456   5.910   4.519
 6687SOL     OW20959   0.951   3.458   0.398
 6687SOL    HW120960   0.855   3.483   0.389
 6687SOL    HW220961   0.959   3.370   0.445
 6688SOL     OW20962   6.658   3.948   2.500
 6688SOL    HW120963   6.666   4.048   2.502
 6688SOL    HW220964   6.730   3.908   2.558
 6689SOL     OW20965   4.410   2.941   0.520
 6689SOL    HW120966   4.412   3.036   0.553
 6689SOL    HW220967   4.504   2.909   0.507
 6690SOL     OW20968   1.843   1.473   0.477
 6690SOL    HW120969   1.881   1.550   0.426
 6690SOL    HW220970   1.765   1.505   0.532
 6691SOL     OW20971   2.723   6.300   1.940
 6691SOL    HW120972   2.725   6.209   1.982
 6691SOL    HW220973   2.648   6.305   1.875
 6692SOL     OW20974   3.833   3.946   5.111
 6692SOL    HW120975   3.872   3.972   5.023
 6692SOL    HW220976   3.838   3.847   5.122
 6693SOL     OW20977   4.186   3.667   4.993
 6693SOL    HW120978   4.196   3.716   5.079
 6693SOL    HW220979   4.206   3.570   5.008
 6694SOL     OW20980   3.461   5.675   1.231
 6694SOL    HW120981   3.465   5.606   1.304
 6694SOL    HW220982   3.421   5.634   1.149
 6695SOL     OW20983   3.004   1.941   0.518
 6695SOL    HW120984   2.950   1.858   0.501
 6695SOL    HW220985   3.072   1.922   0.588
 6696SOL     OW20986   2.619   3.140   5.843
 6696SOL    HW120987   2.531   3.125   5.798
 6696SOL    HW220988   2.635   3.238   5.852
 6697SOL     OW20989   4.484   2.321   2.713
 6697SOL    HW120990   4.550   2.256   2.677
 6697SOL    HW220991   4.532   2.392   2.765
 6698SOL     OW20992   2.652   2.313   1.635
 6698SOL    HW120993   2.560   2.329   1.600
 6698SOL    HW220994   2.650   2.308   1.734
 6699SOL     OW20995   2.582   5.811   6.024
 6699SOL    HW120996   2.577   5.836   6.121
 6699SOL    HW220997   2.554   5.716   6.012
 6700SOL     OW20998   6.979   6.471   1.394
 6700SOL    HW120999   0.050   6.491   1.419
 6700SOL    HW221000   6.936   6.417   1.467
 6701SOL     OW21001   5.347   3.400   1.973
 6701SOL    HW121002   5.420   3.437   1.917
 6701SOL    HW221003   5.367   3.417   2.070
 6702SOL     OW21004   3.315   1.883   1.823
 6702SOL    HW121005   3.394   1.926   1.866
 6702SOL    HW221006   3.239   1.880   1.888
 6703SOL     OW21007   5.932   2.088   6.669
 6703SOL    HW121008   5.965   2.138   6.749
 6703SOL    HW221009   5.833   2.101   6.661
 6704SOL     OW21010   3.181   1.540   3.155
 6704SOL    HW121011   3.277   1.564   3.172
 6704SOL    HW221012   3.168   1.525   3.057
 6705SOL     OW21013   6.588   3.001   1.676
 6705SOL    HW121014   6.593   2.979   1.578
 6705SOL    HW221015   6.513   2.948   1.717
 6706SOL     OW21016   1.247   3.720   2.381
 6706SOL    HW121017   1.198   3.633   2.390
 6706SOL    HW221018   1.311   3.714   2.305
 6707SOL     OW21019   6.880   6.060   3.310
 6707SOL    HW121020   6.965   6.011   3.290
 6707SOL    HW221021   6.814   5.996   3.350
 6708SOL     OW21022   6.423   5.555   2.102
 6708SOL    HW121023   6.475   5.529   2.022
 6708SOL    HW221024   6.332   5.512   2.099
 6709SOL     OW21025   2.900   6.181   3.404
 6709SOL    HW121026   2.899   6.146   3.498
 6709SOL    HW221027   2.825   6.139   3.353
 6710SOL     OW21028   3.752   0.873   5.808
 6710SOL    HW121029   3.664   0.838   5.775
 6710SOL    HW221030   3.739   0.965   5.846
 6711SOL     OW21031   4.559   5.431   6.170
 6711SOL    HW121032   4.604   5.342   6.168
 6711SOL    HW221033   4.620   5.501   6.132
 6712SOL     OW21034   5.594   3.954   0.036
 6712SOL    HW121035   5.660   3.879   0.028
 6712SOL    HW221036   5.643   4.040   0.049
 6713SOL     OW21037   2.083   0.195   2.517
 6713SOL    HW121038   2.004   0.134   2.519
 6713SOL    HW221039   2.149   0.166   2.586
 6714SOL     OW21040   5.788   0.900   6.090
 6714SOL    HW121041   5.703   0.946   6.114
 6714SOL    HW221042   5.837   0.954   6.022
 6715SOL     OW21043   0.499   7.020   0.133
 6715SOL    HW121044   0.538   0.045   0.211
 6715SOL    HW221045   0.462   6.933   0.164
 6716SOL     OW21046   0.485   5.953   1.670
 6716SOL    HW121047   0.491   5.914   1.577
 6716SOL    HW221048   0.405   5.914   1.716
 6717SOL     OW21049   4.337   3.108   0.017
 6717SOL    HW121050   4.251   3.145   0.053
 6717SOL    HW221051   4.386   3.061   0.091
 6718SOL     OW21052   4.883   0.663   0.265
 6718SOL    HW121053   4.788   0.657   0.235
 6718SOL    HW221054   4.907   0.579   0.314
 6719SOL     OW21055   2.710   0.554   6.398
 6719SOL    HW121056   2.633   0.615   6.415
 6719SOL    HW221057   2.752   0.528   6.484
 6720SOL     OW21058   1.293   6.717   4.402
 6720SOL    HW121059   1.386   6.752   4.401
 6720SOL    HW221060   1.284   6.643   4.336
 6721SOL     OW21061   6.866   0.312   6.733
 6721SOL    HW121062   6.966   0.318   6.729
 6721SOL    HW221063   6.826   0.375   6.667
 6722SOL     OW21064   6.594   2.703   1.297
 6722SOL    HW121065   6.597   2.640   1.220
 6722SOL    HW221066   6.572   2.652   1.381
 6723SOL     OW21067   2.718   6.504   3.205
 6723SOL    HW121068   2.757   6.581   3.155
 6723SOL    HW221069   2.788   6.464   3.264
 6724SOL     OW21070   1.430   3.325   5.563
 6724SOL    HW121071   1.400   3.265   5.488
 6724SOL    HW221072   1.506   3.282   5.611
 6725SOL     OW21073   0.283   3.921   1.599
 6725SOL    HW121074   0.259   4.011   1.637
 6725SOL    HW221075   0.379   3.923   1.570
 6726SOL     OW21076   0.735   1.911   5.088
 6726SOL    HW121077   0.669   1.985   5.072
 6726SOL    HW221078   0.691   1.823   5.073
 6727SOL     OW21079   6.632   4.269   5.458
 6727SOL    HW121080   6.675   4.180   5.471
 6727SOL    HW221081   6.661   4.307   5.370
 6728SOL     OW21082   3.683   1.761   3.036
 6728SOL    HW121083   3.696   1.753   3.135
 6728SOL    HW221084   3.683   1.670   2.994
 6729SOL     OW21085   6.873   0.941   3.114
 6729SOL    HW121086   6.777   0.915   3.103
 6729SOL    HW221087   6.901   0.925   3.209
 6730SOL     OW21088   2.744   6.800   0.018
 6730SOL    HW121089   2.827   6.815   0.072
 6730SOL    HW221090   2.666   6.841   0.065
 6731SOL     OW21091   0.727   6.046   1.774
 6731SOL    HW121092   0.781   5.969   1.809
 6731SOL    HW221093   0.639   6.012   1.741
 6732SOL     OW21094   5.694   4.972   5.297
 6732SOL    HW121095   5.716   4.919   5.215
 6732SOL    HW221096   5.605   5.017   5.285
 6733SOL     OW21097   4.021   5.288   0.030
 6733SOL    HW121098   4.116   5.262   0.016
 6733SOL    HW221099   3.996   5.272   0.126
 6734SOL     OW21100   6.205   2.144   4.937
 6734SOL    HW121101   6.147   2.063   4.927
 6734SOL    HW221102   6.301   2.115   4.944
 6735SOL     OW21103   6.703   4.419   4.701
 6735SOL    HW121104   6.693   4.364   4.618
 6735SOL    HW221105   6.617   4.464   4.722
 6736SOL     OW21106   3.498   3.452   6.964
 6736SOL    HW121107   3.460   3.372   7.011
 6736SOL    HW221108   3.595   3.435   6.944
 6737SOL     OW21109   2.118   2.470   0.809
 6737SOL    HW121110   2.192   2.453   0.874
 6737SOL    HW221111   2.137   2.554   0.757
 6738SOL     OW21112   1.910   5.116   2.495
 6738SOL    HW121113   1.949   5.182   2.558
 6738SOL    HW221114   1.822   5.150   2.461
 6739SOL     OW21115   3.701   6.174   5.355
 6739SOL    HW121116   3.626   6.148   5.294
 6739SOL    HW221117   3.712   6.274   5.352
 6740SOL     OW21118   1.873   0.496   4.547
 6740SOL    HW121119   1.908   0.589   4.533
 6740SOL    HW221120   1.787   0.501   4.598
 6741SOL     OW21121   4.351   1.119   5.641
 6741SOL    HW121122   4.381   1.025   5.653
 6741SOL    HW221123   4.418   1.169   5.586
 6742SOL     OW21124   6.565   6.072   3.000
 6742SOL    HW121125   6.497   6.017   3.049
 6742SOL    HW221126   6.538   6.080   2.904
 6743SOL     OW21127   3.603   4.727   0.442
 6743SOL    HW121128   3.547   4.809   0.455
 6743SOL    HW221129   3.663   4.715   0.520
 6744SOL     OW21130   5.737   4.119   6.686
 6744SOL    HW121131   5.753   4.175   6.767
 6744SOL    HW221132   5.751   4.175   6.604
 6745SOL     OW21133   0.057   0.475   2.874
 6745SOL    HW121134   0.119   0.441   2.945
 6745SOL    HW221135   7.007   0.528   2.917
 6746SOL     OW21136   1.238   1.021   3.182
 6746SOL    HW121137   1.236   0.972   3.269
 6746SOL    HW221138   1.285   0.966   3.113
 6747SOL     OW21139   5.889   1.168   4.941
 6747SOL    HW121140   5.909   1.212   4.854
 6747SOL    HW221141   5.807   1.209   4.982
 6748SOL     OW21142   1.892   0.857   3.681
 6748SOL    HW121143   1.800   0.896   3.671
 6748SOL    HW221144   1.886   0.757   3.680
 6749SOL     OW21145   2.721   6.553   0.146
 6749SOL    HW121146   2.733   6.641   0.101
 6749SOL    HW221147   2.639   6.508   0.111
 6750SOL     OW21148   4.043   2.165   5.055
 6750SOL    HW121149   3.947   2.163   5.027
 6750SOL    HW221150   4.062   2.250   5.104
 6751SOL     OW21151   4.286   0.281   3.675
 6751SOL    HW121152   4.382   0.271   3.648
 6751SOL    HW221153   4.229   0.224   3.615
 6752SOL     OW21154   0.337   2.406   2.700
 6752SOL    HW121155   0.395   2.485   2.719
 6752SOL    HW221156   0.389   2.337   2.650
 6753SOL     OW21157   4.095   1.224   6.483
 6753SOL    HW121158   4.047   1.308   6.461
 6753SOL    HW221159   4.082   1.202   6.580
 6754SOL     OW21160   0.412   1.659   0.336
 6754SOL    HW121161   0.350   1.603   0.282
 6754SOL    HW221162   0.467   1.716   0.275
 6755SOL     OW21163   3.726   0.550   3.617
 6755SOL    HW121164   3.747   0.520   3.524
 6755SOL    HW221165   3.707   0.649   3.616
 6756SOL     OW21166   3.901   5.167   5.521
 6756SOL    HW121167   3.843   5.247   5.538
 6756SOL    HW221168   3.859   5.111   5.449
 6757SOL     OW21169   4.269   0.593   2.011
 6757SOL    HW121170   4.317   0.549   2.087
 6757SOL    HW221171   4.214   0.669   2.046
 6758SOL     OW21172   6.430   2.281   1.572
 6758SOL    HW121173   6.457   2.376   1.556
 6758SOL    HW221174   6.509   2.229   1.604
 6759SOL     OW21175   0.905   4.547   4.187
 6759SOL    HW121176   0.813   4.580   4.208
 6759SOL    HW221177   0.922   4.463   4.239
 6760SOL     OW21178   6.488   4.663   3.281
 6760SOL    HW121179   6.391   4.681   3.267
 6760SOL    HW221180   6.541   4.716   3.214
 6761SOL     OW21181   6.306   2.285   5.957
 6761SOL    HW121182   6.389   2.336   5.978
 6761SOL    HW221183   6.288   2.219   6.031
 6762SOL     OW21184   0.253   5.376   3.268
 6762SOL    HW121185   0.274   5.295   3.323
 6762SOL    HW221186   0.162   5.367   3.227
 6763SOL     OW21187   0.266   4.631   2.906
 6763SOL    HW121188   0.254   4.532   2.912
 6763SOL    HW221189   0.235   4.674   2.991
 6764SOL     OW21190   2.223   5.235   6.657
 6764SOL    HW121191   2.200   5.158   6.717
 6764SOL    HW221192   2.306   5.279   6.690
 6765SOL     OW21193   5.304   4.481   3.622
 6765SOL    HW121194   5.228   4.521   3.674
 6765SOL    HW221195   5.377   4.455   3.685
 6766SOL     OW21196   5.107   6.767   6.103
 6766SOL    HW121197   5.159   6.749   6.020
 6766SOL    HW221198   5.149   6.844   6.153
 6767SOL     OW21199   1.260   2.020   0.611
 6767SOL    HW121200   1.262   1.982   0.519
 6767SOL    HW221201   1.300   1.954   0.675
 6768SOL     OW21202   1.014   6.348   3.522
 6768SOL    HW121203   0.966   6.285   3.461
 6768SOL    HW221204   1.103   6.309   3.547
 6769SOL     OW21205   2.526   7.014   5.878
 6769SOL    HW121206   2.544   6.961   5.962
 6769SOL    HW221207   2.480   0.076   5.902
 6770SOL     OW21208   5.273   1.810   3.692
 6770SOL    HW121209   5.257   1.780   3.786
 6770SOL    HW221210   5.320   1.739   3.641
 6771SOL     OW21211   3.805   1.130   2.079
 6771SOL    HW121212   3.849   1.202   2.026
 6771SOL    HW221213   3.802   1.045   2.026
 6772SOL     OW21214   4.710   2.120   2.663
 6772SOL    HW121215   4.714   2.044   2.599
 6772SOL    HW221216   4.684   2.087   2.754
 6773SOL     OW21217   0.004   6.593   1.803
 6773SOL    HW121218   7.016   6.550   1.893
 6773SOL    HW221219   6.989   6.686   1.806
 6774SOL     OW21220   1.461   3.188   4.444
 6774SOL    HW121221   1.486   3.237   4.527
 6774SOL    HW221222   1.423   3.253   4.377
 6775SOL     OW21223   0.842   2.387   3.453
 6775SOL    HW121224   0.919   2.333   3.485
 6775SOL    HW221225   0.815   2.357   3.361
 6776SOL     OW21226   4.213   4.265   0.885
 6776SOL    HW121227   4.131   4.223   0.844
 6776SOL    HW221228   4.290   4.202   0.876
 6777SOL     OW21229   4.248   5.431   0.877
 6777SOL    HW121230   4.283   5.524   0.885
 6777SOL    HW221231   4.173   5.418   0.943
 6778SOL     OW21232   6.010   3.934   2.081
 6778SOL    HW121233   6.014   3.861   2.013
 6778SOL    HW221234   6.103   3.957   2.111
 6779SOL     OW21235   5.389   4.548   5.990
 6779SOL    HW121236   5.356   4.594   5.907
 6779SOL    HW221237   5.352   4.456   5.994
 6780SOL     OW21238   0.594   3.288   3.211
 6780SOL    HW121239   0.571   3.318   3.118
 6780SOL    HW221240   0.511   3.284   3.266
 6781SOL     OW21241   7.017   2.237   4.252
 6781SOL    HW121242   0.015   2.236   4.155
 6781SOL    HW221243   6.964   2.156   4.276
 6782SOL     OW21244   0.857   1.131   3.424
 6782SOL    HW121245   0.921   1.200   3.458
 6782SOL    HW221246   0.792   1.107   3.497
 6783SOL     OW21247   0.845   2.594   6.447
 6783SOL    HW121248   0.905   2.557   6.376
 6783SOL    HW221249   0.794   2.672   6.410
 6784SOL     OW21250   2.387   3.741   0.757
 6784SOL    HW121251   2.292   3.729   0.728
 6784SOL    HW221252   2.435   3.654   0.750
 6785SOL     OW21253   5.675   4.852   5.036
 6785SOL    HW121254   5.754   4.874   4.979
 6785SOL    HW221255   5.597   4.829   4.978
 6786SOL     OW21256   0.959   2.760   0.036
 6786SOL    HW121257   1.017   2.688   7.023
 6786SOL    HW221258   0.985   2.847   7.018
 6787SOL     OW21259   3.492   2.436   1.190
 6787SOL    HW121260   3.426   2.502   1.227
 6787SOL    HW221261   3.476   2.347   1.232
 6788SOL     OW21262   0.054   4.512   1.914
 6788SOL    HW121263   0.101   4.534   1.828
 6788SOL    HW221264   0.034   4.414   1.916
 6789SOL     OW21265   0.466   4.249   3.867
 6789SOL    HW121266   0.536   4.320   3.880
 6789SOL    HW221267   0.376   4.289   3.880
 6790SOL     OW21268   0.763   3.930   6.906
 6790SOL    HW121269   0.814   3.859   6.954
 6790SOL    HW221270   0.809   4.018   6.917
 6791SOL     OW21271   4.028   2.035   2.350
 6791SOL    HW121272   3.983   1.991   2.427
 6791SOL    HW221273   4.073   2.118   2.381
 6792SOL     OW21274   5.455   0.071   5.921
 6792SOL    HW121275   5.470   0.008   5.844
 6792SOL    HW221276   5.357   0.087   5.931
 6793SOL     OW21277   3.713   0.680   6.687
 6793SOL    HW121278   3.633   0.651   6.740
 6793SOL    HW221279   3.699   0.773   6.654
 6794SOL     OW21280   5.646   1.295   5.054
 6794SOL    HW121281   5.607   1.298   5.146
 6794SOL    HW221282   5.660   1.388   5.021
 6795SOL     OW21283   1.027   5.797   0.564
 6795SOL    HW121284   1.078   5.882   0.552
 6795SOL    HW221285   1.062   5.728   0.502
 6796SOL     OW21286   6.019   7.001   2.289
 6796SOL    HW121287   6.021   6.911   2.334
 6796SOL    HW221288   6.083   7.001   2.212
 6797SOL     OW21289   6.231   1.621   1.182
 6797SOL    HW121290   6.229   1.720   1.171
 6797SOL    HW221291   6.221   1.598   1.278
 6798SOL     OW21292   6.464   0.005   1.862
 6798SOL    HW121293   6.390   0.050   1.913
 6798SOL    HW221294   6.431   6.943   1.823
 6799SOL     OW21295   6.047   6.790   2.459
 6799SOL    HW121296   5.963   6.767   2.507
 6799SOL    HW221297   6.087   6.707   2.420
 6800SOL     OW21298   2.415   2.471   2.036
 6800SOL    HW121299   2.387   2.398   1.973
 6800SOL    HW221300   2.498   2.444   2.084
 6801SOL     OW21301   0.920   6.824   4.272
 6801SOL    HW121302   0.835   6.848   4.225
 6801SOL    HW221303   0.981   6.904   4.273
 6802SOL     OW21304   3.152   6.217   1.361
 6802SOL    HW121305   3.148   6.286   1.289
 6802SOL    HW221306   3.102   6.249   1.441
 6803SOL     OW21307   4.147   4.268   6.717
 6803SOL    HW121308   4.162   4.283   6.815
 6803SOL    HW221309   4.106   4.178   6.703
 6804SOL     OW21310   4.138   5.044   2.975
 6804SOL    HW121311   4.212   4.984   3.004
 6804SOL    HW221312   4.080   5.066   3.054
 6805SOL     OW21313   0.428   5.308   6.486
 6805SOL    HW121314   0.479   5.304   6.400
 6805SOL    HW221315   0.488   5.281   6.562
 6806SOL     OW21316   6.620   0.917   4.461
 6806SOL    HW121317   6.667   0.906   4.373
 6806SOL    HW221318   6.687   0.926   4.534
 6807SOL     OW21319   3.549   3.740   2.698
 6807SOL    HW121320   3.501   3.782   2.775
 6807SOL    HW221321   3.620   3.679   2.733
 6808SOL     OW21322   7.004   1.476   5.583
 6808SOL    HW121323   6.934   1.541   5.555
 6808SOL    HW221324   0.029   1.442   5.502
 6809SOL     OW21325   6.378   3.198   0.892
 6809SOL    HW121326   6.466   3.158   0.868
 6809SOL    HW221327   6.313   3.182   0.817
 6810SOL     OW21328   2.786   1.120   1.960
 6810SOL    HW121329   2.800   1.176   1.878
 6810SOL    HW221330   2.696   1.139   1.999
 6811SOL     OW21331   6.202   3.587   2.413
 6811SOL    HW121332   6.267   3.511   2.406
 6811SOL    HW221333   6.246   3.671   2.383
 6812SOL     OW21334   3.693   4.145   4.809
 6812SOL    HW121335   3.775   4.124   4.863
 6812SOL    HW221336   3.721   4.174   4.717
 6813SOL     OW21337   5.927   3.144   2.750
 6813SOL    HW121338   5.907   3.230   2.797
 6813SOL    HW221339   6.023   3.142   2.724
 6814SOL     OW21340   4.850   1.932   6.205
 6814SOL    HW121341   4.902   2.015   6.225
 6814SOL    HW221342   4.828   1.885   6.290
 6815SOL     OW21343   2.533   6.771   6.408
 6815SOL    HW121344   2.521   6.772   6.507
 6815SOL    HW221345   2.538   6.676   6.376
 6816SOL     OW21346   0.255   1.346   5.583
 6816SOL    HW121347   0.328   1.311   5.641
 6816SOL    HW221348   0.169   1.346   5.633
 6817SOL     OW21349   2.177   2.870   3.849
 6817SOL    HW121350   2.183   2.914   3.939
 6817SOL    HW221351   2.156   2.773   3.861
 6818SOL     OW21352   2.143   6.656   0.475
 6818SOL    HW121353   2.051   6.658   0.436
 6818SOL    HW221354   2.171   6.562   0.493
 6819SOL     OW21355   4.445   1.473   2.973
 6819SOL    HW121356   4.441   1.449   2.876
 6819SOL    HW221357   4.377   1.420   3.024
 6820SOL     OW21358   1.578   5.939   1.749
 6820SOL    HW121359   1.540   5.869   1.810
 6820SOL    HW221360   1.569   5.910   1.654
 6821SOL     OW21361   4.058   2.731   5.371
 6821SOL    HW121362   4.137   2.684   5.331
 6821SOL    HW221363   3.983   2.665   5.383
 6822SOL     OW21364   5.935   2.348   5.536
 6822SOL    HW121365   5.903   2.303   5.452
 6822SOL    HW221366   5.858   2.360   5.598
 6823SOL     OW21367   5.657   4.423   6.055
 6823SOL    HW121368   5.571   4.474   6.050
 6823SOL    HW221369   5.734   4.486   6.061
 6824SOL     OW21370   1.533   1.417   0.681
 6824SOL    HW121371   1.487   1.380   0.761
 6824SOL    HW221372   1.493   1.506   0.658
 6825SOL     OW21373   6.147   0.603   0.580
 6825SOL    HW121374   6.240   0.586   0.547
 6825SOL    HW221375   6.125   0.537   0.652
 6826SOL     OW21376   1.740   3.581   3.791
 6826SOL    HW121377   1.837   3.583   3.764
 6826SOL    HW221378   1.708   3.674   3.806
 6827SOL     OW21379   5.464   5.278   6.493
 6827SOL    HW121380   5.562   5.296   6.505
 6827SOL    HW221381   5.430   5.231   6.574
 6828SOL     OW21382   3.959   1.619   2.455
 6828SOL    HW121383   3.971   1.628   2.554
 6828SOL    HW221384   4.042   1.650   2.408
 6829SOL     OW21385   5.592   6.464   5.165
 6829SOL    HW121386   5.685   6.445   5.136
 6829SOL    HW221387   5.593   6.510   5.254
 6830SOL     OW21388   4.759   0.493   3.578
 6830SOL    HW121389   4.737   0.458   3.487
 6830SOL    HW221390   4.719   0.433   3.647
 6831SOL     OW21391   1.821   1.155   5.670
 6831SOL    HW121392   1.736   1.114   5.702
 6831SOL    HW221393   1.856   1.218   5.739
 6832SOL     OW21394   2.148   4.182   0.571
 6832SOL    HW121395   2.129   4.263   0.515
 6832SOL    HW221396   2.200   4.116   0.518
 6833SOL     OW21397   2.097   4.732   6.173
 6833SOL    HW121398   2.164   4.669   6.212
 6833SOL    HW221399   2.144   4.816   6.144
 6834SOL     OW21400   6.534   6.919   0.663
 6834SOL    HW121401   6.514   6.865   0.581
 6834SOL    HW221402   6.485   7.006   0.658
 6835SOL     OW21403   3.725   1.365   4.404
 6835SOL    HW121404   3.824   1.351   4.393
 6835SOL    HW221405   3.707   1.404   4.494
 6836SOL     OW21406   2.675   4.118   6.595
 6836SOL    HW121407   2.580   4.116   6.626
 6836SOL    HW221408   2.726   4.185   6.649
 6837SOL     OW21409   0.716   2.227   3.275
 6837SOL    HW121410   0.754   2.164   3.343
 6837SOL    HW221411   0.779   2.235   3.198
 6838SOL     OW21412   2.684   4.690   6.456
 6838SOL    HW121413   2.759   4.702   6.391
 6838SOL    HW221414   2.720   4.679   6.548
 6839SOL     OW21415   5.289   1.209   5.150
 6839SOL    HW121416   5.203   1.186   5.196
 6839SOL    HW221417   5.312   1.137   5.084
 6840SOL     OW21418   2.978   6.589   5.321
 6840SOL    HW121419   2.898   6.549   5.366
 6840SOL    HW221420   3.000   6.676   5.364
 6841SOL     OW21421   3.753   4.999   0.748
 6841SOL    HW121422   3.693   5.018   0.670
 6841SOL    HW221423   3.698   4.973   0.827
 6842SOL     OW21424   2.335   2.921   7.002
 6842SOL    HW121425   2.338   2.830   0.021
 6842SOL    HW221426   2.293   2.914   6.912
 6843SOL     OW21427   5.632   0.115   1.851
 6843SOL    HW121428   5.628   0.112   1.751
 6843SOL    HW221429   5.725   0.095   1.881
 6844SOL     OW21430   5.874   6.853   3.717
 6844SOL    HW121431   5.893   6.920   3.646
 6844SOL    HW221432   5.902   6.762   3.686
 6845SOL     OW21433   5.327   4.248   2.495
 6845SOL    HW121434   5.270   4.167   2.511
 6845SOL    HW221435   5.379   4.236   2.411
 6846SOL     OW21436   4.141   3.482   1.434
 6846SOL    HW121437   4.225   3.432   1.411
 6846SOL    HW221438   4.067   3.450   1.375
 6847SOL     OW21439   6.823   4.537   2.645
 6847SOL    HW121440   6.919   4.541   2.670
 6847SOL    HW221441   6.772   4.486   2.715
 6848SOL     OW21442   3.179   6.201   3.337
 6848SOL    HW121443   3.168   6.261   3.258
 6848SOL    HW221444   3.091   6.192   3.384
 6849SOL     OW21445   3.074   5.568   4.998
 6849SOL    HW121446   3.131   5.499   4.953
 6849SOL    HW221447   2.990   5.526   5.031
 6850SOL     OW21448   5.640   3.423   2.210
 6850SOL    HW121449   5.653   3.425   2.111
 6850SOL    HW221450   5.617   3.330   2.238
 6851SOL     OW21451   1.432   2.958   3.648
 6851SOL    HW121452   1.451   3.026   3.718
 6851SOL    HW221453   1.452   2.867   3.685
 6852SOL     OW21454   1.902   4.605   0.923
 6852SOL    HW121455   1.971   4.543   0.958
 6852SOL    HW221456   1.903   4.690   0.976
 6853SOL     OW21457   0.034   3.943   6.918
 6853SOL    HW121458   0.060   3.901   6.831
 6853SOL    HW221459   0.095   4.021   6.936
 6854SOL     OW21460   6.073   2.141   5.801
 6854SOL    HW121461   6.103   2.048   5.819
 6854SOL    HW221462   6.124   2.205   5.858
 6855SOL     OW21463   3.066   5.853   2.584
 6855SOL    HW121464   3.031   5.938   2.546
 6855SOL    HW221465   2.990   5.800   2.623
 6856SOL     OW21466   5.247   4.847   5.495
 6856SOL    HW121467   5.228   4.767   5.438
 6856SOL    HW221468   5.207   4.833   5.586
 6857SOL     OW21469   3.228   1.438   0.293
 6857SOL    HW121470   3.139   1.411   0.329
 6857SOL    HW221471   3.252   1.529   0.328
 6858SOL     OW21472   3.921   3.481   3.978
 6858SOL    HW121473   3.869   3.493   3.894
 6858SOL    HW221474   3.859   3.477   4.056
 6859SOL     OW21475   1.515   0.043   1.170
 6859SOL    HW121476   1.441   0.085   1.118
 6859SOL    HW221477   1.567   7.004   1.111
 6860SOL     OW21478   5.862   5.473   1.167
 6860SOL    HW121479   5.781   5.479   1.226
 6860SOL    HW221480   5.932   5.418   1.213
 6861SOL     OW21481   5.893   4.414   0.876
 6861SOL    HW121482   5.910   4.330   0.927
 6861SOL    HW221483   5.795   4.423   0.858
 6862SOL     OW21484   2.139   4.991   4.781
 6862SOL    HW121485   2.051   4.946   4.769
 6862SOL    HW221486   2.208   4.923   4.806
 6863SOL     OW21487   6.334   1.474   5.010
 6863SOL    HW121488   6.240   1.492   4.981
 6863SOL    HW221489   6.340   1.482   5.110
 6864SOL     OW21490   3.513   6.031   4.096
 6864SOL    HW121491   3.444   6.012   4.165
 6864SOL    HW221492   3.470   6.035   4.006
 6865SOL     OW21493   0.137   5.605   2.911
 6865SOL    HW121494   0.168   5.698   2.928
 6865SOL    HW221495   0.045   5.592   2.949
 6866SOL     OW21496   6.849   4.790   2.481
 6866SOL    HW121497   6.905   4.781   2.399
 6866SOL    HW221498   6.837   4.700   2.524
 6867SOL     OW21499   1.594   4.962   1.415
 6867SOL    HW121500   1.546   5.024   1.353
 6867SOL    HW221501   1.687   4.945   1.380
 6868SOL     OW21502   0.869   5.239   5.784
 6868SOL    HW121503   0.929   5.315   5.757
 6868SOL    HW221504   0.908   5.193   5.863
 6869SOL     OW21505   6.026   0.969   5.081
 6869SOL    HW121506   5.975   1.034   5.025
 6869SOL    HW221507   6.051   0.890   5.025
 6870SOL     OW21508   6.910   4.993   1.997
 6870SOL    HW121509   6.842   5.051   2.042
 6870SOL    HW221510   6.976   4.961   2.065
 6871SOL     OW21511   5.866   4.296   2.676
 6871SOL    HW121512   5.917   4.244   2.608
 6871SOL    HW221513   5.771   4.265   2.677
 6872SOL     OW21514   0.772   3.482   1.099
 6872SOL    HW121515   0.828   3.423   1.157
 6872SOL    HW221516   0.770   3.444   1.006
 6873SOL     OW21517   6.640   3.934   4.904
 6873SOL    HW121518   6.686   3.923   4.817
 6873SOL    HW221519   6.680   4.011   4.954
 6874SOL     OW21520   0.856   4.757   2.713
 6874SOL    HW121521   0.915   4.814   2.770
 6874SOL    HW221522   0.852   4.665   2.752
 6875SOL     OW21523   1.112   2.578   3.550
 6875SOL    HW121524   1.192   2.635   3.536
 6875SOL    HW221525   1.029   2.633   3.539
 6876SOL     OW21526   4.085   6.472   5.102
 6876SOL    HW121527   4.071   6.373   5.102
 6876SOL    HW221528   4.183   6.492   5.093
 6877SOL     OW21529   2.417   4.553   6.900
 6877SOL    HW121530   2.398   4.464   6.942
 6877SOL    HW221531   2.424   4.542   6.801
 6878SOL     OW21532   2.926   2.310   5.485
 6878SOL    HW121533   2.981   2.394   5.489
 6878SOL    HW221534   2.904   2.288   5.390
 6879SOL     OW21535   1.014   2.243   0.278
 6879SOL    HW121536   1.044   2.333   0.246
 6879SOL    HW221537   1.048   2.228   0.371
 6880SOL     OW21538   1.891   3.421   5.107
 6880SOL    HW121539   1.982   3.462   5.104
 6880SOL    HW221540   1.878   3.364   5.026
 6881SOL     OW21541   0.870   4.004   2.354
 6881SOL    HW121542   0.840   4.066   2.282
 6881SOL    HW221543   0.967   3.983   2.342
 6882SOL     OW21544   3.425   0.270   6.204
 6882SOL    HW121545   3.429   0.216   6.120
 6882SOL    HW221546   3.506   0.328   6.211
 6883SOL     OW21547   4.057   1.958   0.420
 6883SOL    HW121548   3.981   2.021   0.439
 6883SOL    HW221549   4.024   1.864   0.424
 6884SOL     OW21550   1.756   3.914   4.709
 6884SOL    HW121551   1.796   3.827   4.682
 6884SOL    HW221552   1.772   3.982   4.638
 6885SOL     OW21553   4.201   6.260   4.746
 6885SOL    HW121554   4.260   6.235   4.823
 6885SOL    HW221555   4.147   6.181   4.718
 6886SOL     OW21556   6.756   0.420   4.179
 6886SOL    HW121557   6.716   0.341   4.226
 6886SOL    HW221558   6.701   0.443   4.099
 6887SOL     OW21559   5.257   6.861   5.107
 6887SOL    HW121560   5.245   6.955   5.074
 6887SOL    HW221561   5.351   6.850   5.139
 6888SOL     OW21562   5.321   6.381   6.725
 6888SOL    HW121563   5.309   6.283   6.705
 6888SOL    HW221564   5.409   6.395   6.770
 6889SOL     OW21565   1.664   2.563   5.161
 6889SOL    HW121566   1.680   2.552   5.063
 6889SOL    HW221567   1.751   2.559   5.209
 6890SOL     OW21568   3.792   0.034   0.788
 6890SOL    HW121569   3.747   6.969   0.780
 6890SOL    HW221570   3.891   0.022   0.785
 6891SOL     OW21571   2.321   4.864   4.235
 6891SOL    HW121572   2.341   4.796   4.164
 6891SOL    HW221573   2.284   4.817   4.315
 6892SOL     OW21574   3.470   1.535   3.192
 6892SOL    HW121575   3.549   1.501   3.244
 6892SOL    HW221576   3.450   1.629   3.219
 6893SOL     OW21577   5.389   5.125   6.706
 6893SOL    HW121578   5.376   5.177   6.790
 6893SOL    HW221579   5.303   5.078   6.683
 6894SOL     OW21580   6.344   4.548   0.404
 6894SOL    HW121581   6.326   4.451   0.423
 6894SOL    HW221582   6.400   4.556   0.321
 6895SOL     OW21583   2.362   5.602   6.312
 6895SOL    HW121584   2.295   5.541   6.353
 6895SOL    HW221585   2.315   5.670   6.256
 6896SOL     OW21586   1.419   6.762   3.990
 6896SOL    HW121587   1.360   6.826   3.939
 6896SOL    HW221588   1.478   6.713   3.926
 6897SOL     OW21589   2.636   3.425   0.157
 6897SOL    HW121590   2.570   3.413   0.083
 6897SOL    HW221591   2.686   3.340   0.171
 6898SOL     OW21592   3.897   1.403   2.245
 6898SOL    HW121593   3.907   1.489   2.295
 6898SOL    HW221594   3.823   1.350   2.284
 6899SOL     OW21595   5.035   6.703   1.248
 6899SOL    HW121596   5.080   6.692   1.159
 6899SOL    HW221597   5.102   6.701   1.321
 6900SOL     OW21598   6.553   0.484   5.485
 6900SOL    HW121599   6.500   0.462   5.567
 6900SOL    HW221600   6.494   0.478   5.405
 6901SOL     OW21601   0.524   6.878   5.821
 6901SOL    HW121602   0.431   6.843   5.811
 6901SOL    HW221603   0.581   6.809   5.866
 6902SOL     OW21604   5.732   6.776   0.604
 6902SOL    HW121605   5.826   6.761   0.573
 6902SOL    HW221606   5.733   6.835   0.685
 6903SOL     OW21607   3.992   5.536   4.426
 6903SOL    HW121608   4.045   5.543   4.341
 6903SOL    HW221609   3.911   5.480   4.411
 6904SOL     OW21610   6.008   1.915   4.294
 6904SOL    HW121611   5.926   1.972   4.294
 6904SOL    HW221612   6.078   1.956   4.236
 6905SOL     OW21613   6.012   6.643   0.016
 6905SOL    HW121614   6.069   6.603   6.968
 6905SOL    HW221615   5.999   6.741   7.022
 6906SOL     OW21616   4.681   0.906   4.094
 6906SOL    HW121617   4.615   0.920   4.021
 6906SOL    HW221618   4.647   0.835   4.157
 6907SOL     OW21619   5.138   2.069   1.050
 6907SOL    HW121620   5.138   2.123   0.966
 6907SOL    HW221621   5.113   2.128   1.127
 6908SOL     OW21622   1.256   6.014   6.276
 6908SOL    HW121623   1.234   5.931   6.327
 6908SOL    HW221624   1.314   6.074   6.332
 6909SOL     OW21625   6.059   4.232   1.607
 6909SOL    HW121626   6.030   4.136   1.611
 6909SOL    HW221627   6.053   4.272   1.699
 6910SOL     OW21628   0.336   2.375   3.933
 6910SOL    HW121629   0.405   2.370   4.004
 6910SOL    HW221630   0.375   2.346   3.845
 6911SOL     OW21631   4.797   6.175   3.654
 6911SOL    HW121632   4.795   6.088   3.604
 6911SOL    HW221633   4.878   6.227   3.628
 6912SOL     OW21634   3.550   5.019   0.553
 6912SOL    HW121635   3.577   5.007   0.458
 6912SOL    HW221636   3.453   4.996   0.563
 6913SOL     OW21637   5.228   4.797   5.150
 6913SOL    HW121638   5.198   4.890   5.168
 6913SOL    HW221639   5.156   4.733   5.177
 6914SOL     OW21640   5.334   4.440   0.030
 6914SOL    HW121641   5.394   4.438   6.973
 6914SOL    HW221642   5.240   4.453   0.000
 6915SOL     OW21643   6.025   3.932   1.585
 6915SOL    HW121644   6.085   3.880   1.646
 6915SOL    HW221645   5.932   3.898   1.593
 6916SOL     OW21646   6.493   3.804   6.915
 6916SOL    HW121647   6.461   3.898   6.906
 6916SOL    HW221648   6.415   3.741   6.908
 6917SOL     OW21649   3.111   5.633   0.976
 6917SOL    HW121650   3.095   5.726   0.943
 6917SOL    HW221651   3.136   5.636   1.073
 6918SOL     OW21652   0.821   3.220   4.328
 6918SOL    HW121653   0.881   3.296   4.305
 6918SOL    HW221654   0.800   3.222   4.426
 6919SOL     OW21655   0.581   6.426   2.668
 6919SOL    HW121656   0.491   6.460   2.695
 6919SOL    HW221657   0.592   6.434   2.569
 6920SOL     OW21658   4.291   5.601   5.525
 6920SOL    HW121659   4.216   5.534   5.526
 6920SOL    HW221660   4.373   5.559   5.486
 6921SOL     OW21661   5.452   6.355   3.484
 6921SOL    HW121662   5.411   6.445   3.498
 6921SOL    HW221663   5.520   6.360   3.411
 6922SOL     OW21664   2.116   5.812   6.601
 6922SOL    HW121665   2.153   5.734   6.651
 6922SOL    HW221666   2.163   5.822   6.514
 6923SOL     OW21667   4.853   5.079   3.300
 6923SOL    HW121668   4.914   5.067   3.378
 6923SOL    HW221669   4.766   5.118   3.330
 6924SOL     OW21670   1.067   4.400   6.699
 6924SOL    HW121671   0.969   4.410   6.683
 6924SOL    HW221672   1.098   4.311   6.665
 6925SOL     OW21673   3.815   6.179   4.724
 6925SOL    HW121674   3.860   6.200   4.811
 6925SOL    HW221675   3.717   6.193   4.734
 6926SOL     OW21676   2.849   3.510   2.156
 6926SOL    HW121677   2.855   3.585   2.090
 6926SOL    HW221678   2.758   3.508   2.196
 6927SOL     OW21679   5.494   3.150   6.386
 6927SOL    HW121680   5.395   3.140   6.381
 6927SOL    HW221681   5.522   3.236   6.345
 6928SOL     OW21682   6.083   6.458   0.528
 6928SOL    HW121683   6.018   6.519   0.572
 6928SOL    HW221684   6.034   6.389   0.475
 6929SOL     OW21685   4.791   5.319   1.055
 6929SOL    HW121686   4.692   5.316   1.040
 6929SOL    HW221687   4.813   5.397   1.113
 6930SOL     OW21688   6.990   0.390   2.624
 6930SOL    HW121689   7.020   0.450   2.698
 6930SOL    HW221690   0.022   0.409   2.542
 6931SOL     OW21691   2.051   0.563   2.602
 6931SOL    HW121692   2.134   0.547   2.548
 6931SOL    HW221693   2.038   0.487   2.665
 6932SOL     OW21694   3.861   6.901   0.537
 6932SOL    HW121695   3.883   6.990   0.576
 6932SOL    HW221696   3.898   6.829   0.595
 6933SOL     OW21697   3.042   5.977   4.914
 6933SOL    HW121698   3.050   6.040   4.991
 6933SOL    HW221699   2.982   6.016   4.844
 6934SOL     OW21700   4.940   4.172   5.912
 6934SOL    HW121701   4.946   4.269   5.936
 6934SOL    HW221702   4.960   4.160   5.815
 6935SOL     OW21703   4.524   6.079   3.378
 6935SOL    HW121704   4.567   6.169   3.388
 6935SOL    HW221705   4.460   6.064   3.453
 6936SOL     OW21706   6.818   2.475   3.419
 6936SOL    HW121707   6.909   2.503   3.388
 6936SOL    HW221708   6.749   2.528   3.371
 6937SOL     OW21709   6.977   6.146   0.669
 6937SOL    HW121710   6.979   6.191   0.758
 6937SOL    HW221711   6.885   6.150   0.631
 6938SOL     OW21712   5.008   3.865   5.900
 6938SOL    HW121713   4.934   3.799   5.915
 6938SOL    HW221714   5.035   3.905   5.988
 6939SOL     OW21715   6.927   4.342   1.413
 6939SOL    HW121716   6.916   4.252   1.371
 6939SOL    HW221717   6.980   4.401   1.352
 6940SOL     OW21718   4.624   1.464   0.813
 6940SOL    HW121719   4.525   1.451   0.814
 6940SOL    HW221720   4.669   1.378   0.839
 6941SOL     OW21721   3.155   3.016   3.177
 6941SOL    HW121722   3.198   2.988   3.091
 6941SOL    HW221723   3.196   2.965   3.253
 6942SOL     OW21724   6.250   2.482   1.201
 6942SOL    HW121725   6.217   2.557   1.144
 6942SOL    HW221726   6.187   2.468   1.277
 6943SOL     OW21727   4.672   5.960   6.658
 6943SOL    HW121728   4.749   5.900   6.635
 6943SOL    HW221729   4.703   6.054   6.665
 6944SOL     OW21730   1.694   3.777   6.557
 6944SOL    HW121731   1.622   3.793   6.490
 6944SOL    HW221732   1.772   3.733   6.512
 6945SOL     OW21733   6.406   3.086   6.110
 6945SOL    HW121734   6.361   3.061   6.196
 6945SOL    HW221735   6.440   3.180   6.117
 6946SOL     OW21736   6.150   6.454   1.315
 6946SOL    HW121737   6.137   6.525   1.246
 6946SOL    HW221738   6.064   6.438   1.363
 6947SOL     OW21739   3.458   6.515   5.402
 6947SOL    HW121740   3.437   6.419   5.424
 6947SOL    HW221741   3.398   6.547   5.329
 6948SOL     OW21742   6.426   0.350   6.480
 6948SOL    HW121743   6.447   0.448   6.472
 6948SOL    HW221744   6.438   0.306   6.391
 6949SOL     OW21745   4.993   6.803   3.508
 6949SOL    HW121746   4.957   6.773   3.419
 6949SOL    HW221747   5.007   6.902   3.506
 6950SOL     OW21748   2.351   0.324   3.716
 6950SOL    HW121749   2.329   0.243   3.769
 6950SOL    HW221750   2.388   0.395   3.777
 6951SOL     OW21751   6.369   6.555   5.801
 6951SOL    HW121752   6.416   6.635   5.837
 6951SOL    HW221753   6.435   6.500   5.748
 6952SOL     OW21754   0.137   5.796   3.685
 6952SOL    HW121755   0.116   5.702   3.710
 6952SOL    HW221756   0.236   5.810   3.683
 6953SOL     OW21757   4.775   0.586   6.827
 6953SOL    HW121758   4.831   0.651   6.878
 6953SOL    HW221759   4.680   0.595   6.855
 6954SOL     OW21760   0.114   3.515   3.873
 6954SOL    HW121761   0.015   3.523   3.862
 6954SOL    HW221762   0.143   3.423   3.845
 6955SOL     OW21763   6.100   0.766   1.641
 6955SOL    HW121764   6.159   0.690   1.667
 6955SOL    HW221765   6.126   0.800   1.551
 6956SOL     OW21766   4.750   6.504   3.392
 6956SOL    HW121767   4.678   6.435   3.381
 6956SOL    HW221768   4.754   6.533   3.487
 6957SOL     OW21769   6.136   4.971   0.750
 6957SOL    HW121770   6.044   4.971   0.788
 6957SOL    HW221771   6.200   5.007   0.817
 6958SOL     OW21772   3.025   3.968   4.974
 6958SOL    HW121773   3.107   4.024   4.963
 6958SOL    HW221774   3.027   3.892   4.910
 6959SOL     OW21775   2.335   1.256   4.617
 6959SOL    HW121776   2.340   1.287   4.521
 6959SOL    HW221777   2.252   1.202   4.629
 6960SOL     OW21778   1.640   5.816   1.491
 6960SOL    HW121779   1.645   5.874   1.409
 6960SOL    HW221780   1.566   5.749   1.481
 6961SOL     OW21781   6.465   2.433   4.136
 6961SOL    HW121782   6.529   2.444   4.212
 6961SOL    HW221783   6.387   2.377   4.166
 6962SOL     OW21784   5.546   5.924   1.898
 6962SOL    HW121785   5.545   5.827   1.874
 6962SOL    HW221786   5.637   5.949   1.931
 6963SOL     OW21787   6.237   5.381   0.913
 6963SOL    HW121788   6.164   5.411   0.852
 6963SOL    HW221789   6.310   5.450   0.913
 6964SOL     OW21790   3.534   6.762   5.037
 6964SOL    HW121791   3.482   6.735   4.956
 6964SOL    HW221792   3.474   6.810   5.101
 6965SOL     OW21793   0.395   3.335   6.868
 6965SOL    HW121794   0.476   3.277   6.864
 6965SOL    HW221795   0.351   3.324   6.957
 6966SOL     OW21796   6.886   1.828   3.338
 6966SOL    HW121797   6.798   1.798   3.375
 6966SOL    HW221798   6.869   1.884   3.256
 6967SOL     OW21799   1.771   0.394   5.637
 6967SOL    HW121800   1.794   0.480   5.592
 6967SOL    HW221801   1.711   0.340   5.577
 6968SOL     OW21802   4.732   6.448   2.632
 6968SOL    HW121803   4.753   6.488   2.543
 6968SOL    HW221804   4.717   6.349   2.622
 6969SOL     OW21805   2.508   2.545   1.147
 6969SOL    HW121806   2.581   2.492   1.103
 6969SOL    HW221807   2.529   2.557   1.244
 6970SOL     OW21808   3.132   3.844   6.485
 6970SOL    HW121809   3.201   3.858   6.556
 6970SOL    HW221810   3.069   3.922   6.485
 6971SOL     OW21811   6.186   4.718   1.408
 6971SOL    HW121812   6.131   4.774   1.470
 6971SOL    HW221813   6.199   4.627   1.448
 6972SOL     OW21814   5.695   4.995   3.233
 6972SOL    HW121815   5.632   5.036   3.299
 6972SOL    HW221816   5.710   4.899   3.257
 6973SOL     OW21817   0.448   3.247   5.275
 6973SOL    HW121818   0.512   3.200   5.335
 6973SOL    HW221819   0.354   3.220   5.297
 6974SOL     OW21820   3.297   2.960   2.917
 6974SOL    HW121821   3.338   3.017   2.845
 6974SOL    HW221822   3.318   2.864   2.899
 6975SOL     OW21823   2.005   5.661   6.169
 6975SOL    HW121824   1.955   5.626   6.248
 6975SOL    HW221825   2.001   5.593   6.095
 6976SOL     OW21826   4.551   5.580   4.817
 6976SOL    HW121827   4.527   5.647   4.747
 6976SOL    HW221828   4.491   5.501   4.809
 6977SOL     OW21829   4.427   2.517   1.853
 6977SOL    HW121830   4.422   2.502   1.755
 6977SOL    HW221831   4.498   2.585   1.873
 6978SOL     OW21832   4.472   1.777   2.489
 6978SOL    HW121833   4.464   1.690   2.441
 6978SOL    HW221834   4.419   1.847   2.442
 6979SOL     OW21835   1.325   4.254   1.184
 6979SOL    HW121836   1.269   4.254   1.268
 6979SOL    HW221837   1.265   4.269   1.105
 6980SOL     OW21838   1.304   1.295   3.802
 6980SOL    HW121839   1.267   1.214   3.848
 6980SOL    HW221840   1.381   1.267   3.744
 6981SOL     OW21841   3.976   3.102   5.825
 6981SOL    HW121842   4.044   3.118   5.896
 6981SOL    HW221843   3.971   3.004   5.806
 6982SOL     OW21844   1.223   0.644   4.585
 6982SOL    HW121845   1.168   0.609   4.509
 6982SOL    HW221846   1.259   0.734   4.561
 6983SOL     OW21847   4.486   2.231   4.012
 6983SOL    HW121848   4.421   2.182   3.954
 6983SOL    HW221849   4.525   2.168   4.079
 6984SOL     OW21850   2.383   1.522   4.023
 6984SOL    HW121851   2.294   1.515   3.978
 6984SOL    HW221852   2.430   1.605   3.992
 6985SOL     OW21853   4.070   5.449   1.380
 6985SOL    HW121854   4.111   5.391   1.450
 6985SOL    HW221855   3.974   5.468   1.405
 6986SOL     OW21856   2.232   6.402   6.276
 6986SOL    HW121857   2.285   6.317   6.269
 6986SOL    HW221858   2.294   6.479   6.292
 6987SOL     OW21859   0.406   1.810   6.343
 6987SOL    HW121860   0.307   1.809   6.328
 6987SOL    HW221861   0.433   1.901   6.375
 6988SOL     OW21862   7.007   1.227   5.928
 6988SOL    HW121863   7.003   1.197   5.833
 6988SOL    HW221864   6.989   1.325   5.933
 6989SOL     OW21865   0.407   3.802   3.616
 6989SOL    HW121866   0.439   3.719   3.571
 6989SOL    HW221867   0.403   3.786   3.715
 6990SOL     OW21868   4.995   2.362   1.639
 6990SOL    HW121869   5.089   2.366   1.605
 6990SOL    HW221870   4.978   2.272   1.680
 6991SOL     OW21871   3.461   4.973   3.927
 6991SOL    HW121872   3.362   4.964   3.937
 6991SOL    HW221873   3.482   5.013   3.838
 6992SOL     OW21874   5.334   6.556   5.527
 6992SOL    HW121875   5.326   6.468   5.482
 6992SOL    HW221876   5.412   6.554   5.590
 6993SOL     OW21877   6.590   0.760   3.582
 6993SOL    HW121878   6.657   0.703   3.535
 6993SOL    HW221879   6.586   0.849   3.538
 6994SOL     OW21880   0.367   2.241   4.544
 6994SOL    HW121881   0.317   2.301   4.482
 6994SOL    HW221882   0.384   2.153   4.499
 6995SOL     OW21883   6.819   4.560   5.976
 6995SOL    HW121884   6.738   4.571   5.919
 6995SOL    HW221885   6.899   4.545   5.918
 6996SOL     OW21886   2.371   0.944   6.843
 6996SOL    HW121887   2.467   0.927   6.865
 6996SOL    HW221888   2.328   0.858   6.812
 6997SOL     OW21889   6.185   6.099   5.416
 6997SOL    HW121890   6.121   6.093   5.492
 6997SOL    HW221891   6.192   6.194   5.385
 6998SOL     OW21892   1.872   1.801   1.365
 6998SOL    HW121893   1.892   1.874   1.430
 6998SOL    HW221894   1.957   1.767   1.324
 6999SOL     OW21895   2.517   3.041   6.113
 6999SOL    HW121896   2.569   3.069   6.033
 6999SOL    HW221897   2.455   2.966   6.088
 7000SOL     OW21898   6.173   6.036   1.692
 7000SOL    HW121899   6.190   5.939   1.707
 7000SOL    HW221900   6.260   6.084   1.679
 7001SOL     OW21901   2.316   3.126   5.406
 7001SOL    HW121902   2.362   3.104   5.320
 7001SOL    HW221903   2.269   3.045   5.440
 7002SOL     OW21904   2.566   4.957   3.378
 7002SOL    HW121905   2.611   5.039   3.412
 7002SOL    HW221906   2.574   4.954   3.278
 7003SOL     OW21907   3.382   5.616   6.958
 7003SOL    HW121908   3.334   5.554   7.020
 7003SOL    HW221909   3.456   5.567   6.913
 7004SOL     OW21910   1.534   4.778   2.360
 7004SOL    HW121911   1.453   4.818   2.403
 7004SOL    HW221912   1.507   4.726   2.279
 7005SOL     OW21913   1.268   6.687   0.291
 7005SOL    HW121914   1.293   6.701   0.387
 7005SOL    HW221915   1.183   6.736   0.271
 7006SOL     OW21916   4.758   4.824   4.068
 7006SOL    HW121917   4.822   4.868   4.131
 7006SOL    HW221918   4.666   4.827   4.106
 7007SOL     OW21919   4.716   0.034   4.090
 7007SOL    HW121920   4.645   6.991   4.114
 7007SOL    HW221921   4.729   0.034   3.991
 7008SOL     OW21922   0.989   4.613   4.765
 7008SOL    HW121923   1.075   4.597   4.813
 7008SOL    HW221924   1.005   4.674   4.687
 7009SOL     OW21925   6.097   6.058   1.977
 7009SOL    HW121926   6.119   6.027   1.884
 7009SOL    HW221927   6.059   5.981   2.029
 7010SOL     OW21928   5.394   4.784   4.930
 7010SOL    HW121929   5.346   4.704   4.895
 7010SOL    HW221930   5.366   4.801   5.025
 7011SOL     OW21931   4.056   6.509   6.293
 7011SOL    HW121932   4.152   6.488   6.274
 7011SOL    HW221933   4.043   6.608   6.290
 7012SOL     OW21934   1.772   1.835   1.749
 7012SOL    HW121935   1.806   1.750   1.709
 7012SOL    HW221936   1.801   1.912   1.692
 7013SOL     OW21937   0.646   0.679   0.935
 7013SOL    HW121938   0.567   0.707   0.881
 7013SOL    HW221939   0.722   0.654   0.875
 7014SOL     OW21940   4.275   3.332   1.115
 7014SOL    HW121941   4.197   3.389   1.088
 7014SOL    HW221942   4.267   3.242   1.072
 7015SOL     OW21943   5.661   4.497   2.097
 7015SOL    HW121944   5.728   4.438   2.142
 7015SOL    HW221945   5.702   4.586   2.077
 7016SOL     OW21946   3.403   4.589   1.455
 7016SOL    HW121947   3.494   4.575   1.416
 7016SOL    HW221948   3.412   4.626   1.547
 7017SOL     OW21949   2.779   5.823   1.982
 7017SOL    HW121950   2.867   5.778   1.998
 7017SOL    HW221951   2.728   5.772   1.914
 7018SOL     OW21952   6.025   4.304   3.708
 7018SOL    HW121953   5.931   4.304   3.672
 7018SOL    HW221954   6.069   4.390   3.683
 7019SOL     OW21955   2.408   4.116   6.686
 7019SOL    HW121956   2.382   4.073   6.773
 7019SOL    HW221957   2.325   4.138   6.634
 7020SOL     OW21958   5.722   6.693   6.828
 7020SOL    HW121959   5.716   6.671   6.925
 7020SOL    HW221960   5.743   6.610   6.776
 7021SOL     OW21961   1.431   1.104   6.113
 7021SOL    HW121962   1.364   1.030   6.103
 7021SOL    HW221963   1.444   1.123   6.210
 7022SOL     OW21964   4.421   6.470   0.164
 7022SOL    HW121965   4.470   6.383   0.172
 7022SOL    HW221966   4.346   6.473   0.230
 7023SOL     OW21967   0.547   2.003   3.584
 7023SOL    HW121968   0.569   1.971   3.492
 7023SOL    HW221969   0.466   1.954   3.618
 7024SOL     OW21970   1.926   4.010   5.165
 7024SOL    HW121971   1.958   4.071   5.092
 7024SOL    HW221972   1.939   4.055   5.253
 7025SOL     OW21973   2.631   0.866   6.896
 7025SOL    HW121974   2.665   0.783   6.939
 7025SOL    HW221975   2.707   0.918   6.859
 7026SOL     OW21976   3.360   2.196   1.790
 7026SOL    HW121977   3.448   2.216   1.834
 7026SOL    HW221978   3.287   2.196   1.858
 7027SOL     OW21979   2.861   5.085   4.328
 7027SOL    HW121980   2.915   5.002   4.340
 7027SOL    HW221981   2.894   5.155   4.392
 7028SOL     OW21982   4.447   0.554   4.019
 7028SOL    HW121983   4.531   0.578   3.970
 7028SOL    HW221984   4.470   0.533   4.114
 7029SOL     OW21985   5.124   5.243   5.843
 7029SOL    HW121986   5.174   5.328   5.827
 7029SOL    HW221987   5.136   5.182   5.765
 7030SOL     OW21988   1.122   1.573   5.005
 7030SOL    HW121989   1.169   1.605   4.923
 7030SOL    HW221990   1.130   1.642   5.077
 7031SOL     OW21991   2.444   6.687   4.986
 7031SOL    HW121992   2.519   6.652   5.042
 7031SOL    HW221993   2.435   6.786   5.001
 7032SOL     OW21994   3.668   0.630   2.762
 7032SOL    HW121995   3.592   0.575   2.726
 7032SOL    HW221996   3.668   0.720   2.718
 7033SOL     OW21997   1.594   2.489   3.407
 7033SOL    HW121998   1.540   2.573   3.404
 7033SOL    HW221999   1.534   2.411   3.424
 7034SOL     OW22000   5.977   0.599   3.040
 7034SOL    HW122001   5.946   0.636   2.952
 7034SOL    HW222002   6.050   0.656   3.077
 7035SOL     OW22003   1.886   6.541   1.500
 7035SOL    HW122004   1.938   6.596   1.435
 7035SOL    HW222005   1.865   6.452   1.459
 7036SOL     OW22006   0.632   0.371   2.650
 7036SOL    HW122007   0.618   0.381   2.748
 7036SOL    HW222008   0.563   0.308   2.613
 7037SOL     OW22009   1.934   0.920   6.229
 7037SOL    HW122010   1.881   0.836   6.217
 7037SOL    HW222011   1.897   0.991   6.169
 7038SOL     OW22012   1.748   3.417   4.747
 7038SOL    HW122013   1.794   3.344   4.797
 7038SOL    HW222014   1.775   3.506   4.783
 7039SOL     OW22015   2.845   4.660   1.472
 7039SOL    HW122016   2.921   4.712   1.434
 7039SOL    HW222017   2.837   4.679   1.570
 7040SOL     OW22018   6.569   2.001   4.577
 7040SOL    HW122019   6.579   1.956   4.666
 7040SOL    HW222020   6.604   2.094   4.584
 7041SOL     OW22021   0.254   1.951   2.018
 7041SOL    HW122022   0.173   1.992   1.975
 7041SOL    HW222023   0.235   1.933   2.114
 7042SOL     OW22024   5.429   5.037   5.436
 7042SOL    HW122025   5.363   4.966   5.460
 7042SOL    HW222026   5.472   5.072   5.519
 7043SOL     OW22027   2.098   3.289   2.888
 7043SOL    HW122028   2.176   3.271   2.828
 7043SOL    HW222029   2.069   3.383   2.877
 7044SOL     OW22030   4.533   4.551   3.640
 7044SOL    HW122031   4.541   4.507   3.551
 7044SOL    HW222032   4.540   4.650   3.629
 7045SOL     OW22033   5.458   5.362   3.262
 7045SOL    HW122034   5.403   5.442   3.287
 7045SOL    HW222035   5.445   5.342   3.165
 7046SOL     OW22036   3.439   1.829   2.915
 7046SOL    HW122037   3.526   1.800   2.956
 7046SOL    HW222038   3.422   1.925   2.935
 7047SOL     OW22039   0.485   2.716   2.493
 7047SOL    HW122040   0.531   2.641   2.542
 7047SOL    HW222041   0.440   2.680   2.411
 7048SOL     OW22042   6.486   6.163   2.749
 7048SOL    HW122043   6.518   6.205   2.664
 7048SOL    HW222044   6.397   6.203   2.774
 7049SOL     OW22045   3.631   1.773   1.110
 7049SOL    HW122046   3.589   1.812   1.028
 7049SOL    HW222047   3.654   1.846   1.174
 7050SOL     OW22048   3.834   4.046   1.738
 7050SOL    HW122049   3.797   4.082   1.824
 7050SOL    HW222050   3.839   3.946   1.743
 7051SOL     OW22051   6.757   0.536   1.868
 7051SOL    HW122052   6.737   0.604   1.797
 7051SOL    HW222053   6.744   0.577   1.958
 7052SOL     OW22054   5.709   2.445   4.230
 7052SOL    HW122055   5.673   2.378   4.165
 7052SOL    HW222056   5.759   2.516   4.180
 7053SOL     OW22057   0.558   3.423   4.663
 7053SOL    HW122058   0.590   3.453   4.753
 7053SOL    HW222059   0.637   3.415   4.601
 7054SOL     OW22060   0.488   6.959   0.642
 7054SOL    HW122061   0.391   6.962   0.617
 7054SOL    HW222062   0.496   6.944   0.741
 7055SOL     OW22063   3.207   6.797   5.426
 7055SOL    HW122064   3.147   6.751   5.491
 7055SOL    HW222065   3.302   6.788   5.455
 7056SOL     OW22066   6.928   5.581   2.299
 7056SOL    HW122067   6.835   5.596   2.334
 7056SOL    HW222068   6.995   5.602   2.370
 7057SOL     OW22069   1.470   5.722   3.939
 7057SOL    HW122070   1.446   5.713   4.035
 7057SOL    HW222071   1.508   5.636   3.905
 7058SOL     OW22072   6.244   5.370   6.036
 7058SOL    HW122073   6.218   5.443   6.099
 7058SOL    HW222074   6.205   5.389   5.946
 7059SOL     OW22075   6.824   0.973   3.953
 7059SOL    HW122076   6.802   0.948   3.859
 7059SOL    HW222077   6.828   1.073   3.961
 7060SOL     OW22078   4.060   6.887   1.756
 7060SOL    HW122079   4.047   6.812   1.821
 7060SOL    HW222080   4.082   6.971   1.805
 7061SOL     OW22081   1.631   3.008   4.032
 7061SOL    HW122082   1.621   3.107   4.042
 7061SOL    HW222083   1.725   2.985   4.006
 7062SOL     OW22084   4.644   1.367   5.275
 7062SOL    HW122085   4.614   1.293   5.336
 7062SOL    HW222086   4.623   1.455   5.317
 7063SOL     OW22087   1.209   0.753   2.065
 7063SOL    HW122088   1.226   0.813   2.143
 7063SOL    HW222089   1.294   0.737   2.016
 7064SOL     OW22090   3.546   2.401   1.611
 7064SOL    HW122091   3.566   2.307   1.582
 7064SOL    HW222092   3.591   2.419   1.698
 7065SOL     OW22093   3.646   3.804   6.156
 7065SOL    HW122094   3.735   3.828   6.196
 7065SOL    HW222095   3.573   3.836   6.216
 7066SOL     OW22096   4.629   0.791   0.635
 7066SOL    HW122097   4.556   0.858   0.623
 7066SOL    HW222098   4.702   0.831   0.690
 7067SOL     OW22099   2.106   1.553   5.140
 7067SOL    HW122100   2.168   1.630   5.157
 7067SOL    HW222101   2.119   1.519   5.047
 7068SOL     OW22102   0.313   4.032   4.109
 7068SOL    HW122103   0.328   4.013   4.012
 7068SOL    HW222104   0.399   4.062   4.150
 7069SOL     OW22105   5.696   1.587   4.561
 7069SOL    HW122106   5.637   1.535   4.623
 7069SOL    HW222107   5.773   1.531   4.533
 7070SOL     OW22108   0.018   5.996   5.089
 7070SOL    HW122109   0.005   5.977   4.991
 7070SOL    HW222110   6.979   5.939   5.142
 7071SOL     OW22111   2.383   5.899   6.698
 7071SOL    HW122112   2.424   5.810   6.718
 7071SOL    HW222113   2.335   5.895   6.610
 7072SOL     OW22114   1.502   5.923   6.946
 7072SOL    HW122115   1.549   5.907   6.859
 7072SOL    HW222116   1.546   5.998   6.994
 7073SOL     OW22117   5.215   0.159   4.505
 7073SOL    HW122118   5.228   0.175   4.407
 7073SOL    HW222119   5.303   0.169   4.552
 7074SOL     OW22120   4.379   2.408   2.462
 7074SOL    HW122121   4.410   2.406   2.557
 7074SOL    HW222122   4.452   2.445   2.404
 7075SOL     OW22123   1.925   4.842   4.674
 7075SOL    HW122124   1.928   4.851   4.574
 7075SOL    HW222125   1.845   4.789   4.700
 7076SOL     OW22126   5.502   1.698   6.509
 7076SOL    HW122127   5.567   1.774   6.496
 7076SOL    HW222128   5.409   1.735   6.515
 7077SOL     OW22129   2.419   4.483   4.379
 7077SOL    HW122130   2.333   4.532   4.394
 7077SOL    HW222131   2.414   4.433   4.292
 7078SOL     OW22132   7.008   0.096   1.974
 7078SOL    HW122133   6.969   0.016   1.928
 7078SOL    HW222134   0.082   0.103   1.954
 7079SOL     OW22135   6.743   6.503   4.874
 7079SOL    HW122136   6.758   6.528   4.779
 7079SOL    HW222137   6.821   6.532   4.929
 7080SOL     OW22138   2.734   1.968   4.425
 7080SOL    HW122139   2.744   1.879   4.381
 7080SOL    HW222140   2.637   1.992   4.432
 7081SOL     OW22141   3.130   0.080   0.066
 7081SOL    HW122142   3.113   0.105   6.994
 7081SOL    HW222143   3.075   0.139   0.126
 7082SOL     OW22144   6.617   4.418   6.760
 7082SOL    HW122145   6.647   4.371   6.678
 7082SOL    HW222146   6.691   4.477   6.794
 7083SOL     OW22147   2.735   0.247   0.771
 7083SOL    HW122148   2.651   0.296   0.794
 7083SOL    HW222149   2.785   0.297   0.700
 7084SOL     OW22150   0.284   6.000   6.166
 7084SOL    HW122151   0.247   5.937   6.234
 7084SOL    HW222152   0.257   5.969   6.074
 7085SOL     OW22153   0.745   1.838   2.067
 7085SOL    HW122154   0.840   1.810   2.058
 7085SOL    HW222155   0.700   1.784   2.137
 7086SOL     OW22156   5.491   0.568   5.540
 7086SOL    HW122157   5.583   0.595   5.512
 7086SOL    HW222158   5.487   0.468   5.548
 7087SOL     OW22159   6.123   2.952   4.093
 7087SOL    HW122160   6.118   2.984   4.188
 7087SOL    HW222161   6.118   2.853   4.091
 7088SOL     OW22162   5.681   2.889   3.733
 7088SOL    HW122163   5.670   2.816   3.801
 7088SOL    HW222164   5.778   2.902   3.714
 7089SOL     OW22165   3.327   2.139   4.813
 7089SOL    HW122166   3.304   2.196   4.892
 7089SOL    HW222167   3.267   2.164   4.736
 7090SOL     OW22168   2.560   0.575   0.073
 7090SOL    HW122169   2.562   0.506   0.145
 7090SOL    HW222170   2.492   0.550   0.004
 7091SOL     OW22171   0.524   1.650   6.929
 7091SOL    HW122172   0.568   1.603   6.852
 7091SOL    HW222173   0.534   1.749   6.917
 7092SOL     OW22174   4.865   2.908   5.790
 7092SOL    HW122175   4.867   2.928   5.692
 7092SOL    HW222176   4.790   2.958   5.833
 7093SOL     OW22177   3.048   3.606   3.108
 7093SOL    HW122178   3.086   3.572   3.194
 7093SOL    HW222179   3.073   3.702   3.097
 7094SOL     OW22180   6.718   6.096   6.040
 7094SOL    HW122181   6.742   6.066   6.132
 7094SOL    HW222182   6.663   6.025   5.996
 7095SOL     OW22183   3.555   4.101   5.790
 7095SOL    HW122184   3.612   4.054   5.722
 7095SOL    HW222185   3.614   4.157   5.849
 7096SOL     OW22186   6.229   0.512   3.739
 7096SOL    HW122187   6.262   0.419   3.720
 7096SOL    HW222188   6.307   0.572   3.756
 7097SOL     OW22189   5.999   1.557   1.005
 7097SOL    HW122190   5.963   1.650   1.009
 7097SOL    HW222191   6.071   1.546   1.074
 7098SOL     OW22192   1.590   6.557   5.359
 7098SOL    HW122193   1.589   6.462   5.326
 7098SOL    HW222194   1.567   6.618   5.283
 7099SOL     OW22195   3.550   1.221   5.503
 7099SOL    HW122196   3.624   1.157   5.481
 7099SOL    HW222197   3.580   1.314   5.487
 7100SOL     OW22198   5.166   2.552   1.200
 7100SOL    HW122199   5.126   2.460   1.202
 7100SOL    HW222200   5.234   2.556   1.126
 7101SOL     OW22201   2.153   0.691   4.705
 7101SOL    HW122202   2.117   0.750   4.777
 7101SOL    HW222203   2.253   0.687   4.714
 7102SOL     OW22204   5.459   0.007   0.749
 7102SOL    HW122205   5.402   7.001   0.826
 7102SOL    HW222206   5.551   0.028   0.783
 7103SOL     OW22207   4.735   4.565   1.716
 7103SOL    HW122208   4.789   4.496   1.667
 7103SOL    HW222209   4.735   4.543   1.813
 7104SOL     OW22210   0.154   2.577   3.881
 7104SOL    HW122211   0.219   2.505   3.906
 7104SOL    HW222212   0.074   2.536   3.837
 7105SOL     OW22213   2.885   2.845   5.458
 7105SOL    HW122214   2.799   2.888   5.486
 7105SOL    HW222215   2.959   2.912   5.464
 7106SOL     OW22216   3.785   3.998   2.812
 7106SOL    HW122217   3.855   3.928   2.806
 7106SOL    HW222218   3.743   4.011   2.722
 7107SOL     OW22219   4.185   1.592   0.545
 7107SOL    HW122220   4.208   1.677   0.594
 7107SOL    HW222221   4.256   1.571   0.479
 7108SOL     OW22222   4.632   5.863   3.056
 7108SOL    HW122223   4.608   5.819   3.143
 7108SOL    HW222224   4.646   5.794   2.986
 7109SOL     OW22225   2.973   0.736   5.928
 7109SOL    HW122226   2.954   0.730   6.026
 7109SOL    HW222227   2.888   0.752   5.878
 7110SOL     OW22228   3.026   5.813   4.314
 7110SOL    HW122229   2.959   5.862   4.370
 7110SOL    HW222230   3.013   5.715   4.325
 7111SOL     OW22231   1.458   2.528   4.735
 7111SOL    HW122232   1.459   2.431   4.710
 7111SOL    HW222233   1.534   2.547   4.797
 7112SOL     OW22234   1.543   5.188   4.690
 7112SOL    HW122235   1.612   5.129   4.648
 7112SOL    HW222236   1.465   5.197   4.628
 7113SOL     OW22237   4.073   3.779   4.751
 7113SOL    HW122238   4.072   3.718   4.672
 7113SOL    HW222239   4.097   3.726   4.833
 7114SOL     OW22240   3.960   6.908   1.504
 7114SOL    HW122241   4.011   6.976   1.453
 7114SOL    HW222242   4.005   6.890   1.592
 7115SOL     OW22243   5.560   2.816   1.421
 7115SOL    HW122244   5.641   2.875   1.420
 7115SOL    HW222245   5.585   2.725   1.388
 7116SOL     OW22246   6.337   4.245   3.249
 7116SOL    HW122247   6.289   4.325   3.214
 7116SOL    HW222248   6.293   4.214   3.333
 7117SOL     OW22249   0.370   6.373   5.294
 7117SOL    HW122250   0.276   6.383   5.260
 7117SOL    HW222251   0.370   6.316   5.376
 7118SOL     OW22252   2.515   4.082   1.122
 7118SOL    HW122253   2.487   4.056   1.030
 7118SOL    HW222254   2.460   4.160   1.153
 7119SOL     OW22255   5.216   2.011   3.224
 7119SOL    HW122256   5.276   1.944   3.182
 7119SOL    HW222257   5.133   1.965   3.258
 7120SOL     OW22258   3.599   1.586   2.256
 7120SOL    HW122259   3.515   1.616   2.210
 7120SOL    HW222260   3.591   1.603   2.354
 7121SOL     OW22261   1.141   6.907   3.408
 7121SOL    HW122262   1.158   6.825   3.353
 7121SOL    HW222263   1.210   6.976   3.385
 7122SOL     OW22264   0.613   0.097   5.892
 7122SOL    HW122265   0.705   0.127   5.866
 7122SOL    HW222266   0.597   0.004   5.858
 7123SOL     OW22267   1.711   4.526   3.302
 7123SOL    HW122268   1.656   4.466   3.360
 7123SOL    HW222269   1.678   4.620   3.311
 7124SOL     OW22270   6.952   2.404   1.466
 7124SOL    HW122271   6.894   2.444   1.537
 7124SOL    HW222272   6.960   2.468   1.389
 7125SOL     OW22273   7.006   6.819   1.441
 7125SOL    HW122274   6.908   6.811   1.461
 7125SOL    HW222275   0.012   6.913   1.458
 7126SOL     OW22276   3.439   4.823   0.070
 7126SOL    HW122277   3.536   4.826   0.094
 7126SOL    HW222278   3.422   4.745   0.010
 7127SOL     OW22279   1.630   5.178   5.555
 7127SOL    HW122280   1.571   5.098   5.565
 7127SOL    HW222281   1.717   5.150   5.514
 7128SOL     OW22282   3.075   4.883   0.400
 7128SOL    HW122283   2.986   4.839   0.416
 7128SOL    HW222284   3.091   4.892   0.302
 7129SOL     OW22285   2.108   1.772   6.622
 7129SOL    HW122286   2.178   1.843   6.636
 7129SOL    HW222287   2.063   1.753   6.709
 7130SOL     OW22288   4.351   5.817   5.373
 7130SOL    HW122289   4.365   5.909   5.410
 7130SOL    HW222290   4.318   5.757   5.445
 7131SOL     OW22291   2.683   0.603   1.068
 7131SOL    HW122292   2.740   0.685   1.060
 7131SOL    HW222293   2.680   0.574   1.163
 7132SOL     OW22294   3.479   4.247   6.804
 7132SOL    HW122295   3.436   4.314   6.742
 7132SOL    HW222296   3.523   4.175   6.750
 7133SOL     OW22297   5.146   5.728   5.930
 7133SOL    HW122298   5.198   5.683   6.003
 7133SOL    HW222299   5.136   5.825   5.952
 7134SOL     OW22300   5.449   6.821   2.408
 7134SOL    HW122301   5.362   6.771   2.414
 7134SOL    HW222302   5.444   6.888   2.334
 7135SOL     OW22303   1.467   3.110   3.229
 7135SOL    HW122304   1.469   3.159   3.316
 7135SOL    HW222305   1.413   3.163   3.163
 7136SOL     OW22306   2.716   2.811   1.303
 7136SOL    HW122307   2.665   2.861   1.233
 7136SOL    HW222308   2.813   2.815   1.282
 7137SOL     OW22309   3.645   6.964   6.708
 7137SOL    HW122310   3.567   6.902   6.695
 7137SOL    HW222311   3.713   6.920   6.767
 7138SOL     OW22312   1.647   2.337   7.022
 7138SOL    HW122313   1.553   2.306   7.009
 7138SOL    HW222314   1.647   2.430   0.035
 7139SOL     OW22315   5.875   4.198   1.333
 7139SOL    HW122316   5.915   4.260   1.401
 7139SOL    HW222317   5.797   4.151   1.373
 7140SOL     OW22318   5.866   3.994   3.100
 7140SOL    HW122319   5.835   3.996   3.195
 7140SOL    HW222320   5.789   4.011   3.039
 7141SOL     OW22321   3.584   5.726   1.544
 7141SOL    HW122322   3.554   5.695   1.635
 7141SOL    HW222323   3.584   5.826   1.542
 7142SOL     OW22324   3.909   0.276   3.509
 7142SOL    HW122325   3.922   0.292   3.412
 7142SOL    HW222326   3.845   0.344   3.545
 7143SOL     OW22327   1.582   2.481   5.821
 7143SOL    HW122328   1.552   2.533   5.901
 7143SOL    HW222329   1.502   2.453   5.767
 7144SOL     OW22330   1.717   2.537   1.939
 7144SOL    HW122331   1.797   2.579   1.982
 7144SOL    HW222332   1.636   2.554   1.995
 7145SOL     OW22333   4.705   0.574   0.493
 7145SOL    HW122334   4.785   0.545   0.547
 7145SOL    HW222335   4.666   0.656   0.533
 7146SOL     OW22336   1.883   0.264   0.957
 7146SOL    HW122337   1.836   0.310   1.031
 7146SOL    HW222338   1.945   0.195   0.994
 7147SOL     OW22339   0.524   0.024   3.303
 7147SOL    HW122340   0.462   0.084   3.252
 7147SOL    HW222341   0.573   6.988   3.239
 7148SOL     OW22342   0.746   5.908   0.962
 7148SOL    HW122343   0.707   5.995   0.933
 7148SOL    HW222344   0.791   5.865   0.884
 7149SOL     OW22345   6.037   6.404   2.952
 7149SOL    HW122346   6.048   6.391   3.050
 7149SOL    HW222347   6.001   6.495   2.934
 7150SOL     OW22348   3.131   2.175   1.923
 7150SOL    HW122349   3.103   2.094   1.871
 7150SOL    HW222350   3.050   2.227   1.950
 7151SOL     OW22351   2.344   6.162   0.481
 7151SOL    HW122352   2.429   6.175   0.431
 7151SOL    HW222353   2.274   6.124   0.420
 7152SOL     OW22354   0.979   0.563   5.351
 7152SOL    HW122355   1.009   0.468   5.360
 7152SOL    HW222356   1.034   0.609   5.282
 7153SOL     OW22357   3.454   5.650   1.789
 7153SOL    HW122358   3.449   5.633   1.888
 7153SOL    HW222359   3.384   5.596   1.743
 7154SOL     OW22360   3.990   0.349   3.254
 7154SOL    HW122361   3.981   0.311   3.162
 7154SOL    HW222362   3.998   0.448   3.249
 7155SOL     OW22363   1.533   3.615   1.096
 7155SOL    HW122364   1.543   3.658   1.186
 7155SOL    HW222365   1.579   3.672   1.027
 7156SOL     OW22366   6.900   3.471   3.627
 7156SOL    HW122367   6.887   3.480   3.725
 7156SOL    HW222368   6.979   3.411   3.609
 7157SOL     OW22369   0.002   3.586   1.865
 7157SOL    HW122370   6.946   3.551   1.816
 7157SOL    HW222371   6.996   3.657   1.929
 7158SOL     OW22372   1.001   0.144   4.067
 7158SOL    HW122373   0.960   0.062   4.027
 7158SOL    HW222374   1.010   0.132   4.166
 7159SOL     OW22375   0.555   4.895   2.621
 7159SOL    HW122376   0.608   4.936   2.547
 7159SOL    HW222377   0.595   4.920   2.709
 7160SOL     OW22378   5.502   0.143   2.833
 7160SOL    HW122379   5.537   0.078   2.901
 7160SOL    HW222380   5.552   0.132   2.748
 7161SOL     OW22381   3.206   4.045   4.158
 7161SOL    HW122382   3.248   4.046   4.249
 7161SOL    HW222383   3.180   3.952   4.134
 7162SOL     OW22384   1.054   5.403   5.967
 7162SOL    HW122385   1.103   5.328   6.011
 7162SOL    HW222386   1.048   5.480   6.030
 7163SOL     OW22387   3.002   6.436   2.887
 7163SOL    HW122388   2.944   6.504   2.931
 7163SOL    HW222389   3.005   6.353   2.943
 7164SOL     OW22390   2.046   0.304   3.897
 7164SOL    HW122391   2.006   0.250   3.824
 7164SOL    HW222392   2.063   0.246   3.977
 7165SOL     OW22393   6.608   0.982   2.583
 7165SOL    HW122394   6.647   1.040   2.511
 7165SOL    HW222395   6.676   0.965   2.653
 7166SOL     OW22396   6.116   2.386   0.769
 7166SOL    HW122397   6.151   2.299   0.734
 7166SOL    HW222398   6.165   2.461   0.725
 7167SOL     OW22399   5.293   3.247   4.185
 7167SOL    HW122400   5.317   3.154   4.213
 7167SOL    HW222401   5.345   3.272   4.103
 7168SOL     OW22402   1.407   2.692   3.086
 7168SOL    HW122403   1.348   2.758   3.040
 7168SOL    HW222404   1.419   2.718   3.181
 7169SOL     OW22405   0.278   2.322   4.810
 7169SOL    HW122406   0.211   2.385   4.771
 7169SOL    HW222407   0.298   2.249   4.745
 7170SOL     OW22408   4.810   6.840   4.301
 7170SOL    HW122409   4.789   6.743   4.295
 7170SOL    HW222410   4.735   6.894   4.262
 7171SOL     OW22411   5.607   3.471   6.880
 7171SOL    HW122412   5.645   3.382   6.857
 7171SOL    HW222413   5.601   3.480   6.980
 7172SOL     OW22414   1.430   0.153   5.030
 7172SOL    HW122415   1.419   0.088   5.105
 7172SOL    HW222416   1.340   0.186   5.000
 7173SOL     OW22417   6.764   4.823   6.029
 7173SOL    HW122418   6.665   4.820   6.013
 7173SOL    HW222419   6.802   4.732   6.014
 7174SOL     OW22420   0.593   4.306   0.047
 7174SOL    HW122421   0.685   4.322   0.012
 7174SOL    HW222422   0.543   4.393   0.051
 7175SOL     OW22423   5.752   2.444   6.757
 7175SOL    HW122424   5.671   2.387   6.761
 7175SOL    HW222425   5.732   2.528   6.706
 7176SOL     OW22426   0.316   0.145   3.191
 7176SOL    HW122427   0.271   0.066   3.149
 7176SOL    HW222428   0.318   0.221   3.126
 7177SOL     OW22429   1.690   5.024   4.541
 7177SOL    HW122430   1.674   5.070   4.453
 7177SOL    HW222431   1.788   5.021   4.559
 7178SOL     OW22432   2.039   1.981   6.144
 7178SOL    HW122433   2.014   2.014   6.053
 7178SOL    HW222434   1.956   1.967   6.198
 7179SOL     OW22435   2.059   3.587   4.767
 7179SOL    HW122436   2.096   3.500   4.735
 7179SOL    HW222437   2.049   3.585   4.866
 7180SOL     OW22438   2.382   5.292   0.223
 7180SOL    HW122439   2.436   5.374   0.241
 7180SOL    HW222440   2.375   5.237   0.306
 7181SOL     OW22441   1.904   6.569   0.022
 7181SOL    HW122442   1.974   6.639   0.005
 7181SOL    HW222443   1.914   6.533   0.114
 7182SOL     OW22444   0.807   2.541   4.496
 7182SOL    HW122445   0.785   2.551   4.593
 7182SOL    HW222446   0.906   2.530   4.485
 7183SOL     OW22447   2.217   6.216   6.974
 7183SOL    HW122448   2.224   6.261   0.039
 7183SOL    HW222449   2.301   6.166   6.955
 7184SOL     OW22450   7.019   0.881   3.708
 7184SOL    HW122451   0.023   0.965   3.755
 7184SOL    HW222452   0.063   0.809   3.724
 7185SOL     OW22453   6.041   0.164   5.407
 7185SOL    HW122454   5.959   0.113   5.432
 7185SOL    HW222455   6.033   0.259   5.439
 7186SOL     OW22456   6.741   1.949   0.644
 7186SOL    HW122457   6.793   2.000   0.713
 7186SOL    HW222458   6.740   1.852   0.668
 7187SOL     OW22459   3.795   4.772   6.277
 7187SOL    HW122460   3.818   4.869   6.267
 7187SOL    HW222461   3.868   4.725   6.328
 7188SOL     OW22462   6.373   1.002   0.827
 7188SOL    HW122463   6.450   1.066   0.818
 7188SOL    HW222464   6.292   1.040   0.783
 7189SOL     OW22465   0.442   1.670   6.035
 7189SOL    HW122466   0.351   1.683   5.996
 7189SOL    HW222467   0.442   1.589   6.094
 7190SOL     OW22468   0.382   3.510   2.517
 7190SOL    HW122469   0.291   3.512   2.474
 7190SOL    HW222470   0.385   3.435   2.583
 7191SOL     OW22471   0.655   4.184   2.601
 7191SOL    HW122472   0.590   4.218   2.669
 7191SOL    HW222473   0.725   4.128   2.646
 7192SOL     OW22474   2.822   4.682   5.902
 7192SOL    HW122475   2.777   4.706   5.988
 7192SOL    HW222476   2.921   4.681   5.915
 7193SOL     OW22477   0.874   2.571   2.039
 7193SOL    HW122478   0.801   2.604   2.099
 7193SOL    HW222479   0.954   2.632   2.046
 7194SOL     OW22480   2.658   2.092   0.210
 7194SOL    HW122481   2.692   2.122   0.121
 7194SOL    HW222482   2.675   2.163   0.278
 7195SOL     OW22483   6.990   4.389   6.804
 7195SOL    HW122484   6.931   4.308   6.798
 7195SOL    HW222485   6.939   4.469   6.772
 7196SOL     OW22486   3.310   3.875   0.597
 7196SOL    HW122487   3.353   3.873   0.507
 7196SOL    HW222488   3.211   3.883   0.587
 7197SOL     OW22489   0.590   2.659   6.140
 7197SOL    HW122490   0.630   2.668   6.049
 7197SOL    HW222491   0.575   2.749   6.179
 7198SOL     OW22492   0.075   0.733   0.501
 7198SOL    HW122493   7.012   0.717   0.455
 7198SOL    HW222494   0.071   0.819   0.552
 7199SOL     OW22495   2.021   0.989   2.503
 7199SOL    HW122496   2.060   0.921   2.567
 7199SOL    HW222497   1.932   0.957   2.472
 7200SOL     OW22498   2.203   2.493   7.008
 7200SOL    HW122499   2.218   2.449   0.073
 7200SOL    HW222500   2.110   2.476   6.977
 7201SOL     OW22501   0.784   5.428   4.828
 7201SOL    HW122502   0.710   5.475   4.875
 7201SOL    HW222503   0.869   5.440   4.879
 7202SOL     OW22504   5.114   0.316   6.441
 7202SOL    HW122505   5.032   0.258   6.448
 7202SOL    HW222506   5.138   0.351   6.532
 7203SOL     OW22507   0.637   1.555   1.210
 7203SOL    HW122508   0.710   1.557   1.142
 7203SOL    HW222509   0.549   1.539   1.165
 7204SOL     OW22510   1.006   0.271   5.459
 7204SOL    HW122511   0.982   0.185   5.413
 7204SOL    HW222512   1.102   0.268   5.486
 7205SOL     OW22513   1.221   5.060   4.378
 7205SOL    HW122514   1.236   5.131   4.446
 7205SOL    HW222515   1.160   4.990   4.415
 7206SOL     OW22516   1.483   0.221   1.796
 7206SOL    HW122517   1.535   0.209   1.711
 7206SOL    HW222518   1.401   0.164   1.792
 7207SOL     OW22519   3.529   0.123   2.695
 7207SOL    HW122520   3.522   0.135   2.794
 7207SOL    HW222521   3.442   0.089   2.659
 7208SOL     OW22522   3.997   0.222   2.742
 7208SOL    HW122523   4.085   0.270   2.750
 7208SOL    HW222524   3.928   0.272   2.794
 7209SOL     OW22525   2.847   4.029   1.714
 7209SOL    HW122526   2.908   3.977   1.774
 7209SOL    HW222527   2.756   3.988   1.717
 7210SOL     OW22528   4.686   0.672   3.873
 7210SOL    HW122529   4.739   0.706   3.796
 7210SOL    HW222530   4.632   0.747   3.913
 7211SOL     OW22531   3.371   6.353   4.024
 7211SOL    HW122532   3.324   6.441   4.017
 7211SOL    HW222533   3.447   6.351   3.958
 7212SOL     OW22534   0.480   5.972   4.570
 7212SOL    HW122535   0.569   5.934   4.594
 7212SOL    HW222536   0.441   6.018   4.650
 7213SOL     OW22537   5.204   6.111   0.247
 7213SOL    HW122538   5.114   6.150   0.262
 7213SOL    HW222539   5.267   6.146   0.317
 7214SOL     OW22540   6.798   6.070   5.685
 7214SOL    HW122541   6.765   5.981   5.717
 7214SOL    HW222542   6.866   6.106   5.749
 7215SOL     OW22543   6.939   4.098   4.844
 7215SOL    HW122544   6.970   4.021   4.901
 7215SOL    HW222545   6.960   4.184   4.891
 7216SOL     OW22546   3.702   6.374   6.957
 7216SOL    HW122547   3.739   6.291   6.917
 7216SOL    HW222548   3.687   6.442   6.885
 7217SOL     OW22549   2.742   4.639   2.730
 7217SOL    HW122550   2.695   4.603   2.811
 7217SOL    HW222551   2.684   4.627   2.650
 7218SOL     OW22552   5.083   2.932   5.254
 7218SOL    HW122553   5.005   2.983   5.217
 7218SOL    HW222554   5.150   2.996   5.291
 7219SOL     OW22555   4.563   0.265   3.691
 7219SOL    HW122556   4.615   0.306   3.766
 7219SOL    HW222557   4.600   0.175   3.669
 7220SOL     OW22558   0.649   5.401   5.149
 7220SOL    HW122559   0.564   5.440   5.184
 7220SOL    HW222560   0.658   5.423   5.052
 7221SOL     OW22561   3.522   6.153   4.664
 7221SOL    HW122562   3.462   6.233   4.666
 7221SOL    HW222563   3.577   6.154   4.581
 7222SOL     OW22564   5.802   0.469   3.379
 7222SOL    HW122565   5.836   0.552   3.423
 7222SOL    HW222566   5.758   0.492   3.292
 7223SOL     OW22567   2.683   1.410   1.220
 7223SOL    HW122568   2.665   1.405   1.318
 7223SOL    HW222569   2.780   1.395   1.203
 7224SOL     OW22570   5.556   1.973   4.138
 7224SOL    HW122571   5.537   1.877   4.160
 7224SOL    HW222572   5.570   1.982   4.039
 7225SOL     OW22573   0.763   5.779   0.303
 7225SOL    HW122574   0.680   5.808   0.255
 7225SOL    HW222575   0.761   5.815   0.396
 7226SOL     OW22576   6.517   1.225   0.819
 7226SOL    HW122577   6.548   1.272   0.901
 7226SOL    HW222578   6.568   1.259   0.740
 7227SOL     OW22579   1.387   1.284   0.873
 7227SOL    HW122580   1.289   1.275   0.888
 7227SOL    HW222581   1.433   1.198   0.895
 7228SOL     OW22582   0.835   1.559   2.817
 7228SOL    HW122583   0.736   1.573   2.807
 7228SOL    HW222584   0.852   1.501   2.897
 7229SOL     OW22585   1.696   5.839   6.108
 7229SOL    HW122586   1.772   5.900   6.125
 7229SOL    HW222587   1.648   5.868   6.024
 7230SOL     OW22588   4.175   5.597   4.262
 7230SOL    HW122589   4.180   5.602   4.163
 7230SOL    HW222590   4.218   5.677   4.303
 7231SOL     OW22591   4.386   1.221   0.469
 7231SOL    HW122592   4.412   1.178   0.556
 7231SOL    HW222593   4.310   1.170   0.428
 7232SOL     OW22594   5.166   5.308   2.833
 7232SOL    HW122595   5.184   5.304   2.735
 7232SOL    HW222596   5.080   5.356   2.849
 7233SOL     OW22597   6.947   1.784   3.912
 7233SOL    HW122598   0.022   1.791   3.930
 7233SOL    HW222599   6.904   1.873   3.928
 7234SOL     OW22600   5.625   3.569   3.542
 7234SOL    HW122601   5.646   3.475   3.515
 7234SOL    HW222602   5.677   3.593   3.624
 7235SOL     OW22603   6.579   3.829   1.926
 7235SOL    HW122604   6.651   3.899   1.915
 7235SOL    HW222605   6.601   3.772   2.005
 7236SOL     OW22606   1.922   2.287   1.666
 7236SOL    HW122607   1.932   2.278   1.765
 7236SOL    HW222608   1.876   2.373   1.644
 7237SOL     OW22609   4.782   1.178   4.682
 7237SOL    HW122610   4.712   1.237   4.641
 7237SOL    HW222611   4.866   1.230   4.695
 7238SOL     OW22612   3.586   1.482   0.701
 7238SOL    HW122613   3.553   1.388   0.697
 7238SOL    HW222614   3.611   1.505   0.795
 7239SOL     OW22615   1.350   2.857   2.457
 7239SOL    HW122616   1.319   2.911   2.536
 7239SOL    HW222617   1.275   2.799   2.425
 7240SOL     OW22618   1.923   5.977   6.131
 7240SOL    HW122619   1.957   5.910   6.198
 7240SOL    HW222620   1.981   6.058   6.133
 7241SOL     OW22621   2.019   0.991   0.620
 7241SOL    HW122622   1.998   0.893   0.623
 7241SOL    HW222623   1.969   1.033   0.544
 7242SOL     OW22624   6.462   6.091   0.367
 7242SOL    HW122625   6.440   6.029   0.443
 7242SOL    HW222626   6.446   6.185   0.396
 7243SOL     OW22627   6.408   4.706   6.084
 7243SOL    HW122628   6.441   4.800   6.073
 7243SOL    HW222629   6.417   4.679   6.180
 7244SOL     OW22630   5.585   0.975   1.586
 7244SOL    HW122631   5.550   1.037   1.656
 7244SOL    HW222632   5.665   0.926   1.622
 7245SOL     OW22633   0.813   2.013   4.406
 7245SOL    HW122634   0.797   2.012   4.505
 7245SOL    HW222635   0.903   2.052   4.387
 7246SOL     OW22636   6.276   0.549   4.090
 7246SOL    HW122637   6.240   0.630   4.043
 7246SOL    HW222638   6.369   0.569   4.123
 7247SOL     OW22639   3.054   6.673   3.952
 7247SOL    HW122640   3.021   6.589   3.996
 7247SOL    HW222641   3.089   6.735   4.023
 7248SOL     OW22642   2.694   1.689   3.679
 7248SOL    HW122643   2.767   1.737   3.630
 7248SOL    HW222644   2.653   1.620   3.619
 7249SOL     OW22645   6.519   4.295   2.248
 7249SOL    HW122646   6.577   4.356   2.302
 7249SOL    HW222647   6.576   4.232   2.196
 7250SOL     OW22648   4.213   6.909   6.086
 7250SOL    HW122649   4.250   6.984   6.140
 7250SOL    HW222650   4.288   6.852   6.053
 7251SOL     OW22651   0.728   7.002   5.642
 7251SOL    HW122652   0.641   6.964   5.674
 7251SOL    HW222653   0.728   7.006   5.542
 7252SOL     OW22654   3.139   3.469   2.721
 7252SOL    HW122655   3.138   3.559   2.678
 7252SOL    HW222656   3.089   3.404   2.664
 7253SOL     OW22657   2.511   6.515   6.266
 7253SOL    HW122658   2.587   6.466   6.309
 7253SOL    HW222659   2.496   6.479   6.174
 7254SOL     OW22660   4.359   4.905   3.805
 7254SOL    HW122661   4.294   4.906   3.729
 7254SOL    HW222662   4.321   4.852   3.881
 7255SOL     OW22663   3.169   3.415   0.636
 7255SOL    HW122664   3.191   3.503   0.678
 7255SOL    HW222665   3.134   3.353   0.706
 7256SOL     OW22666   4.270   4.782   4.295
 7256SOL    HW122667   4.172   4.797   4.310
 7256SOL    HW222668   4.318   4.791   4.382
 7257SOL     OW22669   5.123   2.801   3.956
 7257SOL    HW122670   5.086   2.871   3.896
 7257SOL    HW222671   5.126   2.835   4.050
 7258SOL     OW22672   4.243   1.312   3.096
 7258SOL    HW122673   4.224   1.221   3.060
 7258SOL    HW222674   4.178   1.333   3.170
 7259SOL     OW22675   2.847   3.213   1.100
 7259SOL    HW122676   2.813   3.155   1.027
 7259SOL    HW222677   2.923   3.168   1.146
 7260SOL     OW22678   3.387   1.756   2.215
 7260SOL    HW122679   3.323   1.744   2.140
 7260SOL    HW222680   3.381   1.850   2.250
 7261SOL     OW22681   1.210   3.087   1.391
 7261SOL    HW122682   1.129   3.145   1.399
 7261SOL    HW222683   1.271   3.105   1.468
 7262SOL     OW22684   5.457   1.634   5.367
 7262SOL    HW122685   5.422   1.727   5.369
 7262SOL    HW222686   5.489   1.608   5.458
 7263SOL     OW22687   0.528   6.458   1.304
 7263SOL    HW122688   0.524   6.495   1.397
 7263SOL    HW222689   0.572   6.369   1.305
 7264SOL     OW22690   5.646   1.260   5.878
 7264SOL    HW122691   5.654   1.319   5.959
 7264SOL    HW222692   5.550   1.237   5.863
 7265SOL     OW22693   5.455   5.151   6.145
 7265SOL    HW122694   5.530   5.093   6.177
 7265SOL    HW222695   5.443   5.228   6.208
 7266SOL     OW22696   5.591   7.023   1.354
 7266SOL    HW122697   5.518   0.065   1.332
 7266SOL    HW222698   5.646   7.006   1.273
 7267SOL     OW22699   6.804   6.244   5.450
 7267SOL    HW122700   6.749   6.197   5.381
 7267SOL    HW222701   6.810   6.188   5.532
 7268SOL     OW22702   5.191   4.930   3.196
 7268SOL    HW122703   5.231   4.979   3.273
 7268SOL    HW222704   5.193   4.987   3.114
 7269SOL     OW22705   6.695   6.218   1.096
 7269SOL    HW122706   6.710   6.313   1.119
 7269SOL    HW222707   6.708   6.161   1.177
 7270SOL     OW22708   0.698   3.259   5.112
 7270SOL    HW122709   0.726   3.165   5.130
 7270SOL    HW222710   0.602   3.271   5.136
 7271SOL     OW22711   0.499   5.800   3.931
 7271SOL    HW122712   0.557   5.838   4.002
 7271SOL    HW222713   0.494   5.700   3.941
 7272SOL     OW22714   5.587   5.345   2.297
 7272SOL    HW122715   5.641   5.271   2.337
 7272SOL    HW222716   5.587   5.423   2.360
 7273SOL     OW22717   5.477   4.400   1.878
 7273SOL    HW122718   5.541   4.427   1.950
 7273SOL    HW222719   5.430   4.481   1.843
 7274SOL     OW22720   0.911   5.947   6.917
 7274SOL    HW122721   0.943   6.017   6.981
 7274SOL    HW222722   0.818   5.968   6.888
 7275SOL     OW22723   6.686   0.487   2.836
 7275SOL    HW122724   6.650   0.423   2.769
 7275SOL    HW222725   6.718   0.438   2.917
 7276SOL     OW22726   3.517   1.804   2.544
 7276SOL    HW122727   3.558   1.864   2.474
 7276SOL    HW222728   3.573   1.721   2.553
 7277SOL     OW22729   4.507   0.824   4.286
 7277SOL    HW122730   4.474   0.824   4.380
 7277SOL    HW222731   4.443   0.774   4.228
 7278SOL     OW22732   3.274   2.408   1.641
 7278SOL    HW122733   3.372   2.415   1.622
 7278SOL    HW222734   3.256   2.326   1.696
 7279SOL     OW22735   4.380   3.279   6.521
 7279SOL    HW122736   4.348   3.192   6.559
 7279SOL    HW222737   4.476   3.294   6.547
 7280SOL     OW22738   0.190   1.847   4.051
 7280SOL    HW122739   0.243   1.764   4.070
 7280SOL    HW222740   0.252   1.922   4.030
 7281SOL     OW22741   1.668   0.288   0.402
 7281SOL    HW122742   1.648   0.254   0.493
 7281SOL    HW222743   1.625   0.378   0.389
 7282SOL     OW22744   5.906   6.936   1.311
 7282SOL    HW122745   5.991   6.984   1.332
 7282SOL    HW222746   5.856   6.919   1.396
 7283SOL     OW22747   3.426   0.213   2.047
 7283SOL    HW122748   3.351   0.150   2.068
 7283SOL    HW222749   3.486   0.172   1.978
 7284SOL     OW22750   0.233   2.310   5.091
 7284SOL    HW122751   0.230   2.290   4.993
 7284SOL    HW222752   0.319   2.354   5.114
 7285SOL     OW22753   5.763   3.327   1.434
 7285SOL    HW122754   5.705   3.346   1.354
 7285SOL    HW222755   5.838   3.392   1.437
 7286SOL     OW22756   0.741   0.403   1.370
 7286SOL    HW122757   0.811   0.474   1.360
 7286SOL    HW222758   0.767   0.340   1.442
 7287SOL     OW22759   6.707   3.078   4.699
 7287SOL    HW122760   6.733   3.106   4.791
 7287SOL    HW222761   6.757   3.131   4.631
 7288SOL     OW22762   1.314   2.064   1.627
 7288SOL    HW122763   1.309   2.048   1.725
 7288SOL    HW222764   1.364   2.149   1.609
 7289SOL     OW22765   6.057   1.732   3.488
 7289SOL    HW122766   6.018   1.818   3.457
 7289SOL    HW222767   6.022   1.710   3.580
 7290SOL     OW22768   2.755   0.858   4.990
 7290SOL    HW122769   2.715   0.950   4.994
 7290SOL    HW222770   2.841   0.857   5.042
 7291SOL     OW22771   2.262   0.316   0.749
 7291SOL    HW122772   2.163   0.327   0.740
 7291SOL    HW222773   2.283   0.219   0.761
 7292SOL     OW22774   2.984   6.828   2.482
 7292SOL    HW122775   2.921   6.769   2.431
 7292SOL    HW222776   3.023   6.775   2.557
 7293SOL     OW22777   1.430   1.521   5.971
 7293SOL    HW122778   1.434   1.584   5.894
 7293SOL    HW222779   1.512   1.533   6.028
 7294SOL     OW22780   3.352   4.294   0.706
 7294SOL    HW122781   3.423   4.256   0.646
 7294SOL    HW222782   3.303   4.367   0.658
 7295SOL     OW22783   6.872   4.530   0.968
 7295SOL    HW122784   6.907   4.459   0.908
 7295SOL    HW222785   6.949   4.573   1.016
 7296SOL     OW22786   4.324   5.181   2.512
 7296SOL    HW122787   4.276   5.171   2.599
 7296SOL    HW222788   4.390   5.256   2.519
 7297SOL     OW22789   2.204   6.904   1.413
 7297SOL    HW122790   2.178   6.921   1.508
 7297SOL    HW222791   2.303   6.908   1.405
 7298SOL     OW22792   5.207   4.844   6.525
 7298SOL    HW122793   5.306   4.861   6.528
 7298SOL    HW222794   5.173   4.870   6.434
 7299SOL     OW22795   0.915   1.894   1.093
 7299SOL    HW122796   0.980   1.959   1.134
 7299SOL    HW222797   0.855   1.858   1.165
 7300SOL     OW22798   0.609   6.931   2.735
 7300SOL    HW122799   0.573   6.992   2.665
 7300SOL    HW222800   0.554   6.940   2.818
 7301SOL     OW22801   6.434   2.219   5.654
 7301SOL    HW122802   6.413   2.163   5.574
 7301SOL    HW222803   6.392   2.309   5.644
 7302SOL     OW22804   0.253   2.505   6.120
 7302SOL    HW122805   0.254   2.495   6.020
 7302SOL    HW222806   0.166   2.472   6.156
 7303SOL     OW22807   3.642   0.869   6.489
 7303SOL    HW122808   3.586   0.941   6.531
 7303SOL    HW222809   3.647   0.885   6.390
 7304SOL     OW22810   3.019   5.723   1.601
 7304SOL    HW122811   2.922   5.739   1.583
 7304SOL    HW222812   3.040   5.626   1.591
 7305SOL     OW22813   5.331   1.928   1.397
 7305SOL    HW122814   5.392   1.976   1.461
 7305SOL    HW222815   5.380   1.851   1.356
 7306SOL     OW22816   3.560   1.811   1.737
 7306SOL    HW122817   3.479   1.757   1.757
 7306SOL    HW222818   3.585   1.798   1.641
 7307SOL     OW22819   4.429   6.663   2.270
 7307SOL    HW122820   4.480   6.697   2.349
 7307SOL    HW222821   4.492   6.613   2.209
 7308SOL     OW22822   6.373   1.318   4.158
 7308SOL    HW122823   6.451   1.257   4.146
 7308SOL    HW222824   6.333   1.306   4.249
 7309SOL     OW22825   3.674   0.104   1.256
 7309SOL    HW122826   3.698   0.007   1.256
 7309SOL    HW222827   3.591   0.117   1.311
 7310SOL     OW22828   2.083   3.902   0.262
 7310SOL    HW122829   1.990   3.931   0.287
 7310SOL    HW222830   2.078   3.823   0.201
 7311SOL     OW22831   1.489   0.519   0.443
 7311SOL    HW122832   1.518   0.604   0.487
 7311SOL    HW222833   1.435   0.465   0.507
 7312SOL     OW22834   1.182   2.064   4.904
 7312SOL    HW122835   1.265   2.012   4.885
 7312SOL    HW222836   1.110   2.001   4.933
 7313SOL     OW22837   2.190   1.288   0.422
 7313SOL    HW122838   2.180   1.230   0.341
 7313SOL    HW222839   2.245   1.240   0.490
 7314SOL     OW22840   0.094   4.066   6.065
 7314SOL    HW122841   0.022   4.133   6.080
 7314SOL    HW222842   0.132   4.077   5.973
 7315SOL     OW22843   4.656   5.683   1.848
 7315SOL    HW122844   4.688   5.769   1.889
 7315SOL    HW222845   4.641   5.696   1.750
 7316SOL     OW22846   3.123   2.843   6.598
 7316SOL    HW122847   3.100   2.785   6.520
 7316SOL    HW222848   3.069   2.815   6.677
 7317SOL     OW22849   4.151   1.479   1.861
 7317SOL    HW122850   4.123   1.571   1.831
 7317SOL    HW222851   4.074   1.416   1.849
 7318SOL     OW22852   2.981   0.313   2.770
 7318SOL    HW122853   3.047   0.306   2.695
 7318SOL    HW222854   2.952   0.408   2.780
 7319SOL     OW22855   5.884   2.887   6.976
 7319SOL    HW122856   5.811   2.932   0.005
 7319SOL    HW222857   5.865   2.895   6.878
 7320SOL     OW22858   0.359   3.483   1.183
 7320SOL    HW122859   0.294   3.448   1.251
 7320SOL    HW222860   0.329   3.456   1.091
 7321SOL     OW22861   2.395   6.731   5.994
 7321SOL    HW122862   2.489   6.702   5.976
 7321SOL    HW222863   2.332   6.662   5.957
 7322SOL     OW22864   0.010   2.056   2.885
 7322SOL    HW122865   6.976   2.135   2.903
 7322SOL    HW222866   6.988   1.995   2.820
 7323SOL     OW22867   2.652   2.950   1.518
 7323SOL    HW122868   2.678   2.897   1.437
 7323SOL    HW222869   2.571   3.005   1.497
 7324SOL     OW22870   5.512   4.737   2.322
 7324SOL    HW122871   5.489   4.745   2.225
 7324SOL    HW222872   5.530   4.827   2.360
 7325SOL     OW22873   2.803   0.256   5.558
 7325SOL    HW122874   2.825   0.284   5.651
 7325SOL    HW222875   2.770   0.334   5.506
 7326SOL     OW22876   3.542   6.185   5.713
 7326SOL    HW122877   3.492   6.199   5.627
 7326SOL    HW222878   3.534   6.090   5.742
 7327SOL     OW22879   6.022   2.777   4.607
 7327SOL    HW122880   5.959   2.776   4.684
 7327SOL    HW222881   5.977   2.739   4.526
 7328SOL     OW22882   4.777   7.011   5.489
 7328SOL    HW122883   4.803   0.067   5.435
 7328SOL    HW222884   4.687   6.978   5.459
 7329SOL     OW22885   0.745   3.776   0.460
 7329SOL    HW122886   0.718   3.795   0.554
 7329SOL    HW222887   0.727   3.681   0.438
 7330SOL     OW22888   2.318   3.213   0.979
 7330SOL    HW122889   2.327   3.189   1.076
 7330SOL    HW222890   2.263   3.144   0.932
 7331SOL     OW22891   5.811   6.387   1.609
 7331SOL    HW122892   5.861   6.314   1.563
 7331SOL    HW222893   5.801   6.365   1.706
 7332SOL     OW22894   2.742   3.758   6.647
 7332SOL    HW122895   2.670   3.813   6.605
 7332SOL    HW222896   2.824   3.814   6.659
 7333SOL     OW22897   6.191   3.149   2.703
 7333SOL    HW122898   6.269   3.091   2.681
 7333SOL    HW222899   6.223   3.235   2.743
 7334SOL     OW22900   2.577   5.885   6.339
 7334SOL    HW122901   2.592   5.956   6.407
 7334SOL    HW222902   2.479   5.871   6.325
 7335SOL     OW22903   6.872   2.797   3.050
 7335SOL    HW122904   6.884   2.697   3.052
 7335SOL    HW222905   6.954   2.842   3.086
 7336SOL     OW22906   2.255   6.608   1.505
 7336SOL    HW122907   2.171   6.604   1.451
 7336SOL    HW222908   2.334   6.621   1.445
 7337SOL     OW22909   2.347   3.077   1.512
 7337SOL    HW122910   2.271   3.042   1.567
 7337SOL    HW222911   2.377   3.165   1.549
 7338SOL     OW22912   5.405   1.788   1.749
 7338SOL    HW122913   5.480   1.808   1.811
 7338SOL    HW222914   5.346   1.868   1.739
 7339SOL     OW22915   6.771   0.399   5.173
 7339SOL    HW122916   6.784   0.352   5.261
 7339SOL    HW222917   6.735   0.490   5.189
 7340SOL     OW22918   3.595   1.425   6.980
 7340SOL    HW122919   3.605   1.341   6.927
 7340SOL    HW222920   3.522   1.413   0.024
 7341SOL     OW22921   0.867   4.904   4.729
 7341SOL    HW122922   0.867   4.864   4.821
 7341SOL    HW222923   0.801   4.856   4.672
 7342SOL     OW22924   6.279   6.345   7.011
 7342SOL    HW122925   6.251   6.412   6.942
 7342SOL    HW222926   6.256   6.379   0.079
 7343SOL     OW22927   5.322   3.814   1.191
 7343SOL    HW122928   5.413   3.781   1.166
 7343SOL    HW222929   5.320   3.837   1.288
 7344SOL     OW22930   2.231   0.687   6.042
 7344SOL    HW122931   2.167   0.645   6.106
 7344SOL    HW222932   2.203   0.782   6.025
 7345SOL     OW22933   4.806   6.635   5.809
 7345SOL    HW122934   4.900   6.601   5.801
 7345SOL    HW222935   4.806   6.721   5.859
 7346SOL     OW22936   3.640   4.504   1.369
 7346SOL    HW122937   3.704   4.557   1.424
 7346SOL    HW222938   3.666   4.407   1.370
 7347SOL     OW22939   6.948   3.082   1.010
 7347SOL    HW122940   6.963   2.983   1.004
 7347SOL    HW222941   6.859   3.104   0.970
 7348SOL     OW22942   1.644   3.142   3.732
 7348SOL    HW122943   1.711   3.161   3.804
 7348SOL    HW222944   1.615   3.228   3.690
 7349SOL     OW22945   4.106   2.031   1.109
 7349SOL    HW122946   4.072   2.050   1.201
 7349SOL    HW222947   4.078   1.940   1.081
 7350SOL     OW22948   1.641   3.547   4.521
 7350SOL    HW122949   1.686   3.602   4.593
 7350SOL    HW222950   1.556   3.509   4.557
 7351SOL     OW22951   4.583   5.857   5.057
 7351SOL    HW122952   4.633   5.893   5.136
 7351SOL    HW222953   4.528   5.930   5.016
 7352SOL     OW22954   1.484   3.151   2.809
 7352SOL    HW122955   1.535   3.206   2.874
 7352SOL    HW222956   1.488   3.055   2.836
 7353SOL     OW22957   0.089   0.252   6.009
 7353SOL    HW122958   0.165   0.196   6.041
 7353SOL    HW222959   0.020   0.259   6.082
 7354SOL     OW22960   1.002   1.655   7.012
 7354SOL    HW122961   0.956   1.723   6.954
 7354SOL    HW222962   0.963   1.658   0.081
 7355SOL     OW22963   1.658   1.169   0.665
 7355SOL    HW122964   1.609   1.131   0.743
 7355SOL    HW222965   1.645   1.268   0.662
 7356SOL     OW22966   4.696   2.942   6.449
 7356SOL    HW122967   4.717   3.030   6.405
 7356SOL    HW222968   4.704   2.869   6.381
 7357SOL     OW22969   4.443   0.635   1.554
 7357SOL    HW122970   4.427   0.646   1.652
 7357SOL    HW222971   4.540   0.649   1.534
 7358SOL     OW22972   1.226   3.042   2.100
 7358SOL    HW122973   1.187   3.134   2.100
 7358SOL    HW222974   1.198   2.994   2.183
 7359SOL     OW22975   2.880   2.892   0.317
 7359SOL    HW122976   2.843   2.821   0.256
 7359SOL    HW222977   2.820   2.902   0.396
 7360SOL     OW22978   3.169   3.522   5.898
 7360SOL    HW122979   3.170   3.503   5.799
 7360SOL    HW222980   3.219   3.606   5.916
 7361SOL     OW22981   4.034   0.334   2.423
 7361SOL    HW122982   3.999   0.383   2.503
 7361SOL    HW222983   4.039   0.237   2.444
 7362SOL     OW22984   0.796   6.224   4.612
 7362SOL    HW122985   0.743   6.270   4.683
 7362SOL    HW222986   0.868   6.284   4.580
 7363SOL     OW22987   4.056   1.401   1.103
 7363SOL    HW122988   3.972   1.350   1.123
 7363SOL    HW222989   4.054   1.488   1.152
 7364SOL     OW22990   4.473   0.449   1.377
 7364SOL    HW122991   4.482   0.505   1.459
 7364SOL    HW222992   4.381   0.408   1.375
 7365SOL     OW22993   1.401   6.547   1.420
 7365SOL    HW122994   1.349   6.520   1.501
 7365SOL    HW222995   1.450   6.631   1.439
 7366SOL     OW22996   2.127   5.619   0.330
 7366SOL    HW122997   2.027   5.628   0.328
 7366SOL    HW222998   2.168   5.709   0.339
 7367SOL     OW22999   4.811   4.208   1.079
 7367SOL    HW123000   4.883   4.233   1.014
 7367SOL    HW223001   4.845   4.217   1.172
 7368SOL     OW23002   3.861   2.995   3.659
 7368SOL    HW123003   3.790   2.942   3.705
 7368SOL    HW223004   3.908   3.053   3.726
 7369SOL     OW23005   4.921   2.971   0.586
 7369SOL    HW123006   4.986   2.943   0.515
 7369SOL    HW223007   4.956   2.945   0.675
 7370SOL     OW23008   2.738   0.526   5.327
 7370SOL    HW123009   2.768   0.561   5.415
 7370SOL    HW223010   2.642   0.551   5.312
 7371SOL     OW23011   2.002   5.962   3.963
 7371SOL    HW123012   2.078   5.975   3.900
 7371SOL    HW223013   1.917   5.991   3.919
 7372SOL     OW23014   2.964   1.244   5.403
 7372SOL    HW123015   3.033   1.179   5.437
 7372SOL    HW223016   2.960   1.323   5.464
 7373SOL     OW23017   5.550   1.072   4.385
 7373SOL    HW123018   5.523   1.167   4.373
 7373SOL    HW223019   5.570   1.054   4.481
 7374SOL     OW23020   2.768   1.946   5.609
 7374SOL    HW123021   2.839   2.016   5.614
 7374SOL    HW223022   2.747   1.926   5.514
 7375SOL     OW23023   2.351   2.806   2.707
 7375SOL    HW123024   2.446   2.826   2.732
 7375SOL    HW223025   2.298   2.891   2.709
 7376SOL     OW23026   3.913   1.751   6.705
 7376SOL    HW123027   3.915   1.813   6.626
 7376SOL    HW223028   4.000   1.754   6.753
 7377SOL     OW23029   5.492   5.214   1.295
 7377SOL    HW123030   5.477   5.215   1.196
 7377SOL    HW223031   5.574   5.160   1.315
 7378SOL     OW23032   0.584   1.060   5.299
 7378SOL    HW123033   0.515   1.025   5.363
 7378SOL    HW223034   0.625   0.983   5.250
 7379SOL     OW23035   3.449   2.080   2.766
 7379SOL    HW123036   3.520   2.012   2.752
 7379SOL    HW223037   3.435   2.094   2.865
 7380SOL     OW23038   6.745   3.153   5.264
 7380SOL    HW123039   6.704   3.098   5.337
 7380SOL    HW223040   6.693   3.238   5.253
 7381SOL     OW23041   5.056   4.166   1.979
 7381SOL    HW123042   5.147   4.143   1.946
 7381SOL    HW223043   5.011   4.084   2.014
 7382SOL     OW23044   0.139   5.853   6.373
 7382SOL    HW123045   0.104   5.799   6.297
 7382SOL    HW223046   0.071   5.857   6.446
 7383SOL     OW23047   0.876   6.619   1.015
 7383SOL    HW123048   0.922   6.707   1.003
 7383SOL    HW223049   0.779   6.629   0.996
 7384SOL     OW23050   5.734   0.607   2.695
 7384SOL    HW123051   5.818   0.640   2.738
 7384SOL    HW223052   5.734   0.630   2.598
 7385SOL     OW23053   4.015   6.005   1.971
 7385SOL    HW123054   3.937   6.041   1.920
 7385SOL    HW223055   3.993   6.001   2.068
 7386SOL     OW23056   0.394   1.756   5.229
 7386SOL    HW123057   0.441   1.827   5.283
 7386SOL    HW223058   0.451   1.732   5.151
 7387SOL     OW23059   4.456   6.102   4.509
 7387SOL    HW123060   4.484   6.198   4.500
 7387SOL    HW223061   4.514   6.045   4.450
 7388SOL     OW23062   0.303   4.988   3.149
 7388SOL    HW123063   0.399   4.970   3.126
 7388SOL    HW223064   0.247   4.910   3.120
 7389SOL     OW23065   0.539   3.843   6.220
 7389SOL    HW123066   0.548   3.900   6.138
 7389SOL    HW223067   0.528   3.902   6.300
 7390SOL     OW23068   2.441   1.595   6.746
 7390SOL    HW123069   2.399   1.635   6.828
 7390SOL    HW223070   2.375   1.600   6.670
 7391SOL     OW23071   5.181   4.228   4.913
 7391SOL    HW123072   5.264   4.254   4.863
 7391SOL    HW223073   5.173   4.284   4.996
 7392SOL     OW23074   2.457   6.063   6.900
 7392SOL    HW123075   2.552   6.056   6.931
 7392SOL    HW223076   2.442   6.001   6.823
 7393SOL     OW23077   5.311   5.113   1.696
 7393SOL    HW123078   5.362   5.189   1.656
 7393SOL    HW223079   5.239   5.084   1.632
 7394SOL     OW23080   2.926   2.673   5.730
 7394SOL    HW123081   2.862   2.733   5.681
 7394SOL    HW223082   2.959   2.719   5.812
 7395SOL     OW23083   2.583   1.636   0.078
 7395SOL    HW123084   2.557   1.594   0.165
 7395SOL    HW223085   2.507   1.693   0.045
 7396SOL     OW23086   0.754   6.959   0.080
 7396SOL    HW123087   0.782   6.904   0.159
 7396SOL    HW223088   0.654   6.970   0.081
 7397SOL     OW23089   4.524   5.053   4.685
 7397SOL    HW123090   4.536   4.968   4.736
 7397SOL    HW223091   4.474   5.034   4.600
 7398SOL     OW23092   2.986   5.379   4.508
 7398SOL    HW123093   2.886   5.370   4.516
 7398SOL    HW223094   3.007   5.439   4.431
 7399SOL     OW23095   0.900   2.983   5.443
 7399SOL    HW123096   0.983   2.932   5.421
 7399SOL    HW223097   0.889   2.988   5.542
 7400SOL     OW23098   3.769   3.310   5.869
 7400SOL    HW123099   3.828   3.233   5.845
 7400SOL    HW223100   3.703   3.281   5.939
 7401SOL     OW23101   1.393   0.849   4.515
 7401SOL    HW123102   1.358   0.943   4.517
 7401SOL    HW223103   1.493   0.851   4.517
 7402SOL     OW23104   2.757   5.578   5.696
 7402SOL    HW123105   2.705   5.664   5.700
 7402SOL    HW223106   2.703   5.505   5.738
 7403SOL     OW23107   1.891   3.955   2.615
 7403SOL    HW123108   1.958   3.883   2.593
 7403SOL    HW223109   1.938   4.032   2.657
 7404SOL     OW23110   2.868   5.056   1.302
 7404SOL    HW123111   2.958   5.028   1.268
 7404SOL    HW223112   2.803   4.981   1.289
 7405SOL     OW23113   3.562   4.956   4.169
 7405SOL    HW123114   3.480   4.946   4.226
 7405SOL    HW223115   3.540   4.929   4.075
 7406SOL     OW23116   0.656   2.958   3.625
 7406SOL    HW123117   0.598   3.033   3.592
 7406SOL    HW223118   0.751   2.989   3.628
 7407SOL     OW23119   7.020   6.342   4.746
 7407SOL    HW123120   6.965   6.269   4.787
 7407SOL    HW223121   6.962   6.401   4.691
 7408SOL     OW23122   1.386   3.195   6.304
 7408SOL    HW123123   1.423   3.150   6.224
 7408SOL    HW223124   1.429   3.285   6.315
 7409SOL     OW23125   0.656   1.411   6.259
 7409SOL    HW123126   0.557   1.406   6.272
 7409SOL    HW223127   0.676   1.422   6.161
 7410SOL     OW23128   0.496   5.301   1.075
 7410SOL    HW123129   0.417   5.257   1.032
 7410SOL    HW223130   0.578   5.279   1.023
 7411SOL     OW23131   2.597   7.000   4.053
 7411SOL    HW123132   2.645   0.042   4.112
 7411SOL    HW223133   2.642   6.911   4.060
 7412SOL     OW23134   4.220   0.348   2.822
 7412SOL    HW123135   4.207   0.321   2.918
 7412SOL    HW223136   4.297   0.298   2.783
 7413SOL     OW23137   4.815   5.552   5.069
 7413SOL    HW123138   4.821   5.628   5.004
 7413SOL    HW223139   4.725   5.508   5.062
 7414SOL     OW23140   0.105   6.850   3.801
 7414SOL    HW123141   0.196   6.840   3.761
 7414SOL    HW223142   0.110   6.838   3.900
 7415SOL     OW23143   1.120   3.568   3.431
 7415SOL    HW123144   1.141   3.552   3.335
 7415SOL    HW223145   1.190   3.524   3.488
 7416SOL     OW23146   3.342   1.559   3.819
 7416SOL    HW123147   3.296   1.476   3.849
 7416SOL    HW223148   3.341   1.626   3.893
 7417SOL     OW23149   2.433   0.896   6.325
 7417SOL    HW123150   2.337   0.921   6.335
 7417SOL    HW223151   2.482   0.968   6.277
 7418SOL     OW23152   3.645   5.473   0.724
 7418SOL    HW123153   3.736   5.468   0.682
 7418SOL    HW223154   3.626   5.387   0.771
 7419SOL     OW23155   5.782   2.624   5.160
 7419SOL    HW123156   5.858   2.560   5.159
 7419SOL    HW223157   5.715   2.595   5.228
 7420SOL     OW23158   0.170   6.941   1.704
 7420SOL    HW123159   0.267   6.942   1.677
 7420SOL    HW223160   0.117   6.998   1.641
 7421SOL     OW23161   3.225   3.408   1.200
 7421SOL    HW123162   3.126   3.412   1.188
 7421SOL    HW223163   3.263   3.335   1.144
 7422SOL     OW23164   0.082   2.805   2.746
 7422SOL    HW123165   7.012   2.842   2.751
 7422SOL    HW223166   0.084   2.729   2.682
 7423SOL     OW23167   6.455   4.736   5.541
 7423SOL    HW123168   6.451   4.668   5.468
 7423SOL    HW223169   6.533   4.797   5.525
 7424SOL     OW23170   0.028   0.424   4.785
 7424SOL    HW123171   0.029   0.385   4.693
 7424SOL    HW223172   0.066   0.517   4.783
 7425SOL     OW23173   4.795   5.741   6.554
 7425SOL    HW123174   4.831   5.749   6.461
 7425SOL    HW223175   4.695   5.737   6.551
 7426SOL     OW23176   1.836   1.319   6.143
 7426SOL    HW123177   1.833   1.395   6.078
 7426SOL    HW223178   1.837   1.354   6.236
 7427SOL     OW23179   3.585   6.335   4.236
 7427SOL    HW123180   3.594   6.435   4.239
 7427SOL    HW223181   3.520   6.309   4.165
 7428SOL     OW23182   4.070   1.295   6.115
 7428SOL    HW123183   4.136   1.267   6.184
 7428SOL    HW223184   4.017   1.215   6.085
 7429SOL     OW23185   6.401   6.709   3.060
 7429SOL    HW123186   6.441   6.636   3.005
 7429SOL    HW223187   6.329   6.671   3.119
 7430SOL     OW23188   0.155   3.839   6.690
 7430SOL    HW123189   0.150   3.904   6.614
 7430SOL    HW223190   0.204   3.757   6.661
 7431SOL     OW23191   0.392   3.129   3.032
 7431SOL    HW123192   0.315   3.188   3.007
 7431SOL    HW223193   0.372   3.035   3.006
 7432SOL     OW23194   6.844   0.373   3.530
 7432SOL    HW123195   6.924   0.316   3.508
 7432SOL    HW223196   6.832   0.377   3.630
 7433SOL     OW23197   5.446   4.721   6.832
 7433SOL    HW123198   5.523   4.770   6.790
 7433SOL    HW223199   5.429   4.636   6.782
 7434SOL     OW23200   5.448   0.601   5.964
 7434SOL    HW123201   5.464   0.619   6.061
 7434SOL    HW223202   5.506   0.526   5.933
 7435SOL     OW23203   3.982   5.652   0.718
 7435SOL    HW123204   3.914   5.697   0.776
 7435SOL    HW223205   3.941   5.632   0.629
 7436SOL     OW23206   5.824   2.910   6.693
 7436SOL    HW123207   5.897   2.934   6.629
 7436SOL    HW223208   5.746   2.971   6.679
 7437SOL     OW23209   0.366   5.795   0.472
 7437SOL    HW123210   0.279   5.811   0.518
 7437SOL    HW223211   0.353   5.801   0.373
 7438SOL     OW23212   0.248   5.134   6.853
 7438SOL    HW123213   0.157   5.164   6.824
 7438SOL    HW223214   0.250   5.125   6.953
 7439SOL     OW23215   1.714   6.070   4.698
 7439SOL    HW123216   1.761   6.139   4.753
 7439SOL    HW223217   1.673   6.002   4.758
 7440SOL     OW23218   0.361   3.357   4.297
 7440SOL    HW123219   0.453   3.380   4.328
 7440SOL    HW223220   0.309   3.318   4.373
 7441SOL     OW23221   4.868   5.690   4.443
 7441SOL    HW123222   4.823   5.710   4.530
 7441SOL    HW223223   4.875   5.773   4.389
 7442SOL     OW23224   0.341   0.897   6.447
 7442SOL    HW123225   0.273   0.852   6.389
 7442SOL    HW223226   0.433   0.865   6.421
 7443SOL     OW23227   0.317   0.598   2.563
 7443SOL    HW123228   0.262   0.666   2.612
 7443SOL    HW223229   0.387   0.645   2.509
 7444SOL     OW23230   6.161   3.419   4.623
 7444SOL    HW123231   6.063   3.436   4.630
 7444SOL    HW223232   6.179   3.321   4.630
 7445SOL     OW23233   3.044   1.078   1.101
 7445SOL    HW123234   3.065   0.994   1.052
 7445SOL    HW223235   2.995   1.057   1.186
 7446SOL     OW23236   5.666   3.848   0.760
 7446SOL    HW123237   5.581   3.874   0.806
 7446SOL    HW223238   5.739   3.911   0.788
 7447SOL     OW23239   0.617   3.207   5.705
 7447SOL    HW123240   0.717   3.207   5.701
 7447SOL    HW223241   0.581   3.270   5.637
 7448SOL     OW23242   6.504   6.929   5.593
 7448SOL    HW123243   6.523   6.886   5.505
 7448SOL    HW223244   6.472   7.022   5.579
 7449SOL     OW23245   6.481   2.804   2.147
 7449SOL    HW123246   6.509   2.723   2.198
 7449SOL    HW223247   6.522   2.802   2.056
 7450SOL     OW23248   5.544   1.903   4.807
 7450SOL    HW123249   5.474   1.885   4.738
 7450SOL    HW223250   5.633   1.874   4.773
 7451SOL     OW23251   0.807   6.642   3.597
 7451SOL    HW123252   0.843   6.734   3.614
 7451SOL    HW223253   0.848   6.604   3.514
 7452SOL     OW23254   0.910   6.264   4.956
 7452SOL    HW123255   0.851   6.311   4.891
 7452SOL    HW223256   0.856   6.198   5.008
 7453SOL     OW23257   5.005   6.048   5.542
 7453SOL    HW123258   5.104   6.036   5.532
 7453SOL    HW223259   4.963   6.057   5.451
 7454SOL     OW23260   1.211   2.078   1.901
 7454SOL    HW123261   1.263   2.064   1.985
 7454SOL    HW223262   1.114   2.088   1.924
 7455SOL     OW23263   6.661   1.825   2.303
 7455SOL    HW123264   6.729   1.897   2.288
 7455SOL    HW223265   6.619   1.800   2.216
 7456SOL     OW23266   0.131   1.904   4.311
 7456SOL    HW123267   0.141   1.905   4.212
 7456SOL    HW223268   0.194   1.836   4.350
 7457SOL     OW23269   4.015   0.840   5.311
 7457SOL    HW123270   4.048   0.808   5.222
 7457SOL    HW223271   3.998   0.761   5.370
 7458SOL     OW23272   2.461   6.933   6.196
 7458SOL    HW123273   2.431   6.877   6.119
 7458SOL    HW223274   2.475   6.875   6.276
 7459SOL     OW23275   4.993   0.535   1.793
 7459SOL    HW123276   5.015   0.461   1.729
 7459SOL    HW223277   4.912   0.511   1.846
 7460SOL     OW23278   2.041   5.443   1.132
 7460SOL    HW123279   2.029   5.538   1.101
 7460SOL    HW223280   2.015   5.436   1.228
 7461SOL     OW23281   6.390   1.742   5.790
 7461SOL    HW123282   6.466   1.802   5.765
 7461SOL    HW223283   6.365   1.687   5.710
 7462SOL     OW23284   1.227   4.232   2.987
 7462SOL    HW123285   1.289   4.155   2.976
 7462SOL    HW223286   1.228   4.288   2.904
 7463SOL     OW23287   2.966   4.967   0.687
 7463SOL    HW123288   3.021   4.956   0.604
 7463SOL    HW223289   2.977   5.060   0.722
 7464SOL     OW23290   4.885   0.190   6.441
 7464SOL    HW123291   4.791   0.206   6.473
 7464SOL    HW223292   4.895   0.093   6.416
 7465SOL     OW23293   0.769   6.422   0.063
 7465SOL    HW123294   0.853   6.368   0.053
 7465SOL    HW223295   0.784   6.514   0.026
 7466SOL     OW23296   0.501   0.461   6.030
 7466SOL    HW123297   0.561   0.528   5.986
 7466SOL    HW223298   0.456   0.405   5.960
 7467SOL     OW23299   6.911   2.171   0.781
 7467SOL    HW123300   6.971   2.108   0.732
 7467SOL    HW223301   6.877   2.240   0.718
 7468SOL     OW23302   6.573   2.227   2.961
 7468SOL    HW123303   6.497   2.243   3.024
 7468SOL    HW223304   6.568   2.292   2.885
 7469SOL     OW23305   0.460   0.970   0.646
 7469SOL    HW123306   0.467   1.029   0.726
 7469SOL    HW223307   0.534   0.992   0.582
 7470SOL     OW23308   0.022   3.015   3.884
 7470SOL    HW123309   0.059   3.107   3.902
 7470SOL    HW223310   0.083   2.966   3.822
 7471SOL     OW23311   0.103   6.514   6.048
 7471SOL    HW123312   0.194   6.550   6.069
 7471SOL    HW223313   0.057   6.575   5.983
 7472SOL     OW23314   6.341   6.873   4.093
 7472SOL    HW123315   6.367   6.827   4.178
 7472SOL    HW223316   6.306   6.964   4.113
 7473SOL     OW23317   6.400   4.565   2.602
 7473SOL    HW123318   6.450   4.511   2.669
 7473SOL    HW223319   6.304   4.573   2.630
 7474SOL     OW23320   2.107   1.370   5.426
 7474SOL    HW123321   2.052   1.409   5.352
 7474SOL    HW223322   2.146   1.445   5.480
 7475SOL     OW23323   3.971   1.080   2.323
 7475SOL    HW123324   3.988   1.166   2.371
 7475SOL    HW223325   3.921   1.099   2.238
 7476SOL     OW23326   3.613   5.395   3.555
 7476SOL    HW123327   3.668   5.463   3.507
 7476SOL    HW223328   3.539   5.363   3.495
 7477SOL     OW23329   0.099   1.440   5.326
 7477SOL    HW123330   0.196   1.416   5.318
 7477SOL    HW223331   0.065   1.470   5.237
 7478SOL     OW23332   4.647   5.055   6.444
 7478SOL    HW123333   4.620   5.122   6.514
 7478SOL    HW223334   4.738   5.019   6.465
 7479SOL     OW23335   3.977   2.356   1.543
 7479SOL    HW123336   4.018   2.268   1.569
 7479SOL    HW223337   4.017   2.386   1.456
 7480SOL     OW23338   6.744   4.083   1.956
 7480SOL    HW123339   6.828   4.138   1.951
 7480SOL    HW223340   6.729   4.055   2.051
 7481SOL     OW23341   6.012   5.360   1.349
 7481SOL    HW123342   6.089   5.316   1.302
 7481SOL    HW223343   6.042   5.394   1.438
 7482SOL     OW23344   4.357   2.087   3.804
 7482SOL    HW123345   4.266   2.110   3.769
 7482SOL    HW223346   4.427   2.134   3.749
 7483SOL     OW23347   4.833   2.905   4.920
 7483SOL    HW123348   4.745   2.888   4.875
 7483SOL    HW223349   4.897   2.832   4.897
 7484SOL     OW23350   0.879   0.913   3.693
 7484SOL    HW123351   0.964   0.864   3.672
 7484SOL    HW223352   0.898   1.011   3.702
 7485SOL     OW23353   3.429   0.732   5.054
 7485SOL    HW123354   3.420   0.634   5.038
 7485SOL    HW223355   3.378   0.782   4.985
 7486SOL     OW23356   2.708   0.674   5.842
 7486SOL    HW123357   2.633   0.729   5.879
 7486SOL    HW223358   2.699   0.580   5.874
 7487SOL     OW23359   2.156   6.224   2.387
 7487SOL    HW123360   2.231   6.207   2.451
 7487SOL    HW223361   2.079   6.165   2.411
 7488SOL     OW23362   1.797   6.298   4.147
 7488SOL    HW123363   1.829   6.338   4.061
 7488SOL    HW223364   1.852   6.218   4.168
 7489SOL     OW23365   5.431   2.630   4.832
 7489SOL    HW123366   5.513   2.574   4.821
 7489SOL    HW223367   5.422   2.660   4.927
 7490SOL     OW23368   0.673   0.691   1.642
 7490SOL    HW123369   0.753   0.750   1.652
 7490SOL    HW223370   0.702   0.596   1.636
 7491SOL     OW23371   5.925   3.239   5.779
 7491SOL    HW123372   5.840   3.185   5.786
 7491SOL    HW223373   5.902   3.335   5.767
 7492SOL     OW23374   2.142   0.718   3.572
 7492SOL    HW123375   2.121   0.809   3.537
 7492SOL    HW223376   2.180   0.727   3.664
 7493SOL     OW23377   6.842   3.931   0.096
 7493SOL    HW123378   6.897   3.921   0.013
 7493SOL    HW223379   6.895   3.979   0.166
 7494SOL     OW23380   5.287   1.017   2.403
 7494SOL    HW123381   5.227   0.952   2.358
 7494SOL    HW223382   5.326   0.976   2.485
 7495SOL     OW23383   1.746   0.973   0.490
 7495SOL    HW123384   1.720   0.889   0.536
 7495SOL    HW223385   1.736   1.050   0.553
 7496SOL     OW23386   7.016   3.349   6.018
 7496SOL    HW123387   7.017   3.264   6.071
 7496SOL    HW223388   6.923   3.368   5.987
 7497SOL     OW23389   2.369   5.155   0.486
 7497SOL    HW123390   2.316   5.077   0.520
 7497SOL    HW223391   2.307   5.224   0.449
 7498SOL     OW23392   2.452   1.454   5.281
 7498SOL    HW123393   2.401   1.368   5.292
 7498SOL    HW223394   2.519   1.444   5.208
 7499SOL     OW23395   3.812   2.110   2.962
 7499SOL    HW123396   3.759   2.145   2.885
 7499SOL    HW223397   3.761   2.037   3.007
 7500SOL     OW23398   3.408   5.241   3.719
 7500SOL    HW123399   3.320   5.259   3.675
 7500SOL    HW223400   3.479   5.297   3.677
 7501SOL     OW23401   5.793   4.019   4.054
 7501SOL    HW123402   5.771   4.017   4.152
 7501SOL    HW223403   5.708   4.020   4.001
 7502SOL     OW23404   1.596   0.188   4.796
 7502SOL    HW123405   1.529   0.150   4.859
 7502SOL    HW223406   1.572   0.162   4.702
 7503SOL     OW23407   3.177   1.815   0.679
 7503SOL    HW123408   3.238   1.783   0.606
 7503SOL    HW223409   3.206   1.774   0.766
 7504SOL     OW23410   1.850   7.022   2.523
 7504SOL    HW123411   1.764   0.034   2.488
 7504SOL    HW223412   1.862   6.927   2.494
 7505SOL     OW23413   1.732   2.000   5.924
 7505SOL    HW123414   1.642   1.981   5.962
 7505SOL    HW223415   1.744   2.098   5.913
 7506SOL     OW23416   5.289   0.200   3.017
 7506SOL    HW123417   5.317   0.142   3.093
 7506SOL    HW223418   5.370   0.229   2.966
 7507SOL     OW23419   0.852   0.596   2.297
 7507SOL    HW123420   0.840   0.695   2.296
 7507SOL    HW223421   0.939   0.573   2.253
 7508SOL     OW23422   0.469   6.360   2.070
 7508SOL    HW123423   0.486   6.459   2.064
 7508SOL    HW223424   0.507   6.315   1.990
 7509SOL     OW23425   5.622   4.615   0.377
 7509SOL    HW123426   5.673   4.693   0.342
 7509SOL    HW223427   5.595   4.556   0.300
 7510SOL     OW23428   3.770   4.335   5.230
 7510SOL    HW123429   3.849   4.282   5.259
 7510SOL    HW223430   3.696   4.324   5.296
 7511SOL     OW23431   2.380   6.837   3.916
 7511SOL    HW123432   2.438   6.889   3.979
 7511SOL    HW223433   2.329   6.768   3.966
 7512SOL     OW23434   2.991   5.867   6.702
 7512SOL    HW123435   3.067   5.875   6.767
 7512SOL    HW223436   3.020   5.902   6.613
 7513SOL     OW23437   2.116   0.746   1.830
 7513SOL    HW123438   2.060   0.707   1.757
 7513SOL    HW223439   2.192   0.797   1.789
 7514SOL     OW23440   2.381   5.431   1.050
 7514SOL    HW123441   2.285   5.457   1.057
 7514SOL    HW223442   2.423   5.432   1.141
 7515SOL     OW23443   6.899   4.727   1.853
 7515SOL    HW123444   6.939   4.640   1.881
 7515SOL    HW223445   6.893   4.788   1.932
 7516SOL     OW23446   6.685   5.846   5.815
 7516SOL    HW123447   6.678   5.746   5.814
 7516SOL    HW223448   6.607   5.884   5.866
 7517SOL     OW23449   7.005   3.336   0.672
 7517SOL    HW123450   0.057   3.271   0.673
 7517SOL    HW223451   7.005   3.386   0.586
 7518SOL     OW23452   4.357   5.360   3.145
 7518SOL    HW123453   4.338   5.441   3.090
 7518SOL    HW223454   4.289   5.289   3.125
 7519SOL     OW23455   6.762   6.638   3.906
 7519SOL    HW123456   6.832   6.621   3.836
 7519SOL    HW223457   6.693   6.566   3.903
 7520SOL     OW23458   3.571   0.477   2.296
 7520SOL    HW123459   3.627   0.414   2.243
 7520SOL    HW223460   3.620   0.564   2.306
 7521SOL     OW23461   4.890   4.416   6.013
 7521SOL    HW123462   4.844   4.505   6.014
 7521SOL    HW223463   4.970   4.419   6.073
 7522SOL     OW23464   2.525   0.716   6.519
 7522SOL    HW123465   2.535   0.791   6.584
 7522SOL    HW223466   2.481   0.750   6.435
 7523SOL     OW23467   5.993   0.162   5.906
 7523SOL    HW123468   5.955   0.215   5.830
 7523SOL    HW223469   5.920   0.107   5.947
 7524SOL     OW23470   1.972   2.023   5.761
 7524SOL    HW123471   2.023   2.087   5.818
 7524SOL    HW223472   1.881   2.008   5.800
 7525SOL     OW23473   3.458   0.714   6.008
 7525SOL    HW123474   3.439   0.723   5.911
 7525SOL    HW223475   3.458   0.617   6.034
 7526SOL     OW23476   2.821   3.323   1.467
 7526SOL    HW123477   2.916   3.290   1.465
 7526SOL    HW223478   2.764   3.256   1.515
 7527SOL     OW23479   3.890   5.791   3.224
 7527SOL    HW123480   3.844   5.702   3.228
 7527SOL    HW223481   3.821   5.863   3.217
 7528SOL     OW23482   5.214   1.816   7.011
 7528SOL    HW123483   5.204   1.721   0.018
 7528SOL    HW223484   5.210   1.820   6.911
 7529SOL     OW23485   5.347   0.517   4.877
 7529SOL    HW123486   5.415   0.534   4.805
 7529SOL    HW223487   5.273   0.583   4.869
 7530SOL     OW23488   0.712   3.811   2.876
 7530SOL    HW123489   0.727   3.891   2.818
 7530SOL    HW223490   0.708   3.729   2.819
 7531SOL     OW23491   4.776   2.689   4.372
 7531SOL    HW123492   4.790   2.661   4.277
 7531SOL    HW223493   4.837   2.638   4.432
 7532SOL     OW23494   5.612   4.626   0.657
 7532SOL    HW123495   5.712   4.616   0.663
 7532SOL    HW223496   5.584   4.624   0.561
 7533SOL     OW23497   2.430   1.701   2.338
 7533SOL    HW123498   2.348   1.716   2.393
 7533SOL    HW223499   2.407   1.708   2.241
 7534SOL     OW23500   4.594   6.066   5.540
 7534SOL    HW123501   4.618   6.163   5.531
 7534SOL    HW223502   4.583   6.043   5.636
 7535SOL     OW23503   2.205   6.914   5.940
 7535SOL    HW123504   2.196   6.940   5.844
 7535SOL    HW223505   2.287   6.858   5.951
 7536SOL     OW23506   4.853   4.469   4.684
 7536SOL    HW123507   4.947   4.480   4.652
 7536SOL    HW223508   4.851   4.468   4.784
 7537SOL     OW23509   3.183   5.359   2.604
 7537SOL    HW123510   3.122   5.299   2.554
 7537SOL    HW223511   3.208   5.437   2.547
 7538SOL     OW23512   2.839   3.024   1.696
 7538SOL    HW123513   2.756   2.976   1.669
 7538SOL    HW223514   2.896   2.963   1.752
 7539SOL     OW23515   0.892   3.056   4.123
 7539SOL    HW123516   0.826   2.982   4.127
 7539SOL    HW223517   0.873   3.122   4.195
 7540SOL     OW23518   4.711   0.402   5.298
 7540SOL    HW123519   4.809   0.394   5.278
 7540SOL    HW223520   4.667   0.313   5.284
 7541SOL     OW23521   0.053   4.608   4.175
 7541SOL    HW123522   0.020   4.541   4.242
 7541SOL    HW223523   0.080   4.692   4.221
 7542SOL     OW23524   0.919   5.298   0.087
 7542SOL    HW123525   0.896   5.214   0.039
 7542SOL    HW223526   0.835   5.348   0.108
 7543SOL     OW23527   3.361   2.129   6.868
 7543SOL    HW123528   3.276   2.115   6.918
 7543SOL    HW223529   3.430   2.065   6.902
 7544SOL     OW23530   0.227   1.909   2.637
 7544SOL    HW123531   0.171   1.980   2.679
 7544SOL    HW223532   0.250   1.840   2.705
 7545SOL     OW23533   6.589   5.777   1.273
 7545SOL    HW123534   6.498   5.763   1.312
 7545SOL    HW223535   6.655   5.719   1.320
 7546SOL     OW23536   3.215   1.680   2.033
 7546SOL    HW123537   3.123   1.712   2.060
 7546SOL    HW223538   3.206   1.607   1.965
 7547SOL     OW23539   4.882   1.182   0.432
 7547SOL    HW123540   4.824   1.153   0.508
 7547SOL    HW223541   4.832   1.171   0.346
 7548SOL     OW23542   3.880   1.872   0.044
 7548SOL    HW123543   3.881   1.776   0.073
 7548SOL    HW223544   3.920   1.878   6.976
 7549SOL     OW23545   5.641   2.125   1.337
 7549SOL    HW123546   5.554   2.174   1.327
 7549SOL    HW223547   5.643   2.081   1.427
 7550SOL     OW23548   2.560   4.690   2.487
 7550SOL    HW123549   2.464   4.699   2.512
 7550SOL    HW223550   2.606   4.779   2.496
 7551SOL     OW23551   5.293   3.952   6.320
 7551SOL    HW123552   5.316   3.949   6.223
 7551SOL    HW223553   5.243   4.036   6.340
 7552SOL     OW23554   0.932   5.241   2.576
 7552SOL    HW123555   0.981   5.318   2.536
 7552SOL    HW223556   0.848   5.274   2.620
 7553SOL     OW23557   4.581   6.238   5.065
 7553SOL    HW123558   4.547   6.182   4.989
 7553SOL    HW223559   4.594   6.180   5.145
 7554SOL     OW23560   4.573   1.672   1.036
 7554SOL    HW123561   4.664   1.648   1.003
 7554SOL    HW223562   4.505   1.612   0.993
 7555SOL     OW23563   1.989   5.003   5.536
 7555SOL    HW123564   2.080   4.971   5.509
 7555SOL    HW223565   1.920   4.946   5.492
 7556SOL     OW23566   1.306   3.022   0.239
 7556SOL    HW123567   1.254   3.063   0.164
 7556SOL    HW223568   1.398   3.001   0.208
 7557SOL     OW23569   5.318   1.891   6.074
 7557SOL    HW123570   5.363   1.834   6.006
 7557SOL    HW223571   5.386   1.925   6.139
 7558SOL     OW23572   1.479   2.818   4.501
 7558SOL    HW123573   1.502   2.722   4.484
 7558SOL    HW223574   1.450   2.860   4.415
 7559SOL     OW23575   5.425   4.552   6.614
 7559SOL    HW123576   5.402   4.470   6.562
 7559SOL    HW223577   5.481   4.613   6.556
 7560SOL     OW23578   4.891   6.146   1.003
 7560SOL    HW123579   4.879   6.222   0.940
 7560SOL    HW223580   4.802   6.109   1.030
 7561SOL     OW23581   1.284   3.305   6.838
 7561SOL    HW123582   1.274   3.379   6.905
 7561SOL    HW223583   1.354   3.331   6.771
 7562SOL     OW23584   6.811   6.321   3.791
 7562SOL    HW123585   6.769   6.296   3.879
 7562SOL    HW223586   6.868   6.402   3.804
 7563SOL     OW23587   2.597   6.709   0.747
 7563SOL    HW123588   2.602   6.699   0.648
 7563SOL    HW223589   2.659   6.782   0.776
 7564SOL     OW23590   4.715   0.564   3.151
 7564SOL    HW123591   4.746   0.544   3.057
 7564SOL    HW223592   4.724   0.662   3.169
 7565SOL     OW23593   5.943   3.025   0.415
 7565SOL    HW123594   5.875   3.016   0.342
 7565SOL    HW223595   6.006   3.099   0.393
 7566SOL     OW23596   6.284   4.722   2.982
 7566SOL    HW123597   6.280   4.727   2.882
 7566SOL    HW223598   6.379   4.730   3.012
 7567SOL     OW23599   1.529   2.324   5.288
 7567SOL    HW123600   1.576   2.391   5.231
 7567SOL    HW223601   1.433   2.351   5.298
 7568SOL     OW23602   5.366   6.031   2.430
 7568SOL    HW123603   5.284   5.975   2.440
 7568SOL    HW223604   5.357   6.114   2.484
 7569SOL     OW23605   4.094   6.209   5.846
 7569SOL    HW123606   4.048   6.263   5.916
 7569SOL    HW223607   4.081   6.112   5.864
 7570SOL     OW23608   5.849   4.221   4.940
 7570SOL    HW123609   5.849   4.163   5.022
 7570SOL    HW223610   5.815   4.312   4.964
 7571SOL     OW23611   5.132   5.481   3.407
 7571SOL    HW123612   5.098   5.421   3.335
 7571SOL    HW223613   5.219   5.446   3.442
 7572SOL     OW23614   4.593   1.130   1.818
 7572SOL    HW123615   4.527   1.196   1.784
 7572SOL    HW223616   4.658   1.108   1.745
 7573SOL     OW23617   0.414   0.085   5.058
 7573SOL    HW123618   0.350   0.082   5.136
 7573SOL    HW223619   0.387   0.015   4.991
 7574SOL     OW23620   6.514   0.630   4.950
 7574SOL    HW123621   6.447   0.685   4.999
 7574SOL    HW223622   6.469   0.549   4.913
 7575SOL     OW23623   4.365   0.082   6.177
 7575SOL    HW123624   4.338   0.174   6.207
 7575SOL    HW223625   4.402   0.088   6.084
 7576SOL     OW23626   4.767   4.764   6.380
 7576SOL    HW123627   4.815   4.825   6.316
 7576SOL    HW223628   4.704   4.706   6.330
 7577SOL     OW23629   0.330   6.877   6.783
 7577SOL    HW123630   0.322   6.936   6.864
 7577SOL    HW223631   0.419   6.892   6.740
 7578SOL     OW23632   2.339   5.722   1.896
 7578SOL    HW123633   2.400   5.730   1.975
 7578SOL    HW223634   2.244   5.732   1.926
 7579SOL     OW23635   6.450   1.220   1.600
 7579SOL    HW123636   6.474   1.222   1.503
 7579SOL    HW223637   6.371   1.278   1.616
 7580SOL     OW23638   1.213   3.811   3.832
 7580SOL    HW123639   1.171   3.720   3.841
 7580SOL    HW223640   1.145   3.877   3.800
 7581SOL     OW23641   0.008   0.903   1.107
 7581SOL    HW123642   6.968   0.860   1.042
 7581SOL    HW223643   0.041   0.835   1.171
 7582SOL     OW23644   3.415   1.162   1.046
 7582SOL    HW123645   3.323   1.201   1.049
 7582SOL    HW223646   3.422   1.097   0.971
 7583SOL     OW23647   6.102   2.833   1.230
 7583SOL    HW123648   6.104   2.915   1.174
 7583SOL    HW223649   6.184   2.829   1.287
 7584SOL     OW23650   2.623   6.953   1.702
 7584SOL    HW123651   2.633   6.862   1.661
 7584SOL    HW223652   2.578   6.945   1.791
 7585SOL     OW23653   1.537   2.694   6.344
 7585SOL    HW123654   1.613   2.754   6.318
 7585SOL    HW223655   1.481   2.740   6.413
 7586SOL     OW23656   2.893   1.094   3.848
 7586SOL    HW123657   2.803   1.059   3.822
 7586SOL    HW223658   2.935   1.139   3.770
 7587SOL     OW23659   2.083   2.088   0.217
 7587SOL    HW123660   1.986   2.108   0.199
 7587SOL    HW223661   2.136   2.106   0.134
 7588SOL     OW23662   1.492   2.857   2.820
 7588SOL    HW123663   1.400   2.872   2.857
 7588SOL    HW223664   1.556   2.846   2.896
 7589SOL     OW23665   0.715   0.168   2.383
 7589SOL    HW123666   0.699   0.257   2.340
 7589SOL    HW223667   0.700   0.095   2.316
 7590SOL     OW23668   4.936   1.731   6.068
 7590SOL    HW123669   4.919   1.811   6.125
 7590SOL    HW223670   4.907   1.749   5.974
 7591SOL     OW23671   6.942   3.750   0.515
 7591SOL    HW123672   6.870   3.817   0.498
 7591SOL    HW223673   6.996   3.736   0.431
 7592SOL     OW23674   6.809   4.357   5.655
 7592SOL    HW123675   6.746   4.312   5.591
 7592SOL    HW223676   6.780   4.451   5.670
 7593SOL     OW23677   5.761   3.050   1.450
 7593SOL    HW123678   5.777   3.026   1.546
 7593SOL    HW223679   5.756   3.149   1.440
 7594SOL     OW23680   0.962   5.094   2.272
 7594SOL    HW123681   0.995   5.124   2.362
 7594SOL    HW223682   0.927   5.001   2.280
 7595SOL     OW23683   0.319   1.990   5.554
 7595SOL    HW123684   0.308   1.891   5.545
 7595SOL    HW223685   0.229   2.033   5.566
 7596SOL     OW23686   4.479   5.815   4.017
 7596SOL    HW123687   4.394   5.766   4.039
 7596SOL    HW223688   4.458   5.910   3.996
 7597SOL     OW23689   3.753   6.142   2.767
 7597SOL    HW123690   3.762   6.062   2.707
 7597SOL    HW223691   3.793   6.121   2.856
 7598SOL     OW23692   6.485   1.405   3.109
 7598SOL    HW123693   6.467   1.462   3.189
 7598SOL    HW223694   6.503   1.311   3.139
 7599SOL     OW23695   5.141   1.636   2.633
 7599SOL    HW123696   5.159   1.732   2.655
 7599SOL    HW223697   5.124   1.627   2.535
 7600SOL     OW23698   2.173   1.734   2.459
 7600SOL    HW123699   2.122   1.799   2.515
 7600SOL    HW223700   2.113   1.698   2.387
 7601SOL     OW23701   1.943   5.412   3.034
 7601SOL    HW123702   1.978   5.322   3.061
 7601SOL    HW223703   2.016   5.480   3.043
 7602SOL     OW23704   1.547   4.291   5.774
 7602SOL    HW123705   1.531   4.303   5.872
 7602SOL    HW223706   1.553   4.193   5.753
 7603SOL     OW23707   1.355   5.475   5.962
 7603SOL    HW123708   1.293   5.438   6.030
 7603SOL    HW223709   1.412   5.545   6.003
 7604SOL     OW23710   1.764   4.471   4.627
 7604SOL    HW123711   1.681   4.420   4.605
 7604SOL    HW223712   1.816   4.422   4.697
 7605SOL     OW23713   0.518   0.243   1.291
 7605SOL    HW123714   0.588   0.305   1.325
 7605SOL    HW223715   0.479   0.192   1.367
 7606SOL     OW23716   5.706   3.798   4.788
 7606SOL    HW123717   5.669   3.876   4.737
 7606SOL    HW223718   5.794   3.824   4.829
 7607SOL     OW23719   3.417   4.604   6.918
 7607SOL    HW123720   3.491   4.573   6.977
 7607SOL    HW223721   3.404   4.538   6.844
 7608SOL     OW23722   4.022   3.545   2.647
 7608SOL    HW123723   4.023   3.612   2.573
 7608SOL    HW223724   3.982   3.459   2.614
 7609SOL     OW23725   1.061   3.578   3.922
 7609SOL    HW123726   1.093   3.602   4.013
 7609SOL    HW223727   0.962   3.593   3.916
 7610SOL     OW23728   4.998   6.029   6.652
 7610SOL    HW123729   5.082   6.077   6.678
 7610SOL    HW223730   4.994   6.020   6.553
 7611SOL     OW23731   6.912   2.394   1.027
 7611SOL    HW123732   6.892   2.347   0.941
 7611SOL    HW223733   6.826   2.417   1.073
 7612SOL     OW23734   4.900   3.158   3.595
 7612SOL    HW123735   4.837   3.099   3.544
 7612SOL    HW223736   4.878   3.153   3.692
 7613SOL     OW23737   6.386   3.363   1.110
 7613SOL    HW123738   6.368   3.295   1.038
 7613SOL    HW223739   6.309   3.426   1.116
 7614SOL     OW23740   5.411   3.024   0.633
 7614SOL    HW123741   5.511   3.015   0.623
 7614SOL    HW223742   5.374   3.067   0.551
 7615SOL     OW23743   3.555   4.961   6.559
 7615SOL    HW123744   3.647   4.995   6.538
 7615SOL    HW223745   3.546   4.948   6.658
 7616SOL     OW23746   5.937   5.103   4.695
 7616SOL    HW123747   5.942   5.189   4.643
 7616SOL    HW223748   5.853   5.101   4.749
 7617SOL     OW23749   3.890   4.991   2.476
 7617SOL    HW123750   3.871   5.060   2.545
 7617SOL    HW223751   3.984   5.002   2.443
 7618SOL     OW23752   0.622   1.439   5.976
 7618SOL    HW123753   0.554   1.511   5.959
 7618SOL    HW223754   0.628   1.380   5.896
 7619SOL     OW23755   5.962   3.204   5.140
 7619SOL    HW123756   5.990   3.126   5.196
 7619SOL    HW223757   5.869   3.231   5.165
 7620SOL     OW23758   3.974   5.642   0.994
 7620SOL    HW123759   4.003   5.609   0.904
 7620SOL    HW223760   3.879   5.615   1.010
 7621SOL     OW23761   6.949   1.793   1.182
 7621SOL    HW123762   6.927   1.871   1.124
 7621SOL    HW223763   6.865   1.758   1.224
 7622SOL     OW23764   4.090   5.891   1.068
 7622SOL    HW123765   4.036   5.813   1.035
 7622SOL    HW223766   4.164   5.910   1.004
 7623SOL     OW23767   4.651   4.747   6.652
 7623SOL    HW123768   4.634   4.649   6.661
 7623SOL    HW223769   4.688   4.766   6.561
 7624SOL     OW23770   6.876   3.615   5.424
 7624SOL    HW123771   6.827   3.529   5.416
 7624SOL    HW223772   6.868   3.650   5.517
 7625SOL     OW23773   4.712   0.353   1.625
 7625SOL    HW123774   4.724   0.292   1.546
 7625SOL    HW223775   4.735   0.446   1.598
 7626SOL     OW23776   5.586   6.915   4.701
 7626SOL    HW123777   5.496   6.952   4.725
 7626SOL    HW223778   5.611   6.946   4.609
 7627SOL     OW23779   5.037   2.686   0.219
 7627SOL    HW123780   5.081   2.602   0.186
 7627SOL    HW223781   5.003   2.738   0.140
 7628SOL     OW23782   3.693   1.579   2.570
 7628SOL    HW123783   3.773   1.608   2.519
 7628SOL    HW223784   3.716   1.569   2.667
 7629SOL     OW23785   0.138   6.183   3.336
 7629SOL    HW123786   0.067   6.252   3.351
 7629SOL    HW223787   0.117   6.101   3.390
 7630SOL     OW23788   6.755   6.888   1.203
 7630SOL    HW123789   6.803   6.968   1.167
 7630SOL    HW223790   6.807   6.806   1.180
 7631SOL     OW23791   1.214   1.453   6.188
 7631SOL    HW123792   1.230   1.368   6.238
 7631SOL    HW223793   1.283   1.463   6.116
 7632SOL     OW23794   3.420   2.900   1.889
 7632SOL    HW123795   3.474   2.816   1.883
 7632SOL    HW223796   3.340   2.894   1.829
 7633SOL     OW23797   5.118   0.436   1.383
 7633SOL    HW123798   5.120   0.357   1.322
 7633SOL    HW223799   5.117   0.405   1.478
 7634SOL     OW23800   1.348   2.349   2.604
 7634SOL    HW123801   1.407   2.280   2.563
 7634SOL    HW223802   1.257   2.309   2.621
 7635SOL     OW23803   3.770   5.513   4.886
 7635SOL    HW123804   3.747   5.415   4.879
 7635SOL    HW223805   3.696   5.567   4.847
 7636SOL     OW23806   1.697   2.491   3.814
 7636SOL    HW123807   1.768   2.562   3.815
 7636SOL    HW223808   1.724   2.417   3.754
 7637SOL     OW23809   2.319   5.467   2.236
 7637SOL    HW123810   2.379   5.546   2.224
 7637SOL    HW223811   2.296   5.428   2.146
 7638SOL     OW23812   3.214   6.083   0.853
 7638SOL    HW123813   3.162   5.999   0.867
 7638SOL    HW223814   3.258   6.110   0.939
 7639SOL     OW23815   1.455   2.464   1.115
 7639SOL    HW123816   1.496   2.487   1.203
 7639SOL    HW223817   1.517   2.491   1.041
 7640SOL     OW23818   2.950   1.799   5.960
 7640SOL    HW123819   2.898   1.797   5.875
 7640SOL    HW223820   3.029   1.859   5.951
 7641SOL     OW23821   1.116   4.761   2.255
 7641SOL    HW123822   1.215   4.749   2.246
 7641SOL    HW223823   1.084   4.710   2.334
 7642SOL     OW23824   3.643   0.759   3.054
 7642SOL    HW123825   3.586   0.797   2.982
 7642SOL    HW223826   3.674   0.668   3.027
 7643SOL     OW23827   5.152   2.861   4.228
 7643SOL    HW123828   5.136   2.947   4.276
 7643SOL    HW223829   5.162   2.787   4.295
 7644SOL     OW23830   5.851   2.191   2.705
 7644SOL    HW123831   5.799   2.184   2.620
 7644SOL    HW223832   5.824   2.117   2.767
 7645SOL     OW23833   4.284   3.949   5.390
 7645SOL    HW123834   4.278   4.042   5.354
 7645SOL    HW223835   4.359   3.945   5.457
 7646SOL     OW23836   0.904   3.650   2.988
 7646SOL    HW123837   0.856   3.726   2.944
 7646SOL    HW223838   0.954   3.598   2.919
 7647SOL     OW23839   6.583   3.579   3.090
 7647SOL    HW123840   6.509   3.580   3.023
 7647SOL    HW223841   6.658   3.636   3.057
 7648SOL     OW23842   2.672   1.200   2.719
 7648SOL    HW123843   2.719   1.289   2.718
 7648SOL    HW223844   2.580   1.212   2.756
 7649SOL     OW23845   1.204   0.767   2.746
 7649SOL    HW123846   1.162   0.682   2.778
 7649SOL    HW223847   1.133   0.829   2.712
 7650SOL     OW23848   4.661   1.921   1.014
 7650SOL    HW123849   4.694   1.916   0.920
 7650SOL    HW223850   4.630   1.831   1.044
 7651SOL     OW23851   2.336   0.782   3.766
 7651SOL    HW123852   2.295   0.743   3.848
 7651SOL    HW223853   2.401   0.854   3.792
 7652SOL     OW23854   6.124   3.920   5.058
 7652SOL    HW123855   6.165   3.829   5.057
 7652SOL    HW223856   6.135   3.960   5.149
 7653SOL     OW23857   0.988   2.055   0.058
 7653SOL    HW123858   0.999   2.111   0.140
 7653SOL    HW223859   0.901   2.076   0.014
 7654SOL     OW23860   4.638   2.605   3.802
 7654SOL    HW123861   4.592   2.533   3.854
 7654SOL    HW223862   4.651   2.686   3.860
 7655SOL     OW23863   4.379   7.005   2.971
 7655SOL    HW123864   4.405   7.012   3.067
 7655SOL    HW223865   4.430   0.050   2.918
 7656SOL     OW23866   2.912   4.135   6.026
 7656SOL    HW123867   2.963   4.221   6.030
 7656SOL    HW223868   2.973   4.058   6.045
 7657SOL     OW23869   1.410   2.936   4.265
 7657SOL    HW123870   1.434   3.025   4.302
 7657SOL    HW223871   1.417   2.938   4.165
 7658SOL     OW23872   3.957   6.965   6.054
 7658SOL    HW123873   3.941   6.995   6.149
 7658SOL    HW223874   4.050   6.930   6.046
 7659SOL     OW23875   5.823   5.635   6.609
 7659SOL    HW123876   5.821   5.709   6.543
 7659SOL    HW223877   5.781   5.553   6.569
 7660SOL     OW23878   0.647   5.958   4.100
 7660SOL    HW123879   0.744   5.974   4.117
 7660SOL    HW223880   0.595   5.977   4.183
 7661SOL     OW23881   6.308   2.696   4.612
 7661SOL    HW123882   6.214   2.703   4.579
 7661SOL    HW223883   6.334   2.782   4.656
 7662SOL     OW23884   1.335   3.368   3.025
 7662SOL    HW123885   1.335   3.403   3.119
 7662SOL    HW223886   1.420   3.393   2.980
 7663SOL     OW23887   0.447   5.620   5.486
 7663SOL    HW123888   0.411   5.582   5.571
 7663SOL    HW223889   0.376   5.619   5.416
 7664SOL     OW23890   3.491   0.339   1.516
 7664SOL    HW123891   3.421   0.379   1.575
 7664SOL    HW223892   3.470   0.243   1.499
 7665SOL     OW23893   5.696   6.764   4.901
 7665SOL    HW123894   5.655   6.827   4.835
 7665SOL    HW223895   5.787   6.737   4.869
 7666SOL     OW23896   0.518   5.633   1.703
 7666SOL    HW123897   0.472   5.607   1.618
 7666SOL    HW223898   0.474   5.715   1.740
 7667SOL     OW23899   5.055   6.356   2.243
 7667SOL    HW123900   5.004   6.432   2.283
 7667SOL    HW223901   5.137   6.392   2.197
 7668SOL     OW23902   3.121   4.236   6.849
 7668SOL    HW123903   3.152   4.143   6.825
 7668SOL    HW223904   3.061   4.270   6.777
 7669SOL     OW23905   4.876   2.013   5.594
 7669SOL    HW123906   4.851   1.941   5.530
 7669SOL    HW223907   4.798   2.073   5.610
 7670SOL     OW23908   0.722   5.243   6.406
 7670SOL    HW123909   0.673   5.285   6.330
 7670SOL    HW223910   0.712   5.144   6.403
 7671SOL     OW23911   4.366   1.060   2.696
 7671SOL    HW123912   4.292   0.996   2.675
 7671SOL    HW223913   4.429   1.064   2.618
 7672SOL     OW23914   0.405   6.942   2.907
 7672SOL    HW123915   0.400   0.006   2.860
 7672SOL    HW223916   0.324   6.931   2.966
 7673SOL     OW23917   1.691   5.767   0.039
 7673SOL    HW123918   1.617   5.820   7.022
 7673SOL    HW223919   1.669   5.670   0.033
 7674SOL     OW23920   5.274   0.961   3.351
 7674SOL    HW123921   5.252   1.048   3.307
 7674SOL    HW223922   5.232   0.886   3.299
 7675SOL     OW23923   6.551   6.989   2.410
 7675SOL    HW123924   6.538   6.905   2.357
 7675SOL    HW223925   6.560   0.043   2.347
 7676SOL     OW23926   2.314   2.188   0.403
 7676SOL    HW123927   2.218   2.162   0.416
 7676SOL    HW223928   2.340   2.252   0.475
 7677SOL     OW23929   0.199   4.702   1.663
 7677SOL    HW123930   0.135   4.778   1.674
 7677SOL    HW223931   0.221   4.690   1.567
 7678SOL     OW23932   2.071   2.512   4.389
 7678SOL    HW123933   2.072   2.575   4.467
 7678SOL    HW223934   2.101   2.422   4.418
 7679SOL     OW23935   2.815   5.536   6.233
 7679SOL    HW123936   2.725   5.508   6.266
 7679SOL    HW223937   2.881   5.463   6.250
 7680SOL     OW23938   1.340   0.928   0.718
 7680SOL    HW123939   1.356   0.943   0.620
 7680SOL    HW223940   1.284   1.002   0.754
 7681SOL     OW23941   2.194   0.597   0.784
 7681SOL    HW123942   2.269   0.663   0.781
 7681SOL    HW223943   2.231   0.504   0.789
 7682SOL     OW23944   3.590   0.143   2.257
 7682SOL    HW123945   3.666   0.124   2.196
 7682SOL    HW223946   3.525   0.204   2.211
 7683SOL     OW23947   5.303   1.642   4.337
 7683SOL    HW123948   5.281   1.730   4.378
 7683SOL    HW223949   5.227   1.612   4.278
 7684SOL     OW23950   3.443   2.089   1.547
 7684SOL    HW123951   3.400   2.132   1.627
 7684SOL    HW223952   3.504   2.016   1.578
 7685SOL     OW23953   2.760   2.103   6.171
 7685SOL    HW123954   2.770   2.100   6.071
 7685SOL    HW223955   2.686   2.165   6.195
 7686SOL     OW23956   0.153   6.986   3.024
 7686SOL    HW123957   0.102   0.046   3.044
 7686SOL    HW223958   0.094   6.907   3.038
 7687SOL     OW23959   5.599   5.513   3.836
 7687SOL    HW123960   5.637   5.604   3.853
 7687SOL    HW223961   5.611   5.490   3.739
 7688SOL     OW23962   1.276   5.686   6.202
 7688SOL    HW123963   1.246   5.770   6.157
 7688SOL    HW223964   1.375   5.691   6.217
 7689SOL     OW23965   6.114   6.411   2.582
 7689SOL    HW123966   6.147   6.354   2.657
 7689SOL    HW223967   6.027   6.453   2.608
 7690SOL     OW23968   5.323   5.132   0.292
 7690SOL    HW123969   5.247   5.130   0.356
 7690SOL    HW223970   5.387   5.203   0.318
 7691SOL     OW23971   5.151   3.838   4.746
 7691SOL    HW123972   5.121   3.931   4.767
 7691SOL    HW223973   5.099   3.773   4.801
 7692SOL     OW23974   0.218   6.131   1.966
 7692SOL    HW123975   0.251   6.055   2.021
 7692SOL    HW223976   0.284   6.206   1.971
 7693SOL     OW23977   4.086   6.995   0.765
 7693SOL    HW123978   4.099   6.984   0.666
 7693SOL    HW223979   4.131   6.919   0.813
 7694SOL     OW23980   0.053   4.765   5.044
 7694SOL    HW123981   0.068   4.791   4.949
 7694SOL    HW223982   6.987   4.797   5.074
 7695SOL     OW23983   4.286   0.166   1.221
 7695SOL    HW123984   4.221   0.143   1.148
 7695SOL    HW223985   4.260   0.252   1.263
 7696SOL     OW23986   0.073   0.701   5.162
 7696SOL    HW123987   0.018   0.721   5.243
 7696SOL    HW223988   0.043   0.759   5.085
 7697SOL     OW23989   2.725   6.533   2.099
 7697SOL    HW123990   2.733   6.445   2.052
 7697SOL    HW223991   2.706   6.605   2.032
 7698SOL     OW23992   6.611   1.409   3.784
 7698SOL    HW123993   6.658   1.463   3.714
 7698SOL    HW223994   6.520   1.446   3.799
 7699SOL     OW23995   3.582   6.007   6.677
 7699SOL    HW123996   3.630   5.958   6.750
 7699SOL    HW223997   3.641   6.015   6.597
 7700SOL     OW23998   5.052   5.890   3.692
 7700SOL    HW123999   5.085   5.796   3.685
 7700SOL    HW224000   4.982   5.895   3.763
 7701SOL     OW24001   6.842   2.101   6.796
 7701SOL    HW124002   6.891   2.022   6.835
 7701SOL    HW224003   6.760   2.069   6.749
 7702SOL     OW24004   3.194   6.985   5.221
 7702SOL    HW124005   3.205   6.908   5.282
 7702SOL    HW224006   3.133   0.029   5.263
 7703SOL     OW24007   6.711   6.963   6.568
 7703SOL    HW124008   6.673   6.998   6.654
 7703SOL    HW224009   6.708   6.863   6.568
 7704SOL     OW24010   5.724   5.576   4.699
 7704SOL    HW124011   5.744   5.584   4.601
 7704SOL    HW224012   5.798   5.524   4.743
 7705SOL     OW24013   3.600   5.586   6.769
 7705SOL    HW124014   3.607   5.495   6.730
 7705SOL    HW224015   3.516   5.630   6.738
 7706SOL     OW24016   4.715   3.041   5.328
 7706SOL    HW124017   4.763   3.016   5.412
 7706SOL    HW224018   4.616   3.044   5.345
 7707SOL     OW24019   6.868   5.201   5.498
 7707SOL    HW124020   6.944   5.135   5.498
 7707SOL    HW224021   6.889   5.276   5.561
 7708SOL     OW24022   0.375   0.251   5.823
 7708SOL    HW124023   0.449   0.191   5.853
 7708SOL    HW224024   0.297   0.241   5.884
 7709SOL     OW24025   6.029   5.249   1.977
 7709SOL    HW124026   5.941   5.261   2.023
 7709SOL    HW224027   6.060   5.154   1.988
 7710SOL     OW24028   2.774   0.826   0.206
 7710SOL    HW124029   2.715   0.834   0.287
 7710SOL    HW224030   2.794   0.917   0.170
 7711SOL     OW24031   6.313   6.977   5.999
 7711SOL    HW124032   6.271   0.008   5.927
 7711SOL    HW224033   6.377   6.912   5.958
 7712SOL     OW24034   6.003   5.425   2.431
 7712SOL    HW124035   6.081   5.364   2.422
 7712SOL    HW224036   5.935   5.404   2.360
 7713SOL     OW24037   1.513   3.971   0.803
 7713SOL    HW124038   1.459   3.967   0.887
 7713SOL    HW224039   1.586   4.039   0.813
 7714SOL     OW24040   5.862   4.206   5.592
 7714SOL    HW124041   5.799   4.275   5.628
 7714SOL    HW224042   5.918   4.169   5.666
 7715SOL     OW24043   3.730   2.252   0.182
 7715SOL    HW124044   3.696   2.173   0.131
 7715SOL    HW224045   3.821   2.276   0.148
 7716SOL     OW24046   5.966   4.427   2.884
 7716SOL    HW124047   6.001   4.355   2.944
 7716SOL    HW224048   5.922   4.386   2.805
 7717SOL     OW24049   1.866   0.804   5.067
 7717SOL    HW124050   1.906   0.756   5.145
 7717SOL    HW224051   1.768   0.816   5.082
 7718SOL     OW24052   1.303   3.192   3.467
 7718SOL    HW124053   1.320   3.102   3.505
 7718SOL    HW224054   1.212   3.194   3.425
 7719SOL     OW24055   6.760   4.728   5.105
 7719SOL    HW124056   6.790   4.820   5.133
 7719SOL    HW224057   6.673   4.707   5.149
 7720SOL     OW24058   6.992   1.653   0.551
 7720SOL    HW124059   6.933   1.684   0.626
 7720SOL    HW224060   0.052   1.707   0.548
 7721SOL     OW24061   0.574   5.534   2.689
 7721SOL    HW124062   0.649   5.543   2.754
 7721SOL    HW224063   0.487   5.529   2.739
 7722SOL     OW24064   1.325   4.592   3.424
 7722SOL    HW124065   1.362   4.684   3.425
 7722SOL    HW224066   1.392   4.528   3.463
 7723SOL     OW24067   4.570   3.373   6.955
 7723SOL    HW124068   4.554   3.310   6.879
 7723SOL    HW224069   4.543   3.329   0.018
 7724SOL     OW24070   3.190   3.664   0.739
 7724SOL    HW124071   3.222   3.753   0.706
 7724SOL    HW224072   3.147   3.675   0.829
 7725SOL     OW24073   6.510   1.172   3.201
 7725SOL    HW124074   6.578   1.111   3.242
 7725SOL    HW224075   6.419   1.142   3.227
 7726SOL     OW24076   1.699   5.619   5.587
 7726SOL    HW124077   1.656   5.572   5.664
 7726SOL    HW224078   1.639   5.692   5.554
 7727SOL     OW24079   0.468   0.721   2.953
 7727SOL    HW124080   0.483   0.789   2.881
 7727SOL    HW224081   0.535   0.735   3.026
 7728SOL     OW24082   1.101   4.598   3.941
 7728SOL    HW124083   1.106   4.669   3.871
 7728SOL    HW224084   1.012   4.601   3.986
 7729SOL     OW24085   5.602   3.194   0.410
 7729SOL    HW124086   5.627   3.111   0.461
 7729SOL    HW224087   5.538   3.248   0.466
 7730SOL     OW24088   5.726   5.943   0.251
 7730SOL    HW124089   5.744   5.879   0.176
 7730SOL    HW224090   5.738   6.037   0.219
 7731SOL     OW24091   6.777   1.360   0.676
 7731SOL    HW124092   6.862   1.353   0.729
 7731SOL    HW224093   6.773   1.286   0.610
 7732SOL     OW24094   4.696   6.460   0.624
 7732SOL    HW124095   4.681   6.468   0.722
 7732SOL    HW224096   4.750   6.378   0.605
 7733SOL     OW24097   4.832   6.198   2.941
 7733SOL    HW124098   4.850   6.203   3.039
 7733SOL    HW224099   4.741   6.236   2.922
 7734SOL     OW24100   2.203   4.628   3.099
 7734SOL    HW124101   2.282   4.687   3.118
 7734SOL    HW224102   2.230   4.532   3.112
 7735SOL     OW24103   4.685   7.004   6.701
 7735SOL    HW124104   4.677   6.930   6.767
 7735SOL    HW224105   4.643   6.976   6.614
 7736SOL     OW24106   3.582   3.362   6.227
 7736SOL    HW124107   3.510   3.357   6.297
 7736SOL    HW224108   3.541   3.362   6.136
 7737SOL     OW24109   3.110   6.650   2.676
 7737SOL    HW124110   3.186   6.642   2.612
 7737SOL    HW224111   3.084   6.558   2.707
 7738SOL     OW24112   3.202   5.821   6.887
 7738SOL    HW124113   3.238   5.732   6.913
 7738SOL    HW224114   3.164   5.867   6.967
 7739SOL     OW24115   0.416   2.734   1.555
 7739SOL    HW124116   0.397   2.647   1.600
 7739SOL    HW224117   0.330   2.773   1.521
 7740SOL     OW24118   1.957   1.597   2.303
 7740SOL    HW124119   1.880   1.633   2.355
 7740SOL    HW224120   1.931   1.585   2.207
 7741SOL     OW24121   0.653   4.804   5.877
 7741SOL    HW124122   0.607   4.822   5.790
 7741SOL    HW224123   0.682   4.890   5.918
 7742SOL     OW24124   4.123   2.175   3.706
 7742SOL    HW124125   4.153   2.120   3.628
 7742SOL    HW224126   4.024   2.182   3.706
 7743SOL     OW24127   5.667   1.284   6.489
 7743SOL    HW124128   5.741   1.331   6.440
 7743SOL    HW224129   5.706   1.213   6.547
 7744SOL     OW24130   0.943   6.332   3.990
 7744SOL    HW124131   0.848   6.344   4.017
 7744SOL    HW224132   0.956   6.370   3.898
 7745SOL     OW24133   3.599   1.190   6.854
 7745SOL    HW124134   3.500   1.173   6.855
 7745SOL    HW224135   3.641   1.137   6.780
 7746SOL     OW24136   1.391   0.040   0.472
 7746SOL    HW124137   1.417   0.057   0.377
 7746SOL    HW224138   1.454   6.998   0.513
 7747SOL     OW24139   5.294   5.401   0.936
 7747SOL    HW124140   5.297   5.470   0.863
 7747SOL    HW224141   5.379   5.349   0.936
 7748SOL     OW24142   3.338   4.190   4.685
 7748SOL    HW124143   3.348   4.209   4.782
 7748SOL    HW224144   3.257   4.134   4.669
 7749SOL     OW24145   3.014   3.045   6.180
 7749SOL    HW124146   3.087   3.061   6.114
 7749SOL    HW224147   2.960   3.129   6.192
 7750SOL     OW24148   0.166   6.026   1.500
 7750SOL    HW124149   0.155   6.040   1.401
 7750SOL    HW224150   0.140   5.933   1.524
 7751SOL     OW24151   1.555   2.599   2.161
 7751SOL    HW124152   1.556   2.646   2.250
 7751SOL    HW224153   1.466   2.555   2.148
 7752SOL     OW24154   5.772   6.600   5.797
 7752SOL    HW124155   5.794   6.548   5.714
 7752SOL    HW224156   5.738   6.690   5.772
 7753SOL     OW24157   2.712   0.808   4.001
 7753SOL    HW124158   2.767   0.881   4.040
 7753SOL    HW224159   2.772   0.738   3.961
 7754SOL     OW24160   3.281   6.269   2.152
 7754SOL    HW124161   3.249   6.345   2.209
 7754SOL    HW224162   3.202   6.221   2.113
 7755SOL     OW24163   2.060   2.452   5.367
 7755SOL    HW124164   2.105   2.477   5.454
 7755SOL    HW224165   1.996   2.524   5.341
 7756SOL     OW24166   2.317   6.245   2.848
 7756SOL    HW124167   2.236   6.189   2.867
 7756SOL    HW224168   2.304   6.336   2.885
 7757SOL     OW24169   5.494   4.824   0.090
 7757SOL    HW124170   5.496   4.729   0.060
 7757SOL    HW224171   5.444   4.879   0.023
 7758SOL     OW24172   2.515   0.818   5.441
 7758SOL    HW124173   2.614   0.823   5.431
 7758SOL    HW224174   2.488   0.861   5.528
 7759SOL     OW24175   1.797   2.278   5.648
 7759SOL    HW124176   1.794   2.276   5.747
 7759SOL    HW224177   1.874   2.225   5.615
 7760SOL     OW24178   5.792   3.367   2.810
 7760SOL    HW124179   5.727   3.401   2.741
 7760SOL    HW224180   5.858   3.438   2.832
 7761SOL     OW24181   0.235   0.099   4.338
 7761SOL    HW124182   0.312   0.120   4.277
 7761SOL    HW224183   0.151   0.139   4.300
 7762SOL     OW24184   2.692   0.388   3.909
 7762SOL    HW124185   2.603   0.433   3.910
 7762SOL    HW224186   2.764   0.458   3.912
 7763SOL     OW24187   2.435   0.500   6.886
 7763SOL    HW124188   2.359   0.441   6.911
 7763SOL    HW224189   2.406   0.562   6.812
 7764SOL     OW24190   3.552   3.445   4.926
 7764SOL    HW124191   3.519   3.523   4.980
 7764SOL    HW224192   3.478   3.412   4.868
 7765SOL     OW24193   5.991   4.552   5.262
 7765SOL    HW124194   6.067   4.606   5.298
 7765SOL    HW224195   6.004   4.537   5.164
 7766SOL     OW24196   6.802   4.201   6.959
 7766SOL    HW124197   6.708   4.204   6.992
 7766SOL    HW224198   6.805   4.154   6.870
 7767SOL     OW24199   4.957   6.153   2.696
 7767SOL    HW124200   4.873   6.151   2.641
 7767SOL    HW224201   4.936   6.185   2.788
 7768SOL     OW24202   4.426   4.497   3.050
 7768SOL    HW124203   4.515   4.473   3.090
 7768SOL    HW224204   4.363   4.420   3.062
 7769SOL     OW24205   4.406   1.517   3.754
 7769SOL    HW124206   4.335   1.527   3.683
 7769SOL    HW224207   4.460   1.435   3.735
 7770SOL     OW24208   1.888   4.204   4.280
 7770SOL    HW124209   1.833   4.277   4.240
 7770SOL    HW224210   1.838   4.160   4.355
 7771SOL     OW24211   3.704   1.989   5.265
 7771SOL    HW124212   3.770   2.027   5.201
 7771SOL    HW224213   3.651   1.917   5.220
 7772SOL     OW24214   4.298   6.983   2.430
 7772SOL    HW124215   4.216   0.000   2.469
 7772SOL    HW224216   4.313   6.892   2.469
 7773SOL     OW24217   2.297   5.925   5.121
 7773SOL    HW124218   2.266   5.997   5.183
 7773SOL    HW224219   2.344   5.966   5.043
 7774SOL     OW24220   5.407   1.889   4.552
 7774SOL    HW124221   5.309   1.880   4.536
 7774SOL    HW224222   5.444   1.962   4.495
 7775SOL     OW24223   4.701   6.190   0.516
 7775SOL    HW124224   4.664   6.153   0.601
 7775SOL    HW224225   4.627   6.227   0.460
 7776SOL     OW24226   0.091   5.972   6.826
 7776SOL    HW124227   0.038   6.002   6.747
 7776SOL    HW224228   0.171   6.031   6.836
 7777SOL     OW24229   5.733   5.725   3.918
 7777SOL    HW124230   5.709   5.735   4.014
 7777SOL    HW224231   5.818   5.673   3.910
 7778SOL     OW24232   5.666   4.041   0.370
 7778SOL    HW124233   5.603   3.963   0.375
 7778SOL    HW224234   5.677   4.080   0.462
 7779SOL     OW24235   2.697   1.944   1.617
 7779SOL    HW124236   2.639   1.921   1.696
 7779SOL    HW224237   2.640   1.979   1.544
 7780SOL     OW24238   0.774   4.979   5.302
 7780SOL    HW124239   0.847   4.949   5.240
 7780SOL    HW224240   0.805   4.967   5.397
 7781SOL     OW24241   2.560   4.605   1.030
 7781SOL    HW124242   2.543   4.537   0.959
 7781SOL    HW224243   2.657   4.627   1.033
 7782SOL     OW24244   5.009   5.038   4.615
 7782SOL    HW124245   4.921   4.992   4.622
 7782SOL    HW224246   5.042   5.034   4.521
 7783SOL     OW24247   0.907   6.571   5.218
 7783SOL    HW124248   0.890   6.575   5.120
 7783SOL    HW224249   0.956   6.487   5.241
 7784SOL     OW24250   3.850   2.867   1.823
 7784SOL    HW124251   3.940   2.876   1.780
 7784SOL    HW224252   3.847   2.922   1.906
 7785SOL     OW24253   1.893   6.246   4.831
 7785SOL    HW124254   1.837   6.298   4.896
 7785SOL    HW224255   1.965   6.198   4.880
 7786SOL     OW24256   3.667   6.829   0.816
 7786SOL    HW124257   3.570   6.806   0.804
 7786SOL    HW224258   3.712   6.755   0.866
 7787SOL     OW24259   2.327   2.984   6.708
 7787SOL    HW124260   2.350   3.056   6.773
 7787SOL    HW224261   2.412   2.941   6.676
 7788SOL     OW24262   2.108   4.860   1.316
 7788SOL    HW124263   2.151   4.894   1.399
 7788SOL    HW224264   2.108   4.760   1.317
 7789SOL     OW24265   2.697   6.975   6.403
 7789SOL    HW124266   2.730   6.938   6.490
 7789SOL    HW224267   2.619   6.920   6.372
 7790SOL     OW24268   5.406   5.299   2.998
 7790SOL    HW124269   5.437   5.207   3.021
 7790SOL    HW224270   5.320   5.293   2.946
 7791SOL     OW24271   2.353   5.192   2.339
 7791SOL    HW124272   2.335   5.287   2.314
 7791SOL    HW224273   2.274   5.135   2.314
 7792SOL     OW24274   2.226   5.635   4.554
 7792SOL    HW124275   2.300   5.618   4.489
 7792SOL    HW224276   2.261   5.630   4.648
 7793SOL     OW24277   3.911   1.338   0.611
 7793SOL    HW124278   3.926   1.406   0.683
 7793SOL    HW224279   3.968   1.359   0.532
 7794SOL     OW24280   6.057   4.151   2.507
 7794SOL    HW124281   6.142   4.198   2.480
 7794SOL    HW224282   5.996   4.144   2.428
 7795SOL     OW24283   2.007   4.411   5.047
 7795SOL    HW124284   2.088   4.360   5.076
 7795SOL    HW224285   1.966   4.456   5.126
 7796SOL     OW24286   3.427   2.820   4.892
 7796SOL    HW124287   3.405   2.724   4.872
 7796SOL    HW224288   3.443   2.869   4.807
 7797SOL     OW24289   1.422   6.848   1.387
 7797SOL    HW124290   1.391   6.805   1.301
 7797SOL    HW224291   1.513   6.816   1.409
 7798SOL     OW24292   1.334   3.454   3.591
 7798SOL    HW124293   1.310   3.359   3.570
 7798SOL    HW224294   1.392   3.457   3.673
 7799SOL     OW24295   1.494   5.496   2.604
 7799SOL    HW124296   1.411   5.502   2.659
 7799SOL    HW224297   1.483   5.549   2.520
 7800SOL     OW24298   0.866   5.518   2.358
 7800SOL    HW124299   0.804   5.440   2.357
 7800SOL    HW224300   0.866   5.562   2.269
 7801SOL     OW24301   2.233   1.703   1.482
 7801SOL    HW124302   2.238   1.785   1.425
 7801SOL    HW224303   2.291   1.715   1.563
 7802SOL     OW24304   6.050   2.790   1.607
 7802SOL    HW124305   5.951   2.787   1.616
 7802SOL    HW224306   6.084   2.701   1.577
 7803SOL     OW24307   4.318   2.581   6.106
 7803SOL    HW124308   4.322   2.646   6.030
 7803SOL    HW224309   4.260   2.503   6.082
 7804SOL     OW24310   4.510   2.355   5.152
 7804SOL    HW124311   4.505   2.404   5.239
 7804SOL    HW224312   4.602   2.366   5.113
 7805SOL     OW24313   5.328   3.005   1.415
 7805SOL    HW124314   5.397   2.932   1.416
 7805SOL    HW224315   5.237   2.965   1.416
 7806SOL     OW24316   6.129   1.849   6.319
 7806SOL    HW124317   6.187   1.840   6.237
 7806SOL    HW224318   6.179   1.816   6.398
 7807SOL     OW24319   1.201   4.288   6.174
 7807SOL    HW124320   1.116   4.333   6.144
 7807SOL    HW224321   1.213   4.203   6.125
 7808SOL     OW24322   6.035   3.040   4.336
 7808SOL    HW124323   5.980   3.078   4.410
 7808SOL    HW224324   6.126   3.083   4.337
 7809SOL     OW24325   4.218   5.111   4.575
 7809SOL    HW124326   4.259   5.175   4.510
 7809SOL    HW224327   4.141   5.155   4.620
 7810SOL     OW24328   3.810   0.116   4.836
 7810SOL    HW124329   3.873   0.083   4.766
 7810SOL    HW224330   3.784   0.039   4.895
 7811SOL     OW24331   1.316   5.568   1.775
 7811SOL    HW124332   1.303   5.662   1.805
 7811SOL    HW224333   1.391   5.564   1.709
 7812SOL     OW24334   0.631   2.635   4.269
 7812SOL    HW124335   0.698   2.663   4.201
 7812SOL    HW224336   0.677   2.610   4.354
 7813SOL     OW24337   4.326   2.027   0.521
 7813SOL    HW124338   4.253   1.970   0.483
 7813SOL    HW224339   4.290   2.116   0.547
 7814SOL     OW24340   0.076   3.313   3.069
 7814SOL    HW124341   0.079   3.396   3.013
 7814SOL    HW224342   7.011   3.308   3.116
 7815SOL     OW24343   5.986   1.564   4.364
 7815SOL    HW124344   5.995   1.630   4.289
 7815SOL    HW224345   6.046   1.590   4.439
 7816SOL     OW24346   1.364   2.432   6.376
 7816SOL    HW124347   1.277   2.389   6.399
 7816SOL    HW224348   1.438   2.387   6.426
 7817SOL     OW24349   4.874   4.059   4.431
 7817SOL    HW124350   4.813   4.123   4.478
 7817SOL    HW224351   4.891   3.980   4.490
 7818SOL     OW24352   5.283   0.201   2.225
 7818SOL    HW124353   5.340   0.182   2.146
 7818SOL    HW224354   5.327   0.271   2.282
 7819SOL     OW24355   0.070   4.206   4.016
 7819SOL    HW124356   7.023   4.192   4.085
 7819SOL    HW224357   0.112   4.118   3.992
 7820SOL     OW24358   1.514   1.219   5.315
 7820SOL    HW124359   1.495   1.311   5.348
 7820SOL    HW224360   1.608   1.194   5.338
 7821SOL     OW24361   5.612   5.564   6.984
 7821SOL    HW124362   5.560   5.480   7.001
 7821SOL    HW224363   5.553   5.643   6.996
 7822SOL     OW24364   0.893   1.024   0.288
 7822SOL    HW124365   0.830   0.951   0.260
 7822SOL    HW224366   0.978   0.983   0.322
 7823SOL     OW24367   2.877   3.522   6.024
 7823SOL    HW124368   2.851   3.617   6.042
 7823SOL    HW224369   2.959   3.521   5.967
 7824SOL     OW24370   5.396   1.032   3.837
 7824SOL    HW124371   5.372   0.975   3.759
 7824SOL    HW224372   5.452   0.979   3.901
 7825SOL     OW24373   1.054   3.170   0.828
 7825SOL    HW124374   1.062   3.236   0.902
 7825SOL    HW224375   1.146   3.143   0.798
 7826SOL     OW24376   6.043   1.838   6.833
 7826SOL    HW124377   6.024   1.865   6.738
 7826SOL    HW224378   6.022   1.913   6.894
 7827SOL     OW24379   2.816   4.516   0.826
 7827SOL    HW124380   2.803   4.562   0.914
 7827SOL    HW224381   2.877   4.571   0.769
 7828SOL     OW24382   1.012   5.321   0.368
 7828SOL    HW124383   1.097   5.269   0.378
 7828SOL    HW224384   0.975   5.306   0.276
 7829SOL     OW24385   2.071   3.183   6.793
 7829SOL    HW124386   2.121   3.235   6.862
 7829SOL    HW224387   2.134   3.123   6.745
 7830SOL     OW24388   4.118   3.745   5.798
 7830SOL    HW124389   4.117   3.796   5.712
 7830SOL    HW224390   4.034   3.691   5.806
 7831SOL     OW24391   1.676   5.263   0.836
 7831SOL    HW124392   1.581   5.238   0.819
 7831SOL    HW224393   1.716   5.303   0.754
 7832SOL     OW24394   3.978   1.219   4.291
 7832SOL    HW124395   3.955   1.260   4.203
 7832SOL    HW224396   4.076   1.198   4.293
 7833SOL     OW24397   0.077   1.506   6.787
 7833SOL    HW124398   0.098   1.557   6.703
 7833SOL    HW224399   0.115   1.555   6.865
 7834SOL     OW24400   0.382   0.915   3.883
 7834SOL    HW124401   0.308   0.851   3.862
 7834SOL    HW224402   0.345   0.995   3.931
 7835SOL     OW24403   2.573   2.225   5.307
 7835SOL    HW124404   2.611   2.240   5.399
 7835SOL    HW224405   2.555   2.313   5.264
 7836SOL     OW24406   3.148   2.785   5.296
 7836SOL    HW124407   3.189   2.795   5.205
 7836SOL    HW224408   3.109   2.873   5.324
 7837SOL     OW24409   6.946   5.859   1.259
 7837SOL    HW124410   6.996   5.848   1.173
 7837SOL    HW224411   6.969   5.782   1.320
 7838SOL     OW24412   4.434   6.269   0.426
 7838SOL    HW124413   4.361   6.329   0.394
 7838SOL    HW224414   4.421   6.177   0.388
 7839SOL     OW24415   6.106   4.505   4.999
 7839SOL    HW124416   6.101   4.444   4.919
 7839SOL    HW224417   6.181   4.570   4.986
 7840SOL     OW24418   5.156   3.055   4.409
 7840SOL    HW124419   5.137   3.148   4.378
 7840SOL    HW224420   5.238   3.054   4.466
 7841SOL     OW24421   4.740   1.636   6.473
 7841SOL    HW124422   4.676   1.582   6.528
 7841SOL    HW224423   4.823   1.583   6.458
 7842SOL     OW24424   1.618   1.533   2.834
 7842SOL    HW124425   1.620   1.633   2.837
 7842SOL    HW224426   1.651   1.502   2.745
 7843SOL     OW24427   4.910   4.763   1.963
 7843SOL    HW124428   4.840   4.693   1.965
 7843SOL    HW224429   4.997   4.724   1.995
 7844SOL     OW24430   4.351   6.539   3.360
 7844SOL    HW124431   4.325   6.600   3.286
 7844SOL    HW224432   4.317   6.576   3.447
 7845SOL     OW24433   5.739   1.469   4.263
 7845SOL    HW124434   5.675   1.546   4.268
 7845SOL    HW224435   5.832   1.502   4.281
 7846SOL     OW24436   0.895   1.263   2.407
 7846SOL    HW124437   0.939   1.173   2.407
 7846SOL    HW224438   0.929   1.316   2.485
 7847SOL     OW24439   6.530   1.391   2.327
 7847SOL    HW124440   6.441   1.422   2.361
 7847SOL    HW224441   6.598   1.397   2.400
 7848SOL     OW24442   2.610   2.616   0.686
 7848SOL    HW124443   2.601   2.657   0.777
 7848SOL    HW224444   2.665   2.532   0.693
 7849SOL     OW24445   5.036   3.696   3.024
 7849SOL    HW124446   5.100   3.656   2.958
 7849SOL    HW224447   4.991   3.624   3.076
 7850SOL     OW24448   1.197   1.956   4.116
 7850SOL    HW124449   1.175   2.053   4.116
 7850SOL    HW224450   1.289   1.942   4.079
 7851SOL     OW24451   6.413   0.589   1.207
 7851SOL    HW124452   6.427   0.639   1.293
 7851SOL    HW224453   6.501   0.563   1.169
 7852SOL     OW24454   2.877   1.075   5.881
 7852SOL    HW124455   2.810   1.016   5.925
 7852SOL    HW224456   2.856   1.083   5.784
 7853SOL     OW24457   4.606   1.441   1.889
 7853SOL    HW124458   4.515   1.401   1.898
 7853SOL    HW224459   4.638   1.429   1.795
 7854SOL     OW24460   2.786   3.136   0.199
 7854SOL    HW124461   2.813   3.044   0.229
 7854SOL    HW224462   2.867   3.188   0.174
 7855SOL     OW24463   3.234   5.665   5.549
 7855SOL    HW124464   3.315   5.722   5.533
 7855SOL    HW224465   3.258   5.569   5.532
 7856SOL     OW24466   5.446   5.130   5.175
 7856SOL    HW124467   5.361   5.137   5.123
 7856SOL    HW224468   5.425   5.100   5.268
 7857SOL     OW24469   6.235   2.883   5.531
 7857SOL    HW124470   6.226   2.968   5.583
 7857SOL    HW224471   6.331   2.856   5.527
 7858SOL     OW24472   5.302   4.898   3.622
 7858SOL    HW124473   5.235   4.847   3.676
 7858SOL    HW224474   5.254   4.965   3.564
 7859SOL     OW24475   6.056   3.092   6.059
 7859SOL    HW124476   6.124   3.165   6.067
 7859SOL    HW224477   6.053   3.060   5.964
 7860SOL     OW24478   4.106   0.211   3.055
 7860SOL    HW124479   4.177   0.244   3.118
 7860SOL    HW224480   4.118   0.113   3.041
 7861SOL     OW24481   4.254   5.225   1.885
 7861SOL    HW124482   4.306   5.271   1.813
 7861SOL    HW224483   4.218   5.294   1.948
 7862SOL     OW24484   2.968   4.271   1.698
 7862SOL    HW124485   2.917   4.186   1.685
 7862SOL    HW224486   2.913   4.334   1.753
 7863SOL     OW24487   6.890   5.996   3.766
 7863SOL    HW124488   6.808   5.982   3.711
 7863SOL    HW224489   6.947   5.914   3.763
 7864SOL     OW24490   0.317   6.582   5.583
 7864SOL    HW124491   0.410   6.548   5.572
 7864SOL    HW224492   0.267   6.570   5.497
 7865SOL     OW24493   5.654   0.058   4.459
 7865SOL    HW124494   5.689   0.019   4.374
 7865SOL    HW224495   5.717   0.128   4.492
 7866SOL     OW24496   2.006   2.245   6.519
 7866SOL    HW124497   2.027   2.293   6.604
 7866SOL    HW224498   1.914   2.205   6.525
 7867SOL     OW24499   5.176   6.997   2.689
 7867SOL    HW124500   5.163   0.033   2.609
 7867SOL    HW224501   5.192   6.903   2.658
 7868SOL     OW24502   6.068   6.550   2.349
 7868SOL    HW124503   5.969   6.550   2.339
 7868SOL    HW224504   6.095   6.491   2.425
 7869SOL     OW24505   5.605   3.077   6.629
 7869SOL    HW124506   5.521   3.055   6.678
 7869SOL    HW224507   5.583   3.118   6.541
 7870SOL     OW24508   4.611   5.247   4.075
 7870SOL    HW124509   4.631   5.164   4.128
 7870SOL    HW224510   4.579   5.319   4.136
 7871SOL     OW24511   5.167   3.106   2.868
 7871SOL    HW124512   5.225   3.175   2.912
 7871SOL    HW224513   5.214   3.069   2.788
 7872SOL     OW24514   2.371   4.328   2.822
 7872SOL    HW124515   2.368   4.249   2.760
 7872SOL    HW224516   2.317   4.307   2.903
 7873SOL     OW24517   5.869   0.569   5.625
 7873SOL    HW124518   5.821   0.609   5.547
 7873SOL    HW224519   5.837   0.613   5.709
 7874SOL     OW24520   4.862   1.661   1.001
 7874SOL    HW124521   4.904   1.692   0.916
 7874SOL    HW224522   4.894   1.718   1.077
 7875SOL     OW24523   4.895   2.533   6.313
 7875SOL    HW124524   4.902   2.619   6.262
 7875SOL    HW224525   4.819   2.479   6.277
 7876SOL     OW24526   0.301   0.025   5.647
 7876SOL    HW124527   0.201   0.034   5.648
 7876SOL    HW224528   0.341   0.092   5.709
 7877SOL     OW24529   0.251   2.871   2.970
 7877SOL    HW124530   0.174   2.845   2.911
 7877SOL    HW224531   0.296   2.788   3.004
 7878SOL     OW24532   5.041   4.759   4.017
 7878SOL    HW124533   5.026   4.666   4.053
 7878SOL    HW224534   4.954   4.806   4.011
 7879SOL     OW24535   4.339   5.651   3.323
 7879SOL    HW124536   4.395   5.733   3.312
 7879SOL    HW224537   4.396   5.570   3.310
 7880SOL     OW24538   2.329   5.258   1.728
 7880SOL    HW124539   2.270   5.187   1.767
 7880SOL    HW224540   2.289   5.291   1.643
 7881SOL     OW24541   6.048   4.304   4.781
 7881SOL    HW124542   6.028   4.286   4.684
 7881SOL    HW224543   5.978   4.260   4.837
 7882SOL     OW24544   1.092   3.441   2.840
 7882SOL    HW124545   1.171   3.396   2.880
 7882SOL    HW224546   1.122   3.513   2.778
 7883SOL     OW24547   1.587   6.980   0.855
 7883SOL    HW124548   1.517   6.911   0.875
 7883SOL    HW224549   1.663   6.969   0.919
 7884SOL     OW24550   1.897   3.995   4.090
 7884SOL    HW124551   1.981   3.944   4.110
 7884SOL    HW224552   1.851   4.017   4.176
 7885SOL     OW24553   5.993   6.171   1.555
 7885SOL    HW124554   6.080   6.130   1.584
 7885SOL    HW224555   5.917   6.118   1.593
 7886SOL     OW24556   3.700   5.580   0.970
 7886SOL    HW124557   3.676   5.581   0.873
 7886SOL    HW224558   3.620   5.553   1.024
 7887SOL     OW24559   3.362   2.431   5.383
 7887SOL    HW124560   3.302   2.397   5.309
 7887SOL    HW224561   3.315   2.504   5.432
 7888SOL     OW24562   6.912   0.274   4.957
 7888SOL    HW124563   6.961   0.324   4.886
 7888SOL    HW224564   6.857   0.337   5.012
 7889SOL     OW24565   0.730   4.681   7.010
 7889SOL    HW124566   0.666   4.732   0.044
 7889SOL    HW224567   0.766   4.742   6.939
 7890SOL     OW24568   0.489   2.774   3.343
 7890SOL    HW124569   0.469   2.872   3.339
 7890SOL    HW224570   0.500   2.745   3.438
 7891SOL     OW24571   2.067   4.162   4.677
 7891SOL    HW124572   2.115   4.081   4.710
 7891SOL    HW224573   2.133   4.233   4.653
 7892SOL     OW24574   1.854   1.825   4.617
 7892SOL    HW124575   1.915   1.887   4.568
 7892SOL    HW224576   1.851   1.737   4.570
 7893SOL     OW24577   6.082   6.472   1.931
 7893SOL    HW124578   6.159   6.409   1.924
 7893SOL    HW224579   5.997   6.420   1.941
 7894SOL     OW24580   3.086   0.454   0.937
 7894SOL    HW124581   3.073   0.515   1.015
 7894SOL    HW224582   3.131   0.503   0.862
 7895SOL     OW24583   4.967   0.887   5.011
 7895SOL    HW124584   4.966   0.903   5.109
 7895SOL    HW224585   4.959   0.975   4.963
 7896SOL     OW24586   4.168   2.677   0.928
 7896SOL    HW124587   4.265   2.703   0.925
 7896SOL    HW224588   4.141   2.640   0.840
 7897SOL     OW24589   3.318   2.664   1.299
 7897SOL    HW124590   3.398   2.719   1.277
 7897SOL    HW224591   3.261   2.653   1.218
 7898SOL     OW24592   3.805   0.078   3.703
 7898SOL    HW124593   3.823   0.141   3.627
 7898SOL    HW224594   3.776   0.130   3.783
 7899SOL     OW24595   5.816   0.355   1.075
 7899SOL    HW124596   5.777   0.430   1.022
 7899SOL    HW224597   5.756   0.334   1.152
 7900SOL     OW24598   1.033   5.340   1.553
 7900SOL    HW124599   0.944   5.307   1.523
 7900SOL    HW224600   1.022   5.424   1.606
 7901SOL     OW24601   3.925   1.018   6.378
 7901SOL    HW124602   3.995   1.090   6.385
 7901SOL    HW224603   3.848   1.052   6.325
 7902SOL     OW24604   6.284   6.289   1.986
 7902SOL    HW124605   6.292   6.322   2.080
 7902SOL    HW224606   6.223   6.210   1.984
 7903SOL     OW24607   4.413   1.603   3.384
 7903SOL    HW124608   4.432   1.681   3.443
 7903SOL    HW224609   4.486   1.535   3.395
 7904SOL     OW24610   5.778   6.210   2.561
 7904SOL    HW124611   5.680   6.221   2.542
 7904SOL    HW224612   5.823   6.164   2.485
 7905SOL     OW24613   5.777   2.242   0.552
 7905SOL    HW124614   5.829   2.241   0.466
 7905SOL    HW224615   5.823   2.184   0.619
 7906SOL     OW24616   0.950   5.031   0.760
 7906SOL    HW124617   0.951   4.985   0.849
 7906SOL    HW224618   1.041   5.067   0.740
 7907SOL     OW24619   5.550   1.980   3.502
 7907SOL    HW124620   5.625   1.958   3.565
 7907SOL    HW224621   5.462   1.964   3.546
 7908SOL     OW24622   1.799   0.793   5.791
 7908SOL    HW124623   1.743   0.850   5.851
 7908SOL    HW224624   1.745   0.762   5.713
 7909SOL     OW24625   4.708   4.367   4.360
 7909SOL    HW124626   4.687   4.306   4.436
 7909SOL    HW224627   4.643   4.443   4.359
 7910SOL     OW24628   2.328   3.325   0.244
 7910SOL    HW124629   2.391   3.269   0.297
 7910SOL    HW224630   2.255   3.360   0.303
 7911SOL     OW24631   0.693   4.217   0.303
 7911SOL    HW124632   0.617   4.243   0.244
 7911SOL    HW224633   0.715   4.294   0.364
 7912SOL     OW24634   6.449   4.747   0.762
 7912SOL    HW124635   6.355   4.750   0.795
 7912SOL    HW224636   6.505   4.693   0.826
 7913SOL     OW24637   0.902   4.454   1.536
 7913SOL    HW124638   0.856   4.498   1.459
 7913SOL    HW224639   0.945   4.524   1.593
 7914SOL     OW24640   0.440   4.932   0.582
 7914SOL    HW124641   0.539   4.945   0.586
 7914SOL    HW224642   0.400   4.958   0.670
 7915SOL     OW24643   4.622   2.203   1.772
 7915SOL    HW124644   4.562   2.234   1.846
 7915SOL    HW224645   4.596   2.109   1.747
 7916SOL     OW24646   0.160   6.366   5.760
 7916SOL    HW124647   0.185   6.450   5.712
 7916SOL    HW224648   0.231   6.343   5.827
 7917SOL     OW24649   3.252   2.952   5.067
 7917SOL    HW124650   3.289   3.011   5.139
 7917SOL    HW224651   3.323   2.889   5.036
 7918SOL     OW24652   0.240   1.103   4.751
 7918SOL    HW124653   0.247   1.009   4.718
 7918SOL    HW224654   0.307   1.159   4.703
 7919SOL     OW24655   0.942   4.298   3.065
 7919SOL    HW124656   0.996   4.326   2.986
 7919SOL    HW224657   0.859   4.252   3.033
 7920SOL     OW24658   6.940   0.368   0.261
 7920SOL    HW124659   6.937   0.301   0.336
 7920SOL    HW224660   0.009   0.372   0.224
 7921SOL     OW24661   5.529   6.102   1.699
 7921SOL    HW124662   5.447   6.128   1.648
 7921SOL    HW224663   5.504   6.053   1.782
 7922SOL     OW24664   6.832   6.519   0.946
 7922SOL    HW124665   6.747   6.513   0.893
 7922SOL    HW224666   6.895   6.581   0.901
 7923SOL     OW24667   4.247   0.755   6.740
 7923SOL    HW124668   4.162   0.748   6.689
 7923SOL    HW224669   4.293   0.841   6.717
 7924SOL     OW24670   5.656   0.163   2.620
 7924SOL    HW124671   5.631   0.169   2.523
 7924SOL    HW224672   5.710   0.243   2.645
 7925SOL     OW24673   0.834   0.244   0.145
 7925SOL    HW124674   0.756   0.304   0.130
 7925SOL    HW224675   0.887   0.237   0.060
 7926SOL     OW24676   4.220   1.892   6.436
 7926SOL    HW124677   4.257   1.805   6.470
 7926SOL    HW224678   4.185   1.946   6.512
 7927SOL     OW24679   4.304   6.150   3.193
 7927SOL    HW124680   4.366   6.105   3.129
 7927SOL    HW224681   4.344   6.148   3.285
 7928SOL     OW24682   1.471   1.863   4.438
 7928SOL    HW124683   1.520   1.899   4.518
 7928SOL    HW224684   1.373   1.875   4.451
 7929SOL     OW24685   4.413   4.187   5.389
 7929SOL    HW124686   4.482   4.242   5.342
 7929SOL    HW224687   4.432   4.185   5.487
 7930SOL     OW24688   4.334   5.416   4.765
 7930SOL    HW124689   4.314   5.345   4.832
 7930SOL    HW224690   4.334   5.377   4.673
 7931SOL     OW24691   3.140   3.089   0.065
 7931SOL    HW124692   3.162   3.039   0.149
 7931SOL    HW224693   3.066   3.042   0.017
 7932SOL     OW24694   1.261   6.761   6.625
 7932SOL    HW124695   1.287   6.665   6.632
 7932SOL    HW224696   1.341   6.815   6.598
 7933SOL     OW24697   0.366   6.552   0.022
 7933SOL    HW124698   0.433   6.566   6.973
 7933SOL    HW224699   0.274   6.563   7.008
 7934SOL     OW24700   1.475   4.953   6.390
 7934SOL    HW124701   1.377   4.960   6.410
 7934SOL    HW224702   1.493   4.871   6.336
 7935SOL     OW24703   5.872   6.308   1.334
 7935SOL    HW124704   5.929   6.253   1.394
 7935SOL    HW224705   5.777   6.276   1.340
 7936SOL     OW24706   3.535   5.916   1.846
 7936SOL    HW124707   3.526   5.960   1.756
 7936SOL    HW224708   3.522   5.817   1.836
 7937SOL     OW24709   6.547   5.897   3.895
 7937SOL    HW124710   6.552   5.993   3.922
 7937SOL    HW224711   6.596   5.841   3.962
 7938SOL     OW24712   6.605   6.143   4.024
 7938SOL    HW124713   6.585   6.155   4.121
 7938SOL    HW224714   6.534   6.188   3.969
 7939SOL     OW24715   1.935   2.591   4.808
 7939SOL    HW124716   1.972   2.636   4.727
 7939SOL    HW224717   1.976   2.630   4.890
 7940SOL     OW24718   1.335   3.943   1.967
 7940SOL    HW124719   1.372   3.881   2.036
 7940SOL    HW224720   1.236   3.953   1.980
 7941SOL     OW24721   6.383   0.183   1.431
 7941SOL    HW124722   6.450   0.185   1.505
 7941SOL    HW224723   6.295   0.152   1.467
 7942SOL     OW24724   6.833   5.087   2.400
 7942SOL    HW124725   6.827   4.993   2.432
 7942SOL    HW224726   6.920   5.101   2.353
 7943SOL     OW24727   0.307   3.702   6.254
 7943SOL    HW124728   0.392   3.751   6.233
 7943SOL    HW224729   0.326   3.604   6.261
 7944SOL     OW24730   1.098   2.522   0.984
 7944SOL    HW124731   1.074   2.426   0.970
 7944SOL    HW224732   1.142   2.558   0.901
 7945SOL     OW24733   6.345   5.284   1.336
 7945SOL    HW124734   6.326   5.204   1.393
 7945SOL    HW224735   6.298   5.275   1.249
 7946SOL     OW24736   3.717   0.302   5.670
 7946SOL    HW124737   3.784   0.241   5.712
 7946SOL    HW224738   3.763   0.369   5.613
 7947SOL     OW24739   3.848   1.519   5.878
 7947SOL    HW124740   3.774   1.474   5.828
 7947SOL    HW224741   3.856   1.480   5.969
 7948SOL     OW24742   1.233   6.416   1.216
 7948SOL    HW124743   1.278   6.327   1.217
 7948SOL    HW224744   1.273   6.474   1.288
 7949SOL     OW24745   4.819   4.554   5.558
 7949SOL    HW124746   4.906   4.512   5.583
 7949SOL    HW224747   4.744   4.502   5.600
 7950SOL     OW24748   4.839   5.370   3.650
 7950SOL    HW124749   4.767   5.301   3.664
 7950SOL    HW224750   4.879   5.396   3.738
 7951SOL     OW24751   1.936   4.311   2.248
 7951SOL    HW124752   1.893   4.375   2.184
 7951SOL    HW224753   1.888   4.315   2.336
 7952SOL     OW24754   6.898   3.550   6.560
 7952SOL    HW124755   6.968   3.531   6.491
 7952SOL    HW224756   6.807   3.534   6.521
 7953SOL     OW24757   3.135   2.167   3.327
 7953SOL    HW124758   3.142   2.220   3.242
 7953SOL    HW224759   3.221   2.173   3.377
 7954SOL     OW24760   3.313   4.210   6.087
 7954SOL    HW124761   3.296   4.209   5.989
 7954SOL    HW224762   3.265   4.286   6.129
 7955SOL     OW24763   2.861   1.026   6.815
 7955SOL    HW124764   2.929   0.986   6.754
 7955SOL    HW224765   2.828   1.112   6.775
 7956SOL     OW24766   4.688   6.419   1.773
 7956SOL    HW124767   4.680   6.325   1.739
 7956SOL    HW224768   4.601   6.466   1.761
 7957SOL     OW24769   0.989   0.569   1.421
 7957SOL    HW124770   0.966   0.659   1.384
 7957SOL    HW224771   0.978   0.569   1.520
 7958SOL     OW24772   3.852   4.847   5.229
 7958SOL    HW124773   3.821   4.760   5.265
 7958SOL    HW224774   3.812   4.922   5.282
 7959SOL     OW24775   4.682   5.725   0.554
 7959SOL    HW124776   4.722   5.664   0.622
 7959SOL    HW224777   4.675   5.678   0.466
 7960SOL     OW24778   2.132   1.726   5.908
 7960SOL    HW124779   2.209   1.779   5.872
 7960SOL    HW224780   2.050   1.783   5.908
 7961SOL     OW24781   6.912   1.498   0.920
 7961SOL    HW124782   6.852   1.567   0.879
 7961SOL    HW224783   6.857   1.429   0.967
 7962SOL     OW24784   1.706   0.293   5.933
 7962SOL    HW124785   1.779   0.334   5.879
 7962SOL    HW224786   1.636   0.362   5.951
 7963SOL     OW24787   6.438   6.565   4.217
 7963SOL    HW124788   6.500   6.642   4.200
 7963SOL    HW224789   6.343   6.596   4.207
 7964SOL     OW24790   6.666   4.213   2.522
 7964SOL    HW124791   6.657   4.311   2.504
 7964SOL    HW224792   6.641   4.194   2.617
 7965SOL     OW24793   3.984   2.848   5.804
 7965SOL    HW124794   4.051   2.786   5.763
 7965SOL    HW224795   3.921   2.797   5.862
 7966SOL     OW24796   2.285   2.957   5.948
 7966SOL    HW124797   2.293   2.967   5.849
 7966SOL    HW224798   2.223   3.027   5.984
 7967SOL     OW24799   3.767   6.509   2.510
 7967SOL    HW124800   3.781   6.607   2.494
 7967SOL    HW224801   3.742   6.465   2.424
 7968SOL     OW24802   1.198   2.809   3.988
 7968SOL    HW124803   1.160   2.805   4.081
 7968SOL    HW224804   1.228   2.718   3.960
 7969SOL     OW24805   4.263   5.826   0.783
 7969SOL    HW124806   4.165   5.838   0.766
 7969SOL    HW224807   4.299   5.908   0.828
 7970SOL     OW24808   6.717   2.831   2.573
 7970SOL    HW124809   6.790   2.798   2.513
 7970SOL    HW224810   6.756   2.865   2.658
 7971SOL     OW24811   3.112   2.184   0.639
 7971SOL    HW124812   3.049   2.139   0.703
 7971SOL    HW224813   3.061   2.252   0.586
 7972SOL     OW24814   2.043   2.726   0.119
 7972SOL    HW124815   2.141   2.743   0.122
 7972SOL    HW224816   2.021   2.648   0.178
 7973SOL     OW24817   4.403   4.826   4.522
 7973SOL    HW124818   4.492   4.785   4.542
 7973SOL    HW224819   4.353   4.840   4.608
 7974SOL     OW24820   5.762   0.423   5.164
 7974SOL    HW124821   5.846   0.447   5.213
 7974SOL    HW224822   5.689   0.487   5.190
 7975SOL     OW24823   6.073   1.520   2.063
 7975SOL    HW124824   6.059   1.550   1.968
 7975SOL    HW224825   6.091   1.600   2.120
 7976SOL     OW24826   0.533   0.501   6.547
 7976SOL    HW124827   0.447   0.499   6.598
 7976SOL    HW224828   0.603   0.450   6.597
 7977SOL     OW24829   4.807   5.790   2.557
 7977SOL    HW124830   4.812   5.830   2.648
 7977SOL    HW224831   4.727   5.825   2.509
 7978SOL     OW24832   5.940   3.087   6.325
 7978SOL    HW124833   5.849   3.046   6.327
 7978SOL    HW224834   5.988   3.057   6.242
 7979SOL     OW24835   4.290   6.101   5.449
 7979SOL    HW124836   4.312   6.196   5.425
 7979SOL    HW224837   4.207   6.099   5.505
 7980SOL     OW24838   2.935   5.624   7.002
 7980SOL    HW124839   2.996   5.681   0.034
 7980SOL    HW224840   2.983   5.595   6.919
 7981SOL     OW24841   0.403   4.979   1.825
 7981SOL    HW124842   0.471   5.031   1.875
 7981SOL    HW224843   0.448   4.904   1.775
 7982SOL     OW24844   1.736   1.218   6.760
 7982SOL    HW124845   1.670   1.234   6.833
 7982SOL    HW224846   1.795   1.140   6.785
 7983SOL     OW24847   6.308   2.126   1.947
 7983SOL    HW124848   6.303   2.026   1.946
 7983SOL    HW224849   6.398   2.156   1.917
 7984SOL     OW24850   1.078   1.274   1.004
 7984SOL    HW124851   1.110   1.284   1.098
 7984SOL    HW224852   0.984   1.241   1.003
 7985SOL     OW24853   3.300   0.871   4.507
 7985SOL    HW124854   3.339   0.900   4.594
 7985SOL    HW224855   3.373   0.861   4.439
 7986SOL     OW24856   3.283   0.799   6.619
 7986SOL    HW124857   3.332   0.779   6.534
 7986SOL    HW224858   3.207   0.734   6.629
 7987SOL     OW24859   1.918   2.451   0.001
 7987SOL    HW124860   1.956   2.489   0.084
 7987SOL    HW224861   1.858   2.374   0.023
 7988SOL     OW24862   0.224   1.836   3.621
 7988SOL    HW124863   0.211   1.934   3.628
 7988SOL    HW224864   0.198   1.806   3.529
 7989SOL     OW24865   2.898   3.026   6.670
 7989SOL    HW124866   2.983   3.016   6.618
 7989SOL    HW224867   2.821   3.036   6.607
 7990SOL     OW24868   0.588   4.361   4.554
 7990SOL    HW124869   0.497   4.332   4.523
 7990SOL    HW224870   0.617   4.304   4.631
 7991SOL     OW24871   5.285   6.587   3.427
 7991SOL    HW124872   5.375   6.605   3.387
 7991SOL    HW224873   5.214   6.629   3.369
 7992SOL     OW24874   0.822   6.872   0.823
 7992SOL    HW124875   0.730   6.879   0.861
 7992SOL    HW224876   0.848   6.959   0.781
 7993SOL     OW24877   0.618   0.152   0.567
 7993SOL    HW124878   0.565   0.073   0.600
 7993SOL    HW224879   0.606   0.161   0.468
 7994SOL     OW24880   3.934   6.949   3.282
 7994SOL    HW124881   3.992   7.015   3.329
 7994SOL    HW224882   3.964   6.939   3.188
 7995SOL     OW24883   5.496   6.063   3.978
 7995SOL    HW124884   5.477   6.106   3.890
 7995SOL    HW224885   5.497   5.963   3.968
 7996SOL     OW24886   2.833   7.004   5.023
 7996SOL    HW124887   2.852   0.017   5.114
 7996SOL    HW224888   2.916   6.962   4.986
 7997SOL     OW24889   0.432   1.819   1.355
 7997SOL    HW124890   0.342   1.864   1.357
 7997SOL    HW224891   0.468   1.811   1.448
 7998SOL     OW24892   2.959   6.867   0.186
 7998SOL    HW124893   3.025   6.934   0.153
 7998SOL    HW224894   3.006   6.797   0.239
 7999SOL     OW24895   0.853   0.604   6.281
 7999SOL    HW124896   0.848   0.670   6.356
 7999SOL    HW224897   0.783   0.534   6.293
 8000SOL     OW24898   4.818   0.226   0.279
 8000SOL    HW124899   4.851   0.292   0.347
 8000SOL    HW224900   4.890   0.206   0.213
 8001SOL     OW24901   4.415   6.571   1.369
 8001SOL    HW124902   4.451   6.549   1.460
 8001SOL    HW224903   4.474   6.530   1.299
 8002SOL     OW24904   1.635   0.979   5.957
 8002SOL    HW124905   1.599   1.031   6.036
 8002SOL    HW224906   1.606   1.024   5.873
 8003SOL     OW24907   3.024   5.011   2.242
 8003SOL    HW124908   2.979   5.099   2.260
 8003SOL    HW224909   2.955   4.945   2.210
 8004SOL     OW24910   2.135   3.174   2.535
 8004SOL    HW124911   2.222   3.168   2.486
 8004SOL    HW224912   2.140   3.119   2.618
 8005SOL     OW24913   2.712   0.931   2.278
 8005SOL    HW124914   2.651   0.987   2.333
 8005SOL    HW224915   2.807   0.945   2.308
 8006SOL     OW24916   2.161   6.571   5.940
 8006SOL    HW124917   2.101   6.553   6.018
 8006SOL    HW224918   2.211   6.488   5.916
 8007SOL     OW24919   6.294   0.702   4.735
 8007SOL    HW124920   6.325   0.615   4.699
 8007SOL    HW224921   6.331   0.776   4.679
 8008SOL     OW24922   4.446   5.392   6.441
 8008SOL    HW124923   4.348   5.380   6.424
 8008SOL    HW224924   4.495   5.385   6.354
 8009SOL     OW24925   5.977   0.513   1.965
 8009SOL    HW124926   6.005   0.473   1.878
 8009SOL    HW224927   6.026   0.467   2.039
 8010SOL     OW24928   1.514   1.674   5.748
 8010SOL    HW124929   1.597   1.624   5.722
 8010SOL    HW224930   1.502   1.752   5.686
 8011SOL     OW24931   3.205   2.460   0.797
 8011SOL    HW124932   3.153   2.445   0.713
 8011SOL    HW224933   3.191   2.383   0.859
 8012SOL     OW24934   1.808   3.924   0.595
 8012SOL    HW124935   1.762   3.843   0.633
 8012SOL    HW224936   1.793   4.002   0.656
 8013SOL     OW24937   1.352   5.301   3.104
 8013SOL    HW124938   1.260   5.338   3.120
 8013SOL    HW224939   1.419   5.359   3.149
 8014SOL     OW24940   1.389   6.125   5.190
 8014SOL    HW124941   1.332   6.082   5.119
 8014SOL    HW224942   1.336   6.197   5.234
 8015SOL     OW24943   3.386   0.724   6.388
 8015SOL    HW124944   3.355   0.669   6.311
 8015SOL    HW224945   3.473   0.768   6.366
 8016SOL     OW24946   4.942   0.735   5.770
 8016SOL    HW124947   5.031   0.693   5.787
 8016SOL    HW224948   4.925   0.738   5.671
 8017SOL     OW24949   5.806   0.297   0.511
 8017SOL    HW124950   5.827   0.205   0.479
 8017SOL    HW224951   5.891   0.345   0.534
 8018SOL     OW24952   3.160   1.986   6.508
 8018SOL    HW124953   3.084   1.975   6.444
 8018SOL    HW224954   3.135   1.946   6.596
 8019SOL     OW24955   2.095   4.526   0.096
 8019SOL    HW124956   2.001   4.546   0.067
 8019SOL    HW224957   2.116   4.580   0.178
 8020SOL     OW24958   5.786   0.770   0.627
 8020SOL    HW124959   5.842   0.852   0.639
 8020SOL    HW224960   5.787   0.716   0.711
 8021SOL     OW24961   1.561   2.966   1.463
 8021SOL    HW124962   1.496   3.038   1.488
 8021SOL    HW224963   1.630   3.003   1.401
 8022SOL     OW24964   5.682   6.872   2.919
 8022SOL    HW124965   5.736   6.944   2.876
 8022SOL    HW224966   5.642   6.813   2.848
 8023SOL     OW24967   5.649   5.088   2.708
 8023SOL    HW124968   5.733   5.092   2.762
 8023SOL    HW224969   5.600   5.176   2.716
 8024SOL     OW24970   1.623   4.344   6.086
 8024SOL    HW124971   1.656   4.434   6.059
 8024SOL    HW224972   1.688   4.274   6.058
 8025SOL     OW24973   2.017   6.051   6.669
 8025SOL    HW124974   1.928   6.029   6.708
 8025SOL    HW224975   2.067   5.967   6.649
 8026SOL     OW24976   0.003   4.272   0.096
 8026SOL    HW124977   0.066   4.243   0.025
 8026SOL    HW224978   6.932   4.264   0.063
 8027SOL     OW24979   4.844   0.637   4.990
 8027SOL    HW124980   4.885   0.728   4.992
 8027SOL    HW224981   4.876   0.585   5.069
 8028SOL     OW24982   3.767   5.975   5.720
 8028SOL    HW124983   3.721   5.906   5.665
 8028SOL    HW224984   3.750   6.066   5.680
 8029SOL     OW24985   4.647   2.956   0.888
 8029SOL    HW124986   4.599   3.043   0.878
 8029SOL    HW224987   4.652   2.932   0.985
 8030SOL     OW24988   3.948   4.787   0.511
 8030SOL    HW124989   3.925   4.812   0.604
 8030SOL    HW224990   4.030   4.729   0.511
 8031SOL     OW24991   6.489   6.337   2.547
 8031SOL    HW124992   6.571   6.329   2.490
 8031SOL    HW224993   6.475   6.433   2.572
 8032SOL     OW24994   6.201   4.418   1.445
 8032SOL    HW124995   6.275   4.367   1.402
 8032SOL    HW224996   6.143   4.356   1.497
 8033SOL     OW24997   5.471   1.726   5.919
 8033SOL    HW124998   5.569   1.706   5.912
 8033SOL    HW224999   5.422   1.641   5.937
 8034SOL     OW25000   5.013   0.252   4.181
 8034SOL    HW125001   5.065   0.326   4.223
 8034SOL    HW225002   5.023   0.256   4.082
 8035SOL     OW25003   4.972   1.871   4.663
 8035SOL    HW125004   4.963   1.804   4.590
 8035SOL    HW225005   4.974   1.963   4.624
 8036SOL     OW25006   7.008   4.000   3.670
 8036SOL    HW125007   6.933   4.040   3.721
 8036SOL    HW225008   6.974   3.921   3.618
 8037SOL     OW25009   1.493   3.310   0.443
 8037SOL    HW125010   1.496   3.409   0.446
 8037SOL    HW225011   1.562   3.272   0.504
 8038SOL     OW25012   4.641   0.050   2.299
 8038SOL    HW125013   4.660   0.024   2.204
 8038SOL    HW225014   4.649   6.994   2.358
 8039SOL     OW25015   1.035   1.866   5.047
 8039SOL    HW125016   0.943   1.844   5.016
 8039SOL    HW225017   1.038   1.864   5.147
 8040SOL     OW25018   1.086   5.532   0.052
 8040SOL    HW125019   1.174   5.487   0.069
 8040SOL    HW225020   1.012   5.465   0.064
 8041SOL     OW25021   2.744   1.520   2.663
 8041SOL    HW125022   2.722   1.608   2.622
 8041SOL    HW225023   2.783   1.536   2.754
 8042SOL     OW25024   3.184   3.103   4.046
 8042SOL    HW125025   3.196   3.167   3.970
 8042SOL    HW225026   3.120   3.142   4.112
 8043SOL     OW25027   3.460   6.711   1.384
 8043SOL    HW125028   3.390   6.651   1.347
 8043SOL    HW225029   3.418   6.792   1.425
 8044SOL     OW25030   3.962   2.090   1.340
 8044SOL    HW125031   4.041   2.101   1.400
 8044SOL    HW225032   3.930   2.180   1.310
 8045SOL     OW25033   5.485   2.062   3.246
 8045SOL    HW125034   5.394   2.088   3.214
 8045SOL    HW225035   5.480   2.031   3.341
 8046SOL     OW25036   0.238   4.971   1.305
 8046SOL    HW125037   0.324   4.933   1.272
 8046SOL    HW225038   0.234   4.962   1.405
 8047SOL     OW25039   4.273   5.999   5.170
 8047SOL    HW125040   4.306   6.019   5.262
 8047SOL    HW225041   4.300   5.906   5.144
 8048SOL     OW25042   5.294   1.514   5.683
 8048SOL    HW125043   5.209   1.561   5.663
 8048SOL    HW225044   5.313   1.519   5.781
 8049SOL     OW25045   0.512   0.440   0.464
 8049SOL    HW125046   0.578   0.459   0.537
 8049SOL    HW225047   0.435   0.503   0.471
 8050SOL     OW25048   1.879   3.155   3.912
 8050SOL    HW125049   1.871   3.227   3.981
 8050SOL    HW225050   1.963   3.103   3.927
 8051SOL     OW25051   4.556   5.652   3.793
 8051SOL    HW125052   4.523   5.696   3.877
 8051SOL    HW225053   4.484   5.595   3.755
 8052SOL     OW25054   3.785   1.268   1.084
 8052SOL    HW125055   3.792   1.207   1.163
 8052SOL    HW225056   3.790   1.214   1.000
 8053SOL     OW25057   2.980   3.401   3.980
 8053SOL    HW125058   2.934   3.312   3.981
 8053SOL    HW225059   2.927   3.466   3.926
 8054SOL     OW25060   5.922   5.465   4.825
 8054SOL    HW125061   6.005   5.521   4.813
 8054SOL    HW225062   5.902   5.457   4.923
 8055SOL     OW25063   0.383   0.510   4.830
 8055SOL    HW125064   0.330   0.549   4.905
 8055SOL    HW225065   0.384   0.410   4.839
 8056SOL     OW25066   2.379   1.037   3.237
 8056SOL    HW125067   2.441   1.014   3.162
 8056SOL    HW225068   2.305   1.095   3.202
 8057SOL     OW25069   3.124   1.883   2.724
 8057SOL    HW125070   3.187   1.918   2.655
 8057SOL    HW225071   3.073   1.959   2.764
 8058SOL     OW25072   3.480   0.142   2.955
 8058SOL    HW125073   3.438   0.071   3.013
 8058SOL    HW225074   3.558   0.182   3.003
 8059SOL     OW25075   2.933   1.704   4.970
 8059SOL    HW125076   2.994   1.780   4.947
 8059SOL    HW225077   2.969   1.656   5.050
 8060SOL     OW25078   6.322   2.055   5.461
 8060SOL    HW125079   6.329   1.957   5.477
 8060SOL    HW225080   6.231   2.087   5.486
 8061SOL     OW25081   0.114   0.823   2.945
 8061SOL    HW125082   0.118   0.805   2.847
 8061SOL    HW225083   0.171   0.902   2.967
 8062SOL     OW25084   3.844   4.877   4.161
 8062SOL    HW125085   3.901   4.931   4.099
 8062SOL    HW225086   3.755   4.921   4.171
 8063SOL     OW25087   1.851   2.239   1.929
 8063SOL    HW125088   1.860   2.297   2.010
 8063SOL    HW225089   1.894   2.151   1.945
 8064SOL     OW25090   6.431   3.519   1.774
 8064SOL    HW125091   6.481   3.588   1.722
 8064SOL    HW225092   6.434   3.432   1.724
 8065SOL     OW25093   2.735   5.482   3.842
 8065SOL    HW125094   2.687   5.552   3.790
 8065SOL    HW225095   2.672   5.437   3.904
 8066SOL     OW25096   1.142   1.509   5.323
 8066SOL    HW125097   1.200   1.445   5.375
 8066SOL    HW225098   1.055   1.465   5.303
 8067SOL     OW25099   4.964   2.632   2.137
 8067SOL    HW125100   4.893   2.689   2.178
 8067SOL    HW225101   5.053   2.678   2.146
 8068SOL     OW25102   6.941   4.120   1.602
 8068SOL    HW125103   6.866   4.055   1.588
 8068SOL    HW225104   6.986   4.136   1.514
 8069SOL     OW25105   2.956   5.981   1.221
 8069SOL    HW125106   2.919   5.888   1.220
 8069SOL    HW225107   2.927   6.027   1.305
 8070SOL     OW25108   4.296   3.684   0.768
 8070SOL    HW125109   4.332   3.709   0.679
 8070SOL    HW225110   4.227   3.612   0.758
 8071SOL     OW25111   3.372   6.385   4.674
 8071SOL    HW125112   3.400   6.464   4.620
 8071SOL    HW225113   3.366   6.410   4.770
 8072SOL     OW25114   3.927   1.828   0.825
 8072SOL    HW125115   3.879   1.754   0.777
 8072SOL    HW225116   3.902   1.915   0.782
 8073SOL     OW25117   3.255   5.258   5.045
 8073SOL    HW125118   3.175   5.274   4.988
 8073SOL    HW225119   3.234   5.188   5.113
 8074SOL     OW25120   3.140   2.919   0.282
 8074SOL    HW125121   3.133   2.977   0.363
 8074SOL    HW225122   3.051   2.878   0.262
 8075SOL     OW25123   0.112   0.477   0.652
 8075SOL    HW125124   0.200   0.495   0.696
 8075SOL    HW225125   0.091   0.552   0.589
 8076SOL     OW25126   6.554   1.168   5.203
 8076SOL    HW125127   6.512   1.079   5.220
 8076SOL    HW225128   6.626   1.185   5.271
 8077SOL     OW25129   3.200   6.238   2.472
 8077SOL    HW125130   3.258   6.158   2.456
 8077SOL    HW225131   3.251   6.320   2.447
 8078SOL     OW25132   0.029   1.949   0.713
 8078SOL    HW125133   0.072   1.934   0.624
 8078SOL    HW225134   0.091   1.917   0.785
 8079SOL     OW25135   5.620   1.791   3.704
 8079SOL    HW125136   5.707   1.746   3.723
 8079SOL    HW225137   5.552   1.723   3.675
 8080SOL     OW25138   1.086   2.579   1.435
 8080SOL    HW125139   1.141   2.572   1.351
 8080SOL    HW225140   1.053   2.673   1.445
 8081SOL     OW25141   6.302   5.773   5.873
 8081SOL    HW125142   6.287   5.796   5.777
 8081SOL    HW225143   6.383   5.821   5.907
 8082SOL     OW25144   4.532   0.164   2.879
 8082SOL    HW125145   4.530   0.253   2.923
 8082SOL    HW225146   4.623   0.124   2.888
 8083SOL     OW25147   4.954   2.694   3.197
 8083SOL    HW125148   4.886   2.759   3.162
 8083SOL    HW225149   4.994   2.644   3.121
 8084SOL     OW25150   3.816   6.457   0.141
 8084SOL    HW125151   3.757   6.417   0.072
 8084SOL    HW225152   3.762   6.517   0.200
 8085SOL     OW25153   6.760   6.417   2.133
 8085SOL    HW125154   6.848   6.376   2.152
 8085SOL    HW225155   6.687   6.364   2.176
 8086SOL     OW25156   5.698   0.365   2.889
 8086SOL    HW125157   5.607   0.330   2.868
 8086SOL    HW225158   5.719   0.443   2.831
 8087SOL     OW25159   2.520   1.102   0.051
 8087SOL    HW125160   2.522   1.064   6.982
 8087SOL    HW225161   2.604   1.152   0.069
 8088SOL     OW25162   5.741   1.817   1.648
 8088SOL    HW125163   5.807   1.892   1.657
 8088SOL    HW225164   5.747   1.759   1.730
 8089SOL     OW25165   5.839   2.758   0.587
 8089SOL    HW125166   5.917   2.798   0.635
 8089SOL    HW225167   5.871   2.687   0.524
 8090SOL     OW25168   4.397   2.234   6.785
 8090SOL    HW125169   4.353   2.270   6.703
 8090SOL    HW225170   4.401   2.306   6.855
 8091SOL     OW25171   2.139   3.557   5.056
 8091SOL    HW125172   2.213   3.519   5.113
 8091SOL    HW225173   2.131   3.655   5.073
 8092SOL     OW25174   5.282   2.069   5.056
 8092SOL    HW125175   5.274   1.993   4.992
 8092SOL    HW225176   5.201   2.073   5.114
 8093SOL     OW25177   3.905   5.222   2.682
 8093SOL    HW125178   3.843   5.296   2.705
 8093SOL    HW225179   3.965   5.251   2.608
 8094SOL     OW25180   0.835   3.568   4.423
 8094SOL    HW125181   0.753   3.526   4.384
 8094SOL    HW225182   0.855   3.653   4.374
 8095SOL     OW25183   0.654   4.736   4.538
 8095SOL    HW125184   0.607   4.693   4.615
 8095SOL    HW225185   0.631   4.834   4.536
 8096SOL     OW25186   2.337   6.770   3.318
 8096SOL    HW125187   2.237   6.771   3.320
 8096SOL    HW225188   2.369   6.676   3.313
 8097SOL     OW25189   4.012   0.132   4.011
 8097SOL    HW125190   3.944   0.189   3.965
 8097SOL    HW225191   4.099   0.181   4.016
 8098SOL     OW25192   1.498   6.647   3.340
 8098SOL    HW125193   1.418   6.591   3.365
 8098SOL    HW225194   1.547   6.673   3.423
 8099SOL     OW25195   3.787   6.773   4.825
 8099SOL    HW125196   3.808   6.777   4.923
 8099SOL    HW225197   3.721   6.844   4.802
 8100SOL     OW25198   6.610   1.038   1.247
 8100SOL    HW125199   6.702   1.065   1.222
 8100SOL    HW225200   6.568   0.989   1.171
 8101SOL     OW25201   1.866   6.193   2.432
 8101SOL    HW125202   1.773   6.207   2.465
 8101SOL    HW225203   1.864   6.177   2.334
 8102SOL     OW25204   1.272   4.395   3.990
 8102SOL    HW125205   1.201   4.462   3.966
 8102SOL    HW225206   1.286   4.333   3.913
 8103SOL     OW25207   2.737   6.809   1.300
 8103SOL    HW125208   2.670   6.883   1.311
 8103SOL    HW225209   2.737   6.778   1.205
 8104SOL     OW25210   3.306   0.541   6.145
 8104SOL    HW125211   3.217   0.545   6.192
 8104SOL    HW225212   3.353   0.457   6.171
 8105SOL     OW25213   0.932   2.992   3.387
 8105SOL    HW125214   0.913   3.030   3.478
 8105SOL    HW225215   0.850   2.997   3.331
 8106SOL     OW25216   2.481   6.072   3.037
 8106SOL    HW125217   2.422   6.135   2.986
 8106SOL    HW225218   2.539   6.021   2.973
 8107SOL     OW25219   0.884   5.094   4.539
 8107SOL    HW125220   0.796   5.140   4.547
 8107SOL    HW225221   0.885   5.012   4.597
 8108SOL     OW25222   6.075   2.914   5.808
 8108SOL    HW125223   6.164   2.899   5.849
 8108SOL    HW225224   6.084   2.974   5.729
 8109SOL     OW25225   0.826   3.628   4.740
 8109SOL    HW125226   0.790   3.580   4.820
 8109SOL    HW225227   0.869   3.563   4.678
 8110SOL     OW25228   3.023   5.888   0.951
 8110SOL    HW125229   2.960   5.908   0.875
 8110SOL    HW225230   2.981   5.917   1.037
 8111SOL     OW25231   5.294   0.969   5.002
 8111SOL    HW125232   5.364   0.902   4.976
 8111SOL    HW225233   5.203   0.931   4.985
 8112SOL     OW25234   2.173   2.248   3.972
 8112SOL    HW125235   2.152   2.326   4.031
 8112SOL    HW225236   2.143   2.267   3.879
 8113SOL     OW25237   1.756   3.466   0.557
 8113SOL    HW125238   1.729   3.562   0.553
 8113SOL    HW225239   1.789   3.444   0.649
 8114SOL     OW25240   1.349   3.996   2.944
 8114SOL    HW125241   1.345   3.987   2.845
 8114SOL    HW225242   1.409   3.926   2.982
 8115SOL     OW25243   3.874   0.493   0.408
 8115SOL    HW125244   3.862   0.421   0.340
 8115SOL    HW225245   3.784   0.519   0.444
 8116SOL     OW25246   4.684   5.188   6.203
 8116SOL    HW125247   4.684   5.115   6.134
 8116SOL    HW225248   4.661   5.149   6.292
 8117SOL     OW25249   1.557   6.960   3.464
 8117SOL    HW125250   1.468   6.986   3.428
 8117SOL    HW225251   1.629   6.995   3.404
 8118SOL     OW25252   5.480   4.814   5.759
 8118SOL    HW125253   5.536   4.753   5.703
 8118SOL    HW225254   5.390   4.773   5.773
 8119SOL     OW25255   4.939   5.331   6.562
 8119SOL    HW125256   4.955   5.309   6.466
 8119SOL    HW225257   4.900   5.252   6.609
 8120SOL     OW25258   2.974   5.333   0.351
 8120SOL    HW125259   3.073   5.335   0.337
 8120SOL    HW225260   2.939   5.244   0.323
 8121SOL     OW25261   0.253   5.263   1.818
 8121SOL    HW125262   0.287   5.264   1.724
 8121SOL    HW225263   0.162   5.223   1.820
 8122SOL     OW25264   1.049   5.340   2.827
 8122SOL    HW125265   0.996   5.278   2.885
 8122SOL    HW225266   1.013   5.337   2.733
 8123SOL     OW25267   6.596   0.874   6.358
 8123SOL    HW125268   6.530   0.930   6.307
 8123SOL    HW225269   6.679   0.926   6.374
 8124SOL     OW25270   6.080   6.725   1.189
 8124SOL    HW125271   6.018   6.755   1.262
 8124SOL    HW225272   6.057   6.774   1.105
 8125SOL     OW25273   1.656   1.321   3.420
 8125SOL    HW125274   1.607   1.238   3.393
 8125SOL    HW225275   1.690   1.368   3.339
 8126SOL     OW25276   4.873   4.852   2.768
 8126SOL    HW125277   4.935   4.809   2.834
 8126SOL    HW225278   4.926   4.890   2.693
 8127SOL     OW25279   2.560   4.405   6.618
 8127SOL    HW125280   2.555   4.306   6.635
 8127SOL    HW225281   2.639   4.443   6.666
 8128SOL     OW25282   2.502   1.181   1.680
 8128SOL    HW125283   2.504   1.257   1.745
 8128SOL    HW225284   2.504   1.094   1.730
 8129SOL     OW25285   4.406   0.909   6.552
 8129SOL    HW125286   4.365   0.877   6.467
 8129SOL    HW225287   4.465   0.988   6.533
 8130SOL     OW25288   0.041   3.431   6.358
 8130SOL    HW125289   0.051   3.431   6.259
 8130SOL    HW225290   0.043   3.337   6.392
 8131SOL     OW25291   3.377   2.091   0.734
 8131SOL    HW125292   3.418   2.132   0.653
 8131SOL    HW225293   3.280   2.115   0.739
 8132SOL     OW25294   6.201   6.691   6.122
 8132SOL    HW125295   6.178   6.660   6.029
 8132SOL    HW225296   6.182   6.788   6.130
 8133SOL     OW25297   3.019   4.784   1.312
 8133SOL    HW125298   3.006   4.850   1.386
 8133SOL    HW225299   3.056   4.831   1.232
 8134SOL     OW25300   6.852   2.686   5.576
 8134SOL    HW125301   6.920   2.622   5.541
 8134SOL    HW225302   6.776   2.634   5.616
 8135SOL     OW25303   2.815   6.138   1.715
 8135SOL    HW125304   2.771   6.073   1.778
 8135SOL    HW225305   2.850   6.216   1.766
 8136SOL     OW25306   4.598   5.343   3.013
 8136SOL    HW125307   4.522   5.328   3.077
 8136SOL    HW225308   4.636   5.255   2.986
 8137SOL     OW25309   3.017   1.934   5.360
 8137SOL    HW125310   2.920   1.955   5.348
 8137SOL    HW225311   3.031   1.882   5.445
 8138SOL     OW25312   6.097   1.551   6.861
 8138SOL    HW125313   6.074   1.530   6.766
 8138SOL    HW225314   6.101   1.650   6.873
 8139SOL     OW25315   6.860   1.281   2.774
 8139SOL    HW125316   6.827   1.331   2.854
 8139SOL    HW225317   6.815   1.192   2.770
 8140SOL     OW25318   4.563   0.405   1.119
 8140SOL    HW125319   4.639   0.458   1.081
 8140SOL    HW225320   4.532   0.448   1.204
 8141SOL     OW25321   4.959   6.438   4.971
 8141SOL    HW125322   5.019   6.367   4.934
 8141SOL    HW225323   5.014   6.501   5.026
 8142SOL     OW25324   1.113   5.076   6.775
 8142SOL    HW125325   1.054   5.074   6.855
 8142SOL    HW225326   1.175   5.154   6.781
 8143SOL     OW25327   6.736   4.273   1.157
 8143SOL    HW125328   6.819   4.327   1.143
 8143SOL    HW225329   6.756   4.177   1.141
 8144SOL     OW25330   6.644   6.709   6.507
 8144SOL    HW125331   6.676   6.690   6.415
 8144SOL    HW225332   6.684   6.643   6.571
 8145SOL     OW25333   5.539   5.714   1.467
 8145SOL    HW125334   5.548   5.807   1.432
 8145SOL    HW225335   5.456   5.673   1.430
 8146SOL     OW25336   5.139   0.706   4.873
 8146SOL    HW125337   5.130   0.687   4.775
 8146SOL    HW225338   5.059   0.757   4.905
 8147SOL     OW25339   6.166   1.815   1.584
 8147SOL    HW125340   6.213   1.896   1.547
 8147SOL    HW225341   6.112   1.772   1.511
 8148SOL     OW25342   4.962   4.115   0.666
 8148SOL    HW125343   4.890   4.051   0.694
 8148SOL    HW225344   5.039   4.063   0.628
 8149SOL     OW25345   3.236   6.473   2.309
 8149SOL    HW125346   3.326   6.509   2.332
 8149SOL    HW225347   3.165   6.534   2.344
 8150SOL     OW25348   2.047   4.068   1.035
 8150SOL    HW125349   2.088   3.987   1.078
 8150SOL    HW225350   2.015   4.045   0.943
 8151SOL     OW25351   5.725   3.263   1.909
 8151SOL    HW125352   5.665   3.225   1.980
 8151SOL    HW225353   5.673   3.274   1.824
 8152SOL     OW25354   6.672   2.230   2.585
 8152SOL    HW125355   6.614   2.289   2.641
 8152SOL    HW225356   6.618   2.151   2.553
 8153SOL     OW25357   1.645   6.731   3.839
 8153SOL    HW125358   1.700   6.810   3.864
 8153SOL    HW225359   1.641   6.724   3.739
 8154SOL     OW25360   3.458   5.143   1.924
 8154SOL    HW125361   3.497   5.081   1.856
 8154SOL    HW225362   3.424   5.090   2.002
 8155SOL     OW25363   1.461   3.808   2.186
 8155SOL    HW125364   1.555   3.782   2.208
 8155SOL    HW225365   1.438   3.893   2.234
 8156SOL     OW25366   5.608   0.153   0.940
 8156SOL    HW125367   5.650   0.119   1.024
 8156SOL    HW225368   5.536   0.218   0.963
 8157SOL     OW25369   6.683   5.370   6.267
 8157SOL    HW125370   6.676   5.277   6.304
 8157SOL    HW225371   6.734   5.428   6.330
 8158SOL     OW25372   4.807   5.185   0.605
 8158SOL    HW125373   4.812   5.108   0.542
 8158SOL    HW225374   4.761   5.262   0.561
 8159SOL     OW25375   2.646   5.973   2.854
 8159SOL    HW125376   2.652   5.948   2.758
 8159SOL    HW225377   2.681   6.066   2.867
 8160SOL     OW25378   5.058   0.489   3.668
 8160SOL    HW125379   5.126   0.419   3.692
 8160SOL    HW225380   4.971   0.445   3.647
 8161SOL     OW25381   5.952   2.035   6.384
 8161SOL    HW125382   6.027   1.973   6.361
 8161SOL    HW225383   5.958   2.059   6.481
 8162SOL     OW25384   5.514   6.725   6.458
 8162SOL    HW125385   5.505   6.791   6.384
 8162SOL    HW225386   5.566   6.646   6.426
 8163SOL     OW25387   2.682   4.003   5.338
 8163SOL    HW125388   2.768   4.027   5.292
 8163SOL    HW225389   2.606   4.013   5.274
 8164SOL     OW25390   5.558   2.694   0.450
 8164SOL    HW125391   5.610   2.740   0.523
 8164SOL    HW225392   5.606   2.610   0.424
 8165SOL     OW25393   0.966   2.978   6.420
 8165SOL    HW125394   1.013   2.990   6.508
 8165SOL    HW225395   1.030   2.939   6.354
 8166SOL     OW25396   1.552   0.275   2.795
 8166SOL    HW125397   1.600   0.348   2.747
 8166SOL    HW225398   1.453   0.291   2.790
 8167SOL     OW25399   6.338   6.994   4.781
 8167SOL    HW125400   6.355   7.020   4.686
 8167SOL    HW225401   6.245   7.020   4.806
 8168SOL     OW25402   2.024   1.676   3.329
 8168SOL    HW125403   1.947   1.724   3.372
 8168SOL    HW225404   1.991   1.625   3.249
 8169SOL     OW25405   4.894   2.027   0.715
 8169SOL    HW125406   4.904   2.114   0.762
 8169SOL    HW225407   4.800   2.019   0.681
 8170SOL     OW25408   1.200   4.888   2.627
 8170SOL    HW125409   1.117   4.841   2.657
 8170SOL    HW225410   1.252   4.918   2.707
 8171SOL     OW25411   1.405   1.740   6.403
 8171SOL    HW125412   1.370   1.677   6.334
 8171SOL    HW225413   1.383   1.834   6.377
 8172SOL     OW25414   0.843   2.040   2.236
 8172SOL    HW125415   0.788   1.985   2.173
 8172SOL    HW225416   0.818   2.136   2.227
 8173SOL     OW25417   5.125   0.821   2.260
 8173SOL    HW125418   5.091   0.881   2.188
 8173SOL    HW225419   5.132   0.728   2.225
 8174SOL     OW25420   5.972   3.263   1.133
 8174SOL    HW125421   5.933   3.191   1.076
 8174SOL    HW225422   5.922   3.269   1.219
 8175SOL     OW25423   7.014   2.417   5.685
 8175SOL    HW125424   6.924   2.429   5.643
 8175SOL    HW225425   0.026   2.327   5.660
 8176SOL     OW25426   2.774   4.983   1.583
 8176SOL    HW125427   2.815   5.028   1.504
 8176SOL    HW225428   2.682   5.019   1.598
 8177SOL     OW25429   3.332   6.219   3.721
 8177SOL    HW125430   3.241   6.251   3.748
 8177SOL    HW225431   3.390   6.298   3.703
 8178SOL     OW25432   2.747   5.690   6.683
 8178SOL    HW125433   2.758   5.720   6.588
 8178SOL    HW225434   2.812   5.739   6.741
 8179SOL     OW25435   5.040   2.305   5.815
 8179SOL    HW125436   4.959   2.274   5.866
 8179SOL    HW225437   5.083   2.381   5.864
 8180SOL     OW25438   6.682   0.351   4.762
 8180SOL    HW125439   6.762   0.302   4.798
 8180SOL    HW225440   6.705   0.448   4.750
 8181SOL     OW25441   1.978   1.403   0.924
 8181SOL    HW125442   1.999   1.384   0.828
 8181SOL    HW225443   2.012   1.494   0.947
 8182SOL     OW25444   4.514   3.339   6.186
 8182SOL    HW125445   4.504   3.248   6.227
 8182SOL    HW225446   4.424   3.375   6.162
 8183SOL     OW25447   6.957   2.686   4.480
 8183SOL    HW125448   6.936   2.703   4.383
 8183SOL    HW225449   6.893   2.619   4.517
 8184SOL     OW25450   5.645   1.386   6.145
 8184SOL    HW125451   5.605   1.295   6.151
 8184SOL    HW225452   5.573   1.455   6.157
 8185SOL     OW25453   2.505   6.446   0.413
 8185SOL    HW125454   2.540   6.440   0.320
 8185SOL    HW225455   2.552   6.520   0.462
 8186SOL     OW25456   3.761   5.904   5.441
 8186SOL    HW125457   3.860   5.897   5.449
 8186SOL    HW225458   3.736   5.997   5.414
 8187SOL     OW25459   1.495   2.760   5.523
 8187SOL    HW125460   1.465   2.746   5.429
 8187SOL    HW225461   1.579   2.708   5.540
 8188SOL     OW25462   5.364   2.660   3.079
 8188SOL    HW125463   5.461   2.664   3.052
 8188SOL    HW225464   5.348   2.725   3.153
 8189SOL     OW25465   4.633   4.721   2.914
 8189SOL    HW125466   4.609   4.647   2.850
 8189SOL    HW225467   4.716   4.767   2.882
 8190SOL     OW25468   4.162   5.291   3.691
 8190SOL    HW125469   4.257   5.314   3.673
 8190SOL    HW225470   4.124   5.354   3.759
 8191SOL     OW25471   3.706   6.428   2.248
 8191SOL    HW125472   3.624   6.483   2.261
 8191SOL    HW225473   3.680   6.331   2.245
 8192SOL     OW25474   3.610   5.258   0.893
 8192SOL    HW125475   3.559   5.314   0.958
 8192SOL    HW225476   3.598   5.161   0.916
 8193SOL     OW25477   6.759   6.549   4.602
 8193SOL    HW125478   6.732   6.490   4.526
 8193SOL    HW225479   6.737   6.644   4.579
 8194SOL     OW25480   6.014   2.612   1.007
 8194SOL    HW125481   5.998   2.613   1.106
 8194SOL    HW225482   5.945   2.555   0.963
 8195SOL     OW25483   1.604   6.988   1.638
 8195SOL    HW125484   1.506   6.995   1.656
 8195SOL    HW225485   1.637   0.051   1.600
 8196SOL     OW25486   3.638   6.332   6.157
 8196SOL    HW125487   3.584   6.324   6.073
 8196SOL    HW225488   3.711   6.398   6.144
 8197SOL     OW25489   4.413   1.419   6.397
 8197SOL    HW125490   4.496   1.430   6.342
 8197SOL    HW225491   4.367   1.334   6.370
 8198SOL     OW25492   3.802   6.603   3.225
 8198SOL    HW125493   3.725   6.619   3.163
 8198SOL    HW225494   3.866   6.539   3.182
 8199SOL     OW25495   5.918   2.782   6.387
 8199SOL    HW125496   5.845   2.851   6.384
 8199SOL    HW225497   5.909   2.722   6.308
 8200SOL     OW25498   4.895   3.915   1.443
 8200SOL    HW125499   4.940   3.835   1.403
 8200SOL    HW225500   4.834   3.956   1.375
 8201SOL     OW25501   5.671   0.472   4.004
 8201SOL    HW125502   5.716   0.492   3.917
 8201SOL    HW225503   5.711   0.389   4.043
 8202SOL     OW25504   0.219   5.751   4.738
 8202SOL    HW125505   0.247   5.847   4.734
 8202SOL    HW225506   0.126   5.742   4.705
 8203SOL     OW25507   4.528   2.410   0.292
 8203SOL    HW125508   4.558   2.324   0.333
 8203SOL    HW225509   4.521   2.480   0.363
 8204SOL     OW25510   3.091   5.506   6.805
 8204SOL    HW125511   3.134   5.583   6.758
 8204SOL    HW225512   3.118   5.420   6.761
 8205SOL     OW25513   0.507   4.627   0.864
 8205SOL    HW125514   0.569   4.666   0.796
 8205SOL    HW225515   0.433   4.691   0.883
 8206SOL     OW25516   4.658   2.608   6.002
 8206SOL    HW125517   4.594   2.563   6.064
 8206SOL    HW225518   4.613   2.626   5.914
 8207SOL     OW25519   3.583   4.341   5.446
 8207SOL    HW125520   3.527   4.357   5.526
 8207SOL    HW225521   3.631   4.253   5.456
 8208SOL     OW25522   1.706   0.227   1.600
 8208SOL    HW125523   1.779   0.194   1.541
 8208SOL    HW225524   1.711   0.327   1.606
 8209SOL     OW25525   1.031   1.290   5.797
 8209SOL    HW125526   1.089   1.236   5.735
 8209SOL    HW225527   0.937   1.256   5.791
 8210SOL     OW25528   2.619   0.972   1.104
 8210SOL    HW125529   2.712   1.006   1.118
 8210SOL    HW225530   2.560   1.004   1.178
 8211SOL     OW25531   4.049   3.834   2.968
 8211SOL    HW125532   3.984   3.886   3.022
 8211SOL    HW225533   4.128   3.891   2.947
 8212SOL     OW25534   3.279   1.700   0.901
 8212SOL    HW125535   3.266   1.737   0.992
 8212SOL    HW225536   3.248   1.604   0.899
 8213SOL     OW25537   5.489   5.018   2.349
 8213SOL    HW125538   5.570   5.066   2.383
 8213SOL    HW225539   5.409   5.050   2.400
 8214SOL     OW25540   0.747   5.342   4.243
 8214SOL    HW125541   0.837   5.337   4.199
 8214SOL    HW225542   0.753   5.396   4.327
 8215SOL     OW25543   2.841   6.040   6.337
 8215SOL    HW125544   2.812   6.029   6.242
 8215SOL    HW225545   2.826   5.954   6.387
 8216SOL     OW25546   5.187   6.227   3.391
 8216SOL    HW125547   5.271   6.268   3.425
 8216SOL    HW225548   5.189   6.128   3.406
 8217SOL     OW25549   2.130   3.665   2.338
 8217SOL    HW125550   2.048   3.688   2.391
 8217SOL    HW225551   2.130   3.567   2.319
 8218SOL     OW25552   1.477   6.863   4.990
 8218SOL    HW125553   1.519   6.774   4.977
 8218SOL    HW225554   1.530   6.915   5.057
 8219SOL     OW25555   3.736   3.094   1.285
 8219SOL    HW125556   3.728   3.068   1.382
 8219SOL    HW225557   3.722   3.192   1.276
 8220SOL     OW25558   3.058   3.802   4.772
 8220SOL    HW125559   3.155   3.778   4.784
 8220SOL    HW225560   3.007   3.721   4.745
 8221SOL     OW25561   6.431   5.309   3.132
 8221SOL    HW125562   6.398   5.394   3.173
 8221SOL    HW225563   6.381   5.232   3.172
 8222SOL     OW25564   5.145   2.104   1.481
 8222SOL    HW125565   5.058   2.118   1.433
 8222SOL    HW225566   5.189   2.021   1.446
 8223SOL     OW25567   0.603   4.461   5.396
 8223SOL    HW125568   0.695   4.500   5.402
 8223SOL    HW225569   0.600   4.396   5.320
 8224SOL     OW25570   5.330   2.639   2.089
 8224SOL    HW125571   5.284   2.666   2.004
 8224SOL    HW225572   5.424   2.673   2.089
 8225SOL     OW25573   3.558   1.182   1.612
 8225SOL    HW125574   3.489   1.172   1.684
 8225SOL    HW225575   3.536   1.121   1.536
 8226SOL     OW25576   3.337   7.003   0.216
 8226SOL    HW125577   3.268   7.020   0.146
 8226SOL    HW225578   3.428   0.000   0.180
 8227SOL     OW25579   0.014   1.108   2.634
 8227SOL    HW125580   6.968   1.179   2.640
 8227SOL    HW225581   0.082   1.133   2.565
 8228SOL     OW25582   0.871   1.730   6.051
 8228SOL    HW125583   0.852   1.672   5.971
 8228SOL    HW225584   0.792   1.727   6.113
 8229SOL     OW25585   3.585   4.202   1.090
 8229SOL    HW125586   3.499   4.211   1.040
 8229SOL    HW225587   3.588   4.114   1.136
 8230SOL     OW25588   4.255   0.295   5.349
 8230SOL    HW125589   4.307   0.365   5.301
 8230SOL    HW225590   4.226   0.224   5.284
 8231SOL     OW25591   3.119   2.589   1.488
 8231SOL    HW125592   3.142   2.514   1.551
 8231SOL    HW225593   3.197   2.608   1.429
 8232SOL     OW25594   5.638   1.760   2.223
 8232SOL    HW125595   5.580   1.706   2.284
 8232SOL    HW225596   5.719   1.791   2.273
 8233SOL     OW25597   1.335   0.163   6.388
 8233SOL    HW125598   1.424   0.117   6.390
 8233SOL    HW225599   1.273   0.120   6.453
 8234SOL     OW25600   3.120   3.896   0.093
 8234SOL    HW125601   3.173   3.821   0.133
 8234SOL    HW225602   3.040   3.914   0.149
 8235SOL     OW25603   0.247   3.572   6.565
 8235SOL    HW125604   0.183   3.534   6.498
 8235SOL    HW225605   0.340   3.548   6.538
 8236SOL     OW25606   6.651   4.735   6.448
 8236SOL    HW125607   6.703   4.737   6.534
 8236SOL    HW225608   6.679   4.813   6.391
 8237SOL     OW25609   5.071   6.414   6.104
 8237SOL    HW125610   4.977   6.400   6.074
 8237SOL    HW225611   5.071   6.468   6.188
 8238SOL     OW25612   0.761   5.684   0.013
 8238SOL    HW125613   0.670   5.725   0.012
 8238SOL    HW225614   0.805   5.703   0.101
 8239SOL     OW25615   1.105   0.695   5.136
 8239SOL    HW125616   1.058   0.733   5.056
 8239SOL    HW225617   1.196   0.663   5.109
 8240SOL     OW25618   3.199   3.956   3.048
 8240SOL    HW125619   3.265   4.028   3.067
 8240SOL    HW225620   3.177   3.908   3.133
 8241SOL     OW25621   2.579   4.951   5.845
 8241SOL    HW125622   2.531   5.032   5.878
 8241SOL    HW225623   2.660   4.935   5.901
 8242SOL     OW25624   0.629   3.568   4.931
 8242SOL    HW125625   0.637   3.667   4.919
 8242SOL    HW225626   0.555   3.548   4.995
 8243SOL     OW25627   6.983   3.614   1.391
 8243SOL    HW125628   7.005   3.564   1.307
 8243SOL    HW225629   0.032   3.602   1.458
 8244SOL     OW25630   0.680   0.254   3.881
 8244SOL    HW125631   0.743   0.304   3.940
 8244SOL    HW225632   0.680   0.295   3.790
 8245SOL     OW25633   3.737   2.137   2.687
 8245SOL    HW125634   3.688   2.090   2.613
 8245SOL    HW225635   3.694   2.225   2.705
 8246SOL     OW25636   0.179   4.390   6.637
 8246SOL    HW125637   0.111   4.382   6.710
 8246SOL    HW225638   0.146   4.455   6.568
 8247SOL     OW25639   2.092   6.190   3.136
 8247SOL    HW125640   1.994   6.208   3.149
 8247SOL    HW225641   2.137   6.181   3.225
 8248SOL     OW25642   0.579   4.594   4.758
 8248SOL    HW125643   0.546   4.515   4.705
 8248SOL    HW225644   0.665   4.570   4.803
 8249SOL     OW25645   2.185   1.477   5.825
 8249SOL    HW125646   2.164   1.561   5.875
 8249SOL    HW225647   2.187   1.497   5.727
 8250SOL     OW25648   2.668   2.259   1.326
 8250SOL    HW125649   2.713   2.323   1.388
 8250SOL    HW225650   2.689   2.284   1.232
 8251SOL     OW25651   5.301   1.464   4.549
 8251SOL    HW125652   5.303   1.529   4.473
 8251SOL    HW225653   5.247   1.502   4.624
 8252SOL     OW25654   4.147   2.072   6.735
 8252SOL    HW125655   4.198   2.042   6.816
 8252SOL    HW225656   4.104   2.160   6.754
 8253SOL     OW25657   3.599   6.044   6.227
 8253SOL    HW125658   3.501   6.064   6.225
 8253SOL    HW225659   3.646   6.115   6.280
 8254SOL     OW25660   4.535   4.959   5.467
 8254SOL    HW125661   4.614   5.015   5.493
 8254SOL    HW225662   4.532   4.878   5.524
 8255SOL     OW25663   1.069   6.990   5.650
 8255SOL    HW125664   1.154   6.954   5.612
 8255SOL    HW225665   1.006   7.013   5.575
 8256SOL     OW25666   0.045   6.563   2.988
 8256SOL    HW125667   0.118   6.526   3.046
 8256SOL    HW225668   7.002   6.492   2.969
 8257SOL     OW25669   5.338   3.865   3.674
 8257SOL    HW125670   5.414   3.858   3.739
 8257SOL    HW225671   5.370   3.840   3.583
 8258SOL     OW25672   4.721   2.950   1.649
 8258SOL    HW125673   4.680   3.010   1.719
 8258SOL    HW225674   4.819   2.970   1.642
 8259SOL     OW25675   3.602   2.368   5.533
 8259SOL    HW125676   3.581   2.341   5.627
 8259SOL    HW225677   3.520   2.364   5.478
 8260SOL     OW25678   1.856   6.624   1.781
 8260SOL    HW125679   1.846   6.594   1.686
 8260SOL    HW225680   1.936   6.579   1.821
 8261SOL     OW25681   5.009   6.433   3.006
 8261SOL    HW125682   4.929   6.467   2.955
 8261SOL    HW225683   4.979   6.367   3.074
 8262SOL     OW25684   1.184   5.152   0.696
 8262SOL    HW125685   1.269   5.118   0.737
 8262SOL    HW225686   1.192   5.148   0.597
 8263SOL     OW25687   0.001   3.208   6.503
 8263SOL    HW125688   6.946   3.166   6.549
 8263SOL    HW225689   0.077   3.215   6.567
 8264SOL     OW25690   0.780   6.404   1.423
 8264SOL    HW125691   0.742   6.493   1.450
 8264SOL    HW225692   0.842   6.417   1.345
 8265SOL     OW25693   5.460   0.187   2.025
 8265SOL    HW125694   5.527   0.161   1.956
 8265SOL    HW225695   5.484   0.276   2.062
 8266SOL     OW25696   2.555   1.155   4.031
 8266SOL    HW125697   2.544   1.070   3.978
 8266SOL    HW225698   2.633   1.207   3.994
 8267SOL     OW25699   1.172   4.484   2.027
 8267SOL    HW125700   1.185   4.531   1.939
 8267SOL    HW225701   1.222   4.534   2.098
 8268SOL     OW25702   3.155   5.873   6.142
 8268SOL    HW125703   3.137   5.792   6.197
 8268SOL    HW225704   3.075   5.891   6.084
 8269SOL     OW25705   4.617   2.577   3.132
 8269SOL    HW125706   4.646   2.578   3.036
 8269SOL    HW225707   4.554   2.654   3.149
 8270SOL     OW25708   2.676   5.708   5.071
 8270SOL    HW125709   2.649   5.665   4.985
 8270SOL    HW225710   2.702   5.637   5.137
 8271SOL     OW25711   6.659   6.795   3.159
 8271SOL    HW125712   6.566   6.776   3.190
 8271SOL    HW225713   6.711   6.710   3.154
 8272SOL     OW25714   6.438   1.266   2.665
 8272SOL    HW125715   6.499   1.345   2.664
 8272SOL    HW225716   6.480   1.191   2.613
 8273SOL     OW25717   3.237   0.754   0.117
 8273SOL    HW125718   3.242   0.778   0.214
 8273SOL    HW225719   3.142   0.764   0.085
 8274SOL     OW25720   4.279   5.255   5.185
 8274SOL    HW125721   4.224   5.330   5.148
 8274SOL    HW225722   4.327   5.209   5.110
 8275SOL     OW25723   5.435   0.633   3.933
 8275SOL    HW125724   5.443   0.618   3.835
 8275SOL    HW225725   5.492   0.566   3.982
 8276SOL     OW25726   0.020   2.157   5.615
 8276SOL    HW125727   0.020   2.068   5.660
 8276SOL    HW225728   6.991   2.152   5.530
 8277SOL     OW25729   1.017   5.893   5.995
 8277SOL    HW125730   1.050   5.907   5.901
 8277SOL    HW225731   0.928   5.848   5.992
 8278SOL     OW25732   3.127   1.760   6.861
 8278SOL    HW125733   3.087   1.750   6.952
 8278SOL    HW225734   3.215   1.712   6.857
 8279SOL     OW25735   6.704   6.008   5.077
 8279SOL    HW125736   6.709   6.107   5.064
 8279SOL    HW225737   6.622   5.973   5.033
 8280SOL     OW25738   3.879   2.400   0.833
 8280SOL    HW125739   3.920   2.329   0.891
 8280SOL    HW225740   3.784   2.415   0.861
 8281SOL     OW25741   2.437   4.363   1.913
 8281SOL    HW125742   2.358   4.347   1.971
 8281SOL    HW225743   2.471   4.275   1.879
 8282SOL     OW25744   3.319   3.701   0.277
 8282SOL    HW125745   3.271   3.618   0.305
 8282SOL    HW225746   3.411   3.702   0.318
 8283SOL     OW25747   1.623   4.717   4.262
 8283SOL    HW125748   1.545   4.780   4.263
 8283SOL    HW225749   1.591   4.625   4.236
 8284SOL     OW25750   1.792   4.057   2.032
 8284SOL    HW125751   1.846   3.993   1.977
 8284SOL    HW225752   1.822   4.052   2.127
 8285SOL     OW25753   4.207   3.469   5.666
 8285SOL    HW125754   4.184   3.479   5.569
 8285SOL    HW225755   4.154   3.535   5.719
 8286SOL     OW25756   5.573   1.986   5.066
 8286SOL    HW125757   5.552   1.938   4.981
 8286SOL    HW225758   5.531   2.077   5.065
 8287SOL     OW25759   0.908   5.084   4.269
 8287SOL    HW125760   0.975   5.149   4.233
 8287SOL    HW225761   0.903   5.092   4.368
 8288SOL     OW25762   1.753   2.476   2.754
 8288SOL    HW125763   1.683   2.545   2.737
 8288SOL    HW225764   1.820   2.477   2.680
 8289SOL     OW25765   6.336   0.101   6.671
 8289SOL    HW125766   6.420   0.049   6.656
 8289SOL    HW225767   6.339   0.186   6.619
 8290SOL     OW25768   5.034   1.821   1.139
 8290SOL    HW125769   5.061   1.908   1.097
 8290SOL    HW225770   5.114   1.763   1.150
 8291SOL     OW25771   5.640   6.016   6.443
 8291SOL    HW125772   5.573   5.978   6.506
 8291SOL    HW225773   5.594   6.083   6.384
 8292SOL     OW25774   2.459   5.345   6.754
 8292SOL    HW125775   2.538   5.356   6.694
 8292SOL    HW225776   2.489   5.321   6.846
 8293SOL     OW25777   1.776   4.976   1.662
 8293SOL    HW125778   1.706   5.009   1.598
 8293SOL    HW225779   1.851   5.043   1.667
 8294SOL     OW25780   6.525   3.499   4.719
 8294SOL    HW125781   6.506   3.402   4.704
 8294SOL    HW225782   6.599   3.528   4.658
 8295SOL     OW25783   4.888   3.180   3.052
 8295SOL    HW125784   4.949   3.213   3.124
 8295SOL    HW225785   4.925   3.207   2.963
 8296SOL     OW25786   3.315   5.895   0.204
 8296SOL    HW125787   3.386   5.896   0.135
 8296SOL    HW225788   3.328   5.972   0.267
 8297SOL     OW25789   6.406   3.369   2.476
 8297SOL    HW125790   6.374   3.307   2.404
 8297SOL    HW225791   6.501   3.395   2.459
 8298SOL     OW25792   6.968   0.679   0.888
 8298SOL    HW125793   6.990   0.606   0.954
 8298SOL    HW225794   6.923   0.639   0.809
 8299SOL     OW25795   0.311   3.108   1.547
 8299SOL    HW125796   0.280   3.014   1.533
 8299SOL    HW225797   0.245   3.171   1.506
 8300SOL     OW25798   6.950   6.946   4.357
 8300SOL    HW125799   0.006   6.989   4.400
 8300SOL    HW225800   6.893   7.017   4.315
 8301SOL     OW25801   4.550   1.002   6.900
 8301SOL    HW125802   4.646   1.008   6.871
 8301SOL    HW225803   4.540   0.934   6.971
 8302SOL     OW25804   5.208   6.967   5.389
 8302SOL    HW125805   5.147   6.934   5.460
 8302SOL    HW225806   5.160   6.967   5.301
 8303SOL     OW25807   6.715   0.308   3.044
 8303SOL    HW125808   6.792   0.263   3.089
 8303SOL    HW225809   6.636   0.247   3.043
 8304SOL     OW25810   5.441   4.892   1.764
 8304SOL    HW125811   5.394   4.979   1.748
 8304SOL    HW225812   5.404   4.849   1.846
 8305SOL     OW25813   4.483   4.733   4.130
 8305SOL    HW125814   4.418   4.784   4.185
 8305SOL    HW225815   4.434   4.675   4.066
 8306SOL     OW25816   6.222   1.014   3.532
 8306SOL    HW125817   6.313   0.997   3.569
 8306SOL    HW225818   6.208   1.112   3.521
 8307SOL     OW25819   3.304   5.407   1.605
 8307SOL    HW125820   3.393   5.368   1.579
 8307SOL    HW225821   3.302   5.504   1.580
 8308SOL     OW25822   2.207   5.473   0.118
 8308SOL    HW125823   2.262   5.394   0.144
 8308SOL    HW225824   2.182   5.525   0.200
 8309SOL     OW25825   6.150   5.580   3.306
 8309SOL    HW125826   6.118   5.524   3.230
 8309SOL    HW225827   6.207   5.525   3.367
 8310SOL     OW25828   1.777   5.102   1.059
 8310SOL    HW125829   1.835   5.045   1.001
 8310SOL    HW225830   1.729   5.169   1.003
 8311SOL     OW25831   5.888   0.521   4.245
 8311SOL    HW125832   5.905   0.498   4.150
 8311SOL    HW225833   5.845   0.611   4.250
 8312SOL     OW25834   5.405   1.035   6.527
 8312SOL    HW125835   5.428   1.095   6.604
 8312SOL    HW225836   5.378   0.945   6.562
 8313SOL     OW25837   5.772   0.407   6.122
 8313SOL    HW125838   5.675   0.422   6.142
 8313SOL    HW225839   5.818   0.374   6.204
 8314SOL     OW25840   6.414   6.861   6.543
 8314SOL    HW125841   6.407   6.871   6.444
 8314SOL    HW225842   6.484   6.794   6.565
 8315SOL     OW25843   3.975   3.060   2.852
 8315SOL    HW125844   3.992   3.078   2.949
 8315SOL    HW225845   4.011   2.970   2.828
 8316SOL     OW25846   1.700   3.375   1.335
 8316SOL    HW125847   1.643   3.326   1.401
 8316SOL    HW225848   1.796   3.371   1.365
 8317SOL     OW25849   1.547   2.151   2.656
 8317SOL    HW125850   1.615   2.092   2.700
 8317SOL    HW225851   1.503   2.209   2.725
 8318SOL     OW25852   3.935   1.529   6.185
 8318SOL    HW125853   3.993   1.604   6.216
 8318SOL    HW225854   3.992   1.450   6.163
 8319SOL     OW25855   1.297   0.346   0.539
 8319SOL    HW125856   1.203   0.350   0.504
 8319SOL    HW225857   1.332   0.253   0.531
 8320SOL     OW25858   3.354   4.048   3.369
 8320SOL    HW125859   3.377   4.119   3.435
 8320SOL    HW225860   3.401   4.065   3.282
 8321SOL     OW25861   0.157   6.965   0.007
 8321SOL    HW125862   0.181   7.001   0.097
 8321SOL    HW225863   0.081   7.018   6.993
 8322SOL     OW25864   6.784   1.743   0.809
 8322SOL    HW125865   6.687   1.736   0.834
 8322SOL    HW225866   6.823   1.825   0.851
 8323SOL     OW25867   3.634   4.884   1.430
 8323SOL    HW125868   3.674   4.805   1.477
 8323SOL    HW225869   3.688   4.966   1.450
 8324SOL     OW25870   5.157   0.842   0.527
 8324SOL    HW125871   5.242   0.860   0.477
 8324SOL    HW225872   5.079   0.852   0.465
 8325SOL     OW25873   0.589   3.617   5.299
 8325SOL    HW125874   0.629   3.700   5.261
 8325SOL    HW225875   0.535   3.570   5.229
 8326SOL     OW25876   4.206   3.745   6.201
 8326SOL    HW125877   4.304   3.766   6.209
 8326SOL    HW225878   4.183   3.674   6.267
 8327SOL     OW25879   1.049   0.611   5.763
 8327SOL    HW125880   0.957   0.572   5.762
 8327SOL    HW225881   1.044   0.709   5.741
 8328SOL     OW25882   2.783   6.487   6.399
 8328SOL    HW125883   2.787   6.408   6.460
 8328SOL    HW225884   2.873   6.503   6.359
 8329SOL     OW25885   0.587   2.129   4.989
 8329SOL    HW125886   0.558   2.097   4.899
 8329SOL    HW225887   0.596   2.228   4.988
 8330SOL     OW25888   3.222   1.369   6.898
 8330SOL    HW125889   3.142   1.353   6.839
 8330SOL    HW225890   3.272   1.449   6.865
 8331SOL     OW25891   3.450   0.688   0.737
 8331SOL    HW125892   3.494   0.598   0.742
 8331SOL    HW225893   3.490   0.740   0.662
 8332SOL     OW25894   5.826   5.590   1.969
 8332SOL    HW125895   5.749   5.602   1.906
 8332SOL    HW225896   5.816   5.502   2.016
 8333SOL     OW25897   1.154   4.609   6.517
 8333SOL    HW125898   1.246   4.643   6.533
 8333SOL    HW225899   1.132   4.539   6.586
 8334SOL     OW25900   3.159   1.957   5.960
 8334SOL    HW125901   3.181   1.997   6.048
 8334SOL    HW225902   3.241   1.918   5.918
 8335SOL     OW25903   4.001   1.474   7.008
 8335SOL    HW125904   3.954   1.516   0.062
 8335SOL    HW225905   4.087   1.434   0.017
 8336SOL     OW25906   0.594   3.802   3.111
 8336SOL    HW125907   0.651   3.813   3.030
 8336SOL    HW225908   0.575   3.892   3.152
 8337SOL     OW25909   0.700   6.873   4.134
 8337SOL    HW125910   0.732   6.909   4.047
 8337SOL    HW225911   0.675   6.776   4.124
 8338SOL     OW25912   3.742   5.612   1.364
 8338SOL    HW125913   3.691   5.653   1.440
 8338SOL    HW225914   3.807   5.680   1.328
 8339SOL     OW25915   0.281   1.137   2.147
 8339SOL    HW125916   0.189   1.172   2.135
 8339SOL    HW225917   0.282   1.038   2.130
 8340SOL     OW25918   5.022   3.931   0.907
 8340SOL    HW125919   5.042   3.945   1.003
 8340SOL    HW225920   5.020   4.019   0.860
 8341SOL     OW25921   3.668   0.117   6.942
 8341SOL    HW125922   3.601   0.191   6.933
 8341SOL    HW225923   3.665   0.059   6.860
 8342SOL     OW25924   4.205   6.393   0.352
 8342SOL    HW125925   4.134   6.338   0.309
 8342SOL    HW225926   4.169   6.483   0.375
 8343SOL     OW25927   6.780   5.386   3.540
 8343SOL    HW125928   6.783   5.286   3.541
 8343SOL    HW225929   6.691   5.417   3.572
 8344SOL     OW25930   6.624   4.954   4.654
 8344SOL    HW125931   6.652   4.990   4.743
 8344SOL    HW225932   6.704   4.941   4.596
 8345SOL     OW25933   4.014   2.194   3.144
 8345SOL    HW125934   4.103   2.216   3.105
 8345SOL    HW225935   3.956   2.151   3.074
 8346SOL     OW25936   4.211   4.511   0.080
 8346SOL    HW125937   4.242   4.586   0.022
 8346SOL    HW225938   4.137   4.461   0.034
 8347SOL     OW25939   3.247   6.293   5.820
 8347SOL    HW125940   3.230   6.199   5.787
 8347SOL    HW225941   3.339   6.321   5.793
 8348SOL     OW25942   1.947   1.031   1.611
 8348SOL    HW125943   1.853   1.065   1.616
 8348SOL    HW225944   2.000   1.069   1.687
 8349SOL     OW25945   0.752   6.736   2.335
 8349SOL    HW125946   0.835   6.688   2.310
 8349SOL    HW225947   0.727   6.715   2.430
 8350SOL     OW25948   3.173   6.709   6.344
 8350SOL    HW125949   3.266   6.676   6.328
 8350SOL    HW225950   3.109   6.633   6.330
 8351SOL     OW25951   5.488   5.379   4.815
 8351SOL    HW125952   5.437   5.299   4.846
 8351SOL    HW225953   5.502   5.441   4.893
 8352SOL     OW25954   1.347   0.031   3.272
 8352SOL    HW125955   1.398   6.987   3.219
 8352SOL    HW225956   1.297   0.092   3.210
 8353SOL     OW25957   0.834   3.375   0.800
 8353SOL    HW125958   0.779   3.315   0.858
 8353SOL    HW225959   0.913   3.324   0.766
 8354SOL     OW25960   3.218   6.749   4.428
 8354SOL    HW125961   3.256   6.841   4.441
 8354SOL    HW225962   3.256   6.688   4.497
 8355SOL     OW25963   2.073   1.121   4.688
 8355SOL    HW125964   2.017   1.202   4.666
 8355SOL    HW225965   2.040   1.079   4.772
 8356SOL     OW25966   1.596   6.026   1.295
 8356SOL    HW125967   1.566   6.110   1.339
 8356SOL    HW225968   1.517   5.979   1.254
 8357SOL     OW25969   3.741   6.971   5.637
 8357SOL    HW125970   3.767   7.017   5.722
 8357SOL    HW225971   3.821   6.956   5.580
 8358SOL     OW25972   1.088   3.488   4.456
 8358SOL    HW125973   1.092   3.406   4.398
 8358SOL    HW225974   0.999   3.532   4.444
 8359SOL     OW25975   2.890   1.263   4.936
 8359SOL    HW125976   2.927   1.190   4.878
 8359SOL    HW225977   2.866   1.342   4.879
 8360SOL     OW25978   4.651   0.171   0.505
 8360SOL    HW125979   4.552   0.156   0.515
 8360SOL    HW225980   4.670   0.199   0.411
 8361SOL     OW25981   3.544   0.720   1.044
 8361SOL    HW125982   3.639   0.728   1.075
 8361SOL    HW225983   3.523   0.792   0.979
 8362SOL     OW25984   5.321   2.107   0.649
 8362SOL    HW125985   5.327   2.162   0.733
 8362SOL    HW225986   5.295   2.166   0.573
 8363SOL     OW25987   5.059   2.463   0.061
 8363SOL    HW125988   5.037   2.484   6.989
 8363SOL    HW225989   4.988   2.403   0.098
 8364SOL     OW25990   6.960   2.505   4.214
 8364SOL    HW125991   0.022   2.555   4.199
 8364SOL    HW225992   6.981   2.409   4.233
 8365SOL     OW25993   1.898   2.085   2.298
 8365SOL    HW125994   1.932   2.179   2.287
 8365SOL    HW225995   1.864   2.053   2.210
 8366SOL     OW25996   2.967   5.182   0.939
 8366SOL    HW125997   3.052   5.160   0.891
 8366SOL    HW225998   2.968   5.277   0.968
 8367SOL     OW25999   3.517   5.622   4.774
 8367SOL    HW126000   3.475   5.702   4.732
 8367SOL    HW226001   3.445   5.563   4.813
 8368SOL     OW26002   0.935   6.029   0.298
 8368SOL    HW126003   1.002   6.011   0.369
 8368SOL    HW226004   0.887   5.944   0.275
 8369SOL     OW26005   0.682   0.565   6.898
 8369SOL    HW126006   0.736   0.647   6.877
 8369SOL    HW226007   0.698   0.496   6.827
 8370SOL     OW26008   2.275   1.361   6.065
 8370SOL    HW126009   2.235   1.436   6.117
 8370SOL    HW226010   2.279   1.387   5.968
 8371SOL     OW26011   2.306   3.973   0.471
 8371SOL    HW126012   2.307   3.932   0.380
 8371SOL    HW226013   2.382   3.937   0.526
 8372SOL     OW26014   1.316   6.268   1.678
 8372SOL    HW126015   1.380   6.191   1.672
 8372SOL    HW226016   1.223   6.236   1.658
 8373SOL     OW26017   2.069   6.642   4.469
 8373SOL    HW126018   1.983   6.677   4.505
 8373SOL    HW226019   2.057   6.547   4.441
 8374SOL     OW26020   0.160   0.081   4.866
 8374SOL    HW126021   0.095   0.117   4.800
 8374SOL    HW226022   0.253   0.093   4.832
 8375SOL     OW26023   3.820   6.541   5.888
 8375SOL    HW126024   3.890   6.535   5.817
 8375SOL    HW226025   3.821   6.632   5.928
 8376SOL     OW26026   1.351   1.065   4.033
 8376SOL    HW126027   1.357   0.976   4.079
 8376SOL    HW226028   1.259   1.077   3.995
 8377SOL     OW26029   5.574   6.403   0.371
 8377SOL    HW126030   5.626   6.338   0.316
 8377SOL    HW226031   5.492   6.431   0.322
 8378SOL     OW26032   3.635   4.892   3.194
 8378SOL    HW126033   3.627   4.910   3.292
 8378SOL    HW226034   3.546   4.867   3.157
 8379SOL     OW26035   4.920   3.061   2.056
 8379SOL    HW126036   4.914   3.111   1.969
 8379SOL    HW226037   4.850   2.990   2.059
 8380SOL     OW26038   0.251   0.232   0.491
 8380SOL    HW126039   0.192   0.307   0.522
 8380SOL    HW226040   0.338   0.268   0.459
 8381SOL     OW26041   6.874   2.052   3.959
 8381SOL    HW126042   6.847   2.103   3.877
 8381SOL    HW226043   6.927   2.111   4.020
 8382SOL     OW26044   2.216   6.232   1.591
 8382SOL    HW126045   2.137   6.263   1.645
 8382SOL    HW226046   2.288   6.301   1.595
 8383SOL     OW26047   2.899   6.974   5.859
 8383SOL    HW126048   2.996   6.961   5.837
 8383SOL    HW226049   2.844   6.968   5.776
 8384SOL     OW26050   6.054   1.609   1.798
 8384SOL    HW126051   6.065   1.554   1.715
 8384SOL    HW226052   6.112   1.690   1.792
 8385SOL     OW26053   4.638   2.415   6.655
 8385SOL    HW126054   4.550   2.457   6.675
 8385SOL    HW226055   4.626   2.316   6.644
 8386SOL     OW26056   1.709   6.042   1.966
 8386SOL    HW126057   1.773   6.100   1.916
 8386SOL    HW226058   1.642   6.004   1.902
 8387SOL     OW26059   1.277   1.769   1.281
 8387SOL    HW126060   1.241   1.698   1.341
 8387SOL    HW226061   1.325   1.838   1.336
 8388SOL     OW26062   2.237   6.418   0.553
 8388SOL    HW126063   2.187   6.332   0.540
 8388SOL    HW226064   2.335   6.399   0.561
 8389SOL     OW26065   0.220   3.196   4.123
 8389SOL    HW126066   0.135   3.175   4.170
 8389SOL    HW226067   0.265   3.273   4.168
 8390SOL     OW26068   3.647   6.634   0.283
 8390SOL    HW126069   3.609   6.553   0.328
 8390SOL    HW226070   3.690   6.694   0.351
 8391SOL     OW26071   4.895   5.008   1.205
 8391SOL    HW126072   4.834   4.932   1.225
 8391SOL    HW226073   4.889   5.076   1.279
 8392SOL     OW26074   6.905   5.701   5.490
 8392SOL    HW126075   6.992   5.655   5.508
 8392SOL    HW226076   6.901   5.729   5.394
 8393SOL     OW26077   0.047   0.223   3.614
 8393SOL    HW126078   0.109   0.196   3.541
 8393SOL    HW226079   0.079   0.308   3.656
 8394SOL     OW26080   0.290   3.596   1.951
 8394SOL    HW126081   0.297   3.501   1.983
 8394SOL    HW226082   0.197   3.614   1.921
 8395SOL     OW26083   1.807   5.811   4.419
 8395SOL    HW126084   1.784   5.797   4.323
 8395SOL    HW226085   1.855   5.730   4.453
 8396SOL     OW26086   4.487   4.724   2.616
 8396SOL    HW126087   4.427   4.702   2.538
 8396SOL    HW226088   4.439   4.704   2.701
 8397SOL     OW26089   2.625   1.232   3.102
 8397SOL    HW126090   2.557   1.280   3.046
 8397SOL    HW226091   2.589   1.218   3.194
 8398SOL     OW26092   4.220   2.686   6.335
 8398SOL    HW126093   4.289   2.664   6.403
 8398SOL    HW226094   4.257   2.668   6.243
 8399SOL     OW26095   6.320   0.302   0.428
 8399SOL    HW126096   6.342   0.231   0.361
 8399SOL    HW226097   6.228   0.336   0.411
 8400SOL     OW26098   1.467   0.473   4.040
 8400SOL    HW126099   1.439   0.381   4.066
 8400SOL    HW226100   1.463   0.533   4.120
 8401SOL     OW26101   2.979   1.914   6.303
 8401SOL    HW126102   2.896   1.965   6.279
 8401SOL    HW226103   3.029   1.891   6.219
 8402SOL     OW26104   3.873   2.106   5.788
 8402SOL    HW126105   3.916   2.042   5.851
 8402SOL    HW226106   3.876   2.069   5.695
 8403SOL     OW26107   0.923   1.985   3.276
 8403SOL    HW126108   0.976   1.947   3.352
 8403SOL    HW226109   0.912   1.916   3.205
 8404SOL     OW26110   4.424   6.239   6.195
 8404SOL    HW126111   4.491   6.251   6.121
 8404SOL    HW226112   4.361   6.165   6.171
 8405SOL     OW26113   2.424   0.914   5.666
 8405SOL    HW126114   2.455   0.943   5.756
 8405SOL    HW226115   2.390   0.993   5.615
 8406SOL     OW26116   5.123   7.023   0.827
 8406SOL    HW126117   5.142   6.994   0.733
 8406SOL    HW226118   5.198   6.996   0.886
 8407SOL     OW26119   4.614   6.312   4.208
 8407SOL    HW126120   4.562   6.276   4.285
 8407SOL    HW226121   4.708   6.276   4.211
 8408SOL     OW26122   4.777   2.958   2.450
 8408SOL    HW126123   4.836   3.027   2.407
 8408SOL    HW226124   4.827   2.910   2.521
 8409SOL     OW26125   6.124   3.216   3.606
 8409SOL    HW126126   6.221   3.233   3.589
 8409SOL    HW226127   6.114   3.155   3.685
 8410SOL     OW26128   5.136   6.857   1.703
 8410SOL    HW126129   5.038   6.870   1.698
 8410SOL    HW226130   5.183   6.933   1.658
 8411SOL     OW26131   0.660   5.421   0.051
 8411SOL    HW126132   0.674   5.516   0.024
 8411SOL    HW226133   0.563   5.405   0.070
 8412SOL     OW26134   3.570   2.003   1.942
 8412SOL    HW126135   3.579   1.960   1.852
 8412SOL    HW226136   3.602   2.098   1.937
 8413SOL     OW26137   3.951   5.678   0.076
 8413SOL    HW126138   3.900   5.652   0.157
 8413SOL    HW226139   3.916   5.627   7.020
 8414SOL     OW26140   4.317   5.570   2.983
 8414SOL    HW126141   4.315   5.669   2.974
 8414SOL    HW226142   4.340   5.529   2.894
 8415SOL     OW26143   6.692   5.627   3.361
 8415SOL    HW126144   6.778   5.577   3.351
 8415SOL    HW226145   6.711   5.726   3.361
 8416SOL     OW26146   5.583   3.707   2.540
 8416SOL    HW126147   5.528   3.664   2.468
 8416SOL    HW226148   5.540   3.690   2.629
 8417SOL     OW26149   1.202   5.305   6.177
 8417SOL    HW126150   1.271   5.232   6.178
 8417SOL    HW226151   1.184   5.333   6.271
 8418SOL     OW26152   5.800   5.202   1.307
 8418SOL    HW126153   5.891   5.242   1.317
 8418SOL    HW226154   5.763   5.179   1.397
 8419SOL     OW26155   5.109   1.043   2.663
 8419SOL    HW126156   5.151   1.110   2.602
 8419SOL    HW226157   5.103   0.955   2.617
 8420SOL     OW26158   4.168   7.012   0.445
 8420SOL    HW126159   4.227   6.981   0.370
 8420SOL    HW226160   4.113   0.066   0.415
 8421SOL     OW26161   3.248   6.093   0.402
 8421SOL    HW126162   3.174   6.160   0.400
 8421SOL    HW226163   3.210   6.002   0.417
 8422SOL     OW26164   4.480   0.888   1.047
 8422SOL    HW126165   4.455   0.962   1.110
 8422SOL    HW226166   4.422   0.809   1.064
 8423SOL     OW26167   3.750   4.730   5.884
 8423SOL    HW126168   3.774   4.827   5.889
 8423SOL    HW226169   3.727   4.696   5.975
 8424SOL     OW26170   2.287   2.557   2.792
 8424SOL    HW126171   2.303   2.654   2.779
 8424SOL    HW226172   2.247   2.518   2.709
 8425SOL     OW26173   5.491   5.382   0.312
 8425SOL    HW126174   5.442   5.468   0.324
 8425SOL    HW226175   5.577   5.399   0.263
 8426SOL     OW26176   3.245   3.410   3.994
 8426SOL    HW126177   3.146   3.405   3.978
 8426SOL    HW226178   3.280   3.495   3.954
 8427SOL     OW26179   2.711   3.376   5.245
 8427SOL    HW126180   2.718   3.277   5.257
 8427SOL    HW226181   2.768   3.405   5.168
 8428SOL     OW26182   0.233   4.192   1.685
 8428SOL    HW126183   0.328   4.217   1.704
 8428SOL    HW226184   0.188   4.267   1.635
 8429SOL     OW26185   2.373   4.429   3.755
 8429SOL    HW126186   2.303   4.500   3.746
 8429SOL    HW226187   2.429   4.448   3.835
 8430SOL     OW26188   3.421   5.165   4.410
 8430SOL    HW126189   3.328   5.198   4.395
 8430SOL    HW226190   3.455   5.199   4.497
 8431SOL     OW26191   2.995   5.310   0.660
 8431SOL    HW126192   2.969   5.388   0.716
 8431SOL    HW226193   2.947   5.315   0.572
 8432SOL     OW26194   5.712   6.895   6.184
 8432SOL    HW126195   5.616   6.870   6.173
 8432SOL    HW226196   5.770   6.820   6.153
 8433SOL     OW26197   5.756   1.741   0.591
 8433SOL    HW126198   5.819   1.678   0.637
 8433SOL    HW226199   5.673   1.693   0.565
 8434SOL     OW26200   3.717   6.963   5.049
 8434SOL    HW126201   3.650   6.889   5.042
 8434SOL    HW226202   3.759   6.962   5.140
 8435SOL     OW26203   5.539   0.810   1.023
 8435SOL    HW126204   5.489   0.896   1.025
 8435SOL    HW226205   5.592   0.800   1.107
 8436SOL     OW26206   3.421   0.183   4.295
 8436SOL    HW126207   3.417   0.141   4.205
 8436SOL    HW226208   3.358   0.261   4.299
 8437SOL     OW26209   2.026   6.936   3.858
 8437SOL    HW126210   2.096   6.960   3.791
 8437SOL    HW226211   1.949   7.000   3.851
 8438SOL     OW26212   2.481   4.859   1.878
 8438SOL    HW126213   2.529   4.935   1.922
 8438SOL    HW226214   2.517   4.772   1.913
 8439SOL     OW26215   6.245   5.319   2.402
 8439SOL    HW126216   6.327   5.377   2.398
 8439SOL    HW226217   6.272   5.224   2.416
 8440SOL     OW26218   1.097   1.866   3.494
 8440SOL    HW126219   1.115   1.897   3.587
 8440SOL    HW226220   1.143   1.779   3.478
 8441SOL     OW26221   5.995   0.074   0.181
 8441SOL    HW126222   6.088   0.041   0.163
 8441SOL    HW226223   5.998   0.172   0.199
 8442SOL     OW26224   3.311   2.316   5.626
 8442SOL    HW126225   3.312   2.309   5.526
 8442SOL    HW226226   3.247   2.387   5.654
 8443SOL     OW26227   1.561   5.900   3.754
 8443SOL    HW126228   1.504   5.919   3.674
 8443SOL    HW226229   1.504   5.860   3.826
 8444SOL     OW26230   3.406   5.987   3.840
 8444SOL    HW126231   3.376   6.081   3.825
 8444SOL    HW226232   3.330   5.924   3.820
 8445SOL     OW26233   3.501   5.942   1.214
 8445SOL    HW126234   3.601   5.953   1.209
 8445SOL    HW226235   3.479   5.846   1.231
 8446SOL     OW26236   4.818   5.067   6.672
 8446SOL    HW126237   4.804   4.984   6.725
 8446SOL    HW226238   4.735   5.123   6.673
 8447SOL     OW26239   5.256   2.368   1.990
 8447SOL    HW126240   5.157   2.379   1.989
 8447SOL    HW226241   5.299   2.452   2.024
 8448SOL     OW26242   4.986   5.668   4.044
 8448SOL    HW126243   4.921   5.732   4.004
 8448SOL    HW226244   5.079   5.703   4.032
 8449SOL     OW26245   6.699   2.753   4.012
 8449SOL    HW126246   6.602   2.752   4.035
 8449SOL    HW226247   6.710   2.730   3.915
 8450SOL     OW26248   1.128   5.678   1.515
 8450SOL    HW126249   1.073   5.754   1.479
 8450SOL    HW226250   1.078   5.635   1.590
 8451SOL     OW26251   4.507   2.618   0.465
 8451SOL    HW126252   4.430   2.682   0.458
 8451SOL    HW226253   4.588   2.667   0.499
 8452SOL     OW26254   6.642   0.830   3.090
 8452SOL    HW126255   6.549   0.823   3.055
 8452SOL    HW226256   6.649   0.781   3.177
 8453SOL     OW26257   0.233   4.220   6.247
 8453SOL    HW126258   0.202   4.315   6.240
 8453SOL    HW226259   0.196   4.167   6.170
 8454SOL     OW26260   0.285   6.616   0.977
 8454SOL    HW126261   0.327   6.663   0.899
 8454SOL    HW226262   0.252   6.526   0.947
 8455SOL     OW26263   5.666   2.387   1.919
 8455SOL    HW126264   5.648   2.476   1.877
 8455SOL    HW226265   5.601   2.320   1.884
 8456SOL     OW26266   4.886   5.891   2.838
 8456SOL    HW126267   4.978   5.853   2.831
 8456SOL    HW226268   4.892   5.990   2.848
 8457SOL     OW26269   6.965   6.752   4.701
 8457SOL    HW126270   6.936   6.847   4.718
 8457SOL    HW226271   6.907   6.713   4.628
 8458SOL     OW26272   2.658   1.480   6.423
 8458SOL    HW126273   2.584   1.413   6.431
 8458SOL    HW226274   2.648   1.531   6.337
 8459SOL     OW26275   2.996   6.647   2.235
 8459SOL    HW126276   2.965   6.727   2.184
 8459SOL    HW226277   2.939   6.568   2.212
 8460SOL     OW26278   4.846   3.285   5.688
 8460SOL    HW126279   4.922   3.248   5.635
 8460SOL    HW226280   4.864   3.274   5.786
 8461SOL     OW26281   0.305   3.930   3.399
 8461SOL    HW126282   0.295   4.021   3.440
 8461SOL    HW226283   0.322   3.863   3.471
 8462SOL     OW26284   3.739   2.298   6.862
 8462SOL    HW126285   3.812   2.246   6.905
 8462SOL    HW226286   3.688   2.348   6.932
 8463SOL     OW26287   6.242   6.957   0.225
 8463SOL    HW126288   6.315   7.022   0.204
 8463SOL    HW226289   6.266   6.906   0.308
 8464SOL     OW26290   5.518   3.554   5.807
 8464SOL    HW126291   5.454   3.579   5.880
 8464SOL    HW226292   5.510   3.619   5.733
 8465SOL     OW26293   1.691   3.074   1.026
 8465SOL    HW126294   1.729   2.998   0.973
 8465SOL    HW226295   1.695   3.052   1.123
 8466SOL     OW26296   0.709   6.877   5.390
 8466SOL    HW126297   0.609   6.878   5.390
 8466SOL    HW226298   0.741   6.784   5.412
 8467SOL     OW26299   4.224   0.373   1.357
 8467SOL    HW126300   4.182   0.429   1.285
 8467SOL    HW226301   4.160   0.361   1.432
 8468SOL     OW26302   4.465   2.439   0.018
 8468SOL    HW126303   4.549   2.475   7.002
 8468SOL    HW226304   4.477   2.424   0.116
 8469SOL     OW26305   3.829   1.638   5.384
 8469SOL    HW126306   3.745   1.652   5.332
 8469SOL    HW226307   3.814   1.666   5.479
 8470SOL     OW26308   0.858   4.773   0.256
 8470SOL    HW126309   0.776   4.819   0.220
 8470SOL    HW226310   0.914   4.741   0.179
 8471SOL     OW26311   3.907   0.450   4.181
 8471SOL    HW126312   3.881   0.354   4.178
 8471SOL    HW226313   3.989   0.465   4.127
 8472SOL     OW26314   6.853   0.779   5.364
 8472SOL    HW126315   6.894   0.868   5.383
 8472SOL    HW226316   6.767   0.770   5.414
 8473SOL     OW26317   6.532   6.296   0.861
 8473SOL    HW126318   6.505   6.213   0.812
 8473SOL    HW226319   6.587   6.271   0.940
 8474SOL     OW26320   3.584   3.302   2.737
 8474SOL    HW126321   3.671   3.303   2.785
 8474SOL    HW226322   3.599   3.321   2.640
 8475SOL     OW26323   6.929   1.906   3.612
 8475SOL    HW126324   6.914   1.879   3.517
 8475SOL    HW226325   6.962   1.828   3.664
 8476SOL     OW26326   6.598   2.048   1.110
 8476SOL    HW126327   6.566   1.962   1.150
 8476SOL    HW226328   6.526   2.086   1.051
 8477SOL     OW26329   4.931   6.946   2.384
 8477SOL    HW126330   5.025   6.963   2.357
 8477SOL    HW226331   4.880   6.910   2.305
 8478SOL     OW26332   1.504   0.422   6.401
 8478SOL    HW126333   1.446   0.340   6.407
 8478SOL    HW226334   1.466   0.493   6.460
 8479SOL     OW26335   0.354   2.447   1.337
 8479SOL    HW126336   0.325   2.430   1.431
 8479SOL    HW226337   0.324   2.538   1.308
 8480SOL     OW26338   4.891   2.851   6.634
 8480SOL    HW126339   4.829   2.894   6.568
 8480SOL    HW226340   4.870   2.754   6.642
 8481SOL     OW26341   4.528   2.642   5.025
 8481SOL    HW126342   4.489   2.732   5.045
 8481SOL    HW226343   4.462   2.571   5.051
 8482SOL     OW26344   4.547   5.967   2.523
 8482SOL    HW126345   4.520   5.946   2.429
 8482SOL    HW226346   4.506   5.900   2.585
 8483SOL     OW26347   3.803   6.638   1.773
 8483SOL    HW126348   3.885   6.649   1.829
 8483SOL    HW226349   3.745   6.567   1.813
 8484SOL     OW26350   6.906   6.336   3.391
 8484SOL    HW126351   6.875   6.242   3.377
 8484SOL    HW226352   6.831   6.389   3.431
 8485SOL     OW26353   3.201   2.600   0.114
 8485SOL    HW126354   3.295   2.581   0.140
 8485SOL    HW226355   3.166   2.676   0.168
 8486SOL     OW26356   2.521   1.390   2.322
 8486SOL    HW126357   2.437   1.437   2.294
 8486SOL    HW226358   2.588   1.458   2.354
 8487SOL     OW26359   6.220   1.308   5.481
 8487SOL    HW126360   6.258   1.257   5.558
 8487SOL    HW226361   6.174   1.245   5.418
 8488SOL     OW26362   5.056   6.364   0.613
 8488SOL    HW126363   5.081   6.267   0.620
 8488SOL    HW226364   5.012   6.381   0.525
 8489SOL     OW26365   5.911   2.056   1.646
 8489SOL    HW126366   5.855   2.098   1.718
 8489SOL    HW226367   6.001   2.099   1.644
 8490SOL     OW26368   4.304   0.019   4.168
 8490SOL    HW126369   4.216   6.995   4.168
 8490SOL    HW226370   4.296   0.103   4.115
 8491SOL     OW26371   2.761   5.723   1.536
 8491SOL    HW126372   2.743   5.632   1.498
 8491SOL    HW226373   2.684   5.783   1.515
 8492SOL     OW26374   5.098   3.984   5.010
 8492SOL    HW126375   5.131   4.075   4.981
 8492SOL    HW226376   5.176   3.923   5.020
 8493SOL     OW26377   2.418   2.775   6.377
 8493SOL    HW126378   2.372   2.688   6.358
 8493SOL    HW226379   2.389   2.843   6.311
 8494SOL     OW26380   3.883   5.517   1.618
 8494SOL    HW126381   3.803   5.521   1.558
 8494SOL    HW226382   3.903   5.609   1.653
 8495SOL     OW26383   6.394   5.170   2.106
 8495SOL    HW126384   6.365   5.242   2.169
 8495SOL    HW226385   6.326   5.096   2.106
 8496SOL     OW26386   1.119   2.037   2.190
 8496SOL    HW126387   1.020   2.028   2.203
 8496SOL    HW226388   1.161   1.946   2.191
 8497SOL     OW26389   0.057   0.839   3.994
 8497SOL    HW126390   6.994   0.880   3.965
 8497SOL    HW226391   0.083   0.768   3.928
 8498SOL     OW26392   6.121   6.118   3.335
 8498SOL    HW126393   6.179   6.162   3.265
 8498SOL    HW226394   6.138   6.020   3.335
 8499SOL     OW26395   1.738   4.500   6.643
 8499SOL    HW126396   1.694   4.537   6.724
 8499SOL    HW226397   1.779   4.574   6.590
 8500SOL     OW26398   1.535   6.629   5.705
 8500SOL    HW126399   1.631   6.637   5.679
 8500SOL    HW226400   1.508   6.532   5.705
 8501SOL     OW26401   0.294   2.435   6.894
 8501SOL    HW126402   0.373   2.427   6.955
 8501SOL    HW226403   0.320   2.486   6.812
 8502SOL     OW26404   0.486   3.651   1.411
 8502SOL    HW126405   0.524   3.740   1.435
 8502SOL    HW226406   0.521   3.623   1.321
 8503SOL     OW26407   0.719   6.282   4.149
 8503SOL    HW126408   0.644   6.275   4.084
 8503SOL    HW226409   0.690   6.243   4.237
 8504SOL     OW26410   2.361   4.784   2.789
 8504SOL    HW126411   2.284   4.837   2.754
 8504SOL    HW226412   2.352   4.689   2.759
 8505SOL     OW26413   5.521   3.285   3.403
 8505SOL    HW126414   5.525   3.185   3.414
 8505SOL    HW226415   5.433   3.319   3.436
 8506SOL     OW26416   0.974   0.731   6.945
 8506SOL    HW126417   1.031   0.733   0.004
 8506SOL    HW226418   1.009   0.661   6.883
 8507SOL     OW26419   3.703   0.703   4.823
 8507SOL    HW126420   3.676   0.667   4.912
 8507SOL    HW226421   3.691   0.802   4.822
 8508SOL     OW26422   5.185   1.882   4.864
 8508SOL    HW126423   5.121   1.893   4.788
 8508SOL    HW226424   5.134   1.877   4.950
 8509SOL     OW26425   4.654   1.171   4.222
 8509SOL    HW126426   4.613   1.157   4.312
 8509SOL    HW226427   4.634   1.093   4.163
 8510SOL     OW26428   5.612   4.205   2.704
 8510SOL    HW126429   5.547   4.281   2.698
 8510SOL    HW226430   5.595   4.141   2.630
 8511SOL     OW26431   5.894   4.369   2.214
 8511SOL    HW126432   5.885   4.321   2.126
 8511SOL    HW226433   5.857   4.311   2.287
 8512SOL     OW26434   2.898   1.712   1.805
 8512SOL    HW126435   2.846   1.696   1.722
 8512SOL    HW226436   2.977   1.650   1.808
 8513SOL     OW26437   6.334   5.086   0.904
 8513SOL    HW126438   6.347   5.185   0.915
 8513SOL    HW226439   6.377   5.039   0.981
 8514SOL     OW26440   2.587   2.299   4.085
 8514SOL    HW126441   2.638   2.371   4.038
 8514SOL    HW226442   2.618   2.209   4.053
 8515SOL     OW26443   4.812   2.147   1.109
 8515SOL    HW126444   4.737   2.091   1.074
 8515SOL    HW226445   4.833   2.120   1.203
 8516SOL     OW26446   6.031   2.187   1.979
 8516SOL    HW126447   6.121   2.144   1.971
 8516SOL    HW226448   6.013   2.208   2.075
 8517SOL     OW26449   0.668   2.506   6.664
 8517SOL    HW126450   0.743   2.450   6.699
 8517SOL    HW226451   0.705   2.587   6.618
 8518SOL     OW26452   4.346   4.681   6.947
 8518SOL    HW126453   4.434   4.644   6.976
 8518SOL    HW226454   4.329   4.656   6.851
 8519SOL     OW26455   1.659   4.891   1.941
 8519SOL    HW126456   1.673   4.855   1.849
 8519SOL    HW226457   1.699   4.983   1.947
 8520SOL     OW26458   3.285   2.313   0.305
 8520SOL    HW126459   3.204   2.332   0.249
 8520SOL    HW226460   3.359   2.376   0.280
 8521SOL     OW26461   1.687   4.589   5.967
 8521SOL    HW126462   1.673   4.607   5.870
 8521SOL    HW226463   1.775   4.628   5.996
 8522SOL     OW26464   1.414   5.659   1.434
 8522SOL    HW126465   1.424   5.574   1.485
 8522SOL    HW226466   1.330   5.705   1.462
 8523SOL     OW26467   3.366   6.824   6.702
 8523SOL    HW126468   3.303   6.893   6.666
 8523SOL    HW226469   3.393   6.849   6.795
 8524SOL     OW26470   0.962   2.233   4.628
 8524SOL    HW126471   0.869   2.254   4.598
 8524SOL    HW226472   0.985   2.288   4.708
 8525SOL     OW26473   6.020   4.222   3.043
 8525SOL    HW126474   5.965   4.141   3.068
 8525SOL    HW226475   6.113   4.194   3.022
 8526SOL     OW26476   3.597   4.951   6.851
 8526SOL    HW126477   3.560   5.043   6.860
 8526SOL    HW226478   3.597   4.906   6.941
 8527SOL     OW26479   3.118   0.750   5.527
 8527SOL    HW126480   3.137   0.718   5.435
 8527SOL    HW226481   3.019   0.755   5.541
 8528SOL     OW26482   4.909   2.718   5.979
 8528SOL    HW126483   4.896   2.776   5.899
 8528SOL    HW226484   4.820   2.681   6.008
 8529SOL     OW26485   0.545   0.026   1.122
 8529SOL    HW126486   0.592   0.104   1.164
 8529SOL    HW226487   0.446   0.044   1.121
 8530SOL     OW26488   2.385   3.751   5.318
 8530SOL    HW126489   2.472   3.709   5.345
 8530SOL    HW226490   2.402   3.828   5.257
 8531SOL     OW26491   6.774   4.348   1.668
 8531SOL    HW126492   6.833   4.425   1.642
 8531SOL    HW226493   6.823   4.262   1.653
 8532SOL     OW26494   4.044   4.839   4.723
 8532SOL    HW126495   3.967   4.775   4.716
 8532SOL    HW226496   4.063   4.878   4.633
 8533SOL     OW26497   1.868   0.223   6.129
 8533SOL    HW126498   1.798   0.235   6.059
 8533SOL    HW226499   1.955   0.261   6.095
 8534SOL     OW26500   6.507   3.352   4.387
 8534SOL    HW126501   6.476   3.447   4.377
 8534SOL    HW226502   6.495   3.323   4.481
 8535SOL     OW26503   0.529   2.036   4.738
 8535SOL    HW126504   0.544   2.087   4.654
 8535SOL    HW226505   0.437   1.996   4.737
 8536SOL     OW26506   5.891   2.471   4.960
 8536SOL    HW126507   5.844   2.406   5.018
 8536SOL    HW226508   5.989   2.472   4.984
 8537SOL     OW26509   5.510   1.418   2.752
 8537SOL    HW126510   5.530   1.384   2.660
 8537SOL    HW226511   5.426   1.376   2.786
 8538SOL     OW26512   1.214   1.469   5.757
 8538SOL    HW126513   1.286   1.482   5.825
 8538SOL    HW226514   1.147   1.404   5.792
 8539SOL     OW26515   6.568   1.382   1.902
 8539SOL    HW126516   6.535   1.457   1.845
 8539SOL    HW226517   6.639   1.331   1.853
 8540SOL     OW26518   4.438   1.715   0.144
 8540SOL    HW126519   4.477   1.630   0.108
 8540SOL    HW226520   4.415   1.702   0.241
 8541SOL     OW26521   3.211   2.218   4.298
 8541SOL    HW126522   3.198   2.121   4.278
 8541SOL    HW226523   3.146   2.272   4.245
 8542SOL     OW26524   2.364   4.545   6.095
 8542SOL    HW126525   2.414   4.550   6.181
 8542SOL    HW226526   2.423   4.507   6.024
 8543SOL     OW26527   3.156   1.108   0.082
 8543SOL    HW126528   3.130   1.205   0.080
 8543SOL    HW226529   3.184   1.083   0.174
 8544SOL     OW26530   5.695   2.929   4.534
 8544SOL    HW126531   5.753   2.858   4.494
 8544SOL    HW226532   5.747   3.014   4.540
 8545SOL     OW26533   4.961   0.041   4.359
 8545SOL    HW126534   4.900   7.006   4.306
 8545SOL    HW226535   5.003   0.109   4.299
 8546SOL     OW26536   0.861   6.990   2.923
 8546SOL    HW126537   0.880   6.940   2.838
 8546SOL    HW226538   0.790   0.035   2.906
 8547SOL     OW26539   0.898   6.978   6.606
 8547SOL    HW126540   0.876   0.051   6.624
 8547SOL    HW226541   0.922   6.933   6.691
 8548SOL     OW26542   6.845   2.807   5.950
 8548SOL    HW126543   6.874   2.847   5.864
 8548SOL    HW226544   6.918   2.815   6.018
 8549SOL     OW26545   1.015   2.923   4.406
 8549SOL    HW126546   1.073   2.977   4.466
 8549SOL    HW226547   0.919   2.942   4.427
 8550SOL     OW26548   1.276   5.249   0.351
 8550SOL    HW126549   1.373   5.244   0.375
 8550SOL    HW226550   1.266   5.265   0.253
 8551SOL     OW26551   2.746   2.724   0.116
 8551SOL    HW126552   2.699   2.805   0.081
 8551SOL    HW226553   2.812   2.692   0.048
 8552SOL     OW26554   2.059   0.625   2.935
 8552SOL    HW126555   2.118   0.683   2.991
 8552SOL    HW226556   2.069   0.530   2.964
 8553SOL     OW26557   4.348   4.563   6.690
 8553SOL    HW126558   4.343   4.641   6.628
 8553SOL    HW226559   4.274   4.498   6.669
 8554SOL     OW26560   0.277   5.385   0.623
 8554SOL    HW126561   0.340   5.392   0.546
 8554SOL    HW226562   0.311   5.438   0.700
 8555SOL     OW26563   3.086   0.965   3.455
 8555SOL    HW126564   3.087   0.998   3.360
 8555SOL    HW226565   3.177   0.929   3.478
 8556SOL     OW26566   2.173   6.700   5.329
 8556SOL    HW126567   2.102   6.649   5.377
 8556SOL    HW226568   2.259   6.648   5.332
 8557SOL     OW26569   6.608   6.585   2.667
 8557SOL    HW126570   6.687   6.587   2.607
 8557SOL    HW226571   6.560   6.672   2.662
 8558SOL     OW26572   2.492   5.362   2.861
 8558SOL    HW126573   2.518   5.271   2.892
 8558SOL    HW226574   2.485   5.424   2.940
 8559SOL     OW26575   1.983   0.292   2.267
 8559SOL    HW126576   1.969   0.391   2.264
 8559SOL    HW226577   2.025   0.268   2.355
 8560SOL     OW26578   1.010   6.185   1.850
 8560SOL    HW126579   1.001   6.285   1.849
 8560SOL    HW226580   1.033   6.152   1.759
 8561SOL     OW26581   3.250   0.296   3.128
 8561SOL    HW126582   3.260   0.211   3.076
 8561SOL    HW226583   3.160   0.335   3.112
 8562SOL     OW26584   4.311   6.459   6.289
 8562SOL    HW126585   4.364   6.480   6.371
 8562SOL    HW226586   4.334   6.367   6.257
 8563SOL     OW26587   0.671   5.051   1.139
 8563SOL    HW126588   0.748   5.017   1.193
 8563SOL    HW226589   0.693   5.140   1.100
 8564SOL     OW26590   3.098   0.378   5.114
 8564SOL    HW126591   3.013   0.429   5.100
 8564SOL    HW226592   3.100   0.343   5.208
 8565SOL     OW26593   3.561   4.971   0.963
 8565SOL    HW126594   3.478   4.989   1.018
 8565SOL    HW226595   3.625   4.916   1.017
 8566SOL     OW26596   0.463   6.374   1.623
 8566SOL    HW126597   0.377   6.412   1.657
 8566SOL    HW226598   0.530   6.447   1.613
 8567SOL     OW26599   6.761   1.707   2.517
 8567SOL    HW126600   6.708   1.739   2.438
 8567SOL    HW226601   6.752   1.608   2.526
 8568SOL     OW26602   5.333   1.446   6.811
 8568SOL    HW126603   5.334   1.388   6.893
 8568SOL    HW226604   5.417   1.430   6.759
 8569SOL     OW26605   4.491   1.550   5.639
 8569SOL    HW126606   4.531   1.559   5.548
 8569SOL    HW226607   4.556   1.503   5.700
 8570SOL     OW26608   1.594   1.307   4.437
 8570SOL    HW126609   1.636   1.308   4.527
 8570SOL    HW226610   1.588   1.400   4.402
 8571SOL     OW26611   0.416   5.924   5.705
 8571SOL    HW126612   0.370   5.910   5.617
 8571SOL    HW226613   0.440   6.021   5.714
 8572SOL     OW26614   2.489   4.333   5.985
 8572SOL    HW126615   2.561   4.358   6.049
 8572SOL    HW226616   2.487   4.233   5.973
 8573SOL     OW26617   3.106   6.054   6.397
 8573SOL    HW126618   3.120   5.964   6.356
 8573SOL    HW226619   3.014   6.087   6.376
 8574SOL     OW26620   6.605   0.054   6.345
 8574SOL    HW126621   6.540   0.125   6.372
 8574SOL    HW226622   6.648   0.016   6.427
 8575SOL     OW26623   2.343   1.844   3.259
 8575SOL    HW126624   2.304   1.928   3.295
 8575SOL    HW226625   2.421   1.817   3.316
 8576SOL     OW26626   1.438   4.166   4.749
 8576SOL    HW126627   1.387   4.198   4.829
 8576SOL    HW226628   1.513   4.107   4.779
 8577SOL     OW26629   1.749   6.478   5.576
 8577SOL    HW126630   1.756   6.378   5.572
 8577SOL    HW226631   1.683   6.509   5.508
 8578SOL     OW26632   6.421   5.822   4.640
 8578SOL    HW126633   6.406   5.738   4.693
 8578SOL    HW226634   6.339   5.879   4.645
 8579SOL     OW26635   1.852   6.880   1.901
 8579SOL    HW126636   1.836   6.787   1.867
 8579SOL    HW226637   1.915   6.877   1.979
 8580SOL     OW26638   1.843   6.283   0.998
 8580SOL    HW126639   1.858   6.322   0.907
 8580SOL    HW226640   1.754   6.312   1.032
 8581SOL     OW26641   3.188   3.940   1.666
 8581SOL    HW126642   3.281   3.904   1.657
 8581SOL    HW226643   3.134   3.916   1.586
 8582SOL     OW26644   4.811   4.293   4.924
 8582SOL    HW126645   4.744   4.368   4.928
 8582SOL    HW226646   4.893   4.319   4.975
 8583SOL     OW26647   4.825   0.276   4.478
 8583SOL    HW126648   4.838   0.373   4.455
 8583SOL    HW226649   4.878   0.220   4.414
 8584SOL     OW26650   0.362   5.873   6.556
 8584SOL    HW126651   0.293   5.845   6.489
 8584SOL    HW226652   0.346   5.969   6.582
 8585SOL     OW26653   6.463   1.149   6.916
 8585SOL    HW126654   6.554   1.112   6.936
 8585SOL    HW226655   6.463   1.247   6.934
 8586SOL     OW26656   3.160   6.617   1.963
 8586SOL    HW126657   3.118   6.615   2.053
 8586SOL    HW226658   3.260   6.612   1.972
 8587SOL     OW26659   0.868   0.613   4.682
 8587SOL    HW126660   0.799   0.547   4.712
 8587SOL    HW226661   0.887   0.601   4.585
 8588SOL     OW26662   4.001   1.015   0.274
 8588SOL    HW126663   3.971   1.107   0.300
 8588SOL    HW226664   4.013   1.010   0.175
 8589SOL     OW26665   5.560   2.898   5.712
 8589SOL    HW126666   5.480   2.859   5.757
 8589SOL    HW226667   5.622   2.825   5.685
 8590SOL     OW26668   0.276   0.381   3.051
 8590SOL    HW126669   0.327   0.420   2.975
 8590SOL    HW226670   0.249   0.453   3.115
 8591SOL     OW26671   0.402   4.133   0.454
 8591SOL    HW126672   0.325   4.089   0.501
 8591SOL    HW226673   0.488   4.094   0.486
 8592SOL     OW26674   5.652   2.131   6.672
 8592SOL    HW126675   5.611   2.109   6.760
 8592SOL    HW226676   5.586   2.180   6.615
 8593SOL     OW26677   2.720   1.245   0.146
 8593SOL    HW126678   2.789   1.182   0.113
 8593SOL    HW226679   2.689   1.218   0.237
 8594SOL     OW26680   4.734   2.696   5.232
 8594SOL    HW126681   4.708   2.661   5.142
 8594SOL    HW226682   4.652   2.722   5.283
 8595SOL     OW26683   0.672   0.815   3.864
 8595SOL    HW126684   0.573   0.816   3.853
 8595SOL    HW226685   0.715   0.873   3.795
 8596SOL     OW26686   1.219   4.575   2.770
 8596SOL    HW126687   1.318   4.587   2.771
 8596SOL    HW226688   1.182   4.598   2.860
 8597SOL     OW26689   4.702   1.956   1.444
 8597SOL    HW126690   4.667   1.950   1.537
 8597SOL    HW226691   4.647   1.898   1.384
 8598SOL     OW26692   6.095   0.344   0.236
 8598SOL    HW126693   6.030   0.416   0.263
 8598SOL    HW226694   6.128   0.362   0.144
 8599SOL     OW26695   1.570   2.569   4.436
 8599SOL    HW126696   1.555   2.498   4.505
 8599SOL    HW226697   1.605   2.527   4.353
 8600SOL     OW26698   5.288   4.200   6.653
 8600SOL    HW126699   5.354   4.129   6.630
 8600SOL    HW226700   5.206   4.189   6.597
 8601SOL     OW26701   1.205   1.357   4.350
 8601SOL    HW126702   1.224   1.434   4.289
 8601SOL    HW226703   1.107   1.337   4.349
 8602SOL     OW26704   2.650   6.032   2.364
 8602SOL    HW126705   2.689   5.965   2.427
 8602SOL    HW226706   2.564   6.067   2.401
 8603SOL     OW26707   5.216   5.859   1.061
 8603SOL    HW126708   5.156   5.899   0.991
 8603SOL    HW226709   5.164   5.844   1.145
 8604SOL     OW26710   0.502   2.398   5.019
 8604SOL    HW126711   0.434   2.443   4.962
 8604SOL    HW226712   0.575   2.463   5.043
 8605SOL     OW26713   2.579   5.445   4.068
 8605SOL    HW126714   2.627   5.364   4.102
 8605SOL    HW226715   2.480   5.430   4.072
 8606SOL     OW26716   1.806   3.414   6.313
 8606SOL    HW126717   1.841   3.494   6.361
 8606SOL    HW226718   1.882   3.363   6.273
 8607SOL     OW26719   3.084   4.967   6.173
 8607SOL    HW126720   3.105   4.936   6.080
 8607SOL    HW226721   3.137   5.050   6.193
 8608SOL     OW26722   2.907   4.767   2.509
 8608SOL    HW126723   2.900   4.750   2.411
 8608SOL    HW226724   2.846   4.706   2.558
 8609SOL     OW26725   5.220   0.549   2.811
 8609SOL    HW126726   5.209   0.477   2.742
 8609SOL    HW226727   5.311   0.590   2.803
 8610SOL     OW26728   0.938   1.925   2.928
 8610SOL    HW126729   0.982   1.886   2.848
 8610SOL    HW226730   0.860   1.981   2.900
 8611SOL     OW26731   3.039   1.945   4.935
 8611SOL    HW126732   3.091   1.985   5.011
 8611SOL    HW226733   3.065   1.989   4.850
 8612SOL     OW26734   2.473   3.261   0.750
 8612SOL    HW126735   2.493   3.174   0.705
 8612SOL    HW226736   2.440   3.245   0.843
 8613SOL     OW26737   2.941   1.436   1.584
 8613SOL    HW126738   2.926   1.530   1.555
 8613SOL    HW226739   3.032   1.406   1.554
 8614SOL     OW26740   1.075   2.896   3.767
 8614SOL    HW126741   1.050   2.811   3.720
 8614SOL    HW226742   1.121   2.874   3.853
 8615SOL     OW26743   4.641   2.083   5.272
 8615SOL    HW126744   4.709   2.155   5.285
 8615SOL    HW226745   4.670   2.023   5.197
 8616SOL     OW26746   3.058   4.585   1.665
 8616SOL    HW126747   3.119   4.659   1.694
 8616SOL    HW226748   2.992   4.566   1.738
 8617SOL     OW26749   6.091   1.097   5.304
 8617SOL    HW126750   6.100   1.057   5.213
 8617SOL    HW226751   5.996   1.091   5.334
 8618SOL     OW26752   6.061   4.978   1.141
 8618SOL    HW126753   5.993   4.922   1.187
 8618SOL    HW226754   6.148   4.928   1.135
 8619SOL     OW26755   4.146   5.008   2.114
 8619SOL    HW126756   4.139   4.909   2.098
 8619SOL    HW226757   4.172   5.025   2.209
 8620SOL     OW26758   1.660   6.720   3.572
 8620SOL    HW126759   1.751   6.729   3.611
 8620SOL    HW226760   1.627   6.810   3.544
 8621SOL     OW26761   5.711   1.802   2.539
 8621SOL    HW126762   5.767   1.879   2.508
 8621SOL    HW226763   5.623   1.803   2.491
 8622SOL     OW26764   5.189   3.073   1.133
 8622SOL    HW126765   5.220   3.073   1.228
 8622SOL    HW226766   5.096   3.035   1.129
 8623SOL     OW26767   1.143   3.851   4.569
 8623SOL    HW126768   1.210   3.779   4.586
 8623SOL    HW226769   1.189   3.939   4.561
 8624SOL     OW26770   1.858   3.687   4.625
 8624SOL    HW126771   1.916   3.653   4.699
 8624SOL    HW226772   1.899   3.666   4.537
 8625SOL     OW26773   4.384   1.014   6.058
 8625SOL    HW126774   4.349   1.096   6.014
 8625SOL    HW226775   4.311   0.946   6.065
 8626SOL     OW26776   3.599   2.675   6.451
 8626SOL    HW126777   3.565   2.592   6.407
 8626SOL    HW226778   3.693   2.660   6.481
 8627SOL     OW26779   0.941   1.378   3.043
 8627SOL    HW126780   0.864   1.315   3.053
 8627SOL    HW226781   1.027   1.327   3.049
 8628SOL     OW26782   6.451   6.798   0.403
 8628SOL    HW126783   6.401   6.727   0.451
 8628SOL    HW226784   6.437   6.788   0.304
 8629SOL     OW26785   2.071   6.116   4.981
 8629SOL    HW126786   2.120   6.128   5.067
 8629SOL    HW226787   2.106   6.035   4.934
 8630SOL     OW26788   5.762   4.280   4.254
 8630SOL    HW126789   5.739   4.182   4.250
 8630SOL    HW226790   5.861   4.291   4.243
 8631SOL     OW26791   0.410   5.555   6.780
 8631SOL    HW126792   0.478   5.596   6.720
 8631SOL    HW226793   0.414   5.455   6.771
 8632SOL     OW26794   4.340   5.161   4.892
 8632SOL    HW126795   4.310   5.086   4.834
 8632SOL    HW226796   4.432   5.189   4.865
 8633SOL     OW26797   5.414   1.895   5.709
 8633SOL    HW126798   5.326   1.933   5.737
 8633SOL    HW226799   5.441   1.824   5.773
 8634SOL     OW26800   4.940   3.972   0.136
 8634SOL    HW126801   4.869   3.947   0.071
 8634SOL    HW226802   5.011   4.025   0.089
 8635SOL     OW26803   4.925   3.209   6.383
 8635SOL    HW126804   4.960   3.201   6.477
 8635SOL    HW226805   4.967   3.288   6.338
 8636SOL     OW26806   5.758   5.890   0.749
 8636SOL    HW126807   5.769   5.956   0.823
 8636SOL    HW226808   5.824   5.910   0.676
 8637SOL     OW26809   2.963   0.701   0.054
 8637SOL    HW126810   2.910   0.761   0.113
 8637SOL    HW226811   2.908   0.675   6.998
 8638SOL     OW26812   3.326   2.051   5.117
 8638SOL    HW126813   3.286   1.972   5.163
 8638SOL    HW226814   3.254   2.107   5.077
 8639SOL     OW26815   5.428   2.511   0.034
 8639SOL    HW126816   5.374   2.463   0.102
 8639SOL    HW226817   5.380   2.595   0.006
 8640SOL     OW26818   4.255   3.749   0.275
 8640SOL    HW126819   4.175   3.805   0.297
 8640SOL    HW226820   4.309   3.795   0.205
 8641SOL     OW26821   4.697   4.555   4.001
 8641SOL    HW126822   4.732   4.635   4.050
 8641SOL    HW226823   4.598   4.562   3.993
 8642SOL     OW26824   0.935   6.081   4.078
 8642SOL    HW126825   0.943   6.178   4.053
 8642SOL    HW226826   0.975   6.025   4.006
 8643SOL     OW26827   2.858   0.726   6.191
 8643SOL    HW126828   2.870   0.735   6.290
 8643SOL    HW226829   2.820   0.636   6.170
 8644SOL     OW26830   5.451   2.459   5.234
 8644SOL    HW126831   5.511   2.506   5.299
 8644SOL    HW226832   5.430   2.367   5.268
 8645SOL     OW26833   4.165   4.642   1.048
 8645SOL    HW126834   4.088   4.584   1.074
 8645SOL    HW226835   4.228   4.591   0.990
 8646SOL     OW26836   0.345   2.116   0.445
 8646SOL    HW126837   0.382   2.046   0.505
 8646SOL    HW226838   0.270   2.078   0.390
 8647SOL     OW26839   2.201   4.978   6.763
 8647SOL    HW126840   2.208   4.962   6.861
 8647SOL    HW226841   2.231   4.897   6.713
 8648SOL     OW26842   6.793   0.189   2.667
 8648SOL    HW126843   6.849   0.269   2.648
 8648SOL    HW226844   6.697   0.217   2.678
 8649SOL     OW26845   5.445   5.609   6.679
 8649SOL    HW126846   5.353   5.631   6.710
 8649SOL    HW226847   5.487   5.544   6.743
 8650SOL     OW26848   2.115   5.068   4.386
 8650SOL    HW126849   2.136   5.034   4.294
 8650SOL    HW226850   2.115   5.168   4.385
 8651SOL     OW26851   4.339   1.446   0.748
 8651SOL    HW126852   4.306   1.463   0.841
 8651SOL    HW226853   4.271   1.477   0.682
 8652SOL     OW26854   1.751   5.108   3.213
 8652SOL    HW126855   1.748   5.194   3.264
 8652SOL    HW226856   1.838   5.102   3.163
 8653SOL     OW26857   6.497   1.065   6.182
 8653SOL    HW126858   6.424   1.129   6.203
 8653SOL    HW226859   6.580   1.093   6.230
 8654SOL     OW26860   0.570   4.855   2.211
 8654SOL    HW126861   0.563   4.789   2.286
 8654SOL    HW226862   0.603   4.810   2.129
 8655SOL     OW26863   5.940   0.215   3.787
 8655SOL    HW126864   5.988   0.154   3.723
 8655SOL    HW226865   6.000   0.233   3.866
 8656SOL     OW26866   6.550   0.173   1.664
 8656SOL    HW126867   6.538   0.270   1.684
 8656SOL    HW226868   6.500   0.119   1.732
 8657SOL     OW26869   4.865   5.520   6.906
 8657SOL    HW126870   4.917   5.556   6.829
 8657SOL    HW226871   4.878   5.579   6.986
 8658SOL     OW26872   6.306   6.727   0.081
 8658SOL    HW126873   6.235   6.658   0.099
 8658SOL    HW226874   6.263   6.816   0.066
 8659SOL     OW26875   4.762   2.290   2.140
 8659SOL    HW126876   4.668   2.313   2.113
 8659SOL    HW226877   4.825   2.322   2.069
 8660SOL     OW26878   6.823   3.510   1.701
 8660SOL    HW126879   6.749   3.577   1.700
 8660SOL    HW226880   6.885   3.527   1.623
 8661SOL     OW26881   6.857   3.762   1.147
 8661SOL    HW126882   6.908   3.676   1.150
 8661SOL    HW226883   6.813   3.779   1.235
 8662SOL     OW26884   4.211   5.981   1.312
 8662SOL    HW126885   4.180   5.983   1.217
 8662SOL    HW226886   4.216   6.074   1.348
 8663SOL     OW26887   2.752   5.433   2.388
 8663SOL    HW126888   2.744   5.531   2.369
 8663SOL    HW226889   2.752   5.418   2.487
 8664SOL     OW26890   1.370   6.211   1.198
 8664SOL    HW126891   1.338   6.122   1.168
 8664SOL    HW226892   1.469   6.218   1.183
 8665SOL     OW26893   5.879   5.703   5.293
 8665SOL    HW126894   5.832   5.725   5.207
 8665SOL    HW226895   5.843   5.616   5.328
 8666SOL     OW26896   5.300   0.876   3.639
 8666SOL    HW126897   5.255   0.927   3.565
 8666SOL    HW226898   5.310   0.780   3.612
 8667SOL     OW26899   3.843   1.716   3.650
 8667SOL    HW126900   3.895   1.677   3.726
 8667SOL    HW226901   3.774   1.650   3.619
 8668SOL     OW26902   5.291   3.442   3.462
 8668SOL    HW126903   5.271   3.537   3.439
 8668SOL    HW226904   5.211   3.401   3.506
 8669SOL     OW26905   0.921   6.340   6.432
 8669SOL    HW126906   1.019   6.324   6.427
 8669SOL    HW226907   0.902   6.410   6.502
 8670SOL     OW26908   4.278   5.143   5.912
 8670SOL    HW126909   4.272   5.241   5.893
 8670SOL    HW226910   4.251   5.092   5.831
 8671SOL     OW26911   5.191   1.530   3.341
 8671SOL    HW126912   5.267   1.472   3.370
 8671SOL    HW226913   5.208   1.566   3.250
 8672SOL     OW26914   1.294   4.969   3.808
 8672SOL    HW126915   1.287   4.937   3.902
 8672SOL    HW226916   1.387   4.953   3.774
 8673SOL     OW26917   5.285   2.367   6.622
 8673SOL    HW126918   5.257   2.451   6.576
 8673SOL    HW226919   5.340   2.390   6.702
 8674SOL     OW26920   4.979   5.939   2.348
 8674SOL    HW126921   5.027   5.947   2.435
 8674SOL    HW226922   4.915   5.862   2.352
 8675SOL     OW26923   4.444   1.747   4.998
 8675SOL    HW126924   4.420   1.814   4.927
 8675SOL    HW226925   4.361   1.707   5.035
 8676SOL     OW26926   5.563   6.695   3.422
 8676SOL    HW126927   5.649   6.662   3.461
 8676SOL    HW226928   5.562   6.795   3.423
 8677SOL     OW26929   2.206   5.406   6.440
 8677SOL    HW126930   2.214   5.334   6.370
 8677SOL    HW226931   2.220   5.365   6.530
 8678SOL     OW26932   0.310   0.482   1.426
 8678SOL    HW126933   0.368   0.563   1.438
 8678SOL    HW226934   0.226   0.509   1.379
 8679SOL     OW26935   0.951   1.469   3.391
 8679SOL    HW126936   0.997   1.469   3.302
 8679SOL    HW226937   1.014   1.504   3.461
 8680SOL     OW26938   6.555   3.210   6.833
 8680SOL    HW126939   6.553   3.267   6.915
 8680SOL    HW226940   6.483   3.141   6.839
 8681SOL     OW26941   4.661   5.511   1.276
 8681SOL    HW126942   4.708   5.597   1.295
 8681SOL    HW226943   4.695   5.440   1.338
 8682SOL     OW26944   5.561   6.894   2.652
 8682SOL    HW126945   5.501   6.861   2.579
 8682SOL    HW226946   5.596   6.984   2.627
 8683SOL     OW26947   1.691   2.498   4.875
 8683SOL    HW126948   1.781   2.534   4.850
 8683SOL    HW226949   1.699   2.403   4.902
 8684SOL     OW26950   6.009   2.743   5.018
 8684SOL    HW126951   5.953   2.764   4.938
 8684SOL    HW226952   5.948   2.727   5.097
 8685SOL     OW26953   6.372   2.059   6.355
 8685SOL    HW126954   6.432   1.994   6.401
 8685SOL    HW226955   6.357   2.139   6.414
 8686SOL     OW26956   0.010   1.103   2.966
 8686SOL    HW126957   7.007   1.095   2.870
 8686SOL    HW226958   6.969   1.052   3.023
 8687SOL     OW26959   4.671   5.185   2.306
 8687SOL    HW126960   4.600   5.207   2.240
 8687SOL    HW226961   4.737   5.260   2.312
 8688SOL     OW26962   0.619   5.060   6.068
 8688SOL    HW126963   0.586   5.142   6.114
 8688SOL    HW226964   0.562   4.982   6.094
 8689SOL     OW26965   3.847   2.958   1.068
 8689SOL    HW126966   3.787   2.976   1.147
 8689SOL    HW226967   3.856   3.042   1.015
 8690SOL     OW26968   1.448   4.065   3.783
 8690SOL    HW126969   1.547   4.078   3.784
 8690SOL    HW226970   1.423   4.006   3.707
 8691SOL     OW26971   3.962   2.376   6.429
 8691SOL    HW126972   3.874   2.349   6.467
 8691SOL    HW226973   3.958   2.470   6.398
 8692SOL     OW26974   3.071   1.314   4.512
 8692SOL    HW126975   3.013   1.393   4.490
 8692SOL    HW226976   3.064   1.247   4.438
 8693SOL     OW26977   5.532   0.232   0.427
 8693SOL    HW126978   5.624   0.245   0.463
 8693SOL    HW226979   5.532   0.159   0.360
 8694SOL     OW26980   5.519   1.471   4.730
 8694SOL    HW126981   5.441   1.484   4.670
 8694SOL    HW226982   5.496   1.405   4.801
 8695SOL     OW26983   4.880   3.244   5.940
 8695SOL    HW126984   4.807   3.177   5.950
 8695SOL    HW226985   4.965   3.207   5.979
 8696SOL     OW26986   2.393   5.174   5.330
 8696SOL    HW126987   2.307   5.220   5.306
 8696SOL    HW226988   2.385   5.076   5.311
 8697SOL     OW26989   0.485   4.113   6.342
 8697SOL    HW126990   0.419   4.148   6.275
 8697SOL    HW226991   0.457   4.142   6.434
 8698SOL     OW26992   4.937   6.067   5.283
 8698SOL    HW126993   4.994   6.005   5.229
 8698SOL    HW226994   4.965   6.161   5.265
 8699SOL     OW26995   1.209   3.475   4.823
 8699SOL    HW126996   1.133   3.506   4.879
 8699SOL    HW226997   1.277   3.428   4.881
 8700SOL     OW26998   0.993   0.308   4.748
 8700SOL    HW126999   0.927   0.377   4.779
 8700SOL    HW227000   1.071   0.306   4.810
 8701SOL     OW27001   1.432   0.966   6.933
 8701SOL    HW127002   1.362   0.982   7.002
 8701SOL    HW227003   1.488   1.048   6.922
 8702SOL     OW27004   5.433   5.006   2.076
 8702SOL    HW127005   5.448   5.006   2.175
 8702SOL    HW227006   5.448   4.913   2.040
 8703SOL     OW27007   3.095   5.129   6.948
 8703SOL    HW127008   3.005   5.153   6.985
 8703SOL    HW227009   3.132   5.051   6.997
 8704SOL     OW27010   0.814   4.099   3.479
 8704SOL    HW127011   0.840   4.189   3.515
 8704SOL    HW227012   0.725   4.073   3.515
 8705SOL     OW27013   4.932   1.137   6.313
 8705SOL    HW127014   5.010   1.137   6.250
 8705SOL    HW227015   4.859   1.194   6.275
 8706SOL     OW27016   4.899   2.232   6.785
 8706SOL    HW127017   4.847   2.306   6.744
 8706SOL    HW227018   4.996   2.254   6.783
 8707SOL     OW27019   0.650   1.795   5.636
 8707SOL    HW127020   0.616   1.702   5.624
 8707SOL    HW227021   0.746   1.799   5.609
 8708SOL     OW27022   3.994   1.299   3.253
 8708SOL    HW127023   3.984   1.200   3.242
 8708SOL    HW227024   3.922   1.346   3.202
 8709SOL     OW27025   6.497   6.708   6.863
 8709SOL    HW127026   6.404   6.731   6.835
 8709SOL    HW227027   6.515   6.612   6.845
 8710SOL     OW27028   1.622   2.972   3.469
 8710SOL    HW127029   1.634   3.068   3.446
 8710SOL    HW227030   1.562   2.963   3.548
 8711SOL     OW27031   1.602   6.513   2.438
 8711SOL    HW127032   1.544   6.559   2.506
 8711SOL    HW227033   1.631   6.579   2.369
 8712SOL     OW27034   3.632   1.677   4.385
 8712SOL    HW127035   3.624   1.612   4.311
 8712SOL    HW227036   3.618   1.631   4.473
 8713SOL     OW27037   6.509   3.166   3.008
 8713SOL    HW127038   6.575   3.218   2.954
 8713SOL    HW227039   6.503   3.204   3.100
 8714SOL     OW27040   0.905   6.935   5.839
 8714SOL    HW127041   0.980   6.924   5.773
 8714SOL    HW227042   0.822   6.960   5.790
 8715SOL     OW27043   4.060   0.719   1.001
 8715SOL    HW127044   4.088   0.701   0.907
 8715SOL    HW227045   4.090   0.811   1.028
 8716SOL     OW27046   6.996   0.369   0.860
 8716SOL    HW127047   0.015   0.403   0.777
 8716SOL    HW227048   6.898   0.355   0.844
 8717SOL     OW27049   2.925   4.106   5.216
 8717SOL    HW127050   2.951   4.202   5.220
 8717SOL    HW227051   2.928   4.074   5.122
 8718SOL     OW27052   1.268   2.992   5.557
 8718SOL    HW127053   1.326   3.045   5.495
 8718SOL    HW227054   1.316   2.979   5.644
 8719SOL     OW27055   4.072   0.192   0.296
 8719SOL    HW127056   4.057   0.206   0.198
 8719SOL    HW227057   4.164   0.225   0.320
 8720SOL     OW27058   0.699   6.044   6.283
 8720SOL    HW127059   0.672   6.028   6.188
 8720SOL    HW227060   0.799   6.049   6.288
 8721SOL     OW27061   6.270   2.600   1.878
 8721SOL    HW127062   6.342   2.533   1.865
 8721SOL    HW227063   6.229   2.589   1.969
 8722SOL     OW27064   3.517   1.585   1.302
 8722SOL    HW127065   3.544   1.635   1.220
 8722SOL    HW227066   3.595   1.530   1.334
 8723SOL     OW27067   4.697   6.637   1.971
 8723SOL    HW127068   4.715   6.713   1.908
 8723SOL    HW227069   4.686   6.552   1.920
 8724SOL     OW27070   5.796   6.715   4.474
 8724SOL    HW127071   5.720   6.663   4.513
 8724SOL    HW227072   5.762   6.773   4.400
 8725SOL     OW27073   2.079   5.708   5.462
 8725SOL    HW127074   2.122   5.759   5.537
 8725SOL    HW227075   2.133   5.719   5.379
 8726SOL     OW27076   0.242   0.703   3.478
 8726SOL    HW127077   0.209   0.675   3.388
 8726SOL    HW227078   0.254   0.802   3.479
 8727SOL     OW27079   5.882   0.406   2.396
 8727SOL    HW127080   5.973   0.443   2.375
 8727SOL    HW227081   5.883   0.368   2.489
 8728SOL     OW27082   6.396   0.708   2.315
 8728SOL    HW127083   6.456   0.768   2.262
 8728SOL    HW227084   6.447   0.670   2.392
 8729SOL     OW27085   3.158   5.186   5.684
 8729SOL    HW127086   3.060   5.183   5.707
 8729SOL    HW227087   3.193   5.093   5.676
 8730SOL     OW27088   5.227   4.007   2.511
 8730SOL    HW127089   5.211   3.943   2.436
 8730SOL    HW227090   5.168   3.982   2.588
 8731SOL     OW27091   0.628   3.041   2.944
 8731SOL    HW127092   0.540   3.084   2.962
 8731SOL    HW227093   0.696   3.077   3.009
 8732SOL     OW27094   5.733   4.936   1.891
 8732SOL    HW127095   5.790   5.010   1.854
 8732SOL    HW227096   5.644   4.973   1.918
 8733SOL     OW27097   1.827   6.008   1.182
 8733SOL    HW127098   1.893   6.040   1.249
 8733SOL    HW227099   1.735   6.011   1.221
 8734SOL     OW27100   0.836   3.371   2.772
 8734SOL    HW127101   0.932   3.393   2.785
 8734SOL    HW227102   0.816   3.362   2.674
 8735SOL     OW27103   1.036   2.966   6.877
 8735SOL    HW127104   1.071   3.001   6.790
 8735SOL    HW227105   1.070   3.023   6.951
 8736SOL     OW27106   0.362   5.548   1.491
 8736SOL    HW127107   0.321   5.476   1.547
 8736SOL    HW227108   0.371   5.517   1.397
 8737SOL     OW27109   1.851   6.647   0.385
 8737SOL    HW127110   1.810   6.685   0.302
 8737SOL    HW227111   1.817   6.554   0.400
 8738SOL     OW27112   2.780   5.630   4.149
 8738SOL    HW127113   2.722   5.693   4.202
 8738SOL    HW227114   2.722   5.566   4.099
 8739SOL     OW27115   5.287   5.635   6.192
 8739SOL    HW127116   5.300   5.543   6.230
 8739SOL    HW227117   5.372   5.664   6.147
 8740SOL     OW27118   3.997   1.467   4.459
 8740SOL    HW127119   3.984   1.563   4.433
 8740SOL    HW227120   4.087   1.436   4.431
 8741SOL     OW27121   2.156   1.423   2.395
 8741SOL    HW127122   2.111   1.494   2.342
 8741SOL    HW227123   2.150   1.445   2.493
 8742SOL     OW27124   4.886   6.913   1.597
 8742SOL    HW127125   4.906   6.837   1.536
 8742SOL    HW227126   4.899   6.999   1.549
 8743SOL     OW27127   1.312   0.033   1.728
 8743SOL    HW127128   1.267   7.019   1.809
 8743SOL    HW227129   1.269   7.019   1.646
 8744SOL     OW27130   4.180   2.825   0.390
 8744SOL    HW127131   4.255   2.838   0.455
 8744SOL    HW227132   4.185   2.733   0.351
 8745SOL     OW27133   6.304   1.527   6.283
 8745SOL    HW127134   6.209   1.558   6.289
 8745SOL    HW227135   6.342   1.518   6.374
 8746SOL     OW27136   4.354   5.479   4.460
 8746SOL    HW127137   4.384   5.555   4.518
 8746SOL    HW227138   4.265   5.501   4.419
 8747SOL     OW27139   6.643   1.724   3.193
 8747SOL    HW127140   6.622   1.814   3.232
 8747SOL    HW227141   6.596   1.715   3.105
 8748SOL     OW27142   0.264   1.643   4.337
 8748SOL    HW127143   0.346   1.689   4.302
 8748SOL    HW227144   0.285   1.546   4.352
 8749SOL     OW27145   2.414   0.336   5.108
 8749SOL    HW127146   2.336   0.275   5.098
 8749SOL    HW227147   2.417   0.372   5.201
 8750SOL     OW27148   3.260   4.157   5.230
 8750SOL    HW127149   3.211   4.244   5.236
 8750SOL    HW227150   3.204   4.084   5.267
 8751SOL     OW27151   6.104   1.844   2.074
 8751SOL    HW127152   6.144   1.859   2.165
 8751SOL    HW227153   6.007   1.871   2.076
 8752SOL     OW27154   3.400   3.077   6.299
 8752SOL    HW127155   3.360   3.094   6.389
 8752SOL    HW227156   3.375   3.151   6.237
 8753SOL     OW27157   3.053   1.671   6.414
 8753SOL    HW127158   3.012   1.751   6.369
 8753SOL    HW227159   3.153   1.677   6.409
 8754SOL     OW27160   1.269   3.910   5.389
 8754SOL    HW127161   1.350   3.947   5.435
 8754SOL    HW227162   1.244   3.822   5.430
 8755SOL     OW27163   2.187   1.106   1.384
 8755SOL    HW127164   2.154   1.031   1.327
 8755SOL    HW227165   2.142   1.191   1.356
 8756SOL     OW27166   1.696   2.754   4.140
 8756SOL    HW127167   1.663   2.848   4.131
 8756SOL    HW227168   1.769   2.739   4.073
 8757SOL     OW27169   4.176   5.537   6.708
 8757SOL    HW127170   4.096   5.539   6.647
 8757SOL    HW227171   4.155   5.588   6.791
 8758SOL     OW27172   5.130   5.969   2.593
 8758SOL    HW127173   5.125   5.889   2.653
 8758SOL    HW227174   5.059   6.035   2.618
 8759SOL     OW27175   4.871   3.095   6.996
 8759SOL    HW127176   4.934   3.135   0.039
 8759SOL    HW227177   4.864   2.997   7.011
 8760SOL     OW27178   3.002   0.844   5.146
 8760SOL    HW127179   3.056   0.768   5.182
 8760SOL    HW227180   3.062   0.922   5.127
 8761SOL     OW27181   6.082   2.381   1.414
 8761SOL    HW127182   6.040   2.290   1.422
 8761SOL    HW227183   6.091   2.421   1.505
 8762SOL     OW27184   1.103   4.787   3.746
 8762SOL    HW127185   1.160   4.869   3.758
 8762SOL    HW227186   1.017   4.813   3.703
 8763SOL     OW27187   6.381   6.905   6.271
 8763SOL    HW127188   6.467   6.954   6.286
 8763SOL    HW227189   6.348   6.923   6.179
 8764SOL     OW27190   4.607   0.403   5.787
 8764SOL    HW127191   4.695   0.430   5.828
 8764SOL    HW227192   4.600   0.441   5.695
 8765SOL     OW27193   4.817   0.131   3.781
 8765SOL    HW127194   4.758   0.052   3.767
 8765SOL    HW227195   4.887   0.135   3.710
 8766SOL     OW27196   4.552   4.361   5.218
 8766SOL    HW127197   4.472   4.399   5.169
 8766SOL    HW227198   4.625   4.429   5.218
 8767SOL     OW27199   5.796   5.725   2.337
 8767SOL    HW127200   5.850   5.747   2.418
 8767SOL    HW227201   5.726   5.657   2.361
 8768SOL     OW27202   1.481   2.483   0.620
 8768SOL    HW127203   1.531   2.561   0.583
 8768SOL    HW227204   1.400   2.466   0.563
 8769SOL     OW27205   6.740   0.611   3.424
 8769SOL    HW127206   6.775   0.528   3.467
 8769SOL    HW227207   6.815   0.661   3.381
 8770SOL     OW27208   4.405   4.558   1.934
 8770SOL    HW127209   4.396   4.460   1.916
 8770SOL    HW227210   4.314   4.600   1.940
 8771SOL     OW27211   1.549   1.860   6.802
 8771SOL    HW127212   1.602   1.944   6.797
 8771SOL    HW227213   1.452   1.882   6.811
 8772SOL     OW27214   4.592   0.720   6.631
 8772SOL    HW127215   4.555   0.671   6.710
 8772SOL    HW227216   4.522   0.780   6.593
 8773SOL     OW27217   5.453   2.535   4.009
 8773SOL    HW127218   5.481   2.538   3.913
 8773SOL    HW227219   5.493   2.454   4.053
 8774SOL     OW27220   1.375   0.671   0.224
 8774SOL    HW127221   1.459   0.721   0.201
 8774SOL    HW227222   1.394   0.608   0.299
 8775SOL     OW27223   5.591   0.910   5.668
 8775SOL    HW127224   5.676   0.955   5.694
 8775SOL    HW227225   5.538   0.888   5.750
 8776SOL     OW27226   4.674   3.350   0.478
 8776SOL    HW127227   4.670   3.412   0.557
 8776SOL    HW227228   4.708   3.400   0.399
 8777SOL     OW27229   5.975   4.296   3.300
 8777SOL    HW127230   5.875   4.290   3.301
 8777SOL    HW227231   6.009   4.277   3.208
 8778SOL     OW27232   5.774   3.196   6.061
 8778SOL    HW127233   5.760   3.189   5.962
 8778SOL    HW227234   5.869   3.174   6.083
 8779SOL     OW27235   2.594   5.082   2.263
 8779SOL    HW127236   2.528   5.143   2.306
 8779SOL    HW227237   2.684   5.097   2.304
 8780SOL     OW27238   0.675   0.189   2.948
 8780SOL    HW127239   0.669   0.218   3.044
 8780SOL    HW227240   0.589   0.210   2.902
 8781SOL     OW27241   5.094   0.839   4.303
 8781SOL    HW127242   5.109   0.907   4.231
 8781SOL    HW227243   5.169   0.842   4.369
 8782SOL     OW27244   6.745   0.437   2.474
 8782SOL    HW127245   6.773   0.376   2.400
 8782SOL    HW227246   6.824   0.455   2.533
 8783SOL     OW27247   6.799   4.245   3.511
 8783SOL    HW127248   6.774   4.209   3.601
 8783SOL    HW227249   6.776   4.343   3.508
 8784SOL     OW27250   6.984   6.198   5.856
 8784SOL    HW127251   6.961   6.224   5.949
 8784SOL    HW227252   0.036   6.255   5.823
 8785SOL     OW27253   5.964   5.082   0.395
 8785SOL    HW127254   5.977   5.111   0.301
 8785SOL    HW227255   6.018   5.140   0.456
 8786SOL     OW27256   2.633   1.471   0.352
 8786SOL    HW127257   2.554   1.458   0.292
 8786SOL    HW227258   2.715   1.486   0.298
 8787SOL     OW27259   3.161   1.296   2.090
 8787SOL    HW127260   3.161   1.389   2.053
 8787SOL    HW227261   3.166   1.230   2.014
 8788SOL     OW27262   0.013   0.707   5.632
 8788SOL    HW127263   6.986   0.639   5.579
 8788SOL    HW227264   6.975   0.782   5.656
 8789SOL     OW27265   6.472   5.392   5.033
 8789SOL    HW127266   6.510   5.429   5.117
 8789SOL    HW227267   6.546   5.355   4.976
 8790SOL     OW27268   6.439   0.290   6.212
 8790SOL    HW127269   6.480   0.269   6.123
 8790SOL    HW227270   6.340   0.306   6.200
 8791SOL     OW27271   5.971   6.582   5.200
 8791SOL    HW127272   5.930   6.672   5.217
 8791SOL    HW227273   5.900   6.519   5.169
 8792SOL     OW27274   3.115   5.192   3.089
 8792SOL    HW127275   3.108   5.108   3.143
 8792SOL    HW227276   3.029   5.209   3.041
 8793SOL     OW27277   0.779   4.405   2.245
 8793SOL    HW127278   0.697   4.356   2.274
 8793SOL    HW227279   0.811   4.464   2.319
 8794SOL     OW27280   5.291   0.297   2.676
 8794SOL    HW127281   5.338   0.233   2.737
 8794SOL    HW227282   5.238   0.246   2.609
 8795SOL     OW27283   1.197   4.186   5.507
 8795SOL    HW127284   1.255   4.150   5.434
 8795SOL    HW227285   1.174   4.282   5.487
 8796SOL     OW27286   5.181   2.057   3.986
 8796SOL    HW127287   5.219   2.145   3.956
 8796SOL    HW227288   5.105   2.031   3.927
 8797SOL     OW27289   0.115   0.322   6.648
 8797SOL    HW127290   0.133   0.287   6.556
 8797SOL    HW227291   0.153   0.260   6.716
 8798SOL     OW27292   4.670   5.982   6.192
 8798SOL    HW127293   4.585   6.019   6.155
 8798SOL    HW227294   4.724   6.056   6.232
 8799SOL     OW27295   2.828   5.021   3.716
 8799SOL    HW127296   2.772   5.020   3.799
 8799SOL    HW227297   2.925   5.013   3.742
 8800SOL     OW27298   5.798   4.391   6.469
 8800SOL    HW127299   5.747   4.314   6.429
 8800SOL    HW227300   5.896   4.377   6.452
 8801SOL     OW27301   0.165   1.413   4.086
 8801SOL    HW127302   0.111   1.448   4.009
 8801SOL    HW227303   0.103   1.372   4.153
 8802SOL     OW27304   1.971   6.826   6.092
 8802SOL    HW127305   2.047   6.865   6.038
 8802SOL    HW227306   2.007   6.756   6.153
 8803SOL     OW27307   7.012   6.880   0.382
 8803SOL    HW127308   6.968   6.874   0.472
 8803SOL    HW227309   6.951   6.845   0.312
 8804SOL     OW27310   2.476   6.311   1.505
 8804SOL    HW127311   2.455   6.215   1.521
 8804SOL    HW227312   2.496   6.325   1.408
 8805SOL     OW27313   3.566   6.371   3.246
 8805SOL    HW127314   3.520   6.456   3.273
 8805SOL    HW227315   3.613   6.385   3.159
 8806SOL     OW27316   3.112   4.725   0.895
 8806SOL    HW127317   3.122   4.653   0.964
 8806SOL    HW227318   3.198   4.737   0.846
 8807SOL     OW27319   4.745   1.599   0.373
 8807SOL    HW127320   4.760   1.545   0.456
 8807SOL    HW227321   4.704   1.541   0.303
 8808SOL     OW27322   6.524   2.810   6.169
 8808SOL    HW127323   6.432   2.774   6.155
 8808SOL    HW227324   6.526   2.906   6.140
 8809SOL     OW27325   3.623   5.077   3.708
 8809SOL    HW127326   3.545   5.139   3.698
 8809SOL    HW227327   3.705   5.131   3.728
 8810SOL     OW27328   6.156   0.478   5.169
 8810SOL    HW127329   6.246   0.520   5.185
 8810SOL    HW227330   6.092   0.510   5.238
 8811SOL     OW27331   3.541   1.366   2.917
 8811SOL    HW127332   3.496   1.277   2.913
 8811SOL    HW227333   3.508   1.416   2.997
 8812SOL     OW27334   1.759   0.815   0.802
 8812SOL    HW127335   1.772   0.913   0.794
 8812SOL    HW227336   1.820   0.768   0.738
 8813SOL     OW27337   1.995   5.755   3.244
 8813SOL    HW127338   1.989   5.816   3.324
 8813SOL    HW227339   1.921   5.776   3.181
 8814SOL     OW27340   6.385   0.218   0.983
 8814SOL    HW127341   6.400   0.132   1.033
 8814SOL    HW227342   6.300   0.260   1.016
 8815SOL     OW27343   5.429   6.855   1.505
 8815SOL    HW127344   5.475   6.837   1.592
 8815SOL    HW227345   5.489   6.912   1.447
 8816SOL     OW27346   0.763   6.276   0.322
 8816SOL    HW127347   0.818   6.192   0.318
 8816SOL    HW227348   0.784   6.334   0.244
 8817SOL     OW27349   0.238   4.441   4.016
 8817SOL    HW127350   0.177   4.361   4.012
 8817SOL    HW227351   0.197   4.511   4.075
 8818SOL     OW27352   1.016   4.807   4.219
 8818SOL    HW127353   0.970   4.722   4.193
 8818SOL    HW227354   0.947   4.878   4.239
 8819SOL     OW27355   5.446   5.411   5.545
 8819SOL    HW127356   5.347   5.402   5.542
 8819SOL    HW227357   5.486   5.330   5.587
 8820SOL     OW27358   2.804   0.896   5.442
 8820SOL    HW127359   2.825   0.934   5.352
 8820SOL    HW227360   2.787   0.970   5.506
 8821SOL     OW27361   2.214   5.779   0.737
 8821SOL    HW127362   2.300   5.778   0.686
 8821SOL    HW227363   2.196   5.871   0.771
 8822SOL     OW27364   1.032   0.949   4.469
 8822SOL    HW127365   1.040   0.976   4.373
 8822SOL    HW227366   0.937   0.957   4.498
 8823SOL     OW27367   2.348   0.969   2.484
 8823SOL    HW127368   2.431   1.025   2.487
 8823SOL    HW227369   2.305   0.977   2.394
 8824SOL     OW27370   1.347   0.987   0.446
 8824SOL    HW127371   1.379   1.080   0.431
 8824SOL    HW227372   1.359   0.934   0.362
 8825SOL     OW27373   1.908   0.817   2.213
 8825SOL    HW127374   1.863   0.879   2.277
 8825SOL    HW227375   1.908   0.858   2.122
 8826SOL     OW27376   0.539   3.953   0.041
 8826SOL    HW127377   0.627   3.951   7.018
 8826SOL    HW227378   0.554   3.947   0.140
 8827SOL     OW27379   3.990   0.616   3.334
 8827SOL    HW127380   4.028   0.669   3.410
 8827SOL    HW227381   3.905   0.659   3.303
 8828SOL     OW27382   3.847   5.381   6.434
 8828SOL    HW127383   3.899   5.463   6.459
 8828SOL    HW227384   3.775   5.406   6.370
 8829SOL     OW27385   5.340   2.144   1.239
 8829SOL    HW127386   5.326   2.061   1.293
 8829SOL    HW227387   5.307   2.128   1.146
 8830SOL     OW27388   1.809   1.748   2.473
 8830SOL    HW127389   1.881   1.817   2.462
 8830SOL    HW227390   1.728   1.792   2.512
 8831SOL     OW27391   4.940   2.390   3.507
 8831SOL    HW127392   4.871   2.438   3.453
 8831SOL    HW227393   4.931   2.417   3.603
 8832SOL     OW27394   0.087   6.464   3.545
 8832SOL    HW127395   0.040   6.470   3.457
 8832SOL    HW227396   0.183   6.440   3.530
 8833SOL     OW27397   2.728   5.403   6.623
 8833SOL    HW127398   2.720   5.502   6.635
 8833SOL    HW227399   2.700   5.379   6.530
 8834SOL     OW27400   5.855   3.963   4.601
 8834SOL    HW127401   5.925   3.954   4.529
 8834SOL    HW227402   5.896   3.940   4.690
 8835SOL     OW27403   5.228   1.023   5.966
 8835SOL    HW127404   5.225   1.092   6.038
 8835SOL    HW227405   5.135   1.000   5.938
 8836SOL     OW27406   5.133   2.187   0.415
 8836SOL    HW127407   5.147   2.119   0.343
 8836SOL    HW227408   5.039   2.222   0.410
 8837SOL     OW27409   0.423   0.160   2.802
 8837SOL    HW127410   0.455   0.139   2.709
 8837SOL    HW227411   0.329   0.192   2.798
 8838SOL     OW27412   2.455   4.824   4.000
 8838SOL    HW127413   2.471   4.864   3.910
 8838SOL    HW227414   2.379   4.758   3.994
 8839SOL     OW27415   4.312   5.649   1.444
 8839SOL    HW127416   4.249   5.570   1.440
 8839SOL    HW227417   4.306   5.701   1.359
 8840SOL     OW27418   0.273   1.035   2.988
 8840SOL    HW127419   0.315   1.039   3.078
 8840SOL    HW227420   0.183   1.079   2.990
 8841SOL     OW27421   0.693   1.219   4.867
 8841SOL    HW127422   0.681   1.122   4.889
 8841SOL    HW227423   0.790   1.237   4.850
 8842SOL     OW27424   3.048   3.266   3.118
 8842SOL    HW127425   3.095   3.325   3.185
 8842SOL    HW227426   3.069   3.170   3.138
 8843SOL     OW27427   1.433   3.334   4.938
 8843SOL    HW127428   1.413   3.242   4.905
 8843SOL    HW227429   1.496   3.328   5.016
 8844SOL     OW27430   0.729   1.722   5.337
 8844SOL    HW127431   0.686   1.644   5.292
 8844SOL    HW227432   0.666   1.799   5.338
 8845SOL     OW27433   3.087   3.774   1.347
 8845SOL    HW127434   3.035   3.852   1.382
 8845SOL    HW227435   3.025   3.696   1.333
 8846SOL     OW27436   4.010   4.888   4.384
 8846SOL    HW127437   3.944   4.852   4.318
 8846SOL    HW227438   4.001   4.987   4.390
 8847SOL     OW27439   2.386   1.240   2.735
 8847SOL    HW127440   2.300   1.289   2.724
 8847SOL    HW227441   2.369   1.141   2.740
 8848SOL     OW27442   2.332   2.175   2.230
 8848SOL    HW127443   2.416   2.136   2.193
 8848SOL    HW227444   2.348   2.204   2.325
 8849SOL     OW27445   3.715   5.685   3.745
 8849SOL    HW127446   3.710   5.590   3.775
 8849SOL    HW227447   3.759   5.690   3.656
 8850SOL     OW27448   2.170   0.966   6.366
 8850SOL    HW127449   2.111   0.942   6.289
 8850SOL    HW227450   2.177   1.066   6.373
 8851SOL     OW27451   0.582   5.110   1.981
 8851SOL    HW127452   0.670   5.157   1.988
 8851SOL    HW227453   0.543   5.098   2.072
 8852SOL     OW27454   4.565   3.841   5.947
 8852SOL    HW127455   4.511   3.757   5.951
 8852SOL    HW227456   4.521   3.912   6.002
 8853SOL     OW27457   3.334   0.938   6.127
 8853SOL    HW127458   3.353   0.843   6.102
 8853SOL    HW227459   3.236   0.956   6.113
 8854SOL     OW27460   3.086   1.589   6.078
 8854SOL    HW127461   3.089   1.666   6.015
 8854SOL    HW227462   3.004   1.534   6.060
 8855SOL     OW27463   0.119   5.973   0.520
 8855SOL    HW127464   0.079   6.030   0.591
 8855SOL    HW227465   0.050   5.950   0.451
 8856SOL     OW27466   6.688   0.665   6.135
 8856SOL    HW127467   6.643   0.745   6.176
 8856SOL    HW227468   6.640   0.641   6.050
 8857SOL     OW27469   0.010   1.509   3.902
 8857SOL    HW127470   7.001   1.603   3.912
 8857SOL    HW227471   0.006   1.482   3.805
 8858SOL     OW27472   1.291   2.418   5.697
 8858SOL    HW127473   1.240   2.387   5.777
 8858SOL    HW227474   1.266   2.363   5.618
 8859SOL     OW27475   6.496   0.664   4.257
 8859SOL    HW127476   6.527   0.639   4.349
 8859SOL    HW227477   6.476   0.762   4.255
 8860SOL     OW27478   0.719   3.091   2.669
 8860SOL    HW127479   0.699   3.078   2.766
 8860SOL    HW227480   0.704   3.006   2.619
 8861SOL     OW27481   3.664   1.959   6.165
 8861SOL    HW127482   3.647   2.003   6.253
 8861SOL    HW227483   3.603   1.881   6.154
 8862SOL     OW27484   5.799   0.505   3.702
 8862SOL    HW127485   5.836   0.417   3.672
 8862SOL    HW227486   5.721   0.529   3.645
 8863SOL     OW27487   1.601   5.182   4.326
 8863SOL    HW127488   1.683   5.221   4.285
 8863SOL    HW227489   1.526   5.247   4.318
 8864SOL     OW27490   3.103   3.368   5.669
 8864SOL    HW127491   3.040   3.412   5.606
 8864SOL    HW227492   3.098   3.268   5.656
 8865SOL     OW27493   2.856   1.198   6.218
 8865SOL    HW127494   2.806   1.217   6.133
 8865SOL    HW227495   2.918   1.274   6.237
 8866SOL     OW27496   5.143   6.691   3.236
 8866SOL    HW127497   5.050   6.689   3.200
 8866SOL    HW227498   5.202   6.634   3.179
 8867SOL     OW27499   5.109   3.249   2.105
 8867SOL    HW127500   5.037   3.182   2.090
 8867SOL    HW227501   5.069   3.340   2.115
 8868SOL     OW27502   6.584   2.602   0.344
 8868SOL    HW127503   6.584   2.505   0.367
 8868SOL    HW227504   6.582   2.613   0.244
 8869SOL     OW27505   4.319   5.970   4.712
 8869SOL    HW127506   4.361   6.035   4.648
 8869SOL    HW227507   4.223   5.993   4.723
 8870SOL     OW27508   4.084   0.536   6.821
 8870SOL    HW127509   4.099   0.633   6.802
 8870SOL    HW227510   4.006   0.504   6.768
 8871SOL     OW27511   1.645   0.171   4.030
 8871SOL    HW127512   1.639   0.217   4.119
 8871SOL    HW227513   1.554   0.139   4.003
 8872SOL     OW27514   1.677   4.719   4.692
 8872SOL    HW127515   1.696   4.630   4.651
 8872SOL    HW227516   1.592   4.755   4.653
 8873SOL     OW27517   0.670   5.889   2.139
 8873SOL    HW127518   0.644   5.796   2.169
 8873SOL    HW227519   0.664   5.951   2.217
 8874SOL     OW27520   2.499   5.737   2.115
 8874SOL    HW127521   2.555   5.666   2.073
 8874SOL    HW227522   2.556   5.791   2.178
 8875SOL     OW27523   6.650   3.357   4.948
 8875SOL    HW127524   6.616   3.274   4.906
 8875SOL    HW227525   6.603   3.436   4.908
 8876SOL     OW27526   2.269   6.821   4.462
 8876SOL    HW127527   2.347   6.760   4.453
 8876SOL    HW227528   2.185   6.767   4.467
 8877SOL     OW27529   2.989   0.365   4.088
 8877SOL    HW127530   2.900   0.322   4.103
 8877SOL    HW227531   2.982   0.430   4.012
 8878SOL     OW27532   6.582   5.047   6.693
 8878SOL    HW127533   6.652   5.111   6.661
 8878SOL    HW227534   6.516   5.031   6.620
 8879SOL     OW27535   5.006   4.426   1.909
 8879SOL    HW127536   5.039   4.332   1.918
 8879SOL    HW227537   4.934   4.442   1.976
 8880SOL     OW27538   5.463   5.671   4.770
 8880SOL    HW127539   5.541   5.616   4.740
 8880SOL    HW227540   5.383   5.612   4.784
 8881SOL     OW27541   6.322   6.790   3.722
 8881SOL    HW127542   6.255   6.800   3.648
 8881SOL    HW227543   6.397   6.731   3.690
 8882SOL     OW27544   5.639   1.919   1.165
 8882SOL    HW127545   5.648   1.996   1.229
 8882SOL    HW227546   5.586   1.948   1.086
 8883SOL     OW27547   2.033   6.594   6.237
 8883SOL    HW127548   2.102   6.549   6.294
 8883SOL    HW227549   1.981   6.525   6.187
 8884SOL     OW27550   6.028   4.313   6.346
 8884SOL    HW127551   6.049   4.364   6.263
 8884SOL    HW227552   6.024   4.215   6.325
 8885SOL     OW27553   0.223   3.079   1.020
 8885SOL    HW127554   0.125   3.083   1.001
 8885SOL    HW227555   0.263   3.002   0.972
 8886SOL     OW27556   3.026   6.534   4.721
 8886SOL    HW127557   3.103   6.538   4.785
 8886SOL    HW227558   2.945   6.500   4.769
 8887SOL     OW27559   3.260   1.543   1.241
 8887SOL    HW127560   3.246   1.463   1.182
 8887SOL    HW227561   3.356   1.548   1.268
 8888SOL     OW27562   1.378   1.544   0.128
 8888SOL    HW127563   1.339   1.606   0.059
 8888SOL    HW227564   1.466   1.580   0.159
 8889SOL     OW27565   6.105   0.608   5.756
 8889SOL    HW127566   6.010   0.585   5.734
 8889SOL    HW227567   6.155   0.626   5.672
 8890SOL     OW27568   6.531   5.630   3.995
 8890SOL    HW127569   6.533   5.627   3.895
 8890SOL    HW227570   6.528   5.536   4.031
 8891SOL     OW27571   5.380   3.669   6.031
 8891SOL    HW127572   5.332   3.730   5.968
 8891SOL    HW227573   5.315   3.635   6.100
 8892SOL     OW27574   3.685   5.590   3.235
 8892SOL    HW127575   3.648   5.591   3.142
 8892SOL    HW227576   3.633   5.653   3.292
 8893SOL     OW27577   0.898   5.821   3.758
 8893SOL    HW127578   0.890   5.853   3.664
 8893SOL    HW227579   0.818   5.765   3.781
 8894SOL     OW27580   4.533   2.950   6.128
 8894SOL    HW127581   4.462   2.895   6.083
 8894SOL    HW227582   4.491   3.012   6.194
 8895SOL     OW27583   6.364   2.310   2.593
 8895SOL    HW127584   6.317   2.385   2.546
 8895SOL    HW227585   6.378   2.235   2.529
 8896SOL     OW27586   2.330   3.808   5.569
 8896SOL    HW127587   2.240   3.815   5.611
 8896SOL    HW227588   2.320   3.784   5.472
 8897SOL     OW27589   2.070   2.811   3.324
 8897SOL    HW127590   2.035   2.722   3.352
 8897SOL    HW227591   2.118   2.801   3.236
 8898SOL     OW27592   5.174   3.696   3.403
 8898SOL    HW127593   5.142   3.776   3.352
 8898SOL    HW227594   5.267   3.714   3.437
 8899SOL     OW27595   2.022   5.270   0.659
 8899SOL    HW127596   2.063   5.261   0.750
 8899SOL    HW227597   1.941   5.329   0.666
 8900SOL     OW27598   6.329   3.386   2.748
 8900SOL    HW127599   6.363   3.454   2.812
 8900SOL    HW227600   6.349   3.416   2.654
 8901SOL     OW27601   2.024   0.723   4.462
 8901SOL    HW127602   2.093   0.695   4.529
 8901SOL    HW227603   2.045   0.815   4.430
 8902SOL     OW27604   2.365   0.435   0.519
 8902SOL    HW127605   2.274   0.418   0.482
 8902SOL    HW227606   2.368   0.407   0.615
 8903SOL     OW27607   1.301   1.798   5.087
 8903SOL    HW127608   1.215   1.831   5.048
 8903SOL    HW227609   1.351   1.745   5.018
 8904SOL     OW27610   5.676   6.222   4.125
 8904SOL    HW127611   5.644   6.164   4.051
 8904SOL    HW227612   5.599   6.270   4.167
 8905SOL     OW27613   1.368   4.681   3.822
 8905SOL    HW127614   1.445   4.685   3.886
 8905SOL    HW227615   1.287   4.721   3.864
 8906SOL     OW27616   0.121   6.404   0.548
 8906SOL    HW127617   0.080   6.493   0.567
 8906SOL    HW227618   0.176   6.376   0.627
 8907SOL     OW27619   2.764   2.399   5.002
 8907SOL    HW127620   2.782   2.371   5.096
 8907SOL    HW227621   2.749   2.497   4.998
 8908SOL     OW27622   1.066   3.645   6.744
 8908SOL    HW127623   1.036   3.577   6.810
 8908SOL    HW227624   1.085   3.731   6.790
 8909SOL     OW27625   2.726   0.906   6.033
 8909SOL    HW127626   2.769   0.831   6.084
 8909SOL    HW227627   2.627   0.892   6.031
 8910SOL     OW27628   0.434   2.684   5.806
 8910SOL    HW127629   0.350   2.646   5.845
 8910SOL    HW227630   0.418   2.779   5.780
 8911SOL     OW27631   4.182   1.938   4.850
 8911SOL    HW127632   4.087   1.954   4.877
 8911SOL    HW227633   4.187   1.855   4.793
 8912SOL     OW27634   3.827   2.877   0.163
 8912SOL    HW127635   3.923   2.852   0.175
 8912SOL    HW227636   3.771   2.823   0.226
 8913SOL     OW27637   4.910   5.094   5.941
 8913SOL    HW127638   4.852   5.052   5.872
 8913SOL    HW227639   4.988   5.138   5.897
 8914SOL     OW27640   4.660   0.045   4.620
 8914SOL    HW127641   4.755   0.014   4.607
 8914SOL    HW227642   4.600   7.017   4.559
 8915SOL     OW27643   0.326   3.043   3.670
 8915SOL    HW127644   0.274   3.009   3.748
 8915SOL    HW227645   0.422   3.050   3.695
 8916SOL     OW27646   0.202   3.909   1.102
 8916SOL    HW127647   0.171   3.858   1.182
 8916SOL    HW227648   0.302   3.906   1.097
 8917SOL     OW27649   0.025   3.574   0.265
 8917SOL    HW127650   6.953   3.544   0.261
 8917SOL    HW227651   0.054   3.605   0.174
 8918SOL     OW27652   6.392   4.216   1.321
 8918SOL    HW127653   6.458   4.167   1.264
 8918SOL    HW227654   6.322   4.152   1.354
 8919SOL     OW27655   3.707   4.497   0.259
 8919SOL    HW127656   3.784   4.440   0.287
 8919SOL    HW227657   3.694   4.571   0.326
 8920SOL     OW27658   0.601   0.435   0.095
 8920SOL    HW127659   0.634   0.490   0.172
 8920SOL    HW227660   0.648   0.464   0.011
 8921SOL     OW27661   2.000   1.951   2.507
 8921SOL    HW127662   2.018   1.999   2.593
 8921SOL    HW227663   1.983   2.017   2.434
 8922SOL     OW27664   3.332   5.292   1.196
 8922SOL    HW127665   3.273   5.316   1.274
 8922SOL    HW227666   3.360   5.196   1.204
 8923SOL     OW27667   1.599   3.591   6.201
 8923SOL    HW127668   1.665   3.520   6.225
 8923SOL    HW227669   1.644   3.680   6.204
 8924SOL     OW27670   3.767   5.440   5.592
 8924SOL    HW127671   3.678   5.396   5.608
 8924SOL    HW227672   3.755   5.514   5.525
 8925SOL     OW27673   0.956   1.393   2.636
 8925SOL    HW127674   0.946   1.487   2.667
 8925SOL    HW227675   0.903   1.333   2.696
 8926SOL     OW27676   6.905   3.665   5.695
 8926SOL    HW127677   6.955   3.735   5.746
 8926SOL    HW227678   6.938   3.575   5.721
 8927SOL     OW27679   0.957   1.471   4.526
 8927SOL    HW127680   0.972   1.570   4.527
 8927SOL    HW227681   1.028   1.426   4.580
 8928SOL     OW27682   6.950   0.539   6.313
 8928SOL    HW127683   7.008   0.457   6.316
 8928SOL    HW227684   6.854   0.512   6.325
 8929SOL     OW27685   6.266   3.229   4.321
 8929SOL    HW127686   6.358   3.259   4.347
 8929SOL    HW227687   6.228   3.291   4.253
 8930SOL     OW27688   1.313   4.158   4.096
 8930SOL    HW127689   1.328   4.108   4.011
 8930SOL    HW227690   1.281   4.250   4.075
 8931SOL     OW27691   3.198   2.647   1.029
 8931SOL    HW127692   3.221   2.577   0.961
 8931SOL    HW227693   3.208   2.737   0.989
 8932SOL     OW27694   5.717   0.577   0.938
 8932SOL    HW127695   5.670   0.533   0.862
 8932SOL    HW227696   5.665   0.656   0.968
 8933SOL     OW27697   1.653   2.975   5.981
 8933SOL    HW127698   1.656   3.065   6.024
 8933SOL    HW227699   1.566   2.930   6.004
 8934SOL     OW27700   3.526   4.932   4.495
 8934SOL    HW127701   3.596   4.895   4.435
 8934SOL    HW227702   3.456   4.978   4.441
 8935SOL     OW27703   6.426   4.485   1.094
 8935SOL    HW127704   6.334   4.501   1.129
 8935SOL    HW227705   6.471   4.416   1.152
 8936SOL     OW27706   1.141   3.244   1.863
 8936SOL    HW127707   1.139   3.302   1.944
 8936SOL    HW227708   1.233   3.245   1.824
 8937SOL     OW27709   0.097   6.868   5.086
 8937SOL    HW127710   0.116   6.962   5.059
 8937SOL    HW227711   0.181   6.825   5.119
 8938SOL     OW27712   0.407   1.925   0.637
 8938SOL    HW127713   0.486   1.866   0.627
 8938SOL    HW227714   0.361   1.906   0.724
 8939SOL     OW27715   5.737   4.963   4.393
 8939SOL    HW127716   5.758   4.998   4.302
 8939SOL    HW227717   5.724   5.039   4.456
 8940SOL     OW27718   5.355   0.581   1.368
 8940SOL    HW127719   5.354   0.667   1.420
 8940SOL    HW227720   5.267   0.535   1.378
 8941SOL     OW27721   6.194   2.906   3.703
 8941SOL    HW127722   6.095   2.914   3.690
 8941SOL    HW227723   6.218   2.933   3.796
 8942SOL     OW27724   6.959   5.805   5.863
 8942SOL    HW127725   6.983   5.718   5.820
 8942SOL    HW227726   6.861   5.822   5.851
 8943SOL     OW27727   3.554   5.308   0.188
 8943SOL    HW127728   3.494   5.318   0.268
 8943SOL    HW227729   3.637   5.362   0.203
 8944SOL     OW27730   4.727   6.070   4.084
 8944SOL    HW127731   4.644   6.086   4.030
 8944SOL    HW227732   4.806   6.111   4.037
 8945SOL     OW27733   0.553   1.202   3.854
 8945SOL    HW127734   0.499   1.192   3.937
 8945SOL    HW227735   0.612   1.282   3.863
 8946SOL     OW27736   3.214   0.530   3.828
 8946SOL    HW127737   3.304   0.530   3.785
 8946SOL    HW227738   3.216   0.585   3.911
 8947SOL     OW27739   2.687   3.533   5.666
 8947SOL    HW127740   2.623   3.491   5.603
 8947SOL    HW227741   2.677   3.492   5.757
 8948SOL     OW27742   6.219   5.846   3.354
 8948SOL    HW127743   6.272   5.853   3.439
 8948SOL    HW227744   6.207   5.749   3.330
 8949SOL     OW27745   3.820   6.461   0.687
 8949SOL    HW127746   3.900   6.513   0.657
 8949SOL    HW227747   3.846   6.399   0.761
 8950SOL     OW27748   3.475   3.137   0.503
 8950SOL    HW127749   3.421   3.199   0.446
 8950SOL    HW227750   3.487   3.178   0.594
 8951SOL     OW27751   2.046   1.008   4.411
 8951SOL    HW127752   2.053   1.029   4.509
 8951SOL    HW227753   2.113   1.061   4.361
 8952SOL     OW27754   0.910   5.055   3.739
 8952SOL    HW127755   0.991   5.081   3.687
 8952SOL    HW227756   0.901   5.115   3.819
 8953SOL     OW27757   1.086   4.604   0.685
 8953SOL    HW127758   1.166   4.555   0.652
 8953SOL    HW227759   1.049   4.661   0.611
 8954SOL     OW27760   6.774   0.278   4.515
 8954SOL    HW127761   6.844   0.348   4.502
 8954SOL    HW227762   6.714   0.303   4.591
 8955SOL     OW27763   0.119   4.794   3.100
 8955SOL    HW127764   0.052   4.741   3.152
 8955SOL    HW227765   0.071   4.856   3.037
 8956SOL     OW27766   1.798   1.521   5.962
 8956SOL    HW127767   1.817   1.597   6.023
 8956SOL    HW227768   1.765   1.556   5.874
 8957SOL     OW27769   1.952   4.456   1.206
 8957SOL    HW127770   2.031   4.459   1.146
 8957SOL    HW227771   1.974   4.500   1.293
 8958SOL     OW27772   0.534   2.265   5.595
 8958SOL    HW127773   0.578   2.354   5.604
 8958SOL    HW227774   0.565   2.220   5.511
 8959SOL     OW27775   1.695   4.597   2.508
 8959SOL    HW127776   1.764   4.654   2.551
 8959SOL    HW227777   1.641   4.653   2.445
 8960SOL     OW27778   5.106   5.632   3.692
 8960SOL    HW127779   5.070   5.581   3.614
 8960SOL    HW227780   5.064   5.600   3.776
 8961SOL     OW27781   3.632   1.359   3.335
 8961SOL    HW127782   3.595   1.290   3.273
 8961SOL    HW227783   3.660   1.315   3.421
 8962SOL     OW27784   6.272   5.363   2.678
 8962SOL    HW127785   6.257   5.367   2.579
 8962SOL    HW227786   6.272   5.456   2.715
 8963SOL     OW27787   3.871   0.283   4.542
 8963SOL    HW127788   3.836   0.223   4.470
 8963SOL    HW227789   3.798   0.342   4.575
 8964SOL     OW27790   5.964   2.713   3.099
 8964SOL    HW127791   5.926   2.716   3.007
 8964SOL    HW227792   5.970   2.618   3.130
 8965SOL     OW27793   2.529   5.235   7.002
 8965SOL    HW127794   2.558   5.140   7.003
 8965SOL    HW227795   2.486   5.258   0.067
 8966SOL     OW27796   6.757   3.939   0.445
 8966SOL    HW127797   6.791   4.015   0.390
 8966SOL    HW227798   6.683   3.893   0.396
 8967SOL     OW27799   3.725   0.452   1.843
 8967SOL    HW127800   3.627   0.454   1.860
 8967SOL    HW227801   3.751   0.535   1.793
 8968SOL     OW27802   4.457   5.769   2.689
 8968SOL    HW127803   4.392   5.785   2.763
 8968SOL    HW227804   4.435   5.683   2.643
 8969SOL     OW27805   6.876   0.320   3.786
 8969SOL    HW127806   6.946   0.254   3.759
 8969SOL    HW227807   6.893   0.351   3.879
 8970SOL     OW27808   2.601   3.170   6.703
 8970SOL    HW127809   2.679   3.233   6.705
 8970SOL    HW227810   2.624   3.092   6.645
 8971SOL     OW27811   6.168   5.244   1.134
 8971SOL    HW127812   6.173   5.295   1.048
 8971SOL    HW227813   6.111   5.163   1.122
 8972SOL     OW27814   4.449   4.212   0.665
 8972SOL    HW127815   4.517   4.236   0.735
 8972SOL    HW227816   4.486   4.142   0.605
 8973SOL     OW27817   0.060   3.636   3.274
 8973SOL    HW127818   0.048   3.733   3.293
 8973SOL    HW227819   6.997   3.589   3.287
 8974SOL     OW27820   1.575   3.591   4.047
 8974SOL    HW127821   1.502   3.659   4.036
 8974SOL    HW227822   1.605   3.559   3.957
 8975SOL     OW27823   0.556   6.347   0.466
 8975SOL    HW127824   0.490   6.274   0.450
 8975SOL    HW227825   0.636   6.333   0.407
 8976SOL     OW27826   0.044   5.255   0.411
 8976SOL    HW127827   0.048   5.304   0.498
 8976SOL    HW227828   6.974   5.253   0.378
 8977SOL     OW27829   6.700   3.130   6.385
 8977SOL    HW127830   6.644   3.193   6.438
 8977SOL    HW227831   6.742   3.063   6.445
 8978SOL     OW27832   5.344   6.692   4.514
 8978SOL    HW127833   5.323   6.731   4.424
 8978SOL    HW227834   5.280   6.729   4.582
 8979SOL     OW27835   1.042   4.866   5.770
 8979SOL    HW127836   1.072   4.865   5.865
 8979SOL    HW227837   1.093   4.935   5.720
 8980SOL     OW27838   4.538   2.734   5.427
 8980SOL    HW127839   4.616   2.725   5.489
 8980SOL    HW227840   4.476   2.804   5.461
 8981SOL     OW27841   4.769   2.367   5.066
 8981SOL    HW127842   4.824   2.315   5.001
 8981SOL    HW227843   4.788   2.336   5.159
 8982SOL     OW27844   1.423   1.641   1.556
 8982SOL    HW127845   1.426   1.717   1.491
 8982SOL    HW227846   1.450   1.673   1.647
 8983SOL     OW27847   0.478   5.512   0.436
 8983SOL    HW127848   0.452   5.608   0.440
 8983SOL    HW227849   0.568   5.503   0.393
 8984SOL     OW27850   6.144   5.812   3.638
 8984SOL    HW127851   6.150   5.865   3.722
 8984SOL    HW227852   6.054   5.824   3.597
 8985SOL     OW27853   2.296   1.836   0.506
 8985SOL    HW127854   2.324   1.780   0.584
 8985SOL    HW227855   2.305   1.933   0.530
 8986SOL     OW27856   4.059   4.715   2.388
 8986SOL    HW127857   3.979   4.761   2.350
 8986SOL    HW227858   4.074   4.747   2.482
 8987SOL     OW27859   3.717   0.272   0.713
 8987SOL    HW127860   3.784   0.339   0.743
 8987SOL    HW227861   3.734   0.185   0.759
 8988SOL     OW27862   1.588   4.329   0.246
 8988SOL    HW127863   1.688   4.327   0.254
 8988SOL    HW227864   1.548   4.263   0.310
 8989SOL     OW27865   4.880   3.967   2.098
 8989SOL    HW127866   4.841   3.966   2.006
 8989SOL    HW227867   4.848   4.048   2.147
 8990SOL     OW27868   2.355   5.896   2.333
 8990SOL    HW127869   2.413   5.946   2.269
 8990SOL    HW227870   2.271   5.867   2.287
 8991SOL     OW27871   1.898   1.436   6.717
 8991SOL    HW127872   1.829   1.368   6.746
 8991SOL    HW227873   1.852   1.520   6.688
 8992SOL     OW27874   6.774   2.356   6.652
 8992SOL    HW127875   6.777   2.350   6.751
 8992SOL    HW227876   6.705   2.423   6.624
 8993SOL     OW27877   4.626   2.499   2.853
 8993SOL    HW127878   4.638   2.595   2.827
 8993SOL    HW227879   4.710   2.448   2.836
 8994SOL     OW27880   0.837   5.502   4.544
 8994SOL    HW127881   0.754   5.558   4.552
 8994SOL    HW227882   0.842   5.439   4.621
 8995SOL     OW27883   1.104   2.828   6.227
 8995SOL    HW127884   1.010   2.807   6.200
 8995SOL    HW227885   1.160   2.746   6.219
 8996SOL     OW27886   6.561   4.887   1.872
 8996SOL    HW127887   6.583   4.982   1.854
 8996SOL    HW227888   6.621   4.828   1.819
 8997SOL     OW27889   3.755   1.434   6.397
 8997SOL    HW127890   3.765   1.445   6.496
 8997SOL    HW227891   3.830   1.482   6.351
 8998SOL     OW27892   0.230   3.181   4.535
 8998SOL    HW127893   0.273   3.155   4.621
 8998SOL    HW227894   0.140   3.138   4.529
 8999SOL     OW27895   4.554   0.630   0.242
 8999SOL    HW127896   4.604   0.568   0.303
 8999SOL    HW227897   4.505   0.576   0.174
 9000SOL     OW27898   2.400   3.914   6.201
 9000SOL    HW127899   2.340   3.931   6.123
 9000SOL    HW227900   2.450   3.998   6.224
 9001SOL     OW27901   0.655   5.265   2.647
 9001SOL    HW127902   0.623   5.344   2.594
 9001SOL    HW227903   0.612   5.182   2.612
 9002SOL     OW27904   0.012   5.219   5.031
 9002SOL    HW127905   7.009   5.220   5.127
 9002SOL    HW227906   0.111   5.232   5.023
 9003SOL     OW27907   5.471   2.372   1.286
 9003SOL    HW127908   5.414   2.298   1.250
 9003SOL    HW227909   5.466   2.451   1.224
 9004SOL     OW27910   4.921   6.430   1.594
 9004SOL    HW127911   4.847   6.498   1.593
 9004SOL    HW227912   4.910   6.369   1.673
 9005SOL     OW27913   5.453   2.295   5.002
 9005SOL    HW127914   5.457   2.388   5.038
 9005SOL    HW227915   5.392   2.240   5.058
 9006SOL     OW27916   2.275   6.330   0.218
 9006SOL    HW127917   2.175   6.321   0.217
 9006SOL    HW227918   2.305   6.347   0.312
 9007SOL     OW27919   3.805   6.089   3.802
 9007SOL    HW127920   3.779   6.074   3.707
 9007SOL    HW227921   3.856   6.010   3.836
 9008SOL     OW27922   6.425   4.970   2.790
 9008SOL    HW127923   6.472   4.905   2.730
 9008SOL    HW227924   6.456   5.063   2.769
 9009SOL     OW27925   2.482   0.021   0.584
 9009SOL    HW127926   2.530   7.002   0.660
 9009SOL    HW227927   2.426   0.097   0.618
 9010SOL     OW27928   0.980   6.835   4.943
 9010SOL    HW127929   0.980   6.813   5.040
 9010SOL    HW227930   1.043   6.774   4.895
 9011SOL     OW27931   4.123   2.069   1.669
 9011SOL    HW127932   4.048   2.004   1.657
 9011SOL    HW227933   4.165   2.055   1.758
 9012SOL     OW27934   3.448   3.961   0.849
 9012SOL    HW127935   3.422   4.042   0.901
 9012SOL    HW227936   3.398   3.961   0.762
 9013SOL     OW27937   6.895   6.333   4.155
 9013SOL    HW127938   6.873   6.268   4.081
 9013SOL    HW227939   6.873   6.292   4.243
 9014SOL     OW27940   1.013   0.628   0.310
 9014SOL    HW127941   1.011   0.713   0.362
 9014SOL    HW227942   1.072   0.640   0.230
 9015SOL     OW27943   5.942   1.472   1.343
 9015SOL    HW127944   5.930   1.480   1.244
 9015SOL    HW227945   5.885   1.540   1.390
 9016SOL     OW27946   0.613   6.532   6.410
 9016SOL    HW127947   0.520   6.516   6.377
 9016SOL    HW227948   0.658   6.444   6.425
 9017SOL     OW27949   4.623   2.751   1.793
 9017SOL    HW127950   4.679   2.794   1.722
 9017SOL    HW227951   4.630   2.804   1.877
 9018SOL     OW27952   4.162   1.322   5.445
 9018SOL    HW127953   4.160   1.404   5.388
 9018SOL    HW227954   4.225   1.338   5.522
 9019SOL     OW27955   0.395   0.783   0.814
 9019SOL    HW127956   0.431   0.851   0.750
 9019SOL    HW227957   0.307   0.813   0.849
 9020SOL     OW27958   1.240   3.824   1.680
 9020SOL    HW127959   1.301   3.849   1.755
 9020SOL    HW227960   1.146   3.818   1.715
 9021SOL     OW27961   6.456   0.356   3.656
 9021SOL    HW127962   6.470   0.261   3.687
 9021SOL    HW227963   6.479   0.363   3.559
 9022SOL     OW27964   2.887   1.495   1.029
 9022SOL    HW127965   2.803   1.547   1.047
 9022SOL    HW227966   2.944   1.494   1.111
 9023SOL     OW27967   3.383   3.107   2.725
 9023SOL    HW127968   3.449   3.182   2.731
 9023SOL    HW227969   3.336   3.111   2.636
 9024SOL     OW27970   0.400   5.429   5.266
 9024SOL    HW127971   0.448   5.397   5.348
 9024SOL    HW227972   0.337   5.358   5.235
 9025SOL     OW27973   6.901   6.144   0.328
 9025SOL    HW127974   6.973   6.209   0.353
 9025SOL    HW227975   6.934   6.051   0.344
 9026SOL     OW27976   3.916   3.361   1.946
 9026SOL    HW127977   3.829   3.387   1.987
 9026SOL    HW227978   3.926   3.407   1.857
 9027SOL     OW27979   1.462   1.764   3.491
 9027SOL    HW127980   1.414   1.760   3.403
 9027SOL    HW227981   1.555   1.731   3.481
 9028SOL     OW27982   2.552   3.532   6.930
 9028SOL    HW127983   2.529   3.582   6.847
 9028SOL    HW227984   2.652   3.524   6.937
 9029SOL     OW27985   3.171   5.681   5.216
 9029SOL    HW127986   3.255   5.634   5.244
 9029SOL    HW227987   3.141   5.647   5.127
 9030SOL     OW27988   2.165   0.986   3.438
 9030SOL    HW127989   2.078   0.958   3.395
 9030SOL    HW227990   2.238   0.983   3.370
 9031SOL     OW27991   4.835   5.856   4.915
 9031SOL    HW127992   4.839   5.788   4.843
 9031SOL    HW227993   4.742   5.862   4.950
 9032SOL     OW27994   2.915   2.821   0.791
 9032SOL    HW127995   2.992   2.884   0.780
 9032SOL    HW227996   2.932   2.737   0.738
 9033SOL     OW27997   2.161   4.590   3.704
 9033SOL    HW127998   2.072   4.598   3.749
 9033SOL    HW227999   2.209   4.678   3.708
 9034SOL     OW28000   3.353   0.459   5.013
 9034SOL    HW128001   3.375   0.426   4.921
 9034SOL    HW228002   3.257   0.442   5.032
 9035SOL     OW28003   1.214   5.362   5.636
 9035SOL    HW128004   1.286   5.373   5.568
 9035SOL    HW228005   1.252   5.324   5.720
 9036SOL     OW28006   1.680   0.562   5.159
 9036SOL    HW128007   1.658   0.466   5.179
 9036SOL    HW228008   1.604   0.620   5.189
 9037SOL     OW28009   1.382   3.617   5.832
 9037SOL    HW128010   1.381   3.624   5.733
 9037SOL    HW228011   1.454   3.676   5.869
 9038SOL     OW28012   4.552   0.055   5.949
 9038SOL    HW128013   4.607   0.046   6.031
 9038SOL    HW228014   4.612   0.065   5.869
 9039SOL     OW28015   2.554   4.764   4.611
 9039SOL    HW128016   2.573   4.860   4.589
 9039SOL    HW228017   2.463   4.740   4.576
 9040SOL     OW28018   2.845   1.788   2.565
 9040SOL    HW128019   2.849   1.808   2.663
 9040SOL    HW228020   2.923   1.830   2.519
 9041SOL     OW28021   0.766   2.327   2.015
 9041SOL    HW128022   0.672   2.350   1.990
 9041SOL    HW228023   0.810   2.406   2.056
 9042SOL     OW28024   3.295   6.673   3.757
 9042SOL    HW128025   3.307   6.725   3.672
 9042SOL    HW228026   3.197   6.661   3.775
 9043SOL     OW28027   2.417   1.310   6.370
 9043SOL    HW128028   2.333   1.339   6.325
 9043SOL    HW228029   2.395   1.265   6.456
 9044SOL     OW28030   5.777   1.617   1.824
 9044SOL    HW128031   5.875   1.619   1.806
 9044SOL    HW228032   5.744   1.523   1.818
 9045SOL     OW28033   3.262   1.909   2.487
 9045SOL    HW128034   3.349   1.860   2.491
 9045SOL    HW228035   3.277   2.006   2.505
 9046SOL     OW28036   3.494   3.786   4.338
 9046SOL    HW128037   3.570   3.812   4.398
 9046SOL    HW228038   3.417   3.848   4.354
 9047SOL     OW28039   1.243   3.065   5.148
 9047SOL    HW128040   1.217   2.973   5.117
 9047SOL    HW228041   1.203   3.133   5.088
 9048SOL     OW28042   6.244   2.555   5.871
 9048SOL    HW128043   6.192   2.552   5.786
 9048SOL    HW228044   6.264   2.461   5.901
 9049SOL     OW28045   3.933   0.249   6.590
 9049SOL    HW128046   3.950   0.322   6.524
 9049SOL    HW228047   3.842   0.210   6.573
 9050SOL     OW28048   0.431   4.486   5.968
 9050SOL    HW128049   0.510   4.474   5.908
 9050SOL    HW228050   0.397   4.580   5.962
 9051SOL     OW28051   4.053   6.289   0.872
 9051SOL    HW128052   4.049   6.231   0.791
 9051SOL    HW228053   3.974   6.271   0.930
 9052SOL     OW28054   1.762   2.292   2.970
 9052SOL    HW128055   1.778   2.333   3.060
 9052SOL    HW228056   1.760   2.364   2.901
 9053SOL     OW28057   1.832   1.401   2.937
 9053SOL    HW128058   1.836   1.311   2.894
 9053SOL    HW228059   1.749   1.448   2.906
 9054SOL     OW28060   1.600   7.017   1.976
 9054SOL    HW128061   1.665   6.959   1.927
 9054SOL    HW228062   1.581   0.076   1.923
 9055SOL     OW28063   6.633   3.949   3.431
 9055SOL    HW128064   6.592   4.000   3.354
 9055SOL    HW228065   6.568   3.946   3.507
 9056SOL     OW28066   6.038   0.420   1.707
 9056SOL    HW128067   6.024   0.422   1.608
 9056SOL    HW228068   6.101   0.347   1.731
 9057SOL     OW28069   5.809   5.072   5.700
 9057SOL    HW128070   5.819   4.978   5.733
 9057SOL    HW228071   5.882   5.129   5.737
 9058SOL     OW28072   2.126   1.951   3.655
 9058SOL    HW128073   2.169   1.863   3.635
 9058SOL    HW228074   2.135   1.971   3.753
 9059SOL     OW28075   1.192   1.367   4.638
 9059SOL    HW128076   1.202   1.365   4.538
 9059SOL    HW228077   1.275   1.328   4.680
 9060SOL     OW28078   6.977   2.610   2.450
 9060SOL    HW128079   0.012   2.561   2.385
 9060SOL    HW228080   7.006   2.589   2.543
 9061SOL     OW28081   3.202   5.574   2.429
 9061SOL    HW128082   3.242   5.635   2.498
 9061SOL    HW228083   3.116   5.612   2.397
 9062SOL     OW28084   1.487   5.529   2.204
 9062SOL    HW128085   1.426   5.503   2.129
 9062SOL    HW228086   1.560   5.461   2.213
 9063SOL     OW28087   2.083   6.490   2.527
 9063SOL    HW128088   2.144   6.569   2.530
 9063SOL    HW228089   2.137   6.406   2.535
 9064SOL     OW28090   6.158   3.817   5.375
 9064SOL    HW128091   6.161   3.916   5.361
 9064SOL    HW228092   6.064   3.788   5.391
 9065SOL     OW28093   3.135   6.170   6.654
 9065SOL    HW128094   3.128   6.143   6.558
 9065SOL    HW228095   3.112   6.267   6.663
 9066SOL     OW28096   5.954   0.585   0.339
 9066SOL    HW128097   5.950   0.679   0.305
 9066SOL    HW228098   6.002   0.583   0.427
 9067SOL     OW28099   6.371   0.207   4.263
 9067SOL    HW128100   6.276   0.227   4.286
 9067SOL    HW228101   6.386   0.226   4.166
 9068SOL     OW28102   2.862   0.510   5.088
 9068SOL    HW128103   2.829   0.545   5.176
 9068SOL    HW228104   2.784   0.495   5.027
 9069SOL     OW28105   2.643   2.220   1.901
 9069SOL    HW128106   2.698   2.137   1.890
 9069SOL    HW228107   2.644   2.248   1.997
 9070SOL     OW28108   0.919   3.260   5.807
 9070SOL    HW128109   0.904   3.357   5.824
 9070SOL    HW228110   0.985   3.249   5.733
 9071SOL     OW28111   5.356   0.228   0.645
 9071SOL    HW128112   5.418   0.269   0.578
 9071SOL    HW228113   5.402   0.152   0.691
 9072SOL     OW28114   6.114   1.126   1.808
 9072SOL    HW128115   6.170   1.091   1.884
 9072SOL    HW228116   6.060   1.204   1.841
 9073SOL     OW28117   3.394   6.674   0.791
 9073SOL    HW128118   3.341   6.591   0.777
 9073SOL    HW228119   3.356   6.748   0.736
 9074SOL     OW28120   1.975   0.943   1.961
 9074SOL    HW128121   2.034   0.879   1.912
 9074SOL    HW228122   2.024   0.979   2.040
 9075SOL     OW28123   0.970   0.686   1.943
 9075SOL    HW128124   1.054   0.712   1.991
 9075SOL    HW228125   0.944   0.760   1.880
 9076SOL     OW28126   5.997   1.840   4.747
 9076SOL    HW128127   6.030   1.848   4.841
 9076SOL    HW228128   6.027   1.919   4.694
 9077SOL     OW28129   5.701   0.343   6.617
 9077SOL    HW128130   5.693   0.354   6.716
 9077SOL    HW228131   5.789   0.379   6.586
 9078SOL     OW28132   4.450   3.866   6.751
 9078SOL    HW128133   4.483   3.785   6.799
 9078SOL    HW228134   4.405   3.838   6.666
 9079SOL     OW28135   2.452   6.137   3.900
 9079SOL    HW128136   2.495   6.228   3.905
 9079SOL    HW228137   2.448   6.108   3.804
 9080SOL     OW28138   5.516   1.974   0.394
 9080SOL    HW128139   5.515   1.874   0.399
 9080SOL    HW228140   5.489   2.012   0.482
 9081SOL     OW28141   4.392   6.374   2.670
 9081SOL    HW128142   4.305   6.356   2.715
 9081SOL    HW228143   4.388   6.345   2.574
 9082SOL     OW28144   3.064   6.713   5.656
 9082SOL    HW128145   3.055   6.696   5.754
 9082SOL    HW228146   2.974   6.714   5.613
 9083SOL     OW28147   3.761   4.292   5.874
 9083SOL    HW128148   3.806   4.345   5.946
 9083SOL    HW228149   3.818   4.215   5.848
 9084SOL     OW28150   3.258   3.713   5.618
 9084SOL    HW128151   3.331   3.780   5.636
 9084SOL    HW228152   3.298   3.622   5.609
 9085SOL     OW28153   1.665   4.566   0.788
 9085SOL    HW128154   1.743   4.589   0.847
 9085SOL    HW228155   1.584   4.552   0.845
 9086SOL     OW28156   0.762   4.589   0.442
 9086SOL    HW128157   0.822   4.629   0.373
 9086SOL    HW228158   0.777   4.490   0.446
 9087SOL     OW28159   4.507   2.351   2.061
 9087SOL    HW128160   4.472   2.398   1.980
 9087SOL    HW228161   4.485   2.404   2.143
 9088SOL     OW28162   6.054   6.027   0.893
 9088SOL    HW128163   5.988   6.083   0.843
 9088SOL    HW228164   6.076   6.073   0.980
 9089SOL     OW28165   5.075   6.164   4.988
 9089SOL    HW128166   5.070   6.186   5.086
 9089SOL    HW228167   5.170   6.166   4.958
 9090SOL     OW28168   6.625   6.319   3.586
 9090SOL    HW128169   6.634   6.412   3.551
 9090SOL    HW228170   6.697   6.302   3.653
 9091SOL     OW28171   2.969   3.500   0.969
 9091SOL    HW128172   2.889   3.512   1.027
 9091SOL    HW228173   3.046   3.550   1.008
 9092SOL     OW28174   0.171   2.118   1.018
 9092SOL    HW128175   0.146   2.164   1.103
 9092SOL    HW228176   0.225   2.180   0.961
 9093SOL     OW28177   1.214   6.298   6.380
 9093SOL    HW128178   1.277   6.371   6.407
 9093SOL    HW228179   1.242   6.261   6.291
 9094SOL     OW28180   6.105   5.424   3.078
 9094SOL    HW128181   6.128   5.328   3.063
 9094SOL    HW228182   6.057   5.460   2.999
 9095SOL     OW28183   4.378   4.008   6.315
 9095SOL    HW128184   4.383   4.023   6.216
 9095SOL    HW228185   4.470   4.002   6.352
 9096SOL     OW28186   5.421   3.921   2.006
 9096SOL    HW128187   5.380   3.883   1.923
 9096SOL    HW228188   5.478   3.852   2.050
 9097SOL     OW28189   1.025   1.880   6.646
 9097SOL    HW128190   1.088   1.803   6.632
 9097SOL    HW228191   0.956   1.855   6.714
 9098SOL     OW28192   3.741   2.340   6.245
 9098SOL    HW128193   3.827   2.361   6.290
 9098SOL    HW228194   3.752   2.348   6.146
 9099SOL     OW28195   2.680   2.759   6.299
 9099SOL    HW128196   2.678   2.749   6.200
 9099SOL    HW228197   2.587   2.773   6.333
 9100SOL     OW28198   0.505   3.749   4.052
 9100SOL    HW128199   0.516   3.748   4.152
 9100SOL    HW228200   0.523   3.840   4.017
 9101SOL     OW28201   2.195   2.121   3.080
 9101SOL    HW128202   2.289   2.149   3.102
 9101SOL    HW228203   2.131   2.188   3.118
 9102SOL     OW28204   2.601   0.139   1.537
 9102SOL    HW128205   2.603   0.059   1.597
 9102SOL    HW228206   2.659   0.211   1.574
 9103SOL     OW28207   6.254   3.171   6.622
 9103SOL    HW128208   6.341   3.213   6.595
 9103SOL    HW228209   6.242   3.179   6.721
 9104SOL     OW28210   6.780   6.405   1.859
 9104SOL    HW128211   6.701   6.355   1.823
 9104SOL    HW228212   6.781   6.398   1.959
 9105SOL     OW28213   1.544   1.234   6.954
 9105SOL    HW128214   1.466   1.295   6.942
 9105SOL    HW228215   1.581   1.245   0.023
 9106SOL     OW28216   7.008   3.478   0.016
 9106SOL    HW128217   6.995   3.428   6.954
 9106SOL    HW228218   0.033   3.564   7.021
 9107SOL     OW28219   3.493   1.098   6.305
 9107SOL    HW128220   3.484   1.009   6.261
 9107SOL    HW228221   3.463   1.092   6.400
 9108SOL     OW28222   4.744   3.941   5.766
 9108SOL    HW128223   4.822   3.944   5.830
 9108SOL    HW228224   4.662   3.916   5.816
 9109SOL     OW28225   6.851   2.263   2.947
 9109SOL    HW128226   6.883   2.339   3.003
 9109SOL    HW228227   6.767   2.226   2.987
 9110SOL     OW28228   1.919   4.241   3.973
 9110SOL    HW128229   1.944   4.154   4.015
 9110SOL    HW228230   1.999   4.280   3.928
 9111SOL     OW28231   4.621   1.938   0.648
 9111SOL    HW128232   4.650   1.855   0.694
 9111SOL    HW228233   4.613   1.920   0.550
 9112SOL     OW28234   0.669   5.187   3.639
 9112SOL    HW128235   0.752   5.131   3.643
 9112SOL    HW228236   0.633   5.199   3.732
 9113SOL     OW28237   4.903   1.162   2.918
 9113SOL    HW128238   4.977   1.149   2.852
 9113SOL    HW228239   4.866   1.255   2.909
 9114SOL     OW28240   0.269   4.242   2.046
 9114SOL    HW128241   0.324   4.164   2.017
 9114SOL    HW228242   0.293   4.267   2.140
 9115SOL     OW28243   0.146   5.832   4.342
 9115SOL    HW128244   0.190   5.917   4.313
 9115SOL    HW228245   0.072   5.808   4.278
 9116SOL     OW28246   6.559   0.866   2.151
 9116SOL    HW128247   6.552   0.965   2.155
 9116SOL    HW228248   6.635   0.840   2.092
 9117SOL     OW28249   5.632   2.346   0.752
 9117SOL    HW128250   5.681   2.289   0.687
 9117SOL    HW228251   5.608   2.433   0.709
 9118SOL     OW28252   6.715   3.723   0.246
 9118SOL    HW128253   6.756   3.790   0.184
 9118SOL    HW228254   6.715   3.633   0.203
 9119SOL     OW28255   4.425   0.302   2.640
 9119SOL    HW128256   4.428   0.250   2.554
 9119SOL    HW228257   4.493   0.266   2.704
 9120SOL     OW28258   6.347   1.777   6.168
 9120SOL    HW128259   6.339   1.681   6.197
 9120SOL    HW228260   6.433   1.790   6.119
 9121SOL     OW28261   4.565   0.956   4.736
 9121SOL    HW128262   4.627   0.968   4.658
 9121SOL    HW228263   4.566   0.861   4.766
 9122SOL     OW28264   2.119   3.911   2.175
 9122SOL    HW128265   2.128   3.829   2.231
 9122SOL    HW228266   2.149   3.892   2.082
 9123SOL     OW28267   2.800   0.635   3.386
 9123SOL    HW128268   2.748   0.717   3.359
 9123SOL    HW228269   2.770   0.606   3.477
 9124SOL     OW28270   5.299   6.472   0.298
 9124SOL    HW128271   5.282   6.380   0.335
 9124SOL    HW228272   5.217   6.502   0.248
 9125SOL     OW28273   4.860   4.304   0.434
 9125SOL    HW128274   4.904   4.259   0.512
 9125SOL    HW228275   4.826   4.394   0.462
 9126SOL     OW28276   6.153   3.481   1.136
 9126SOL    HW128277   6.086   3.407   1.123
 9126SOL    HW228278   6.178   3.518   1.047
 9127SOL     OW28279   0.058   1.583   6.290
 9127SOL    HW128280   6.992   1.548   6.317
 9127SOL    HW228281   0.047   1.650   6.216
 9128SOL     OW28282   6.527   2.180   5.315
 9128SOL    HW128283   6.452   2.149   5.372
 9128SOL    HW228284   6.512   2.276   5.289
 9129SOL     OW28285   0.059   2.477   0.337
 9129SOL    HW128286   0.074   2.410   0.410
 9129SOL    HW228287   0.085   2.437   0.249
 9130SOL     OW28288   0.322   3.229   6.131
 9130SOL    HW128289   0.399   3.213   6.070
 9130SOL    HW228290   0.244   3.173   6.101
 9131SOL     OW28291   5.694   3.226   5.499
 9131SOL    HW128292   5.595   3.242   5.506
 9131SOL    HW228293   5.729   3.193   5.586
 9132SOL     OW28294   0.435   5.705   4.184
 9132SOL    HW128295   0.348   5.666   4.153
 9132SOL    HW228296   0.422   5.801   4.206
 9133SOL     OW28297   3.542   6.742   1.782
 9133SOL    HW128298   3.525   6.834   1.747
 9133SOL    HW228299   3.639   6.720   1.774
 9134SOL     OW28300   3.779   6.169   1.534
 9134SOL    HW128301   3.734   6.249   1.493
 9134SOL    HW228302   3.844   6.131   1.469
 9135SOL     OW28303   6.169   6.608   1.712
 9135SOL    HW128304   6.257   6.654   1.717
 9135SOL    HW228305   6.150   6.561   1.798
 9136SOL     OW28306   5.186   6.413   6.974
 9136SOL    HW128307   5.183   6.411   6.874
 9136SOL    HW228308   5.093   6.423   7.010
 9137SOL     OW28309   5.104   1.323   0.675
 9137SOL    HW128310   5.184   1.334   0.734
 9137SOL    HW228311   5.127   1.355   0.583
 9138SOL     OW28312   0.181   6.166   6.598
 9138SOL    HW128313   0.244   6.167   6.521
 9138SOL    HW228314   0.117   6.089   6.589
 9139SOL     OW28315   1.826   1.804   2.947
 9139SOL    HW128316   1.892   1.861   2.996
 9139SOL    HW228317   1.782   1.858   2.876
 9140SOL     OW28318   0.004   3.175   2.583
 9140SOL    HW128319   6.973   3.173   2.666
 9140SOL    HW228320   0.101   3.173   2.607
 9141SOL     OW28321   5.366   0.102   1.179
 9141SOL    HW128322   5.328   0.026   1.126
 9141SOL    HW228323   5.376   0.182   1.120
 9142SOL     OW28324   0.525   2.718   0.882
 9142SOL    HW128325   0.614   2.713   0.926
 9142SOL    HW228326   0.513   2.639   0.821
 9143SOL     OW28327   6.453   3.051   0.368
 9143SOL    HW128328   6.430   3.034   0.272
 9143SOL    HW228329   6.485   3.145   0.379
 9144SOL     OW28330   2.763   5.265   4.885
 9144SOL    HW128331   2.705   5.211   4.945
 9144SOL    HW228332   2.752   5.232   4.791
 9145SOL     OW28333   0.164   5.586   6.879
 9145SOL    HW128334   0.259   5.584   6.847
 9145SOL    HW228335   0.106   5.625   6.807
 9146SOL     OW28336   5.495   3.229   3.960
 9146SOL    HW128337   5.496   3.283   3.876
 9146SOL    HW228338   5.459   3.138   3.940
 9147SOL     OW28339   5.870   6.450   5.566
 9147SOL    HW128340   5.920   6.364   5.580
 9147SOL    HW228341   5.920   6.507   5.501
 9148SOL     OW28342   5.288   6.274   1.339
 9148SOL    HW128343   5.206   6.330   1.324
 9148SOL    HW228344   5.295   6.249   1.435
 9149SOL     OW28345   5.834   3.798   2.500
 9149SOL    HW128346   5.744   3.786   2.543
 9149SOL    HW228347   5.903   3.816   2.571
 9150SOL     OW28348   3.266   5.193   0.858
 9150SOL    HW128349   3.358   5.178   0.895
 9150SOL    HW228350   3.246   5.291   0.856
 9151SOL     OW28351   1.700   4.611   3.630
 9151SOL    HW128352   1.694   4.707   3.601
 9151SOL    HW228353   1.608   4.573   3.636
 9152SOL     OW28354   2.151   3.928   4.443
 9152SOL    HW128355   2.133   3.930   4.542
 9152SOL    HW228356   2.102   3.852   4.401
 9153SOL     OW28357   0.443   2.880   6.878
 9153SOL    HW128358   0.452   2.948   6.806
 9153SOL    HW228359   0.349   2.879   6.913
 9154SOL     OW28360   5.660   5.011   6.245
 9154SOL    HW128361   5.684   4.968   6.159
 9154SOL    HW228362   5.729   5.080   6.268
 9155SOL     OW28363   1.615   3.849   2.557
 9155SOL    HW128364   1.610   3.755   2.523
 9155SOL    HW228365   1.710   3.878   2.559
 9156SOL     OW28366   0.755   2.378   0.913
 9156SOL    HW128367   0.840   2.336   0.947
 9156SOL    HW228368   0.677   2.342   0.965
 9157SOL     OW28369   2.482   4.140   6.348
 9157SOL    HW128370   2.533   4.171   6.428
 9157SOL    HW228371   2.404   4.200   6.332
 9158SOL     OW28372   5.976   3.289   4.191
 9158SOL    HW128373   5.886   3.299   4.149
 9158SOL    HW228374   5.984   3.198   4.230
 9159SOL     OW28375   1.774   0.918   2.431
 9159SOL    HW128376   1.700   0.892   2.369
 9159SOL    HW228377   1.736   0.970   2.508
 9160SOL     OW28378   0.248   6.830   6.072
 9160SOL    HW128379   0.273   6.811   5.977
 9160SOL    HW228380   0.329   6.826   6.130
 9161SOL     OW28381   5.218   5.165   4.073
 9161SOL    HW128382   5.296   5.226   4.060
 9161SOL    HW228383   5.134   5.220   4.082
 9162SOL     OW28384   4.289   0.692   3.866
 9162SOL    HW128385   4.355   0.635   3.915
 9162SOL    HW228386   4.295   0.673   3.768
 9163SOL     OW28387   0.517   2.394   4.188
 9163SOL    HW128388   0.581   2.455   4.235
 9163SOL    HW228389   0.425   2.407   4.227
 9164SOL     OW28390   1.969   0.429   0.028
 9164SOL    HW128391   1.917   0.352   7.017
 9164SOL    HW228392   1.916   0.513   0.018
 9165SOL     OW28393   6.077   1.639   5.850
 9165SOL    HW128394   6.093   1.630   5.752
 9165SOL    HW228395   6.077   1.548   5.892
 9166SOL     OW28396   3.939   6.442   1.319
 9166SOL    HW128397   3.993   6.456   1.402
 9166SOL    HW228398   3.932   6.528   1.268
 9167SOL     OW28399   2.171   2.376   6.327
 9167SOL    HW128400   2.258   2.393   6.372
 9167SOL    HW228401   2.098   2.368   6.395
 9168SOL     OW28402   6.321   6.103   6.026
 9168SOL    HW128403   6.371   6.180   6.066
 9168SOL    HW228404   6.228   6.102   6.063
 9169SOL     OW28405   0.070   6.852   6.718
 9169SOL    HW128406   0.161   6.894   6.716
 9169SOL    HW228407   0.004   6.917   6.757
 9170SOL     OW28408   1.632   0.260   6.840
 9170SOL    HW128409   1.693   0.229   6.768
 9170SOL    HW228410   1.617   0.359   6.830
 9171SOL     OW28411   3.450   6.119   0.670
 9171SOL    HW128412   3.375   6.097   0.732
 9171SOL    HW228413   3.417   6.181   0.599
 9172SOL     OW28414   4.879   1.167   3.230
 9172SOL    HW128415   4.897   1.253   3.279
 9172SOL    HW228416   4.850   1.188   3.136
 9173SOL     OW28417   5.904   4.878   6.002
 9173SOL    HW128418   5.998   4.855   5.977
 9173SOL    HW228419   5.900   4.974   6.032
 9174SOL     OW28420   6.771   5.358   0.556
 9174SOL    HW128421   6.794   5.270   0.597
 9174SOL    HW228422   6.855   5.413   0.546
 9175SOL     OW28423   1.605   6.180   6.286
 9175SOL    HW128424   1.573   6.268   6.321
 9175SOL    HW228425   1.703   6.171   6.304
 9176SOL     OW28426   2.372   1.006   2.174
 9176SOL    HW128427   2.403   0.921   2.133
 9176SOL    HW228428   2.442   1.076   2.163
 9177SOL     OW28429   0.893   3.757   4.163
 9177SOL    HW128430   0.853   3.843   4.130
 9177SOL    HW228431   0.992   3.764   4.160
 9178SOL     OW28432   2.252   4.795   6.572
 9178SOL    HW128433   2.226   4.738   6.494
 9178SOL    HW228434   2.338   4.843   6.553
 9179SOL     OW28435   2.077   5.537   3.977
 9179SOL    HW128436   2.018   5.572   3.904
 9179SOL    HW228437   2.041   5.568   4.066
 9180SOL     OW28438   6.383   2.149   3.444
 9180SOL    HW128439   6.473   2.106   3.456
 9180SOL    HW228440   6.379   2.233   3.498
 9181SOL     OW28441   6.434   2.251   4.411
 9181SOL    HW128442   6.426   2.154   4.437
 9181SOL    HW228443   6.501   2.295   4.470
 9182SOL     OW28444   2.683   0.070   3.087
 9182SOL    HW128445   2.733   0.083   3.172
 9182SOL    HW228446   2.609   0.005   3.101
 9183SOL     OW28447   4.580   4.580   0.107
 9183SOL    HW128448   4.669   4.572   0.061
 9183SOL    HW228449   4.594   4.587   0.206
 9184SOL     OW28450   4.195   2.571   1.399
 9184SOL    HW128451   4.182   2.517   1.316
 9184SOL    HW228452   4.146   2.658   1.390
 9185SOL     OW28453   6.599   6.749   4.899
 9185SOL    HW128454   6.652   6.667   4.880
 9185SOL    HW228455   6.546   6.736   4.983
 9186SOL     OW28456   5.932   0.051   4.619
 9186SOL    HW128457   5.854   7.022   4.586
 9186SOL    HW228458   6.007   0.045   4.553
 9187SOL     OW28459   3.592   1.684   6.969
 9187SOL    HW128460   3.620   1.711   0.038
 9187SOL    HW228461   3.624   1.592   6.950
 9188SOL     OW28462   2.182   0.197   1.454
 9188SOL    HW128463   2.200   0.177   1.550
 9188SOL    HW228464   2.086   0.176   1.433
 9189SOL     OW28465   3.560   5.752   2.631
 9189SOL    HW128466   3.619   5.728   2.554
 9189SOL    HW228467   3.468   5.716   2.615
 9190SOL     OW28468   0.780   3.010   5.171
 9190SOL    HW128469   0.832   2.975   5.248
 9190SOL    HW228470   0.707   2.945   5.148
 9191SOL     OW28471   5.809   1.190   6.828
 9191SOL    HW128472   5.817   1.228   6.920
 9191SOL    HW228473   5.845   1.097   6.827
 9192SOL     OW28474   6.803   2.338   6.374
 9192SOL    HW128475   6.749   2.259   6.346
 9192SOL    HW228476   6.819   2.335   6.472
 9193SOL     OW28477   3.582   3.200   4.633
 9193SOL    HW128478   3.637   3.281   4.612
 9193SOL    HW228479   3.508   3.226   4.695
 9194SOL     OW28480   3.328   0.631   2.875
 9194SOL    HW128481   3.248   0.654   2.820
 9194SOL    HW228482   3.373   0.551   2.837
 9195SOL     OW28483   1.622   3.290   3.011
 9195SOL    HW128484   1.710   3.253   2.981
 9195SOL    HW228485   1.616   3.284   3.111
 9196SOL     OW28486   5.869   6.409   4.129
 9196SOL    HW128487   5.809   6.332   4.108
 9196SOL    HW228488   5.964   6.384   4.112
 9197SOL     OW28489   2.975   4.679   0.687
 9197SOL    HW128490   2.908   4.748   0.659
 9197SOL    HW228491   3.012   4.702   0.777
 9198SOL     OW28492   6.281   4.160   6.566
 9198SOL    HW128493   6.248   4.182   6.475
 9198SOL    HW228494   6.214   4.190   6.634
 9199SOL     OW28495   0.066   2.846   5.342
 9199SOL    HW128496   0.064   2.747   5.356
 9199SOL    HW228497   0.106   2.890   5.423
 9200SOL     OW28498   2.724   6.173   5.696
 9200SOL    HW128499   2.714   6.080   5.662
 9200SOL    HW228500   2.818   6.204   5.682
 9201SOL     OW28501   6.829   3.155   6.717
 9201SOL    HW128502   6.886   3.235   6.735
 9201SOL    HW228503   6.738   3.170   6.756
 9202SOL     OW28504   1.028   5.371   4.178
 9202SOL    HW128505   1.062   5.377   4.272
 9202SOL    HW228506   1.105   5.378   4.115
 9203SOL     OW28507   6.345   2.908   5.916
 9203SOL    HW128508   6.355   2.986   5.979
 9203SOL    HW228509   6.413   2.916   5.843
 9204SOL     OW28510   4.886   3.805   4.541
 9204SOL    HW128511   4.791   3.831   4.563
 9204SOL    HW228512   4.929   3.764   4.622
 9205SOL     OW28513   5.137   5.667   3.046
 9205SOL    HW128514   5.186   5.679   3.133
 9205SOL    HW228515   5.039   5.678   3.061
 9206SOL     OW28516   3.257   6.454   3.104
 9206SOL    HW128517   3.174   6.510   3.109
 9206SOL    HW228518   3.336   6.514   3.092
 9207SOL     OW28519   4.253   4.970   0.000
 9207SOL    HW128520   4.155   4.980   7.005
 9207SOL    HW228521   4.284   4.881   6.992
 9208SOL     OW28522   5.554   4.007   2.489
 9208SOL    HW128523   5.461   4.043   2.495
 9208SOL    HW228524   5.551   3.907   2.491
 9209SOL     OW28525   4.785   1.028   1.287
 9209SOL    HW128526   4.885   1.029   1.284
 9209SOL    HW228527   4.754   1.067   1.374
 9210SOL     OW28528   1.525   1.481   1.018
 9210SOL    HW128529   1.498   1.408   0.955
 9210SOL    HW228530   1.542   1.442   1.109
 9211SOL     OW28531   6.173   2.894   6.214
 9211SOL    HW128532   6.121   2.940   6.142
 9211SOL    HW228533   6.116   2.887   6.296
 9212SOL     OW28534   5.152   4.418   4.544
 9212SOL    HW128535   5.154   4.321   4.521
 9212SOL    HW228536   5.243   4.457   4.532
 9213SOL     OW28537   5.091   5.096   4.361
 9213SOL    HW128538   5.052   5.187   4.352
 9213SOL    HW228539   5.186   5.103   4.391
 9214SOL     OW28540   0.391   2.978   5.008
 9214SOL    HW128541   0.378   3.053   4.943
 9214SOL    HW228542   0.302   2.939   5.032
 9215SOL     OW28543   1.330   4.466   2.487
 9215SOL    HW128544   1.232   4.457   2.471
 9215SOL    HW228545   1.346   4.518   2.570
 9216SOL     OW28546   2.524   6.561   3.569
 9216SOL    HW128547   2.517   6.498   3.492
 9216SOL    HW228548   2.620   6.575   3.592
 9217SOL     OW28549   6.782   2.896   6.503
 9217SOL    HW128550   6.829   2.832   6.442
 9217SOL    HW228551   6.815   2.884   6.596
 9218SOL     OW28552   3.680   1.066   0.071
 9218SOL    HW128553   3.638   1.099   7.009
 9218SOL    HW228554   3.730   0.982   0.053
 9219SOL     OW28555   4.743   4.197   6.601
 9219SOL    HW128556   4.668   4.253   6.634
 9219SOL    HW228557   4.803   4.173   6.677
 9220SOL     OW28558   1.079   6.484   2.005
 9220SOL    HW128559   1.175   6.454   2.004
 9220SOL    HW228560   1.045   6.487   1.911
 9221SOL     OW28561   2.268   7.022   3.758
 9221SOL    HW128562   2.314   6.961   3.823
 9221SOL    HW228563   2.316   7.019   3.670
 9222SOL     OW28564   2.507   5.812   5.262
 9222SOL    HW128565   2.574   5.780   5.194
 9222SOL    HW228566   2.423   5.840   5.216
 9223SOL     OW28567   1.199   2.751   4.265
 9223SOL    HW128568   1.270   2.819   4.251
 9223SOL    HW228569   1.134   2.784   4.333
 9224SOL     OW28570   1.539   5.124   3.440
 9224SOL    HW128571   1.537   5.072   3.354
 9224SOL    HW228572   1.634   5.142   3.465
 9225SOL     OW28573   3.191   6.020   5.797
 9225SOL    HW128574   3.267   5.959   5.775
 9225SOL    HW228575   3.127   5.975   5.859
 9226SOL     OW28576   0.605   6.630   1.542
 9226SOL    HW128577   0.544   6.694   1.496
 9226SOL    HW228578   0.643   6.673   1.624
 9227SOL     OW28579   2.008   5.955   0.976
 9227SOL    HW128580   1.929   5.991   1.026
 9227SOL    HW228581   2.005   5.988   0.882
 9228SOL     OW28582   2.843   1.577   6.951
 9228SOL    HW128583   2.748   1.597   6.974
 9228SOL    HW228584   2.851   1.565   6.852
 9229SOL     OW28585   0.842   4.662   5.381
 9229SOL    HW128586   0.831   4.687   5.285
 9229SOL    HW228587   0.886   4.736   5.431
 9230SOL     OW28588   5.091   3.002   3.776
 9230SOL    HW128589   5.172   3.053   3.748
 9230SOL    HW228590   5.077   2.924   3.715
 9231SOL     OW28591   1.095   3.214   5.592
 9231SOL    HW128592   1.161   3.287   5.573
 9231SOL    HW228593   1.143   3.126   5.593
 9232SOL     OW28594   2.934   5.215   6.539
 9232SOL    HW128595   2.867   5.268   6.592
 9232SOL    HW228596   3.026   5.238   6.571
 9233SOL     OW28597   6.370   6.398   1.141
 9233SOL    HW128598   6.464   6.412   1.170
 9233SOL    HW228599   6.308   6.428   1.214
 9234SOL     OW28600   2.985   5.744   0.608
 9234SOL    HW128601   2.937   5.662   0.640
 9234SOL    HW228602   3.083   5.733   0.626
 9235SOL     OW28603   2.177   2.406   3.490
 9235SOL    HW128604   2.126   2.485   3.456
 9235SOL    HW228605   2.265   2.401   3.444
 9236SOL     OW28606   1.666   4.287   6.474
 9236SOL    HW128607   1.705   4.368   6.519
 9236SOL    HW228608   1.566   4.292   6.479
 9237SOL     OW28609   0.719   5.882   2.791
 9237SOL    HW128610   0.766   5.970   2.792
 9237SOL    HW228611   0.659   5.875   2.871
 9238SOL     OW28612   2.614   3.225   6.285
 9238SOL    HW128613   2.692   3.272   6.243
 9238SOL    HW228614   2.570   3.167   6.216
 9239SOL     OW28615   0.300   3.677   5.844
 9239SOL    HW128616   0.376   3.670   5.910
 9239SOL    HW228617   0.335   3.711   5.757
 9240SOL     OW28618   4.715   2.778   2.267
 9240SOL    HW128619   4.722   2.860   2.324
 9240SOL    HW228620   4.694   2.805   2.173
 9241SOL     OW28621   0.212   5.046   0.122
 9241SOL    HW128622   0.254   5.108   0.189
 9241SOL    HW228623   0.116   5.031   0.147
 9242SOL     OW28624   1.355   3.875   1.023
 9242SOL    HW128625   1.351   3.777   1.005
 9242SOL    HW228626   1.428   3.893   1.088
 9243SOL     OW28627   0.209   0.195   1.381
 9243SOL    HW128628   0.278   0.148   1.436
 9243SOL    HW228629   0.232   0.293   1.376
 9244SOL     OW28630   3.500   5.717   5.994
 9244SOL    HW128631   3.420   5.664   5.965
 9244SOL    HW228632   3.488   5.746   6.089
 9245SOL     OW28633   0.827   5.242   3.926
 9245SOL    HW128634   0.739   5.288   3.937
 9245SOL    HW228635   0.901   5.307   3.946
 9246SOL     OW28636   6.336   6.961   2.933
 9246SOL    HW128637   6.274   6.962   2.854
 9246SOL    HW228638   6.397   6.882   2.926
 9247SOL     OW28639   2.454   5.844   3.450
 9247SOL    HW128640   2.384   5.847   3.379
 9247SOL    HW228641   2.492   5.751   3.455
 9248SOL     OW28642   3.111   1.941   4.283
 9248SOL    HW128643   3.110   1.904   4.376
 9248SOL    HW228644   3.072   1.875   4.220
 9249SOL     OW28645   3.737   4.849   1.163
 9249SOL    HW128646   3.718   4.894   1.251
 9249SOL    HW228647   3.718   4.751   1.172
 9250SOL     OW28648   5.453   3.074   4.753
 9250SOL    HW128649   5.361   3.037   4.757
 9250SOL    HW228650   5.484   3.074   4.658
 9251SOL     OW28651   4.150   1.835   3.066
 9251SOL    HW128652   4.149   1.892   2.984
 9251SOL    HW228653   4.238   1.788   3.073
 9252SOL     OW28654   5.518   0.868   4.796
 9252SOL    HW128655   5.453   0.909   4.732
 9252SOL    HW228656   5.520   0.769   4.783
 9253SOL     OW28657   5.587   5.672   5.666
 9253SOL    HW128658   5.541   5.759   5.681
 9253SOL    HW228659   5.517   5.600   5.655
 9254SOL     OW28660   5.167   5.067   2.971
 9254SOL    HW128661   5.145   5.165   2.961
 9254SOL    HW228662   5.170   5.025   2.881
 9255SOL     OW28663   4.799   3.675   0.048
 9255SOL    HW128664   4.794   3.768   0.012
 9255SOL    HW228665   4.885   3.663   0.098
 9256SOL     OW28666   3.157   0.275   2.558
 9256SOL    HW128667   3.245   0.308   2.525
 9256SOL    HW228668   3.118   0.211   2.492
 9257SOL     OW28669   0.157   4.536   3.296
 9257SOL    HW128670   0.159   4.602   3.372
 9257SOL    HW228671   0.115   4.451   3.327
 9258SOL     OW28672   3.662   3.814   2.475
 9258SOL    HW128673   3.610   3.807   2.561
 9258SOL    HW228674   3.601   3.794   2.398
 9259SOL     OW28675   0.743   1.938   0.854
 9259SOL    HW128676   0.795   1.909   0.934
 9259SOL    HW228677   0.698   2.025   0.873
 9260SOL     OW28678   6.279   1.787   5.428
 9260SOL    HW128679   6.198   1.809   5.374
 9260SOL    HW228680   6.359   1.783   5.367
 9261SOL     OW28681   3.366   1.624   0.582
 9261SOL    HW128682   3.426   1.568   0.639
 9261SOL    HW228683   3.407   1.714   0.568
 9262SOL     OW28684   6.686   5.505   5.176
 9262SOL    HW128685   6.768   5.486   5.230
 9262SOL    HW228686   6.705   5.492   5.079
 9263SOL     OW28687   4.449   0.691   1.821
 9263SOL    HW128688   4.383   0.681   1.896
 9263SOL    HW228689   4.541   0.678   1.857
 9264SOL     OW28690   4.978   4.629   0.428
 9264SOL    HW128691   4.937   4.717   0.452
 9264SOL    HW228692   5.024   4.636   0.339
 9265SOL     OW28693   3.822   2.599   6.806
 9265SOL    HW128694   3.816   2.645   6.718
 9265SOL    HW228695   3.780   2.509   6.800
 9266SOL     OW28696   1.104   6.082   0.824
 9266SOL    HW128697   1.021   6.061   0.771
 9266SOL    HW228698   1.094   6.047   0.917
 9267SOL     OW28699   0.314   1.845   4.603
 9267SOL    HW128700   0.217   1.855   4.579
 9267SOL    HW228701   0.321   1.810   4.697
 9268SOL     OW28702   1.217   6.122   2.583
 9268SOL    HW128703   1.129   6.102   2.538
 9268SOL    HW228704   1.213   6.093   2.678
 9269SOL     OW28705   4.284   1.173   6.303
 9269SOL    HW128706   4.321   1.094   6.255
 9269SOL    HW228707   4.215   1.142   6.369
 9270SOL     OW28708   4.800   6.335   6.036
 9270SOL    HW128709   4.728   6.277   5.998
 9270SOL    HW228710   4.758   6.415   6.081
 9271SOL     OW28711   6.111   0.406   0.747
 9271SOL    HW128712   6.097   0.308   0.757
 9271SOL    HW228713   6.146   0.444   0.833
 9272SOL     OW28714   0.674   5.855   5.036
 9272SOL    HW128715   0.758   5.801   5.031
 9272SOL    HW228716   0.595   5.793   5.036
 9273SOL     OW28717   5.929   6.177   2.795
 9273SOL    HW128718   5.940   6.267   2.837
 9273SOL    HW228719   5.875   6.186   2.712
 9274SOL     OW28720   6.530   1.507   0.624
 9274SOL    HW128721   6.621   1.468   0.611
 9274SOL    HW228722   6.527   1.553   0.713
 9275SOL     OW28723   6.274   1.361   6.981
 9275SOL    HW128724   6.225   1.420   6.918
 9275SOL    HW228725   6.214   1.286   7.010
 9276SOL     OW28726   1.521   3.767   1.722
 9276SOL    HW128727   1.551   3.857   1.691
 9276SOL    HW228728   1.583   3.696   1.687
 9277SOL     OW28729   4.094   4.552   0.601
 9277SOL    HW128730   4.165   4.533   0.668
 9277SOL    HW228731   4.130   4.536   0.509
 9278SOL     OW28732   1.973   0.356   5.815
 9278SOL    HW128733   2.065   0.328   5.789
 9278SOL    HW228734   1.923   0.385   5.733
 9279SOL     OW28735   3.071   0.469   1.874
 9279SOL    HW128736   3.106   0.553   1.832
 9279SOL    HW228737   3.055   0.401   1.802
 9280SOL     OW28738   2.390   1.625   2.671
 9280SOL    HW128739   2.397   1.531   2.635
 9280SOL    HW228740   2.315   1.672   2.624
 9281SOL     OW28741   2.668   3.909   6.905
 9281SOL    HW128742   2.577   3.868   6.909
 9281SOL    HW228743   2.699   3.911   6.810
 9282SOL     OW28744   5.607   0.240   3.561
 9282SOL    HW128745   5.620   0.196   3.650
 9282SOL    HW228746   5.683   0.214   3.500
 9283SOL     OW28747   5.020   0.557   4.020
 9283SOL    HW128748   5.024   0.634   3.957
 9283SOL    HW228749   4.999   0.591   4.112
 9284SOL     OW28750   2.904   3.228   5.385
 9284SOL    HW128751   2.905   3.319   5.426
 9284SOL    HW228752   2.818   3.183   5.406
 9285SOL     OW28753   5.221   2.726   0.714
 9285SOL    HW128754   5.306   2.759   0.755
 9285SOL    HW228755   5.143   2.776   0.753
 9286SOL     OW28756   5.369   6.030   0.633
 9286SOL    HW128757   5.374   5.976   0.717
 9286SOL    HW228758   5.446   6.007   0.573
 9287SOL     OW28759   3.396   5.167   6.466
 9287SOL    HW128760   3.445   5.080   6.473
 9287SOL    HW228761   3.385   5.206   6.557
 9288SOL     OW28762   4.376   1.338   2.692
 9288SOL    HW128763   4.283   1.349   2.657
 9288SOL    HW228764   4.402   1.242   2.688
 9289SOL     OW28765   4.093   0.645   1.528
 9289SOL    HW128766   4.135   0.591   1.601
 9289SOL    HW228767   4.160   0.711   1.494
 9290SOL     OW28768   5.339   0.294   3.360
 9290SOL    HW128769   5.395   0.349   3.423
 9290SOL    HW228770   5.323   0.346   3.276
 9291SOL     OW28771   1.249   5.015   6.005
 9291SOL    HW128772   1.177   4.995   6.071
 9291SOL    HW228773   1.329   4.958   6.024
 9292SOL     OW28774   1.829   2.639   6.059
 9292SOL    HW128775   1.897   2.698   6.104
 9292SOL    HW228776   1.836   2.650   5.960
 9293SOL     OW28777   6.138   2.937   6.695
 9293SOL    HW128778   6.181   3.010   6.641
 9293SOL    HW228779   6.192   2.853   6.687
 9294SOL     OW28780   4.860   0.262   6.038
 9294SOL    HW128781   4.927   0.314   6.090
 9294SOL    HW228782   4.886   0.260   5.941
 9295SOL     OW28783   5.716   0.825   5.016
 9295SOL    HW128784   5.645   0.845   4.949
 9295SOL    HW228785   5.806   0.834   4.973
 9296SOL     OW28786   1.184   5.408   6.481
 9296SOL    HW128787   1.136   5.367   6.558
 9296SOL    HW228788   1.149   5.500   6.466
 9297SOL     OW28789   1.155   6.691   3.230
 9297SOL    HW128790   1.141   6.783   3.193
 9297SOL    HW228791   1.067   6.651   3.255
 9298SOL     OW28792   1.082   6.314   6.761
 9298SOL    HW128793   1.091   6.240   6.695
 9298SOL    HW228794   0.995   6.361   6.747
 9299SOL     OW28795   0.377   2.014   4.383
 9299SOL    HW128796   0.280   2.007   4.363
 9299SOL    HW228797   0.427   1.943   4.332
 9300SOL     OW28798   0.671   4.518   5.836
 9300SOL    HW128799   0.742   4.460   5.796
 9300SOL    HW228800   0.696   4.614   5.827
 9301SOL     OW28801   5.670   5.284   5.140
 9301SOL    HW128802   5.610   5.205   5.152
 9301SOL    HW228803   5.642   5.356   5.204
 9302SOL     OW28804   2.190   2.891   4.354
 9302SOL    HW128805   2.253   2.856   4.424
 9302SOL    HW228806   2.121   2.822   4.334
 9303SOL     OW28807   2.805   3.786   0.677
 9303SOL    HW128808   2.845   3.821   0.762
 9303SOL    HW228809   2.801   3.686   0.682
 9304SOL     OW28810   4.018   4.611   1.740
 9304SOL    HW128811   3.996   4.516   1.720
 9304SOL    HW228812   4.075   4.648   1.666
 9305SOL     OW28813   3.710   1.538   0.979
 9305SOL    HW128814   3.680   1.610   1.042
 9305SOL    HW228815   3.729   1.455   1.030
 9306SOL     OW28816   1.072   4.001   5.244
 9306SOL    HW128817   1.153   3.973   5.296
 9306SOL    HW228818   1.088   3.986   5.146
 9307SOL     OW28819   0.784   3.879   0.999
 9307SOL    HW128820   0.858   3.946   0.989
 9307SOL    HW228821   0.819   3.799   1.048
 9308SOL     OW28822   1.374   3.882   0.470
 9308SOL    HW128823   1.305   3.860   0.539
 9308SOL    HW228824   1.340   3.858   0.379
 9309SOL     OW28825   3.464   5.305   6.081
 9309SOL    HW128826   3.490   5.212   6.053
 9309SOL    HW228827   3.400   5.343   6.014
 9310SOL     OW28828   5.761   5.839   5.506
 9310SOL    HW128829   5.715   5.765   5.553
 9310SOL    HW228830   5.793   5.807   5.417
 9311SOL     OW28831   4.404   4.984   1.559
 9311SOL    HW128832   4.442   4.950   1.473
 9311SOL    HW228833   4.368   4.907   1.612
 9312SOL     OW28834   1.290   3.558   1.596
 9312SOL    HW128835   1.305   3.544   1.498
 9312SOL    HW228836   1.307   3.654   1.620
 9313SOL     OW28837   0.000   0.558   1.971
 9313SOL    HW128838   6.964   0.563   1.891
 9313SOL    HW228839   0.094   0.540   1.941
 9314SOL     OW28840   6.543   4.219   6.994
 9314SOL    HW128841   6.552   4.306   6.947
 9314SOL    HW228842   6.502   4.151   6.933
 9315SOL     OW28843   0.027   7.000   5.661
 9315SOL    HW128844   7.002   6.936   5.721
 9315SOL    HW228845   0.008   0.070   5.690
 9316SOL     OW28846   5.598   6.549   6.024
 9316SOL    HW128847   5.511   6.510   5.993
 9316SOL    HW228848   5.654   6.571   5.944
 9317SOL     OW28849   4.824   5.839   3.876
 9317SOL    HW128850   4.796   5.910   3.941
 9317SOL    HW228851   4.748   5.777   3.859
 9318SOL     OW28852   6.206   0.963   6.303
 9318SOL    HW128853   6.183   0.930   6.394
 9318SOL    HW228854   6.192   0.890   6.236
 9319SOL     OW28855   1.957   3.004   0.657
 9319SOL    HW128856   2.027   3.060   0.702
 9319SOL    HW228857   1.921   3.052   0.577
 9320SOL     OW28858   3.758   0.647   5.108
 9320SOL    HW128859   3.724   0.741   5.114
 9320SOL    HW228860   3.857   0.647   5.115
 9321SOL     OW28861   1.042   0.324   5.189
 9321SOL    HW128862   1.074   0.267   5.265
 9321SOL    HW228863   0.983   0.269   5.129
 9322SOL     OW28864   6.850   3.637   6.216
 9322SOL    HW128865   6.922   3.703   6.239
 9322SOL    HW228866   6.762   3.684   6.212
 9323SOL     OW28867   1.267   1.174   5.172
 9323SOL    HW128868   1.349   1.218   5.208
 9323SOL    HW228869   1.269   1.076   5.193
 9324SOL     OW28870   1.372   4.603   2.241
 9324SOL    HW128871   1.373   4.540   2.319
 9324SOL    HW228872   1.454   4.588   2.186
 9325SOL     OW28873   6.093   0.432   6.915
 9325SOL    HW128874   6.137   0.430   6.825
 9325SOL    HW228875   5.999   0.464   6.905
 9326SOL     OW28876   2.757   4.687   0.219
 9326SOL    HW128877   2.783   4.602   0.265
 9326SOL    HW228878   2.659   4.685   0.199
 9327SOL     OW28879   4.793   0.335   2.690
 9327SOL    HW128880   4.820   0.264   2.624
 9327SOL    HW228881   4.827   0.424   2.660
 9328SOL     OW28882   2.286   0.751   4.266
 9328SOL    HW128883   2.228   0.673   4.289
 9328SOL    HW228884   2.273   0.775   4.170
 9329SOL     OW28885   5.774   3.684   1.190
 9329SOL    HW128886   5.690   3.672   1.138
 9329SOL    HW228887   5.838   3.740   1.136
 9330SOL     OW28888   0.086   0.457   5.413
 9330SOL    HW128889   0.116   0.434   5.321
 9330SOL    HW228890   0.022   0.387   5.446
 9331SOL     OW28891   2.764   0.933   6.500
 9331SOL    HW128892   2.724   0.950   6.410
 9331SOL    HW228893   2.716   0.987   6.568
 9332SOL     OW28894   3.336   4.634   0.408
 9332SOL    HW128895   3.326   4.565   0.336
 9332SOL    HW228896   3.430   4.668   0.409
 9333SOL     OW28897   3.817   5.085   6.495
 9333SOL    HW128898   3.825   5.180   6.466
 9333SOL    HW228899   3.881   5.066   6.569
 9334SOL     OW28900   5.114   6.662   4.724
 9334SOL    HW128901   5.087   6.672   4.820
 9334SOL    HW228902   5.036   6.687   4.665
 9335SOL     OW28903   1.367   1.430   6.711
 9335SOL    HW128904   1.288   1.484   6.683
 9335SOL    HW228905   1.348   1.333   6.697
 9336SOL     OW28906   4.119   0.391   4.689
 9336SOL    HW128907   4.044   0.335   4.655
 9336SOL    HW228908   4.206   0.351   4.659
 9337SOL     OW28909   4.371   0.639   5.045
 9337SOL    HW128910   4.329   0.627   4.955
 9337SOL    HW228911   4.345   0.728   5.082
 9338SOL     OW28912   6.063   0.277   1.028
 9338SOL    HW128913   5.967   0.305   1.026
 9338SOL    HW228914   6.109   0.322   1.104
 9339SOL     OW28915   6.044   6.938   6.975
 9339SOL    HW128916   6.077   7.000   6.903
 9339SOL    HW228917   5.987   6.988   0.016
 9340SOL     OW28918   4.321   4.703   3.507
 9340SOL    HW128919   4.342   4.618   3.458
 9340SOL    HW228920   4.282   4.682   3.596
 9341SOL     OW28921   5.694   5.120   1.561
 9341SOL    HW128922   5.770   5.138   1.623
 9341SOL    HW228923   5.660   5.027   1.576
 9342SOL     OW28924   3.175   6.839   4.150
 9342SOL    HW128925   3.195   6.809   4.243
 9342SOL    HW228926   3.089   6.890   4.150
 9343SOL     OW28927   4.755   4.232   2.182
 9343SOL    HW128928   4.739   4.274   2.272
 9343SOL    HW228929   4.675   4.247   2.124
 9344SOL     OW28930   5.578   6.536   1.591
 9344SOL    HW128931   5.579   6.589   1.506
 9344SOL    HW228932   5.653   6.469   1.589
 9345SOL     OW28933   6.706   5.362   1.116
 9345SOL    HW128934   6.714   5.393   1.021
 9345SOL    HW228935   6.710   5.262   1.119
 9346SOL     OW28936   4.973   0.976   2.082
 9346SOL    HW128937   4.931   0.915   2.015
 9346SOL    HW228938   4.968   1.070   2.047
 9347SOL     OW28939   3.473   4.174   0.497
 9347SOL    HW128940   3.434   4.199   0.408
 9347SOL    HW228941   3.564   4.137   0.484
 9348SOL     OW28942   2.739   5.694   2.309
 9348SOL    HW128943   2.738   5.768   2.376
 9348SOL    HW228944   2.830   5.688   2.268
 9349SOL     OW28945   5.758   5.335   2.062
 9349SOL    HW128946   5.686   5.365   2.125
 9349SOL    HW228947   5.717   5.280   1.989
 9350SOL     OW28948   6.737   2.137   5.132
 9350SOL    HW128949   6.695   2.146   5.222
 9350SOL    HW228950   6.828   2.097   5.142
 9351SOL     OW28951   3.398   6.857   5.839
 9351SOL    HW128952   3.368   6.770   5.879
 9351SOL    HW228953   3.491   6.846   5.802
 9352SOL     OW28954   3.290   1.465   6.195
 9352SOL    HW128955   3.218   1.514   6.145
 9352SOL    HW228956   3.252   1.380   6.232
 9353SOL     OW28957   0.669   4.694   0.664
 9353SOL    HW128958   0.701   4.648   0.581
 9353SOL    HW228959   0.694   4.791   0.660
 9354SOL     OW28960   0.203   2.153   6.186
 9354SOL    HW128961   0.169   2.064   6.218
 9354SOL    HW228962   0.129   2.220   6.188
 9355SOL     OW28963   0.597   1.318   4.221
 9355SOL    HW128964   0.545   1.241   4.257
 9355SOL    HW228965   0.648   1.361   4.296
 9356SOL     OW28966   4.398   6.136   2.103
 9356SOL    HW128967   4.386   6.134   2.003
 9356SOL    HW228968   4.419   6.229   2.132
 9357SOL     OW28969   2.205   3.545   6.779
 9357SOL    HW128970   2.287   3.595   6.750
 9357SOL    HW228971   2.132   3.611   6.799
 9358SOL     OW28972   6.704   3.304   2.879
 9358SOL    HW128973   6.722   3.328   2.974
 9358SOL    HW228974   6.658   3.379   2.833
 9359SOL     OW28975   0.924   3.835   5.388
 9359SOL    HW128976   0.995   3.765   5.398
 9359SOL    HW228977   0.964   3.916   5.344
 9360SOL     OW28978   1.233   5.322   6.847
 9360SOL    HW128979   1.255   5.419   6.840
 9360SOL    HW228980   1.232   5.295   6.944
 9361SOL     OW28981   1.284   5.839   2.484
 9361SOL    HW128982   1.345   5.917   2.466
 9361SOL    HW228983   1.193   5.874   2.508
 9362SOL     OW28984   2.057   3.495   3.176
 9362SOL    HW128985   1.978   3.492   3.114
 9362SOL    HW228986   2.092   3.588   3.183
 9363SOL     OW28987   3.725   6.773   2.178
 9363SOL    HW128988   3.777   6.717   2.113
 9363SOL    HW228989   3.637   6.729   2.197
 9364SOL     OW28990   4.410   3.076   6.318
 9364SOL    HW128991   4.311   3.071   6.333
 9364SOL    HW228992   4.452   3.129   6.391
 9365SOL     OW28993   2.436   2.114   4.696
 9365SOL    HW128994   2.346   2.085   4.729
 9365SOL    HW228995   2.454   2.072   4.607
 9366SOL     OW28996   3.457   6.600   6.236
 9366SOL    HW128997   3.535   6.650   6.272
 9366SOL    HW228998   3.461   6.505   6.267
 9367SOL     OW28999   0.330   6.722   2.752
 9367SOL    HW129000   0.378   6.789   2.808
 9367SOL    HW229001   0.234   6.748   2.743
 9368SOL     OW29002   3.076   1.421   2.729
 9368SOL    HW129003   3.011   1.409   2.653
 9368SOL    HW229004   3.109   1.515   2.730
 9369SOL     OW29005   6.676   6.274   5.039
 9369SOL    HW129006   6.728   6.340   4.985
 9369SOL    HW229007   6.589   6.314   5.065
 9370SOL     OW29008   4.974   0.524   3.243
 9370SOL    HW129009   4.986   0.490   3.150
 9370SOL    HW229010   4.877   0.534   3.263
 9371SOL     OW29011   2.786   5.153   0.207
 9371SOL    HW129012   2.784   5.239   0.156
 9371SOL    HW229013   2.730   5.162   0.290
 9372SOL     OW29014   5.855   6.455   2.659
 9372SOL    HW129015   5.790   6.468   2.734
 9372SOL    HW229016   5.828   6.375   2.605
 9373SOL     OW29017   5.085   1.937   2.917
 9373SOL    HW129018   5.042   1.847   2.917
 9373SOL    HW229019   5.126   1.955   3.007
 9374SOL     OW29020   0.671   3.489   0.406
 9374SOL    HW129021   0.650   3.447   0.494
 9374SOL    HW229022   0.627   3.436   0.333
 9375SOL     OW29023   0.554   1.216   2.132
 9375SOL    HW129024   0.460   1.185   2.143
 9375SOL    HW229025   0.602   1.211   2.219
 9376SOL     OW29026   2.748   4.174   1.198
 9376SOL    HW129027   2.712   4.220   1.279
 9376SOL    HW229028   2.673   4.132   1.147
 9377SOL     OW29029   1.841   5.298   4.354
 9377SOL    HW129030   1.937   5.327   4.343
 9377SOL    HW229031   1.804   5.336   4.439
 9378SOL     OW29032   1.756   1.233   3.924
 9378SOL    HW129033   1.813   1.229   4.005
 9378SOL    HW229034   1.659   1.234   3.951
 9379SOL     OW29035   4.411   6.354   5.719
 9379SOL    HW129036   4.311   6.358   5.712
 9379SOL    HW229037   4.450   6.326   5.632
 9380SOL     OW29038   5.225   5.497   4.768
 9380SOL    HW129039   5.260   5.413   4.725
 9380SOL    HW229040   5.126   5.490   4.779
 9381SOL     OW29041   3.470   2.217   6.153
 9381SOL    HW129042   3.517   2.194   6.068
 9381SOL    HW229043   3.530   2.202   6.231
 9382SOL     OW29044   3.872   0.801   3.816
 9382SOL    HW129045   3.854   0.771   3.909
 9382SOL    HW229046   3.788   0.840   3.776
 9383SOL     OW29047   0.332   5.340   4.423
 9383SOL    HW129048   0.359   5.307   4.513
 9383SOL    HW229049   0.308   5.437   4.429
 9384SOL     OW29050   4.051   0.391   2.160
 9384SOL    HW129051   4.136   0.432   2.126
 9384SOL    HW229052   4.067   0.350   2.249
 9385SOL     OW29053   4.396   0.976   3.370
 9385SOL    HW129054   4.418   1.021   3.284
 9385SOL    HW229055   4.296   0.974   3.381
 9386SOL     OW29056   1.884   6.223   5.512
 9386SOL    HW129057   1.867   6.237   5.415
 9386SOL    HW229058   1.880   6.125   5.532
 9387SOL     OW29059   2.938   1.658   6.689
 9387SOL    HW129060   2.969   1.656   6.594
 9387SOL    HW229061   3.014   1.684   6.749
 9388SOL     OW29062   3.181   6.039   2.793
 9388SOL    HW129063   3.165   6.042   2.694
 9388SOL    HW229064   3.277   6.018   2.810
 9389SOL     OW29065   2.176   0.109   3.421
 9389SOL    HW129066   2.271   0.124   3.393
 9389SOL    HW229067   2.151   0.175   3.491
 9390SOL     OW29068   4.813   4.698   6.048
 9390SOL    HW129069   4.863   4.762   6.106
 9390SOL    HW229070   4.733   4.664   6.097
 9391SOL     OW29071   2.344   1.727   5.236
 9391SOL    HW129072   2.410   1.653   5.246
 9391SOL    HW229073   2.367   1.802   5.297
 9392SOL     OW29074   5.912   5.969   5.100
 9392SOL    HW129075   5.897   5.919   5.015
 9392SOL    HW229076   5.988   5.927   5.150
 9393SOL     OW29077   2.993   6.394   6.723
 9393SOL    HW129078   2.983   6.389   6.823
 9393SOL    HW229079   3.040   6.478   6.699
 9394SOL     OW29080   6.625   0.702   1.682
 9394SOL    HW129081   6.621   0.778   1.747
 9394SOL    HW229082   6.643   0.738   1.590
 9395SOL     OW29083   3.101   1.670   1.454
 9395SOL    HW129084   3.190   1.704   1.485
 9395SOL    HW229085   3.115   1.605   1.380
 9396SOL     OW29086   2.250   4.126   4.051
 9396SOL    HW129087   2.267   4.029   4.069
 9396SOL    HW229088   2.201   4.166   4.129
 9397SOL     OW29089   4.650   0.331   6.493
 9397SOL    HW129090   4.556   0.337   6.527
 9397SOL    HW229091   4.671   0.412   6.439
 9398SOL     OW29092   6.937   1.585   4.928
 9398SOL    HW129093   6.993   1.662   4.956
 9398SOL    HW229094   6.974   1.546   4.843
 9399SOL     OW29095   0.943   2.615   5.720
 9399SOL    HW129096   0.908   2.563   5.797
 9399SOL    HW229097   1.028   2.661   5.745
 9400SOL     OW29098   4.741   0.608   1.544
 9400SOL    HW129099   4.788   0.664   1.612
 9400SOL    HW229100   4.726   0.661   1.461
 9401SOL     OW29101   6.441   0.651   3.805
 9401SOL    HW129102   6.506   0.671   3.732
 9401SOL    HW229103   6.413   0.736   3.849
 9402SOL     OW29104   1.307   5.426   2.789
 9402SOL    HW129105   1.352   5.435   2.877
 9402SOL    HW229106   1.213   5.393   2.803
 9403SOL     OW29107   6.776   1.008   2.842
 9403SOL    HW129108   6.773   0.910   2.865
 9403SOL    HW229109   6.694   1.052   2.879
 9404SOL     OW29110   0.817   3.195   0.395
 9404SOL    HW129111   0.909   3.155   0.392
 9404SOL    HW229112   0.767   3.159   0.473
 9405SOL     OW29113   2.565   4.539   3.940
 9405SOL    HW129114   2.523   4.624   3.972
 9405SOL    HW229115   2.654   4.560   3.900
 9406SOL     OW29116   6.746   2.560   6.055
 9406SOL    HW129117   6.833   2.511   6.047
 9406SOL    HW229118   6.762   2.658   6.061
 9407SOL     OW29119   3.131   5.003   3.479
 9407SOL    HW129120   3.159   5.090   3.520
 9407SOL    HW229121   3.109   4.938   3.552
 9408SOL     OW29122   6.450   3.261   5.873
 9408SOL    HW129123   6.489   3.323   5.941
 9408SOL    HW229124   6.495   3.172   5.879
 9409SOL     OW29125   5.883   5.664   0.316
 9409SOL    HW129126   5.828   5.690   0.236
 9409SOL    HW229127   5.970   5.626   0.286
 9410SOL     OW29128   2.614   0.365   1.766
 9410SOL    HW129129   2.517   0.369   1.790
 9410SOL    HW229130   2.636   0.440   1.704
 9411SOL     OW29131   3.630   3.389   2.461
 9411SOL    HW129132   3.540   3.430   2.450
 9411SOL    HW229133   3.630   3.297   2.420
 9412SOL     OW29134   0.977   0.986   2.833
 9412SOL    HW129135   1.070   1.012   2.804
 9412SOL    HW229136   0.981   0.946   2.924
 9413SOL     OW29137   4.126   5.932   3.632
 9413SOL    HW129138   4.143   5.837   3.658
 9413SOL    HW229139   4.047   5.936   3.570
 9414SOL     OW29140   3.119   1.188   2.896
 9414SOL    HW129141   3.031   1.164   2.935
 9414SOL    HW229142   3.109   1.266   2.835
 9415SOL     OW29143   2.572   6.965   2.384
 9415SOL    HW129144   2.498   6.976   2.317
 9415SOL    HW229145   2.610   6.873   2.377
 9416SOL     OW29146   6.928   2.116   0.355
 9416SOL    HW129147   6.984   2.174   0.297
 9416SOL    HW229148   6.831   2.140   0.343
 9417SOL     OW29149   4.435   0.630   0.844
 9417SOL    HW129150   4.520   0.674   0.816
 9417SOL    HW229151   4.454   0.563   0.915
 9418SOL     OW29152   3.083   0.616   1.170
 9418SOL    HW129153   3.181   0.633   1.181
 9418SOL    HW229154   3.042   0.599   1.260
 9419SOL     OW29155   2.830   4.585   5.646
 9419SOL    HW129156   2.925   4.596   5.673
 9419SOL    HW229157   2.774   4.566   5.727
 9420SOL     OW29158   5.658   4.170   5.810
 9420SOL    HW129159   5.675   4.267   5.794
 9420SOL    HW229160   5.742   4.118   5.794
 9421SOL     OW29161   2.615   6.154   4.272
 9421SOL    HW129162   2.521   6.143   4.304
 9421SOL    HW229163   2.634   6.088   4.199
 9422SOL     OW29164   2.938   5.464   2.762
 9422SOL    HW129165   3.029   5.435   2.732
 9422SOL    HW229166   2.921   5.430   2.854
 9423SOL     OW29167   2.813   6.560   3.657
 9423SOL    HW129168   2.786   6.636   3.716
 9423SOL    HW229169   2.840   6.482   3.713
 9424SOL     OW29170   5.175   2.405   5.094
 9424SOL    HW129171   5.229   2.479   5.054
 9424SOL    HW229172   5.186   2.406   5.194
 9425SOL     OW29173   5.558   3.691   1.028
 9425SOL    HW129174   5.479   3.633   1.006
 9425SOL    HW229175   5.606   3.714   0.943
 9426SOL     OW29176   3.655   1.587   6.191
 9426SOL    HW129177   3.754   1.588   6.177
 9426SOL    HW229178   3.635   1.541   6.278
 9427SOL     OW29179   2.361   5.348   3.254
 9427SOL    HW129180   2.314   5.366   3.341
 9427SOL    HW229181   2.343   5.423   3.190
 9428SOL     OW29182   6.875   1.241   1.398
 9428SOL    HW129183   6.971   1.255   1.422
 9428SOL    HW229184   6.829   1.191   1.471
 9429SOL     OW29185   2.056   3.950   2.987
 9429SOL    HW129186   2.085   4.046   2.977
 9429SOL    HW229187   1.996   3.925   2.912
 9430SOL     OW29188   0.368   3.637   4.286
 9430SOL    HW129189   0.292   3.703   4.281
 9430SOL    HW229190   0.331   3.544   4.287
 9431SOL     OW29191   6.539   3.951   0.853
 9431SOL    HW129192   6.602   4.011   0.904
 9431SOL    HW229193   6.490   4.004   0.784
 9432SOL     OW29194   5.274   6.969   3.519
 9432SOL    HW129195   5.309   6.994   3.609
 9432SOL    HW229196   5.211   6.892   3.528
 9433SOL     OW29197   3.166   5.905   3.114
 9433SOL    HW129198   3.223   5.885   3.034
 9433SOL    HW229199   3.216   5.884   3.197
 9434SOL     OW29200   5.130   5.577   2.586
 9434SOL    HW129201   5.106   5.560   2.491
 9434SOL    HW229202   5.220   5.537   2.605
 9435SOL     OW29203   0.824   2.770   4.094
 9435SOL    HW129204   0.799   2.785   3.998
 9435SOL    HW229205   0.907   2.714   4.098
 9436SOL     OW29206   1.734   3.001   1.287
 9436SOL    HW129207   1.818   3.033   1.242
 9436SOL    HW229208   1.731   2.901   1.284
 9437SOL     OW29209   0.971   5.806   2.967
 9437SOL    HW129210   0.992   5.893   3.013
 9437SOL    HW229211   0.985   5.816   2.869
 9438SOL     OW29212   0.655   6.980   1.497
 9438SOL    HW129213   0.691   6.907   1.554
 9438SOL    HW229214   0.580   6.944   1.441
 9439SOL     OW29215   0.172   3.155   0.597
 9439SOL    HW129216   0.256   3.129   0.645
 9439SOL    HW229217   0.099   3.091   0.620
 9440SOL     OW29218   4.059   4.834   3.279
 9440SOL    HW129219   4.056   4.819   3.181
 9440SOL    HW229220   4.151   4.863   3.305
 9441SOL     OW29221   5.806   4.410   5.771
 9441SOL    HW129222   5.784   4.405   5.868
 9441SOL    HW229223   5.895   4.453   5.759
 9442SOL     OW29224   4.547   3.440   1.046
 9442SOL    HW129225   4.480   3.397   1.106
 9442SOL    HW229226   4.635   3.445   1.092
 9443SOL     OW29227   2.528   5.031   0.776
 9443SOL    HW129228   2.594   5.104   0.761
 9443SOL    HW229229   2.454   5.064   0.835
 9444SOL     OW29230   1.114   3.370   1.026
 9444SOL    HW129231   1.209   3.383   1.054
 9444SOL    HW229232   1.055   3.379   1.106
 9445SOL     OW29233   6.109   2.832   2.835
 9445SOL    HW129234   6.167   2.832   2.916
 9445SOL    HW229235   6.070   2.923   2.822
 9446SOL     OW29236   6.311   5.553   4.301
 9446SOL    HW129237   6.287   5.623   4.368
 9446SOL    HW229238   6.232   5.495   4.283
 9447SOL     OW29239   5.980   4.850   3.367
 9447SOL    HW129240   5.893   4.800   3.355
 9447SOL    HW229241   5.975   4.938   3.320
 9448SOL     OW29242   0.098   0.296   6.385
 9448SOL    HW129243   0.173   0.326   6.326
 9448SOL    HW229244   0.058   0.212   6.349
 9449SOL     OW29245   5.846   0.189   6.947
 9449SOL    HW129246   5.934   0.143   6.942
 9449SOL    HW229247   5.854   0.283   6.913
 9450SOL     OW29248   1.967   5.615   4.200
 9450SOL    HW129249   1.999   5.610   4.294
 9450SOL    HW229250   1.887   5.675   4.195
 9451SOL     OW29251   4.450   0.244   5.543
 9451SOL    HW129252   4.379   0.236   5.473
 9451SOL    HW229253   4.408   0.244   5.633
 9452SOL     OW29254   1.695   3.914   0.081
 9452SOL    HW129255   1.693   3.988   0.013
 9452SOL    HW229256   1.746   3.944   0.161
 9453SOL     OW29257   2.559   4.518   2.908
 9453SOL    HW129258   2.538   4.545   3.002
 9453SOL    HW229259   2.502   4.441   2.882
 9454SOL     OW29260   3.426   3.757   6.540
 9454SOL    HW129261   3.490   3.691   6.500
 9454SOL    HW229262   3.376   3.803   6.466
 9455SOL     OW29263   2.416   1.904   4.094
 9455SOL    HW129264   2.483   1.953   4.038
 9455SOL    HW229265   2.440   1.807   4.097
 9456SOL     OW29266   0.023   3.531   1.149
 9456SOL    HW129267   0.112   3.558   1.113
 9456SOL    HW229268   6.993   3.487   1.076
 9457SOL     OW29269   1.508   4.163   4.295
 9457SOL    HW129270   1.510   4.064   4.309
 9457SOL    HW229271   1.439   4.186   4.227
 9458SOL     OW29272   0.966   3.380   6.657
 9458SOL    HW129273   1.010   3.407   6.743
 9458SOL    HW229274   1.034   3.340   6.596
 9459SOL     OW29275   5.588   4.387   3.706
 9459SOL    HW129276   5.613   4.352   3.796
 9459SOL    HW229277   5.617   4.483   3.698
 9460SOL     OW29278   1.521   3.429   3.783
 9460SOL    HW129279   1.604   3.485   3.778
 9460SOL    HW229280   1.506   3.401   3.878
 9461SOL     OW29281   0.299   1.790   1.817
 9461SOL    HW129282   0.219   1.783   1.757
 9461SOL    HW229283   0.277   1.850   1.895
 9462SOL     OW29284   2.155   3.209   3.524
 9462SOL    HW129285   2.069   3.224   3.573
 9462SOL    HW229286   2.139   3.214   3.425
 9463SOL     OW29287   6.506   0.453   1.761
 9463SOL    HW129288   6.498   0.552   1.746
 9463SOL    HW229289   6.599   0.432   1.790
 9464SOL     OW29290   6.212   0.549   0.991
 9464SOL    HW129291   6.248   0.618   0.929
 9464SOL    HW229292   6.256   0.558   1.080
 9465SOL     OW29293   0.512   4.226   1.742
 9465SOL    HW129294   0.548   4.274   1.662
 9465SOL    HW229295   0.587   4.197   1.801
 9466SOL     OW29296   3.784   4.595   5.311
 9466SOL    HW129297   3.754   4.514   5.260
 9466SOL    HW229298   3.826   4.567   5.397
 9467SOL     OW29299   1.304   2.530   1.794
 9467SOL    HW129300   1.319   2.464   1.720
 9467SOL    HW229301   1.270   2.616   1.756
 9468SOL     OW29302   5.933   3.385   6.685
 9468SOL    HW129303   5.989   3.332   6.621
 9468SOL    HW229304   5.899   3.467   6.640
 9469SOL     OW29305   6.197   5.405   1.848
 9469SOL    HW129306   6.171   5.501   1.858
 9469SOL    HW229307   6.140   5.348   1.908
 9470SOL     OW29308   4.999   3.392   6.198
 9470SOL    HW129309   4.912   3.402   6.149
 9470SOL    HW229310   5.072   3.373   6.133
 9471SOL     OW29311   6.873   2.345   3.927
 9471SOL    HW129312   6.838   2.350   3.834
 9471SOL    HW229313   6.821   2.407   3.986
 9472SOL     OW29314   6.319   3.069   5.017
 9472SOL    HW129315   6.245   3.024   4.968
 9472SOL    HW229316   6.290   3.160   5.046
 9473SOL     OW29317   2.795   4.944   6.880
 9473SOL    HW129318   2.765   4.988   6.795
 9473SOL    HW229319   2.891   4.917   6.872
 9474SOL     OW29320   6.759   3.486   0.125
 9474SOL    HW129321   6.841   3.467   0.070
 9474SOL    HW229322   6.688   3.420   0.102
 9475SOL     OW29323   3.778   3.223   6.608
 9475SOL    HW129324   3.820   3.181   6.688
 9475SOL    HW229325   3.841   3.290   6.568
 9476SOL     OW29326   4.037   3.656   4.496
 9476SOL    HW129327   3.970   3.584   4.514
 9476SOL    HW229328   4.098   3.628   4.422
 9477SOL     OW29329   0.799   2.763   0.640
 9477SOL    HW129330   0.790   2.666   0.619
 9477SOL    HW229331   0.738   2.815   0.580
 9478SOL     OW29332   5.188   3.129   0.759
 9478SOL    HW129333   5.242   3.076   0.693
 9478SOL    HW229334   5.250   3.172   0.825
 9479SOL     OW29335   4.328   6.144   6.917
 9479SOL    HW129336   4.422   6.146   6.881
 9479SOL    HW229337   4.319   6.071   6.985
 9480SOL     OW29338   5.694   4.678   0.939
 9480SOL    HW129339   5.623   4.695   1.009
 9480SOL    HW229340   5.660   4.709   0.850
 9481SOL     OW29341   5.100   3.129   2.540
 9481SOL    HW129342   5.038   3.159   2.467
 9481SOL    HW229343   5.162   3.203   2.563
 9482SOL     OW29344   0.580   1.088   2.930
 9482SOL    HW129345   0.485   1.107   2.954
 9482SOL    HW229346   0.638   1.106   3.009
 9483SOL     OW29347   1.989   0.937   1.072
 9483SOL    HW129348   1.947   0.851   1.041
 9483SOL    HW229349   2.010   0.994   0.993
 9484SOL     OW29350   4.752   0.317   4.105
 9484SOL    HW129351   4.812   0.317   4.185
 9484SOL    HW229352   4.706   0.228   4.098
 9485SOL     OW29353   0.631   1.050   0.449
 9485SOL    HW129354   0.731   1.053   0.448
 9485SOL    HW229355   0.595   1.129   0.398
 9486SOL     OW29356   3.856   6.660   0.927
 9486SOL    HW129357   3.920   6.660   0.850
 9486SOL    HW229358   3.906   6.650   1.013
 9487SOL     OW29359   3.468   3.929   4.053
 9487SOL    HW129360   3.489   3.873   4.133
 9487SOL    HW229361   3.418   4.011   4.082
 9488SOL     OW29362   2.965   6.985   1.199
 9488SOL    HW129363   2.898   6.930   1.249
 9488SOL    HW229364   2.963   6.960   1.103
 9489SOL     OW29365   4.526   4.492   0.901
 9489SOL    HW129366   4.542   4.394   0.917
 9489SOL    HW229367   4.602   4.544   0.940
 9490SOL     OW29368   5.976   5.034   2.418
 9490SOL    HW129369   6.061   5.072   2.454
 9490SOL    HW229370   5.998   4.963   2.351
 9491SOL     OW29371   5.669   4.654   3.724
 9491SOL    HW129372   5.610   4.734   3.738
 9491SOL    HW229373   5.763   4.685   3.710
 9492SOL     OW29374   3.463   2.958   4.661
 9492SOL    HW129375   3.520   3.032   4.625
 9492SOL    HW229376   3.397   2.930   4.591
 9493SOL     OW29377   2.995   5.538   4.298
 9493SOL    HW129378   2.908   5.545   4.248
 9493SOL    HW229379   3.058   5.481   4.246
 9494SOL     OW29380   4.964   2.574   2.651
 9494SOL    HW129381   4.885   2.631   2.630
 9494SOL    HW229382   4.933   2.482   2.674
 9495SOL     OW29383   6.377   1.555   3.323
 9495SOL    HW129384   6.416   1.572   3.414
 9495SOL    HW229385   6.277   1.549   3.331
 9496SOL     OW29386   5.945   3.510   1.305
 9496SOL    HW129387   5.864   3.558   1.272
 9496SOL    HW229388   6.017   3.515   1.236
 9497SOL     OW29389   5.880   6.753   6.025
 9497SOL    HW129390   5.849   6.697   5.948
 9497SOL    HW229391   5.971   6.789   6.005
 9498SOL     OW29392   4.762   6.725   4.739
 9498SOL    HW129393   4.825   6.721   4.661
 9498SOL    HW229394   4.807   6.772   4.815
 9499SOL     OW29395   2.190   4.514   6.409
 9499SOL    HW129396   2.162   4.468   6.493
 9499SOL    HW229397   2.243   4.451   6.352
 9500SOL     OW29398   4.988   0.184   0.990
 9500SOL    HW129399   5.027   0.127   0.917
 9500SOL    HW229400   4.918   0.132   1.038
 9501SOL     OW29401   2.635   1.101   4.990
 9501SOL    HW129402   2.677   1.169   5.051
 9501SOL    HW229403   2.630   1.138   4.897
 9502SOL     OW29404   5.592   2.805   5.090
 9502SOL    HW129405   5.672   2.760   5.130
 9502SOL    HW229406   5.527   2.736   5.058
 9503SOL     OW29407   0.844   1.852   1.526
 9503SOL    HW129408   0.849   1.769   1.583
 9503SOL    HW229409   0.910   1.919   1.560
 9504SOL     OW29410   0.554   2.510   0.291
 9504SOL    HW129411   0.551   2.439   0.361
 9504SOL    HW229412   0.639   2.563   0.300
 9505SOL     OW29413   4.906   4.553   4.391
 9505SOL    HW129414   4.835   4.489   4.364
 9505SOL    HW229415   4.966   4.510   4.458
 9506SOL     OW29416   1.055   2.238   6.350
 9506SOL    HW129417   0.988   2.303   6.311
 9506SOL    HW229418   1.083   2.173   6.279
 9507SOL     OW29419   0.652   1.536   3.062
 9507SOL    HW129420   0.606   1.505   2.979
 9507SOL    HW229421   0.711   1.613   3.040
 9508SOL     OW29422   6.007   2.111   1.382
 9508SOL    HW129423   5.946   2.071   1.451
 9508SOL    HW229424   6.096   2.065   1.387
 9509SOL     OW29425   0.706   0.946   4.106
 9509SOL    HW129426   0.751   1.034   4.092
 9509SOL    HW229427   0.692   0.901   4.018
 9510SOL     OW29428   1.693   3.718   3.312
 9510SOL    HW129429   1.702   3.808   3.356
 9510SOL    HW229430   1.649   3.730   3.223
 9511SOL     OW29431   1.534   0.374   1.048
 9511SOL    HW129432   1.488   0.343   0.964
 9511SOL    HW229433   1.606   0.440   1.024
 9512SOL     OW29434   6.101   1.433   1.556
 9512SOL    HW129435   6.057   1.451   1.468
 9512SOL    HW229436   6.083   1.339   1.584
 9513SOL     OW29437   2.201   3.731   6.239
 9513SOL    HW129438   2.139   3.752   6.162
 9513SOL    HW229439   2.284   3.786   6.230
 9514SOL     OW29440   1.982   5.443   5.802
 9514SOL    HW129441   1.957   5.533   5.837
 9514SOL    HW229442   1.965   5.440   5.703
 9515SOL     OW29443   1.940   5.699   0.666
 9515SOL    HW129444   2.039   5.707   0.675
 9515SOL    HW229445   1.902   5.785   0.634
 9516SOL     OW29446   6.020   4.744   6.430
 9516SOL    HW129447   6.085   4.668   6.438
 9516SOL    HW229448   5.930   4.708   6.404
 9517SOL     OW29449   1.818   4.904   1.263
 9517SOL    HW129450   1.787   4.969   1.194
 9517SOL    HW229451   1.917   4.912   1.274
 9518SOL     OW29452   2.022   1.722   0.381
 9518SOL    HW129453   2.117   1.738   0.408
 9518SOL    HW229454   2.014   1.726   0.281
 9519SOL     OW29455   3.901   3.707   5.045
 9519SOL    HW129456   3.859   3.716   4.955
 9519SOL    HW229457   3.991   3.665   5.036
 9520SOL     OW29458   1.548   1.998   3.198
 9520SOL    HW129459   1.561   1.899   3.191
 9520SOL    HW229460   1.612   2.035   3.265
 9521SOL     OW29461   4.556   5.634   1.577
 9521SOL    HW129462   4.583   5.546   1.537
 9521SOL    HW229463   4.465   5.658   1.544
 9522SOL     OW29464   2.613   5.695   1.146
 9522SOL    HW129465   2.702   5.736   1.165
 9522SOL    HW229466   2.541   5.745   1.195
 9523SOL     OW29467   2.620   4.625   4.831
 9523SOL    HW129468   2.644   4.704   4.774
 9523SOL    HW229469   2.669   4.631   4.918
 9524SOL     OW29470   3.442   3.193   1.876
 9524SOL    HW129471   3.438   3.216   1.973
 9524SOL    HW229472   3.441   3.094   1.865
 9525SOL     OW29473   2.508   3.334   5.444
 9525SOL    HW129474   2.509   3.237   5.467
 9525SOL    HW229475   2.597   3.359   5.405
 9526SOL     OW29476   5.261   5.510   1.592
 9526SOL    HW129477   5.307   5.435   1.639
 9526SOL    HW229478   5.287   5.597   1.633
 9527SOL     OW29479   1.282   0.484   3.047
 9527SOL    HW129480   1.377   0.516   3.038
 9527SOL    HW229481   1.240   0.529   3.126
 9528SOL     OW29482   0.305   1.444   0.176
 9528SOL    HW129483   0.300   1.363   0.235
 9528SOL    HW229484   0.337   1.418   0.085
 9529SOL     OW29485   6.244   3.311   5.462
 9529SOL    HW129486   6.265   3.276   5.371
 9529SOL    HW229487   6.322   3.363   5.497
 9530SOL     OW29488   1.828   3.730   2.398
 9530SOL    HW129489   1.760   3.667   2.435
 9530SOL    HW229490   1.840   3.712   2.300
 9531SOL     OW29491   4.918   5.400   2.889
 9531SOL    HW129492   4.871   5.466   2.830
 9531SOL    HW229493   4.861   5.319   2.901
 9532SOL     OW29494   6.940   6.881   2.466
 9532SOL    HW129495   7.010   6.949   2.487
 9532SOL    HW229496   6.960   6.839   2.377
 9533SOL     OW29497   6.748   0.085   5.888
 9533SOL    HW129498   6.819   0.155   5.888
 9533SOL    HW229499   6.789   7.020   5.865
 9534SOL     OW29500   6.986   3.881   5.090
 9534SOL    HW129501   6.890   3.905   5.108
 9534SOL    HW229502   0.016   3.896   5.173
 9535SOL     OW29503   2.567   1.339   5.681
 9535SOL    HW129504   2.566   1.420   5.622
 9535SOL    HW229505   2.593   1.365   5.774
 9536SOL     OW29506   2.613   4.392   5.311
 9536SOL    HW129507   2.592   4.388   5.408
 9536SOL    HW229508   2.687   4.457   5.295
 9537SOL     OW29509   2.702   6.432   2.574
 9537SOL    HW129510   2.797   6.417   2.600
 9537SOL    HW229511   2.682   6.530   2.577
 9538SOL     OW29512   6.201   2.054   3.276
 9538SOL    HW129513   6.265   2.092   3.343
 9538SOL    HW229514   6.237   2.069   3.184
 9539SOL     OW29515   2.876   3.799   5.376
 9539SOL    HW129516   2.879   3.775   5.279
 9539SOL    HW229517   2.795   3.855   5.393
 9540SOL     OW29518   6.064   4.351   4.253
 9540SOL    HW129519   6.148   4.345   4.199
 9540SOL    HW229520   6.034   4.446   4.257
 9541SOL     OW29521   3.297   1.263   5.594
 9541SOL    HW129522   3.385   1.244   5.551
 9541SOL    HW229523   3.311   1.318   5.676
 9542SOL     OW29524   5.421   4.040   4.719
 9542SOL    HW129525   5.514   4.073   4.729
 9542SOL    HW229526   5.379   4.028   4.809
 9543SOL     OW29527   3.485   1.260   5.040
 9543SOL    HW129528   3.543   1.338   5.064
 9543SOL    HW229529   3.516   1.179   5.090
 9544SOL     OW29530   0.586   1.098   3.596
 9544SOL    HW129531   0.581   1.147   3.683
 9544SOL    HW229532   0.530   1.144   3.528
 9545SOL     OW29533   6.154   5.283   3.700
 9545SOL    HW129534   6.083   5.213   3.695
 9545SOL    HW229535   6.227   5.252   3.761
 9546SOL     OW29536   3.145   2.558   5.613
 9546SOL    HW129537   3.107   2.541   5.522
 9546SOL    HW229538   3.081   2.613   5.666
 9547SOL     OW29539   2.709   6.389   4.207
 9547SOL    HW129540   2.658   6.307   4.234
 9547SOL    HW229541   2.729   6.444   4.287
 9548SOL     OW29542   5.684   6.094   5.619
 9548SOL    HW129543   5.696   5.997   5.596
 9548SOL    HW229544   5.622   6.102   5.696
 9549SOL     OW29545   3.080   3.068   1.207
 9549SOL    HW129546   3.062   3.097   1.301
 9549SOL    HW229547   3.077   2.968   1.202
 9550SOL     OW29548   0.502   1.451   0.816
 9550SOL    HW129549   0.576   1.404   0.766
 9550SOL    HW229550   0.529   1.546   0.832
 9551SOL     OW29551   6.157   1.586   4.100
 9551SOL    HW129552   6.210   1.504   4.121
 9551SOL    HW229553   6.198   1.634   4.023
 9552SOL     OW29554   1.197   6.386   2.557
 9552SOL    HW129555   1.215   6.289   2.542
 9552SOL    HW229556   1.104   6.408   2.526
 9553SOL     OW29557   6.379   4.058   6.817
 9553SOL    HW129558   6.280   4.060   6.828
 9553SOL    HW229559   6.402   4.051   6.720
 9554SOL     OW29560   2.581   0.580   1.591
 9554SOL    HW129561   2.582   0.676   1.617
 9554SOL    HW229562   2.486   0.550   1.579
 9555SOL     OW29563   1.564   1.153   2.800
 9555SOL    HW129564   1.490   1.219   2.815
 9555SOL    HW229565   1.539   1.092   2.725
 9556SOL     OW29566   2.082   2.228   1.101
 9556SOL    HW129567   2.045   2.290   1.031
 9556SOL    HW229568   2.065   2.134   1.074
 9557SOL     OW29569   0.018   0.562   3.188
 9557SOL    HW129570   0.099   0.612   3.218
 9557SOL    HW229571   6.986   0.621   3.130
 9558SOL     OW29572   6.834   6.173   4.363
 9558SOL    HW129573   6.757   6.127   4.319
 9558SOL    HW229574   6.842   6.142   4.458
 9559SOL     OW29575   0.591   3.890   1.447
 9559SOL    HW129576   0.674   3.875   1.393
 9559SOL    HW229577   0.560   3.984   1.436
 9560SOL     OW29578   1.328   1.726   3.267
 9560SOL    HW129579   1.245   1.672   3.267
 9560SOL    HW229580   1.368   1.726   3.175
 9561SOL     OW29581   0.987   6.234   0.097
 9561SOL    HW129582   1.074   6.243   0.049
 9561SOL    HW229583   0.988   6.150   0.151
 9562SOL     OW29584   3.404   0.383   5.390
 9562SOL    HW129585   3.435   0.471   5.353
 9562SOL    HW229586   3.363   0.397   5.480
 9563SOL     OW29587   6.392   0.152   0.708
 9563SOL    HW129588   6.431   0.230   0.660
 9563SOL    HW229589   6.384   0.172   0.805
 9564SOL     OW29590   2.705   0.296   6.824
 9564SOL    HW129591   2.755   0.249   6.897
 9564SOL    HW229592   2.619   0.248   6.807
 9565SOL     OW29593   4.101   6.179   5.060
 9565SOL    HW129594   4.005   6.151   5.060
 9565SOL    HW229595   4.154   6.118   5.118
 9566SOL     OW29596   2.495   4.894   6.812
 9566SOL    HW129597   2.445   4.961   6.867
 9566SOL    HW229598   2.512   4.812   6.867
 9567SOL     OW29599   6.092   4.194   6.774
 9567SOL    HW129600   6.126   4.238   6.857
 9567SOL    HW229601   5.998   4.223   6.758
 9568SOL     OW29602   4.433   2.840   6.898
 9568SOL    HW129603   4.451   2.930   6.859
 9568SOL    HW229604   4.511   2.811   6.954
 9569SOL     OW29605   0.424   0.475   2.828
 9569SOL    HW129606   0.437   0.563   2.872
 9569SOL    HW229607   0.358   0.484   2.753
 9570SOL     OW29608   0.886   2.714   2.411
 9570SOL    HW129609   0.807   2.689   2.355
 9570SOL    HW229610   0.854   2.751   2.499
 9571SOL     OW29611   2.118   3.734   0.068
 9571SOL    HW129612   2.076   3.722   7.001
 9571SOL    HW229613   2.195   3.670   0.078
 9572SOL     OW29614   1.666   5.718   0.885
 9572SOL    HW129615   1.735   5.715   0.812
 9572SOL    HW229616   1.692   5.656   0.959
 9573SOL     OW29617   0.960   1.483   6.793
 9573SOL    HW129618   0.985   1.554   6.859
 9573SOL    HW229619   0.987   1.394   6.829
 9574SOL     OW29620   3.712   2.945   4.054
 9574SOL    HW129621   3.622   2.987   4.039
 9574SOL    HW229622   3.704   2.874   4.123
 9575SOL     OW29623   5.955   1.306   0.881
 9575SOL    HW129624   5.987   1.395   0.914
 9575SOL    HW229625   5.927   1.250   0.958
 9576SOL     OW29626   3.063   0.678   2.789
 9576SOL    HW129627   2.996   0.625   2.841
 9576SOL    HW229628   3.032   0.685   2.694
 9577SOL     OW29629   1.105   1.063   3.926
 9577SOL    HW129630   1.102   0.964   3.914
 9577SOL    HW229631   1.046   1.107   3.859
 9578SOL     OW29632   0.191   4.158   3.520
 9578SOL    HW129633   0.201   4.241   3.576
 9578SOL    HW229634   0.142   4.088   3.572
 9579SOL     OW29635   2.010   5.299   2.665
 9579SOL    HW129636   1.962   5.385   2.685
 9579SOL    HW229637   2.108   5.311   2.682
 9580SOL     OW29638   4.466   3.219   0.607
 9580SOL    HW129639   4.524   3.272   0.546
 9580SOL    HW229640   4.506   3.219   0.699
 9581SOL     OW29641   1.470   5.189   6.220
 9581SOL    HW129642   1.475   5.123   6.294
 9581SOL    HW229643   1.475   5.282   6.258
 9582SOL     OW29644   4.601   4.472   4.905
 9582SOL    HW129645   4.638   4.501   4.817
 9582SOL    HW229646   4.502   4.462   4.897
 9583SOL     OW29647   2.943   3.992   0.866
 9583SOL    HW129648   3.007   4.050   0.816
 9583SOL    HW229649   2.965   3.993   0.964
 9584SOL     OW29650   6.551   6.652   0.149
 9584SOL    HW129651   6.459   6.658   0.109
 9584SOL    HW229652   6.588   6.561   0.133
 9585SOL     OW29653   5.951   0.701   3.388
 9585SOL    HW129654   5.987   0.702   3.295
 9585SOL    HW229655   6.021   0.733   3.451
 9586SOL     OW29656   5.671   4.074   2.080
 9586SOL    HW129657   5.704   4.002   2.141
 9586SOL    HW229658   5.611   4.036   2.011
 9587SOL     OW29659   6.130   0.462   2.349
 9587SOL    HW129660   6.145   0.363   2.352
 9587SOL    HW229661   6.153   0.496   2.257
 9588SOL     OW29662   0.659   1.707   2.343
 9588SOL    HW129663   0.646   1.745   2.435
 9588SOL    HW229664   0.645   1.608   2.346
 9589SOL     OW29665   2.819   5.778   6.409
 9589SOL    HW129666   2.882   5.749   6.337
 9589SOL    HW229667   2.726   5.780   6.373
 9590SOL     OW29668   0.219   4.637   2.124
 9590SOL    HW129669   0.173   4.575   2.060
 9590SOL    HW229670   0.227   4.727   2.081
 9591SOL     OW29671   2.916   5.815   0.350
 9591SOL    HW129672   2.863   5.899   0.356
 9591SOL    HW229673   2.928   5.776   0.442
 9592SOL     OW29674   3.764   4.661   1.586
 9592SOL    HW129675   3.856   4.634   1.611
 9592SOL    HW229676   3.709   4.676   1.669
 9593SOL     OW29677   6.502   1.231   4.738
 9593SOL    HW129678   6.510   1.183   4.651
 9593SOL    HW229679   6.409   1.221   4.773
 9594SOL     OW29680   1.173   5.842   3.503
 9594SOL    HW129681   1.075   5.857   3.488
 9594SOL    HW229682   1.186   5.756   3.552
 9595SOL     OW29683   2.142   4.579   4.480
 9595SOL    HW129684   2.151   4.507   4.550
 9595SOL    HW229685   2.047   4.586   4.451
 9596SOL     OW29686   6.933   5.883   0.376
 9596SOL    HW129687   6.985   5.804   0.343
 9596SOL    HW229688   6.849   5.852   0.420
 9597SOL     OW29689   0.209   4.576   0.732
 9597SOL    HW129690   0.227   4.603   0.826
 9597SOL    HW229691   0.229   4.652   0.671
 9598SOL     OW29692   0.632   3.802   5.102
 9598SOL    HW129693   0.693   3.863   5.050
 9598SOL    HW229694   0.540   3.841   5.103
 9599SOL     OW29695   3.169   0.634   5.238
 9599SOL    HW129696   3.266   0.632   5.261
 9599SOL    HW229697   3.152   0.577   5.158
 9600SOL     OW29698   1.635   6.969   6.598
 9600SOL    HW129699   1.592   6.992   6.511
 9600SOL    HW229700   1.706   0.013   6.620
 9601SOL     OW29701   6.110   4.349   7.005
 9601SOL    HW129702   6.024   4.383   0.021
 9601SOL    HW229703   6.183   4.358   0.050
 9602SOL     OW29704   6.151   5.071   6.309
 9602SOL    HW129705   6.068   5.122   6.331
 9602SOL    HW229706   6.146   4.980   6.351
 9603SOL     OW29707   3.136   0.270   4.827
 9603SOL    HW129708   3.107   0.266   4.922
 9603SOL    HW229709   3.057   0.290   4.769
 9604SOL     OW29710   5.017   0.204   0.647
 9604SOL    HW129711   5.086   0.144   0.688
 9604SOL    HW229712   5.053   0.298   0.644
 9605SOL     OW29713   0.154   5.182   5.278
 9605SOL    HW129714   0.198   5.178   5.368
 9605SOL    HW229715   0.176   5.099   5.226
 9606SOL     OW29716   1.362   6.472   5.096
 9606SOL    HW129717   1.295   6.444   5.028
 9606SOL    HW229718   1.454   6.465   5.058
 9607SOL     OW29719   1.151   2.320   2.265
 9607SOL    HW129720   1.144   2.376   2.183
 9607SOL    HW229721   1.184   2.229   2.240
 9608SOL     OW29722   6.812   6.326   2.586
 9608SOL    HW129723   6.813   6.426   2.576
 9608SOL    HW229724   6.905   6.294   2.606
 9609SOL     OW29725   1.331   3.728   5.142
 9609SOL    HW129726   1.316   3.775   5.055
 9609SOL    HW229727   1.314   3.791   5.217
 9610SOL     OW29728   1.573   4.295   4.521
 9610SOL    HW129729   1.534   4.241   4.595
 9610SOL    HW229730   1.542   4.259   4.433
 9611SOL     OW29731   0.193   6.386   0.847
 9611SOL    HW129732   0.110   6.347   0.888
 9611SOL    HW229733   0.273   6.337   0.881
 9612SOL     OW29734   6.178   3.514   1.647
 9612SOL    HW129735   6.259   3.535   1.701
 9612SOL    HW229736   6.150   3.419   1.665
 9613SOL     OW29737   4.343   6.094   3.607
 9613SOL    HW129738   4.262   6.043   3.636
 9613SOL    HW229739   4.348   6.181   3.657
 9614SOL     OW29740   3.888   3.396   1.309
 9614SOL    HW129741   3.867   3.406   1.212
 9614SOL    HW229742   3.803   3.379   1.360
 9615SOL     OW29743   1.119   6.790   2.447
 9615SOL    HW129744   1.175   6.742   2.380
 9615SOL    HW229745   1.073   6.867   2.403
 9616SOL     OW29746   4.208   4.247   0.518
 9616SOL    HW129747   4.210   4.203   0.428
 9616SOL    HW229748   4.295   4.232   0.565
 9617SOL     OW29749   0.781   3.611   3.917
 9617SOL    HW129750   0.777   3.670   3.998
 9617SOL    HW229751   0.707   3.636   3.854
 9618SOL     OW29752   4.640   6.612   6.049
 9618SOL    HW129753   4.653   6.616   5.950
 9618SOL    HW229754   4.708   6.669   6.094
 9619SOL     OW29755   1.374   0.468   0.798
 9619SOL    HW129756   1.318   0.435   0.722
 9619SOL    HW229757   1.470   0.451   0.778
 9620SOL     OW29758   5.258   1.709   6.749
 9620SOL    HW129759   5.285   1.623   6.793
 9620SOL    HW229760   5.218   1.690   6.660
 9621SOL     OW29761   1.813   1.208   2.717
 9621SOL    HW129762   1.818   1.217   2.618
 9621SOL    HW229763   1.719   1.186   2.744
 9622SOL     OW29764   5.992   1.589   6.321
 9622SOL    HW129765   5.925   1.602   6.248
 9622SOL    HW229766   6.012   1.678   6.363
 9623SOL     OW29767   4.412   5.287   5.536
 9623SOL    HW129768   4.335   5.226   5.517
 9623SOL    HW229769   4.394   5.337   5.621
 9624SOL     OW29770   5.456   4.535   4.460
 9624SOL    HW129771   5.523   4.461   4.454
 9624SOL    HW229772   5.501   4.618   4.493
 9625SOL     OW29773   5.317   4.228   0.226
 9625SOL    HW129774   5.338   4.289   0.150
 9625SOL    HW229775   5.289   4.282   0.305
 9626SOL     OW29776   2.306   6.110   5.639
 9626SOL    HW129777   2.352   6.021   5.648
 9626SOL    HW229778   2.366   6.182   5.672
 9627SOL     OW29779   0.174   3.866   4.925
 9627SOL    HW129780   0.100   3.860   4.992
 9627SOL    HW229781   0.155   3.804   4.848
 9628SOL     OW29782   6.196   4.125   0.818
 9628SOL    HW129783   6.289   4.132   0.782
 9628SOL    HW229784   6.196   4.144   0.916
 9629SOL     OW29785   6.811   5.846   2.796
 9629SOL    HW129786   6.755   5.907   2.852
 9629SOL    HW229787   6.807   5.753   2.832
 9630SOL     OW29788   6.415   6.093   5.559
 9630SOL    HW129789   6.505   6.100   5.514
 9630SOL    HW229790   6.343   6.118   5.495
 9631SOL     OW29791   4.656   2.264   0.705
 9631SOL    HW129792   4.624   2.217   0.622
 9631SOL    HW229793   4.650   2.363   0.692
 9632SOL     OW29794   2.522   5.083   2.005
 9632SOL    HW129795   2.592   5.149   1.976
 9632SOL    HW229796   2.538   5.058   2.101
 9633SOL     OW29797   3.954   4.402   0.333
 9633SOL    HW129798   3.964   4.310   0.371
 9633SOL    HW229799   4.040   4.452   0.343
 9634SOL     OW29800   0.668   5.582   3.302
 9634SOL    HW129801   0.589   5.556   3.246
 9634SOL    HW229802   0.725   5.646   3.251
 9635SOL     OW29803   1.636   4.212   5.324
 9635SOL    HW129804   1.733   4.192   5.335
 9635SOL    HW229805   1.622   4.311   5.327
 9636SOL     OW29806   4.109   1.610   5.767
 9636SOL    HW129807   4.031   1.560   5.805
 9636SOL    HW229808   4.188   1.597   5.826
 9637SOL     OW29809   4.032   2.886   1.282
 9637SOL    HW129810   3.953   2.831   1.311
 9637SOL    HW229811   4.007   2.942   1.204
 9638SOL     OW29812   6.755   3.327   5.770
 9638SOL    HW129813   6.757   3.398   5.840
 9638SOL    HW229814   6.741   3.238   5.814
 9639SOL     OW29815   4.286   2.277   1.839
 9639SOL    HW129816   4.312   2.373   1.854
 9639SOL    HW229817   4.187   2.270   1.834
 9640SOL     OW29818   3.181   0.612   2.321
 9640SOL    HW129819   3.174   0.701   2.366
 9640SOL    HW229820   3.095   0.562   2.335
 9641SOL     OW29821   5.803   5.791   1.714
 9641SOL    HW129822   5.864   5.722   1.677
 9641SOL    HW229823   5.714   5.749   1.735
 9642SOL     OW29824   1.248   6.138   4.655
 9642SOL    HW129825   1.342   6.144   4.622
 9642SOL    HW229826   1.205   6.228   4.651
 9643SOL     OW29827   5.058   3.920   3.653
 9643SOL    HW129828   5.150   3.889   3.675
 9643SOL    HW229829   5.005   3.845   3.614
 9644SOL     OW29830   1.121   5.877   5.709
 9644SOL    HW129831   1.215   5.879   5.742
 9644SOL    HW229832   1.092   5.782   5.699
 9645SOL     OW29833   2.704   4.712   4.353
 9645SOL    HW129834   2.668   4.756   4.435
 9645SOL    HW229835   2.657   4.625   4.339
 9646SOL     OW29836   2.516   5.052   1.663
 9646SOL    HW129837   2.493   5.009   1.750
 9646SOL    HW229838   2.493   5.149   1.665
 9647SOL     OW29839   0.072   6.649   3.324
 9647SOL    HW129840   0.055   6.692   3.235
 9647SOL    HW229841   0.034   6.707   3.396
 9648SOL     OW29842   4.398   2.708   0.115
 9648SOL    HW129843   4.372   2.626   0.063
 9648SOL    HW229844   4.376   2.790   0.062
 9649SOL     OW29845   1.872   4.249   0.049
 9649SOL    HW129846   1.786   4.225   0.005
 9649SOL    HW229847   1.876   4.347   0.064
 9650SOL     OW29848   4.957   4.447   2.694
 9650SOL    HW129849   4.903   4.476   2.615
 9650SOL    HW229850   4.897   4.434   2.773
 9651SOL     OW29851   5.576   1.213   1.187
 9651SOL    HW129852   5.489   1.200   1.235
 9651SOL    HW229853   5.651   1.215   1.252
 9652SOL     OW29854   0.694   4.871   1.507
 9652SOL    HW129855   0.786   4.903   1.530
 9652SOL    HW229856   0.689   4.851   1.409
 9653SOL     OW29857   4.459   5.053   4.352
 9653SOL    HW129858   4.410   4.976   4.394
 9653SOL    HW229859   4.394   5.117   4.313
 9654SOL     OW29860   2.882   3.544   2.867
 9654SOL    HW129861   2.863   3.581   2.958
 9654SOL    HW229862   2.885   3.444   2.872
 9655SOL     OW29863   0.046   2.268   0.542
 9655SOL    HW129864   0.130   2.217   0.562
 9655SOL    HW229865   7.017   2.219   0.472
 9656SOL     OW29866   4.293   3.064   0.979
 9656SOL    HW129867   4.313   2.980   1.029
 9656SOL    HW229868   4.221   3.046   0.911
 9657SOL     OW29869   5.528   3.227   2.702
 9657SOL    HW129870   5.612   3.241   2.649
 9657SOL    HW229871   5.505   3.130   2.704
 9658SOL     OW29872   5.550   1.272   2.527
 9658SOL    HW129873   5.645   1.244   2.544
 9658SOL    HW229874   5.517   1.229   2.444
 9659SOL     OW29875   0.674   3.269   0.155
 9659SOL    HW129876   0.576   3.287   0.164
 9659SOL    HW229877   0.705   3.216   0.234
 9660SOL     OW29878   0.697   6.904   3.153
 9660SOL    HW129879   0.769   6.973   3.166
 9660SOL    HW229880   0.693   6.879   3.056
 9661SOL     OW29881   3.521   6.537   1.586
 9661SOL    HW129882   3.517   6.614   1.522
 9661SOL    HW229883   3.509   6.571   1.679
 9662SOL     OW29884   4.462   3.582   6.460
 9662SOL    HW129885   4.561   3.570   6.457
 9662SOL    HW229886   4.419   3.499   6.494
 9663SOL     OW29887   0.350   5.981   2.943
 9663SOL    HW129888   0.296   6.036   3.007
 9663SOL    HW229889   0.313   5.990   2.851
 9664SOL     OW29890   5.845   5.345   3.907
 9664SOL    HW129891   5.746   5.362   3.910
 9664SOL    HW229892   5.885   5.400   3.833
 9665SOL     OW29893   6.274   6.616   6.393
 9665SOL    HW129894   6.277   6.648   6.298
 9665SOL    HW229895   6.309   6.688   6.454
 9666SOL     OW29896   6.278   4.013   2.112
 9666SOL    HW129897   6.316   3.954   2.041
 9666SOL    HW229898   6.282   4.108   2.083
 9667SOL     OW29899   3.801   4.009   0.114
 9667SOL    HW129900   3.736   4.016   0.189
 9667SOL    HW229901   3.782   3.928   0.059
 9668SOL     OW29902   0.622   0.449   6.302
 9668SOL    HW129903   0.580   0.487   6.384
 9668SOL    HW229904   0.563   0.465   6.223
 9669SOL     OW29905   2.110   6.606   1.926
 9669SOL    HW129906   2.126   6.704   1.935
 9669SOL    HW229907   2.027   6.581   1.976
 9670SOL     OW29908   0.306   4.961   6.053
 9670SOL    HW129909   0.329   5.053   6.020
 9670SOL    HW229910   0.258   4.969   6.140
 9671SOL     OW29911   6.972   4.297   0.844
 9671SOL    HW129912   6.905   4.222   0.842
 9671SOL    HW229913   7.013   4.307   0.753
 9672SOL     OW29914   2.089   5.167   3.495
 9672SOL    HW129915   2.087   5.248   3.435
 9672SOL    HW229916   2.137   5.189   3.579
 9673SOL     OW29917   3.752   3.646   0.933
 9673SOL    HW129918   3.786   3.670   0.842
 9673SOL    HW229919   3.736   3.730   0.985
 9674SOL     OW29920   3.895   6.735   3.449
 9674SOL    HW129921   3.888   6.677   3.367
 9674SOL    HW229922   3.911   6.830   3.421
 9675SOL     OW29923   5.559   2.505   6.314
 9675SOL    HW129924   5.561   2.605   6.306
 9675SOL    HW229925   5.596   2.464   6.231
 9676SOL     OW29926   0.877   2.958   5.737
 9676SOL    HW129927   0.880   3.047   5.784
 9676SOL    HW229928   0.948   2.899   5.774
 9677SOL     OW29929   6.186   5.225   4.832
 9677SOL    HW129930   6.091   5.199   4.813
 9677SOL    HW229931   6.230   5.257   4.748
 9678SOL     OW29932   2.900   3.593   3.780
 9678SOL    HW129933   2.836   3.658   3.821
 9678SOL    HW229934   2.992   3.633   3.781
 9679SOL     OW29935   2.804   7.000   3.355
 9679SOL    HW129936   2.776   6.907   3.379
 9679SOL    HW229937   2.752   0.042   3.410
 9680SOL     OW29938   3.920   0.450   3.813
 9680SOL    HW129939   3.976   0.489   3.886
 9680SOL    HW229940   3.889   0.523   3.752
 9681SOL     OW29941   2.630   2.082   0.872
 9681SOL    HW129942   2.647   2.084   0.971
 9681SOL    HW229943   2.545   2.032   0.854
 9682SOL     OW29944   4.814   4.107   3.668
 9682SOL    HW129945   4.783   4.186   3.720
 9682SOL    HW229946   4.818   4.027   3.728
 9683SOL     OW29947   3.134   6.851   1.810
 9683SOL    HW129948   3.046   6.891   1.785
 9683SOL    HW229949   3.129   6.751   1.801
 9684SOL     OW29950   0.876   3.536   5.886
 9684SOL    HW129951   0.827   3.510   5.970
 9684SOL    HW229952   0.967   3.570   5.911
 9685SOL     OW29953   4.649   4.247   0.845
 9685SOL    HW129954   4.686   4.223   0.934
 9685SOL    HW229955   4.724   4.267   0.782
 9686SOL     OW29956   0.674   3.610   6.280
 9686SOL    HW129957   0.749   3.635   6.341
 9686SOL    HW229958   0.631   3.694   6.244
 9687SOL     OW29959   1.144   0.830   3.722
 9687SOL    HW129960   1.150   0.744   3.772
 9687SOL    HW229961   1.236   0.858   3.694
 9688SOL     OW29962   1.237   2.858   1.223
 9688SOL    HW129963   1.293   2.878   1.144
 9688SOL    HW229964   1.225   2.941   1.278
 9689SOL     OW29965   0.734   4.690   6.553
 9689SOL    HW129966   0.759   4.672   6.458
 9689SOL    HW229967   0.787   4.767   6.587
 9690SOL     OW29968   6.037   5.885   6.916
 9690SOL    HW129969   6.028   5.794   6.874
 9690SOL    HW229970   5.997   5.953   6.856
 9691SOL     OW29971   3.353   4.198   0.952
 9691SOL    HW129972   3.258   4.202   0.984
 9691SOL    HW229973   3.357   4.227   0.857
 9692SOL     OW29974   3.998   6.316   1.807
 9692SOL    HW129975   4.007   6.349   1.901
 9692SOL    HW229976   3.934   6.240   1.804
 9693SOL     OW29977   5.982   3.966   2.711
 9693SOL    HW129978   6.045   3.888   2.714
 9693SOL    HW229979   6.000   4.020   2.629
 9694SOL     OW29980   3.154   1.341   1.469
 9694SOL    HW129981   3.167   1.244   1.446
 9694SOL    HW229982   3.233   1.374   1.520
 9695SOL     OW29983   0.053   2.529   3.363
 9695SOL    HW129984   0.104   2.615   3.362
 9695SOL    HW229985   0.115   2.453   3.346
 9696SOL     OW29986   5.655   2.542   1.445
 9696SOL    HW129987   5.593   2.465   1.435
 9696SOL    HW229988   5.724   2.539   1.373
 9697SOL     OW29989   0.146   5.448   0.068
 9697SOL    HW129990   0.145   5.498   7.005
 9697SOL    HW229991   0.104   5.358   0.055
 9698SOL     OW29992   5.646   2.412   6.085
 9698SOL    HW129993   5.693   2.328   6.114
 9698SOL    HW229994   5.568   2.387   6.028
 9699SOL     OW29995   6.083   6.244   6.780
 9699SOL    HW129996   6.024   6.263   6.858
 9699SOL    HW229997   6.028   6.244   6.696
 9700SOL     OW29998   5.513   5.948   5.126
 9700SOL    HW129999   5.517   5.850   5.146
 9700SOL    HW230000   5.463   5.963   5.041
 9701SOL     OW30001   4.296   4.899   5.392
 9701SOL    HW130002   4.232   4.974   5.378
 9701SOL    HW230003   4.386   4.935   5.418
 9702SOL     OW30004   4.113   1.726   6.898
 9702SOL    HW130005   4.111   1.641   6.951
 9702SOL    HW230006   4.180   1.789   6.937
 9703SOL     OW30007   4.956   3.733   3.985
 9703SOL    HW130008   4.931   3.716   4.081
 9703SOL    HW230009   5.048   3.772   3.981
 9704SOL     OW30010   3.439   0.085   1.469
 9704SOL    HW130011   3.440   0.031   1.553
 9704SOL    HW230012   3.373   0.046   1.405
 9705SOL     OW30013   5.650   3.926   6.267
 9705SOL    HW130014   5.577   3.910   6.200
 9705SOL    HW230015   5.684   3.839   6.301
 9706SOL     OW30016   2.205   3.015   0.833
 9706SOL    HW130017   2.157   2.949   0.891
 9706SOL    HW230018   2.225   2.974   0.744
 9707SOL     OW30019   6.283   4.521   2.335
 9707SOL    HW130020   6.312   4.489   2.425
 9707SOL    HW230021   6.352   4.496   2.267
 9708SOL     OW30022   1.252   1.631   3.582
 9708SOL    HW130023   1.335   1.673   3.545
 9708SOL    HW230024   1.272   1.539   3.614
 9709SOL     OW30025   5.321   6.319   2.709
 9709SOL    HW130026   5.224   6.323   2.684
 9709SOL    HW230027   5.330   6.281   2.801
 9710SOL     OW30028   6.544   1.732   1.616
 9710SOL    HW130029   6.635   1.719   1.577
 9710SOL    HW230030   6.475   1.699   1.552
 9711SOL     OW30031   3.261   5.406   5.503
 9711SOL    HW130032   3.282   5.367   5.413
 9711SOL    HW230033   3.232   5.333   5.565
 9712SOL     OW30034   5.450   3.607   6.551
 9712SOL    HW130035   5.501   3.623   6.635
 9712SOL    HW230036   5.363   3.657   6.554
 9713SOL     OW30037   1.894   4.118   3.470
 9713SOL    HW130038   1.799   4.090   3.464
 9713SOL    HW230039   1.899   4.217   3.482
 9714SOL     OW30040   4.287   6.262   6.677
 9714SOL    HW130041   4.337   6.203   6.613
 9714SOL    HW230042   4.266   6.211   6.760
 9715SOL     OW30043   5.901   3.982   0.010
 9715SOL    HW130044   6.000   3.989   7.020
 9715SOL    HW230045   5.860   3.941   6.952
 9716SOL     OW30046   3.409   4.443   6.621
 9716SOL    HW130047   3.475   4.515   6.599
 9716SOL    HW230048   3.316   4.476   6.600
 9717SOL     OW30049   4.876   6.840   6.002
 9717SOL    HW130050   4.833   6.926   6.029
 9717SOL    HW230051   4.962   6.829   6.051
 9718SOL     OW30052   5.459   3.314   0.216
 9718SOL    HW130053   5.507   3.246   0.271
 9718SOL    HW230054   5.403   3.267   0.148
 9719SOL     OW30055   6.523   0.757   5.752
 9719SOL    HW130056   6.560   0.829   5.810
 9719SOL    HW230057   6.497   0.678   5.808
 9720SOL     OW30058   0.640   4.726   1.993
 9720SOL    HW130059   0.725   4.673   2.002
 9720SOL    HW230060   0.576   4.677   1.935
 9721SOL     OW30061   0.580   1.720   0.908
 9721SOL    HW130062   0.623   1.792   0.854
 9721SOL    HW230063   0.535   1.761   0.988
 9722SOL     OW30064   4.600   1.360   4.594
 9722SOL    HW130065   4.638   1.445   4.558
 9722SOL    HW230066   4.529   1.380   4.661
 9723SOL     OW30067   3.527   6.626   3.133
 9723SOL    HW130068   3.500   6.695   3.199
 9723SOL    HW230069   3.512   6.660   3.040
 9724SOL     OW30070   1.240   4.810   6.920
 9724SOL    HW130071   1.181   4.859   6.856
 9724SOL    HW230072   1.226   4.712   6.910
 9725SOL     OW30073   4.842   5.840   6.045
 9725SOL    HW130074   4.771   5.895   6.089
 9725SOL    HW230075   4.870   5.884   5.960
 9726SOL     OW30076   4.966   1.587   3.939
 9726SOL    HW130077   5.041   1.554   3.997
 9726SOL    HW230078   4.894   1.624   3.996
 9727SOL     OW30079   1.324   2.400   0.382
 9727SOL    HW130080   1.379   2.322   0.350
 9727SOL    HW230081   1.247   2.414   0.319
 9728SOL     OW30082   0.848   0.229   5.825
 9728SOL    HW130083   0.902   0.167   5.768
 9728SOL    HW230084   0.850   0.321   5.786
 9729SOL     OW30085   1.230   4.334   3.263
 9729SOL    HW130086   1.269   4.314   3.173
 9729SOL    HW230087   1.165   4.262   3.287
 9730SOL     OW30088   1.713   4.489   3.007
 9730SOL    HW130089   1.721   4.477   3.106
 9730SOL    HW230090   1.704   4.586   2.986
 9731SOL     OW30091   5.334   4.918   0.856
 9731SOL    HW130092   5.382   4.960   0.779
 9731SOL    HW230093   5.394   4.919   0.937
 9732SOL     OW30094   0.215   5.318   2.562
 9732SOL    HW130095   0.290   5.252   2.567
 9732SOL    HW230096   0.155   5.296   2.486
 9733SOL     OW30097   5.102   5.147   0.445
 9733SOL    HW130098   5.079   5.111   0.536
 9733SOL    HW230099   5.061   5.089   0.375
 9734SOL     OW30100   6.383   1.710   0.501
 9734SOL    HW130101   6.443   1.785   0.474
 9734SOL    HW230102   6.434   1.643   0.553
 9735SOL     OW30103   2.115   3.606   3.442
 9735SOL    HW130104   2.128   3.705   3.447
 9735SOL    HW230105   2.170   3.569   3.367
 9736SOL     OW30106   5.879   1.730   6.096
 9736SOL    HW130107   5.817   1.807   6.110
 9736SOL    HW230108   5.923   1.739   6.006
 9737SOL     OW30109   4.907   2.369   3.112
 9737SOL    HW130110   4.824   2.415   3.143
 9737SOL    HW230111   4.987   2.410   3.155
 9738SOL     OW30112   2.350   6.897   0.144
 9738SOL    HW130113   2.260   6.866   0.116
 9738SOL    HW230114   2.373   6.857   0.233
 9739SOL     OW30115   5.180   5.595   1.120
 9739SOL    HW130116   5.217   5.518   1.068
 9739SOL    HW230117   5.213   5.680   1.080
 9740SOL     OW30118   0.328   0.955   3.516
 9740SOL    HW130119   0.426   0.970   3.506
 9740SOL    HW230120   0.295   1.001   3.598
 9741SOL     OW30121   3.653   2.035   2.425
 9741SOL    HW130122   3.575   2.051   2.364
 9741SOL    HW230123   3.735   2.077   2.387
 9742SOL     OW30124   4.485   1.632   0.557
 9742SOL    HW130125   4.494   1.729   0.579
 9742SOL    HW230126   4.459   1.581   0.639
 9743SOL     OW30127   6.768   3.139   4.271
 9743SOL    HW130128   6.785   3.079   4.193
 9743SOL    HW230129   6.686   3.193   4.254
 9744SOL     OW30130   1.362   6.713   1.935
 9744SOL    HW130131   1.308   6.796   1.954
 9744SOL    HW230132   1.445   6.738   1.885
 9745SOL     OW30133   5.309   2.373   6.309
 9745SOL    HW130134   5.404   2.397   6.291
 9745SOL    HW230135   5.305   2.282   6.351
 9746SOL     OW30136   6.318   0.659   5.558
 9746SOL    HW130137   6.359   0.725   5.622
 9746SOL    HW230138   6.331   0.693   5.465
 9747SOL     OW30139   2.704   1.828   1.983
 9747SOL    HW130140   2.766   1.772   1.928
 9747SOL    HW230141   2.746   1.916   2.004
 9748SOL     OW30142   6.780   6.919   3.408
 9748SOL    HW130143   6.754   6.896   3.314
 9748SOL    HW230144   6.718   6.988   3.444
 9749SOL     OW30145   2.244   0.226   4.255
 9749SOL    HW130146   2.159   0.273   4.278
 9749SOL    HW230147   2.225   0.155   4.187
 9750SOL     OW30148   5.788   4.142   3.638
 9750SOL    HW130149   5.772   4.112   3.544
 9750SOL    HW230150   5.702   4.164   3.682
 9751SOL     OW30151   2.399   0.782   0.758
 9751SOL    HW130152   2.388   0.801   0.660
 9751SOL    HW230153   2.494   0.799   0.784
 9752SOL     OW30154   3.771   2.161   5.055
 9752SOL    HW130155   3.717   2.242   5.077
 9752SOL    HW230156   3.716   2.099   4.999
 9753SOL     OW30157   0.061   5.445   6.317
 9753SOL    HW130158   0.061   5.446   6.217
 9753SOL    HW230159   7.014   5.508   6.351
 9754SOL     OW30160   1.635   0.409   0.758
 9754SOL    HW130161   1.709   0.457   0.804
 9754SOL    HW230162   1.668   0.319   0.729
 9755SOL     OW30163   3.631   3.664   4.135
 9755SOL    HW130164   3.727   3.672   4.162
 9755SOL    HW230165   3.573   3.703   4.206
 9756SOL     OW30166   5.689   2.716   6.553
 9756SOL    HW130167   5.746   2.775   6.609
 9756SOL    HW230168   5.737   2.694   6.468
 9757SOL     OW30169   6.148   4.641   4.039
 9757SOL    HW130170   6.094   4.674   3.962
 9757SOL    HW230171   6.091   4.637   4.121
 9758SOL     OW30172   3.055   0.149   6.018
 9758SOL    HW130173   3.080   0.233   5.970
 9758SOL    HW230174   3.000   0.091   5.958
 9759SOL     OW30175   1.291   0.547   0.000
 9759SOL    HW130176   1.229   0.480   0.041
 9759SOL    HW230177   1.329   0.605   0.072
 9760SOL     OW30178   5.313   3.013   5.654
 9760SOL    HW130179   5.399   3.020   5.706
 9760SOL    HW230180   5.304   2.920   5.618
 9761SOL     OW30181   0.415   1.439   2.538
 9761SOL    HW130182   0.350   1.499   2.491
 9761SOL    HW230183   0.365   1.365   2.583
 9762SOL     OW30184   3.129   1.616   4.764
 9762SOL    HW130185   3.198   1.563   4.813
 9762SOL    HW230186   3.040   1.604   4.808
 9763SOL     OW30187   4.891   1.923   2.313
 9763SOL    HW130188   4.880   1.942   2.215
 9763SOL    HW230189   4.918   1.827   2.325
 9764SOL     OW30190   0.038   2.980   3.170
 9764SOL    HW130191   0.037   3.038   3.251
 9764SOL    HW230192   0.088   3.025   3.096
 9765SOL     OW30193   6.727   6.566   3.449
 9765SOL    HW130194   6.730   6.576   3.349
 9765SOL    HW230195   6.810   6.604   3.488
 9766SOL     OW30196   2.905   0.498   2.352
 9766SOL    HW130197   2.919   0.404   2.322
 9766SOL    HW230198   2.838   0.542   2.294
 9767SOL     OW30199   3.801   1.299   5.381
 9767SOL    HW130200   3.818   1.396   5.400
 9767SOL    HW230201   3.875   1.244   5.419
 9768SOL     OW30202   5.799   0.973   1.900
 9768SOL    HW130203   5.774   1.069   1.897
 9768SOL    HW230204   5.867   0.959   1.972
 9769SOL     OW30205   4.209   0.899   4.399
 9769SOL    HW130206   4.183   0.910   4.495
 9769SOL    HW230207   4.220   0.989   4.356
 9770SOL     OW30208   4.272   1.516   5.981
 9770SOL    HW130209   4.193   1.471   6.021
 9770SOL    HW230210   4.313   1.578   6.047
 9771SOL     OW30211   2.749   6.448   0.619
 9771SOL    HW130212   2.841   6.461   0.655
 9771SOL    HW230213   2.682   6.458   0.693
 9772SOL     OW30214   1.948   6.005   1.429
 9772SOL    HW130215   2.045   6.029   1.427
 9772SOL    HW230216   1.929   5.951   1.511
 9773SOL     OW30217   4.923   5.442   3.903
 9773SOL    HW130218   4.921   5.369   3.971
 9773SOL    HW230219   4.966   5.524   3.942
 9774SOL     OW30220   7.023   5.158   1.789
 9774SOL    HW130221   6.968   5.106   1.854
 9774SOL    HW230222   6.982   5.248   1.775
 9775SOL     OW30223   3.237   0.802   3.169
 9775SOL    HW130224   3.138   0.794   3.156
 9775SOL    HW230225   3.279   0.712   3.159
 9776SOL     OW30226   1.227   4.560   4.884
 9776SOL    HW130227   1.235   4.628   4.957
 9776SOL    HW230228   1.270   4.474   4.914
 9777SOL     OW30229   6.199   6.008   0.065
 9777SOL    HW130230   6.151   5.932   0.020
 9777SOL    HW230231   6.271   6.042   0.005
 9778SOL     OW30232   0.432   1.060   4.292
 9778SOL    HW130233   0.361   1.023   4.352
 9778SOL    HW230234   0.458   0.990   4.225
 9779SOL     OW30235   1.239   1.542   4.152
 9779SOL    HW130236   1.324   1.583   4.118
 9779SOL    HW230237   1.176   1.614   4.182
 9780SOL     OW30238   2.283   2.481   1.002
 9780SOL    HW130239   2.211   2.517   1.061
 9780SOL    HW230240   2.371   2.487   1.049
 9781SOL     OW30241   2.318   2.799   4.580
 9781SOL    HW130242   2.349   2.705   4.587
 9781SOL    HW230243   2.317   2.841   4.671
 9782SOL     OW30244   0.194   0.764   1.432
 9782SOL    HW130245   0.287   0.756   1.398
 9782SOL    HW230246   0.136   0.696   1.386
 9783SOL     OW30247   4.247   2.080   3.421
 9783SOL    HW130248   4.154   2.043   3.431
 9783SOL    HW230249   4.293   2.036   3.345
 9784SOL     OW30250   2.789   1.706   5.748
 9784SOL    HW130251   2.749   1.777   5.691
 9784SOL    HW230252   2.716   1.655   5.794
 9785SOL     OW30253   1.282   2.628   6.194
 9785SOL    HW130254   1.359   2.615   6.132
 9785SOL    HW230255   1.299   2.581   6.280
 9786SOL     OW30256   2.684   3.918   0.151
 9786SOL    HW130257   2.685   3.890   0.055
 9786SOL    HW230258   2.591   3.908   0.187
 9787SOL     OW30259   3.310   3.674   2.545
 9787SOL    HW130260   3.253   3.750   2.575
 9787SOL    HW230261   3.401   3.683   2.586
 9788SOL     OW30262   1.258   0.498   3.562
 9788SOL    HW130263   1.287   0.403   3.564
 9788SOL    HW230264   1.255   0.533   3.656
 9789SOL     OW30265   1.805   5.944   0.607
 9789SOL    HW130266   1.778   6.035   0.639
 9789SOL    HW230267   1.769   5.928   0.515
 9790SOL     OW30268   6.623   4.402   6.386
 9790SOL    HW130269   6.661   4.359   6.304
 9790SOL    HW230270   6.532   4.438   6.365
 9791SOL     OW30271   0.119   0.870   0.828
 9791SOL    HW130272   0.102   0.951   0.885
 9791SOL    HW230273   0.056   0.797   0.854
 9792SOL     OW30274   4.222   4.525   0.354
 9792SOL    HW130275   4.309   4.490   0.390
 9792SOL    HW230276   4.220   4.514   0.255
 9793SOL     OW30277   4.460   6.622   2.741
 9793SOL    HW130278   4.469   6.601   2.838
 9793SOL    HW230279   4.439   6.539   2.690
 9794SOL     OW30280   0.205   4.143   6.970
 9794SOL    HW130281   0.268   4.138   6.892
 9794SOL    HW230282   0.257   4.149   0.031
 9795SOL     OW30283   2.144   1.768   4.537
 9795SOL    HW130284   2.184   1.789   4.627
 9795SOL    HW230285   2.094   1.682   4.543
 9796SOL     OW30286   3.350   2.956   2.273
 9796SOL    HW130287   3.399   2.907   2.201
 9796SOL    HW230288   3.281   3.016   2.232
 9797SOL     OW30289   1.882   5.906   6.883
 9797SOL    HW130290   1.902   5.849   6.803
 9797SOL    HW230291   1.810   5.864   6.937
 9798SOL     OW30292   2.795   0.157   2.354
 9798SOL    HW130293   2.720   0.092   2.339
 9798SOL    HW230294   2.810   0.209   2.270
 9799SOL     OW30295   2.955   3.431   5.069
 9799SOL    HW130296   2.943   3.526   5.097
 9799SOL    HW230297   3.037   3.394   5.113
 9800SOL     OW30298   3.948   5.295   4.605
 9800SOL    HW130299   3.983   5.380   4.566
 9800SOL    HW230300   3.902   5.314   4.691
 9801SOL     OW30301   4.503   4.227   0.171
 9801SOL    HW130302   4.590   4.188   0.199
 9801SOL    HW230303   4.463   4.278   0.247
 9802SOL     OW30304   0.063   4.030   1.803
 9802SOL    HW130305   7.005   4.052   1.750
 9802SOL    HW230306   0.138   4.090   1.775
 9803SOL     OW30307   1.570   2.314   6.696
 9803SOL    HW130308   1.537   2.373   6.771
 9803SOL    HW230309   1.613   2.371   6.626
 9804SOL     OW30310   1.264   5.950   3.226
 9804SOL    HW130311   1.211   5.907   3.300
 9804SOL    HW230312   1.296   5.879   3.163
 9805SOL     OW30313   1.250   6.357   4.296
 9805SOL    HW130314   1.226   6.266   4.263
 9805SOL    HW230315   1.235   6.424   4.223
 9806SOL     OW30316   1.213   1.218   6.783
 9806SOL    HW130317   1.199   1.119   6.782
 9806SOL    HW230318   1.148   1.262   6.721
 9807SOL     OW30319   3.143   4.554   0.153
 9807SOL    HW130320   3.226   4.502   0.176
 9807SOL    HW230321   3.066   4.518   0.205
 9808SOL     OW30322   4.127   0.379   5.560
 9808SOL    HW130323   4.184   0.358   5.480
 9808SOL    HW230324   4.117   0.298   5.617
 9809SOL     OW30325   1.539   2.630   6.071
 9809SOL    HW130326   1.635   2.615   6.047
 9809SOL    HW230327   1.532   2.656   6.167
 9810SOL     OW30328   1.831   2.762   3.910
 9810SOL    HW130329   1.927   2.766   3.884
 9810SOL    HW230330   1.776   2.810   3.841
 9811SOL     OW30331   5.288   4.660   3.210
 9811SOL    HW130332   5.259   4.755   3.203
 9811SOL    HW230333   5.215   4.606   3.252
 9812SOL     OW30334   3.573   2.717   6.072
 9812SOL    HW130335   3.546   2.626   6.041
 9812SOL    HW230336   3.492   2.771   6.093
 9813SOL     OW30337   5.329   1.412   0.809
 9813SOL    HW130338   5.392   1.363   0.869
 9813SOL    HW230339   5.356   1.509   0.804
 9814SOL     OW30340   6.931   0.151   0.434
 9814SOL    HW130341   6.887   0.063   0.420
 9814SOL    HW230342   6.983   0.150   0.519
 9815SOL     OW30343   5.489   4.570   4.008
 9815SOL    HW130344   5.494   4.657   3.959
 9815SOL    HW230345   5.406   4.568   4.065
 9816SOL     OW30346   0.799   1.175   6.302
 9816SOL    HW130347   0.758   1.266   6.306
 9816SOL    HW230348   0.787   1.129   6.390
 9817SOL     OW30349   3.108   6.956   3.445
 9817SOL    HW130350   3.081   0.016   3.493
 9817SOL    HW230351   3.030   6.921   3.392
 9818SOL     OW30352   1.386   0.642   4.264
 9818SOL    HW130353   1.402   0.700   4.344
 9818SOL    HW230354   1.329   0.565   4.290
 9819SOL     OW30355   4.902   3.160   3.871
 9819SOL    HW130356   4.912   3.236   3.935
 9819SOL    HW230357   4.990   3.114   3.861
 9820SOL     OW30358   4.298   3.486   6.750
 9820SOL    HW130359   4.276   3.389   6.736
 9820SOL    HW230360   4.303   3.505   6.848
 9821SOL     OW30361   5.274   0.796   6.595
 9821SOL    HW130362   5.188   0.769   6.551
 9821SOL    HW230363   5.309   0.720   6.650
 9822SOL     OW30364   2.636   6.261   3.664
 9822SOL    HW130365   2.644   6.321   3.744
 9822SOL    HW230366   2.706   6.191   3.668
 9823SOL     OW30367   2.578   1.357   6.918
 9823SOL    HW130368   2.633   1.381   6.838
 9823SOL    HW230369   2.629   1.378   7.002
 9824SOL     OW30370   1.952   4.851   4.409
 9824SOL    HW130371   1.931   4.801   4.325
 9824SOL    HW230372   2.037   4.903   4.396
 9825SOL     OW30373   5.218   5.668   4.996
 9825SOL    HW130374   5.231   5.575   4.960
 9825SOL    HW230375   5.166   5.722   4.930
 9826SOL     OW30376   4.691   5.229   5.603
 9826SOL    HW130377   4.763   5.238   5.535
 9826SOL    HW230378   4.602   5.242   5.559
 9827SOL     OW30379   2.004   3.575   3.679
 9827SOL    HW130380   2.048   3.575   3.589
 9827SOL    HW230381   2.037   3.652   3.732
 9828SOL     OW30382   2.310   2.347   5.634
 9828SOL    HW130383   2.324   2.291   5.715
 9828SOL    HW230384   2.234   2.410   5.649
 9829SOL     OW30385   4.028   5.255   6.083
 9829SOL    HW130386   4.119   5.218   6.065
 9829SOL    HW230387   4.024   5.351   6.053
 9830SOL     OW30388   5.511   2.326   2.230
 9830SOL    HW130389   5.434   2.330   2.294
 9830SOL    HW230390   5.494   2.257   2.161
 9831SOL     OW30391   2.182   5.369   1.512
 9831SOL    HW130392   2.095   5.330   1.482
 9831SOL    HW230393   2.180   5.468   1.498
 9832SOL     OW30394   4.890   6.176   2.331
 9832SOL    HW130395   4.971   6.224   2.298
 9832SOL    HW230396   4.914   6.082   2.355
 9833SOL     OW30397   2.931   3.563   4.677
 9833SOL    HW130398   2.950   3.630   4.605
 9833SOL    HW230399   2.833   3.566   4.700
 9834SOL     OW30400   2.408   4.237   5.264
 9834SOL    HW130401   2.493   4.285   5.287
 9834SOL    HW230402   2.430   4.146   5.229
 9835SOL     OW30403   4.016   3.295   4.991
 9835SOL    HW130404   3.954   3.349   4.935
 9835SOL    HW230405   4.031   3.206   4.947
 9836SOL     OW30406   6.842   4.150   3.831
 9836SOL    HW130407   6.906   4.210   3.879
 9836SOL    HW230408   6.748   4.179   3.851
 9837SOL     OW30409   3.719   0.155   2.501
 9837SOL    HW130410   3.652   0.145   2.575
 9837SOL    HW230411   3.672   0.158   2.413
 9838SOL     OW30412   1.642   6.741   0.220
 9838SOL    HW130413   1.571   6.811   0.230
 9838SOL    HW230414   1.599   6.652   0.206
 9839SOL     OW30415   5.031   0.065   3.601
 9839SOL    HW130416   4.999   0.081   3.508
 9839SOL    HW230417   5.112   0.120   3.619
 9840SOL     OW30418   5.468   1.993   0.957
 9840SOL    HW130419   5.543   1.966   0.897
 9840SOL    HW230420   5.399   1.921   0.959
 9841SOL     OW30421   1.451   4.852   4.565
 9841SOL    HW130422   1.513   4.930   4.559
 9841SOL    HW230423   1.374   4.876   4.625
 9842SOL     OW30424   3.431   3.568   1.646
 9842SOL    HW130425   3.354   3.543   1.705
 9842SOL    HW230426   3.435   3.504   1.569
 9843SOL     OW30427   6.491   1.022   1.771
 9843SOL    HW130428   6.545   0.962   1.713
 9843SOL    HW230429   6.460   1.101   1.718
 9844SOL     OW30430   6.487   0.766   2.686
 9844SOL    HW130431   6.455   0.682   2.641
 9844SOL    HW230432   6.509   0.835   2.617
 9845SOL     OW30433   2.346   2.829   3.183
 9845SOL    HW130434   2.402   2.750   3.209
 9845SOL    HW230435   2.353   2.899   3.254
 9846SOL     OW30436   3.866   3.036   2.022
 9846SOL    HW130437   3.896   2.994   2.108
 9846SOL    HW230438   3.922   3.117   2.003
 9847SOL     OW30439   3.554   2.951   3.524
 9847SOL    HW130440   3.593   2.888   3.592
 9847SOL    HW230441   3.586   3.044   3.543
 9848SOL     OW30442   4.360   3.330   5.328
 9848SOL    HW130443   4.381   3.427   5.318
 9848SOL    HW230444   4.268   3.312   5.293
 9849SOL     OW30445   0.729   6.819   6.470
 9849SOL    HW130446   0.796   6.876   6.516
 9849SOL    HW230447   0.768   6.728   6.454
 9850SOL     OW30448   6.119   6.931   4.450
 9850SOL    HW130449   6.094   6.840   4.482
 9850SOL    HW230450   6.209   6.956   4.488
 9851SOL     OW30451   6.951   0.464   4.483
 9851SOL    HW130452   0.023   0.456   4.454
 9851SOL    HW230453   6.911   0.546   4.443
 9852SOL     OW30454   3.619   1.532   3.770
 9852SOL    HW130455   3.674   1.589   3.830
 9852SOL    HW230456   3.522   1.543   3.792
 9853SOL     OW30457   5.040   4.129   4.695
 9853SOL    HW130458   4.955   4.083   4.720
 9853SOL    HW230459   5.075   4.181   4.774
 9854SOL     OW30460   6.612   5.679   4.971
 9854SOL    HW130461   6.551   5.757   4.981
 9854SOL    HW230462   6.674   5.675   5.049
 9855SOL     OW30463   1.821   3.836   1.255
 9855SOL    HW130464   1.881   3.756   1.256
 9855SOL    HW230465   1.781   3.846   1.164
 9856SOL     OW30466   4.693   4.182   4.577
 9856SOL    HW130467   4.659   4.118   4.645
 9856SOL    HW230468   4.723   4.266   4.622
 9857SOL     OW30469   4.861   2.340   2.715
 9857SOL    HW130470   4.810   2.259   2.688
 9857SOL    HW230471   4.921   2.318   2.792
 9858SOL     OW30472   6.985   0.800   2.093
 9858SOL    HW130473   0.038   0.829   2.150
 9858SOL    HW230474   7.011   0.720   2.040
 9859SOL     OW30475   6.263   6.308   2.836
 9859SOL    HW130476   6.172   6.330   2.871
 9859SOL    HW230477   6.322   6.389   2.843
 9860SOL     OW30478   1.881   1.913   3.544
 9860SOL    HW130479   1.973   1.922   3.581
 9860SOL    HW230480   1.871   1.972   3.464
 9861SOL     OW30481   3.038   0.510   3.382
 9861SOL    HW130482   3.009   0.416   3.365
 9861SOL    HW230483   2.959   0.571   3.377
 9862SOL     OW30484   3.534   3.138   6.690
 9862SOL    HW130485   3.464   3.129   6.619
 9862SOL    HW230486   3.612   3.189   6.653
 9863SOL     OW30487   3.796   6.779   2.463
 9863SOL    HW130488   3.771   6.799   2.368
 9863SOL    HW230489   3.896   6.768   2.469
 9864SOL     OW30490   3.824   6.644   3.773
 9864SOL    HW130491   3.732   6.682   3.783
 9864SOL    HW230492   3.864   6.676   3.687
 9865SOL     OW30493   1.857   6.932   4.483
 9865SOL    HW130494   1.931   6.923   4.416
 9865SOL    HW230495   1.832   6.842   4.518
 9866SOL     OW30496   4.634   4.560   6.220
 9866SOL    HW130497   4.540   4.574   6.189
 9866SOL    HW230498   4.638   4.478   6.277
 9867SOL     OW30499   6.671   1.665   1.244
 9867SOL    HW130500   6.598   1.636   1.182
 9867SOL    HW230501   6.699   1.587   1.301
 9868SOL     OW30502   0.884   3.558   5.430
 9868SOL    HW130503   0.851   3.537   5.338
 9868SOL    HW230504   0.849   3.647   5.458
 9869SOL     OW30505   0.788   2.468   1.700
 9869SOL    HW130506   0.883   2.437   1.704
 9869SOL    HW230507   0.766   2.518   1.784
 9870SOL     OW30508   3.747   5.733   2.416
 9870SOL    HW130509   3.742   5.755   2.318
 9870SOL    HW230510   3.712   5.640   2.430
 9871SOL     OW30511   6.898   5.384   6.082
 9871SOL    HW130512   6.907   5.289   6.111
 9871SOL    HW230513   6.809   5.420   6.110
 9872SOL     OW30514   2.673   5.195   5.188
 9872SOL    HW130515   2.659   5.123   5.121
 9872SOL    HW230516   2.585   5.225   5.225
 9873SOL     OW30517   2.202   2.620   0.574
 9873SOL    HW130518   2.271   2.562   0.531
 9873SOL    HW230519   2.122   2.625   0.514
 9874SOL     OW30520   5.446   3.435   4.944
 9874SOL    HW130521   5.517   3.505   4.945
 9874SOL    HW230522   5.385   3.451   4.866
 9875SOL     OW30523   5.959   5.602   1.589
 9875SOL    HW130524   5.995   5.652   1.510
 9875SOL    HW230525   6.021   5.528   1.613
 9876SOL     OW30526   5.595   0.870   3.970
 9876SOL    HW130527   5.536   0.790   3.975
 9876SOL    HW230528   5.661   0.859   3.896
 9877SOL     OW30529   6.448   5.149   4.524
 9877SOL    HW130530   6.509   5.102   4.588
 9877SOL    HW230531   6.444   5.096   4.439
 9878SOL     OW30532   2.975   4.347   5.567
 9878SOL    HW130533   2.939   4.432   5.605
 9878SOL    HW230534   2.944   4.270   5.623
 9879SOL     OW30535   5.268   5.975   5.459
 9879SOL    HW130536   5.233   5.923   5.381
 9879SOL    HW230537   5.320   6.054   5.425
 9880SOL     OW30538   3.632   0.609   0.137
 9880SOL    HW130539   3.564   0.587   0.207
 9880SOL    HW230540   3.705   0.664   0.178
 9881SOL     OW30541   1.435   1.682   4.852
 9881SOL    HW130542   1.502   1.609   4.840
 9881SOL    HW230543   1.348   1.656   4.809
 9882SOL     OW30544   1.774   3.675   4.936
 9882SOL    HW130545   1.758   3.650   5.032
 9882SOL    HW230546   1.816   3.765   4.932
 9883SOL     OW30547   1.359   6.028   0.727
 9883SOL    HW130548   1.411   6.112   0.742
 9883SOL    HW230549   1.268   6.038   0.767
 9884SOL     OW30550   4.473   2.402   1.139
 9884SOL    HW130551   4.526   2.371   1.218
 9884SOL    HW230552   4.401   2.336   1.120
 9885SOL     OW30553   6.859   2.106   4.751
 9885SOL    HW130554   6.795   2.147   4.816
 9885SOL    HW230555   6.868   2.165   4.671
 9886SOL     OW30556   1.335   5.405   1.987
 9886SOL    HW130557   1.265   5.334   1.994
 9886SOL    HW230558   1.317   5.461   1.906
 9887SOL     OW30559   4.029   0.419   0.048
 9887SOL    HW130560   4.001   0.328   0.017
 9887SOL    HW230561   4.046   0.477   6.992
 9888SOL     OW30562   5.284   4.955   2.754
 9888SOL    HW130563   5.211   4.890   2.731
 9888SOL    HW230564   5.367   4.904   2.778
 9889SOL     OW30565   6.171   4.427   0.821
 9889SOL    HW130566   6.231   4.357   0.860
 9889SOL    HW230567   6.076   4.406   0.844
 9890SOL     OW30568   0.604   2.684   1.319
 9890SOL    HW130569   0.626   2.604   1.264
 9890SOL    HW230570   0.508   2.679   1.348
 9891SOL     OW30571   6.039   3.272   1.685
 9891SOL    HW130572   6.018   3.294   1.781
 9891SOL    HW230573   5.982   3.195   1.656
 9892SOL     OW30574   1.694   5.019   2.690
 9892SOL    HW130575   1.653   5.095   2.640
 9892SOL    HW230576   1.677   5.031   2.788
 9893SOL     OW30577   6.478   0.535   2.527
 9893SOL    HW130578   6.571   0.499   2.539
 9893SOL    HW230579   6.422   0.467   2.481
 9894SOL     OW30580   3.030   2.007   6.789
 9894SOL    HW130581   3.024   1.908   6.802
 9894SOL    HW230582   3.062   2.049   6.874
 9895SOL     OW30583   5.047   3.963   5.288
 9895SOL    HW130584   5.004   3.939   5.374
 9895SOL    HW230585   5.002   3.914   5.213
 9896SOL     OW30586   5.448   1.473   1.151
 9896SOL    HW130587   5.469   1.418   1.071
 9896SOL    HW230588   5.417   1.413   1.225
 9897SOL     OW30589   5.633   0.096   2.357
 9897SOL    HW130590   5.572   0.049   2.292
 9897SOL    HW230591   5.727   0.091   2.325
 9898SOL     OW30592   0.797   4.745   6.256
 9898SOL    HW130593   0.882   4.788   6.225
 9898SOL    HW230594   0.723   4.765   6.192
 9899SOL     OW30595   1.182   5.153   2.086
 9899SOL    HW130596   1.121   5.151   2.165
 9899SOL    HW230597   1.181   5.064   2.040
 9900SOL     OW30598   1.550   3.085   2.139
 9900SOL    HW130599   1.460   3.076   2.095
 9900SOL    HW230600   1.597   2.997   2.138
 9901SOL     OW30601   3.037   0.589   6.674
 9901SOL    HW130602   3.004   0.627   6.588
 9901SOL    HW230603   2.962   0.540   6.719
 9902SOL     OW30604   3.680   4.240   1.393
 9902SOL    HW130605   3.594   4.190   1.385
 9902SOL    HW230606   3.756   4.175   1.399
 9903SOL     OW30607   5.491   1.589   1.600
 9903SOL    HW130608   5.459   1.666   1.654
 9903SOL    HW230609   5.508   1.619   1.506
 9904SOL     OW30610   0.167   4.021   6.446
 9904SOL    HW130611   0.175   4.099   6.384
 9904SOL    HW230612   0.257   3.981   6.462
 9905SOL     OW30613   2.344   0.518   5.851
 9905SOL    HW130614   2.318   0.593   5.790
 9905SOL    HW230615   2.314   0.539   5.944
 9906SOL     OW30616   1.842   3.485   0.814
 9906SOL    HW130617   1.819   3.425   0.891
 9906SOL    HW230618   1.842   3.580   0.845
 9907SOL     OW30619   1.198   0.620   1.750
 9907SOL    HW130620   1.248   0.682   1.811
 9907SOL    HW230621   1.231   0.526   1.764
 9908SOL     OW30622   6.668   2.666   5.244
 9908SOL    HW130623   6.746   2.606   5.266
 9908SOL    HW230624   6.701   2.759   5.232
 9909SOL     OW30625   3.920   0.859   2.643
 9909SOL    HW130626   3.890   0.795   2.573
 9909SOL    HW230627   3.845   0.921   2.667
 9910SOL     OW30628   1.475   5.149   1.294
 9910SOL    HW130629   1.400   5.184   1.349
 9910SOL    HW230630   1.438   5.106   1.211
 9911SOL     OW30631   2.644   5.691   1.802
 9911SOL    HW130632   2.647   5.754   1.724
 9911SOL    HW230633   2.631   5.598   1.769
 9912SOL     OW30634   3.792   1.138   0.818
 9912SOL    HW130635   3.826   1.205   0.752
 9912SOL    HW230636   3.702   1.106   0.791
 9913SOL     OW30637   5.918   3.056   0.974
 9913SOL    HW130638   5.869   3.022   1.054
 9913SOL    HW230639   5.947   2.979   0.917
 9914SOL     OW30640   6.901   6.875   5.830
 9914SOL    HW130641   6.900   6.776   5.819
 9914SOL    HW230642   6.939   6.898   5.920
 9915SOL     OW30643   5.558   0.723   3.579
 9915SOL    HW130644   5.503   0.788   3.632
 9915SOL    HW230645   5.539   0.630   3.611
 9916SOL     OW30646   1.966   2.173   3.304
 9916SOL    HW130647   2.013   2.243   3.250
 9916SOL    HW230648   1.933   2.101   3.243
 9917SOL     OW30649   3.537   3.777   5.536
 9917SOL    HW130650   3.496   3.852   5.484
 9917SOL    HW230651   3.555   3.700   5.475
 9918SOL     OW30652   1.294   3.044   2.658
 9918SOL    HW130653   1.226   3.111   2.628
 9918SOL    HW230654   1.361   3.088   2.718
 9919SOL     OW30655   2.595   5.451   2.091
 9919SOL    HW130656   2.628   5.370   2.041
 9919SOL    HW230657   2.662   5.475   2.161
 9920SOL     OW30658   4.948   0.520   2.493
 9920SOL    HW130659   4.990   0.592   2.548
 9920SOL    HW230660   4.907   0.560   2.411
 9921SOL     OW30661   4.483   6.756   4.712
 9921SOL    HW130662   4.575   6.746   4.748
 9921SOL    HW230663   4.486   6.802   4.623
 9922SOL     OW30664   3.845   4.240   0.979
 9922SOL    HW130665   3.923   4.193   1.020
 9922SOL    HW230666   3.762   4.219   1.031
 9923SOL     OW30667   6.115   3.752   0.247
 9923SOL    HW130668   6.061   3.739   0.164
 9923SOL    HW230669   6.110   3.847   0.275
 9924SOL     OW30670   5.182   1.632   3.076
 9924SOL    HW130671   5.255   1.695   3.051
 9924SOL    HW230672   5.106   1.643   3.012
 9925SOL     OW30673   0.662   4.641   3.797
 9925SOL    HW130674   0.567   4.666   3.818
 9925SOL    HW230675   0.685   4.556   3.844
 9926SOL     OW30676   3.740   2.795   0.507
 9926SOL    HW130677   3.704   2.851   0.432
 9926SOL    HW230678   3.666   2.770   0.568
 9927SOL     OW30679   1.165   1.274   0.598
 9927SOL    HW130680   1.183   1.241   0.505
 9927SOL    HW230681   1.148   1.373   0.595
 9928SOL     OW30682   5.534   4.128   3.383
 9928SOL    HW130683   5.500   4.105   3.292
 9928SOL    HW230684   5.540   4.227   3.393
 9929SOL     OW30685   3.867   4.040   4.264
 9929SOL    HW130686   3.857   3.961   4.325
 9929SOL    HW230687   3.883   4.007   4.171
 9930SOL     OW30688   0.684   6.697   5.964
 9930SOL    HW130689   0.661   6.625   6.030
 9930SOL    HW230690   0.764   6.747   5.997
 9931SOL     OW30691   6.847   6.069   4.029
 9931SOL    HW130692   6.865   6.057   3.931
 9931SOL    HW230693   6.754   6.102   4.042
 9932SOL     OW30694   2.567   2.404   5.762
 9932SOL    HW130695   2.541   2.490   5.718
 9932SOL    HW230696   2.664   2.408   5.787
 9933SOL     OW30697   1.715   6.557   4.258
 9933SOL    HW130698   1.760   6.601   4.181
 9933SOL    HW230699   1.736   6.460   4.258
 9934SOL     OW30700   6.928   2.045   6.284
 9934SOL    HW130701   6.837   2.005   6.296
 9934SOL    HW230702   6.952   2.100   6.364
 9935SOL     OW30703   2.508   6.982   1.332
 9935SOL    HW130704   2.519   0.002   1.422
 9935SOL    HW230705   2.498   0.030   1.262
 9936SOL     OW30706   6.739   4.846   0.565
 9936SOL    HW130707   6.796   4.835   0.646
 9936SOL    HW230708   6.683   4.928   0.574
 9937SOL     OW30709   0.511   1.360   1.915
 9937SOL    HW130710   0.532   1.287   1.980
 9937SOL    HW230711   0.450   1.426   1.958
 9938SOL     OW30712   5.861   5.462   4.149
 9938SOL    HW130713   5.767   5.432   4.162
 9938SOL    HW230714   5.895   5.430   4.060
 9939SOL     OW30715   3.327   2.877   0.929
 9939SOL    HW130716   3.390   2.942   0.971
 9939SOL    HW230717   3.241   2.923   0.907
 9940SOL     OW30718   1.088   0.273   2.299
 9940SOL    HW130719   1.092   0.369   2.274
 9940SOL    HW230720   1.095   0.263   2.398
 9941SOL     OW30721   3.098   4.429   6.149
 9941SOL    HW130722   3.126   4.521   6.174
 9941SOL    HW230723   3.041   4.433   6.067
 9942SOL     OW30724   3.922   5.410   2.222
 9942SOL    HW130725   3.830   5.379   2.196
 9942SOL    HW230726   3.929   5.509   2.206
 9943SOL     OW30727   0.770   4.891   6.826
 9943SOL    HW130728   0.677   4.855   6.820
 9943SOL    HW230729   0.796   4.931   6.738
 9944SOL     OW30730   0.774   4.462   6.700
 9944SOL    HW130731   0.751   4.548   6.656
 9944SOL    HW230732   0.767   4.387   6.633
 9945SOL     OW30733   4.681   5.569   0.262
 9945SOL    HW130734   4.655   5.565   0.166
 9945SOL    HW230735   4.664   5.479   0.304
 9946SOL     OW30736   6.592   0.052   3.080
 9946SOL    HW130737   6.579   7.020   3.162
 9946SOL    HW230738   6.527   0.023   3.009
 9947SOL     OW30739   2.905   2.210   4.866
 9947SOL    HW130740   2.863   2.294   4.900
 9947SOL    HW230741   3.000   2.205   4.898
 9948SOL     OW30742   6.343   5.624   4.860
 9948SOL    HW130743   6.402   5.583   4.930
 9948SOL    HW230744   6.272   5.559   4.833
 9949SOL     OW30745   0.405   4.802   3.827
 9949SOL    HW130746   0.457   4.839   3.905
 9949SOL    HW230747   0.311   4.782   3.855
 9950SOL     OW30748   5.871   6.317   6.956
 9950SOL    HW130749   5.810   6.240   6.975
 9950SOL    HW230750   5.868   6.381   0.009
 9951SOL     OW30751   1.099   2.710   3.145
 9951SOL    HW130752   1.127   2.796   3.187
 9951SOL    HW230753   1.010   2.722   3.101
 9952SOL     OW30754   1.544   4.303   0.710
 9952SOL    HW130755   1.570   4.399   0.720
 9952SOL    HW230756   1.607   4.246   0.762
 9953SOL     OW30757   6.231   1.707   3.835
 9953SOL    HW130758   6.286   1.623   3.840
 9953SOL    HW230759   6.257   1.760   3.755
 9954SOL     OW30760   1.285   0.039   5.249
 9954SOL    HW130761   1.281   6.991   5.319
 9954SOL    HW230762   1.223   0.016   5.174
 9955SOL     OW30763   4.316   3.809   6.502
 9955SOL    HW130764   4.312   3.880   6.431
 9955SOL    HW230765   4.364   3.729   6.465
 9956SOL     OW30766   0.530   5.132   3.883
 9956SOL    HW130767   0.463   5.195   3.921
 9956SOL    HW230768   0.536   5.050   3.940
 9957SOL     OW30769   6.203   0.167   1.756
 9957SOL    HW130770   6.221   0.162   1.854
 9957SOL    HW230771   6.162   0.082   1.724
 9958SOL     OW30772   2.735   6.019   6.975
 9958SOL    HW130773   2.794   6.029   0.032
 9958SOL    HW230774   2.769   6.076   6.901
 9959SOL     OW30775   4.099   3.579   3.303
 9959SOL    HW130776   3.999   3.576   3.313
 9959SOL    HW230777   4.124   3.571   3.207
 9960SOL     OW30778   0.506   0.107   2.553
 9960SOL    HW130779   0.484   0.012   2.531
 9960SOL    HW230780   0.585   0.136   2.500
 9961SOL     OW30781   1.447   4.946   4.249
 9961SOL    HW130782   1.365   4.986   4.290
 9961SOL    HW230783   1.513   5.019   4.231
 9962SOL     OW30784   4.723   0.524   2.889
 9962SOL    HW130785   4.718   0.441   2.834
 9962SOL    HW230786   4.765   0.597   2.835
 9963SOL     OW30787   2.358   2.514   6.492
 9963SOL    HW130788   2.436   2.450   6.495
 9963SOL    HW230789   2.327   2.533   6.585
 9964SOL     OW30790   4.101   4.454   6.066
 9964SOL    HW130791   4.164   4.435   5.990
 9964SOL    HW230792   4.082   4.552   6.070
 9965SOL     OW30793   3.683   5.006   5.381
 9965SOL    HW130794   3.610   4.966   5.326
 9965SOL    HW230795   3.651   5.017   5.476
 9966SOL     OW30796   2.828   5.225   2.235
 9966SOL    HW130797   2.777   5.302   2.275
 9966SOL    HW230798   2.835   5.238   2.136
 9967SOL     OW30799   5.711   5.697   1.020
 9967SOL    HW130800   5.679   5.619   1.074
 9967SOL    HW230801   5.734   5.772   1.082
 9968SOL     OW30802   3.237   5.173   6.227
 9968SOL    HW130803   3.277   5.166   6.318
 9968SOL    HW230804   3.304   5.212   6.164
 9969SOL     OW30805   0.988   2.557   4.105
 9969SOL    HW130806   1.076   2.555   4.152
 9969SOL    HW230807   0.928   2.485   4.141
 9970SOL     OW30808   6.423   4.541   2.102
 9970SOL    HW130809   6.483   4.463   2.119
 9970SOL    HW230810   6.477   4.626   2.103
 9971SOL     OW30811   2.408   3.839   0.238
 9971SOL    HW130812   2.328   3.846   0.178
 9971SOL    HW230813   2.389   3.777   0.313
 9972SOL     OW30814   3.349   4.249   0.019
 9972SOL    HW130815   3.259   4.266   7.002
 9972SOL    HW230816   3.418   4.244   6.971
 9973SOL     OW30817   4.339   2.169   4.877
 9973SOL    HW130818   4.272   2.095   4.873
 9973SOL    HW230819   4.417   2.146   4.819
 9974SOL     OW30820   5.793   3.350   3.416
 9974SOL    HW130821   5.700   3.323   3.393
 9974SOL    HW230822   5.855   3.322   3.343
 9975SOL     OW30823   0.099   4.486   0.286
 9975SOL    HW130824   0.013   4.523   0.319
 9975SOL    HW230825   0.081   4.422   0.211
 9976SOL     OW30826   6.906   5.424   5.726
 9976SOL    HW130827   6.945   5.482   5.654
 9976SOL    HW230828   6.980   5.386   5.782
 9977SOL     OW30829   6.683   4.928   5.684
 9977SOL    HW130830   6.643   4.964   5.600
 9977SOL    HW230831   6.676   4.996   5.757
 9978SOL     OW30832   5.963   1.994   3.747
 9978SOL    HW130833   5.935   2.007   3.652
 9978SOL    HW230834   5.960   1.896   3.770
 9979SOL     OW30835   6.575   5.135   6.321
 9979SOL    HW130836   6.654   5.082   6.288
 9979SOL    HW230837   6.492   5.098   6.280
 9980SOL     OW30838   1.629   1.392   6.566
 9980SOL    HW130839   1.554   1.423   6.624
 9980SOL    HW230840   1.680   1.319   6.612
 9981SOL     OW30841   2.831   2.014   1.176
 9981SOL    HW130842   2.914   2.045   1.223
 9981SOL    HW230843   2.853   1.936   1.117
 9982SOL     OW30844   0.775   1.151   3.151
 9982SOL    HW130845   0.845   1.115   3.213
 9982SOL    HW230846   0.706   1.200   3.204
 9983SOL     OW30847   1.469   1.836   2.055
 9983SOL    HW130848   1.485   1.748   2.099
 9983SOL    HW230849   1.497   1.831   1.959
 9984SOL     OW30850   1.135   6.973   0.530
 9984SOL    HW130851   1.159   6.919   0.610
 9984SOL    HW230852   1.217   7.020   0.496
 9985SOL     OW30853   2.845   0.795   1.443
 9985SOL    HW130854   2.827   0.756   1.533
 9985SOL    HW230855   2.935   0.763   1.411
 9986SOL     OW30856   5.487   4.025   6.576
 9986SOL    HW130857   5.574   4.073   6.580
 9986SOL    HW230858   5.482   3.971   6.492
 9987SOL     OW30859   5.124   1.378   2.698
 9987SOL    HW130860   5.183   1.305   2.732
 9987SOL    HW230861   5.180   1.457   2.672
 9988SOL     OW30862   0.163   5.544   5.112
 9988SOL    HW130863   0.211   5.554   5.025
 9988SOL    HW230864   0.078   5.493   5.098
 9989SOL     OW30865   5.326   3.725   2.708
 9989SOL    HW130866   5.245   3.693   2.660
 9989SOL    HW230867   5.345   3.665   2.786
 9990SOL     OW30868   2.608   6.698   2.934
 9990SOL    HW130869   2.698   6.681   2.973
 9990SOL    HW230870   2.553   6.752   2.998
 9991SOL     OW30871   1.402   3.146   5.377
 9991SOL    HW130872   1.343   3.131   5.297
 9991SOL    HW230873   1.491   3.103   5.362
 9992SOL     OW30874   4.887   3.611   0.493
 9992SOL    HW130875   4.818   3.663   0.441
 9992SOL    HW230876   4.932   3.672   0.558
 9993SOL     OW30877   4.578   6.761   2.515
 9993SOL    HW130878   4.540   6.714   2.595
 9993SOL    HW230879   4.677   6.757   2.518
 9994SOL     OW30880   6.665   3.645   4.143
 9994SOL    HW130881   6.583   3.638   4.201
 9994SOL    HW230882   6.747   3.641   4.200
 9995SOL     OW30883   2.946   7.020   2.718
 9995SOL    HW130884   2.925   0.086   2.677
 9995SOL    HW230885   2.993   6.963   2.650
 9996SOL     OW30886   2.712   2.364   1.079
 9996SOL    HW130887   2.736   2.289   1.017
 9996SOL    HW230888   2.796   2.405   1.115
 9997SOL     OW30889   3.904   2.337   1.248
 9997SOL    HW130890   3.983   2.389   1.216
 9997SOL    HW230891   3.839   2.398   1.293
 9998SOL     OW30892   6.638   3.679   2.156
 9998SOL    HW130893   6.649   3.580   2.171
 9998SOL    HW230894   6.661   3.728   2.240
 9999SOL     OW30895   6.564   4.695   4.420
 9999SOL    HW130896   6.524   4.620   4.367
 9999SOL    HW230897   6.661   4.675   4.438
10000SOL     OW30898   5.704   2.533   7.019
10000SOL    HW130899   5.729   2.511   6.925
10000SOL    HW230900   5.605   2.523   0.007
10001SOL     OW30901   4.903   1.222   1.858
10001SOL    HW130902   4.939   1.294   1.799
10001SOL    HW230903   4.854   1.154   1.802
10002SOL     OW30904   1.303   0.631   1.389
10002SOL    HW130905   1.254   0.717   1.378
10002SOL    HW230906   1.256   0.576   1.459
10003SOL     OW30907   4.009   1.916   3.557
10003SOL    HW130908   3.958   2.002   3.559
10003SOL    HW230909   3.952   1.842   3.593
10004SOL     OW30910   4.758   2.919   4.557
10004SOL    HW130911   4.728   2.865   4.478
10004SOL    HW230912   4.844   2.883   4.592
10005SOL     OW30913   5.184   5.937   3.458
10005SOL    HW130914   5.133   5.944   3.544
10005SOL    HW230915   5.154   5.856   3.408
10006SOL     OW30916   5.450   0.769   4.298
10006SOL    HW130917   5.436   0.773   4.397
10006SOL    HW230918   5.486   0.680   4.273
10007SOL     OW30919   0.622   4.615   5.111
10007SOL    HW130920   0.627   4.521   5.077
10007SOL    HW230921   0.555   4.620   5.185
10008SOL     OW30922   4.333   1.341   4.122
10008SOL    HW130923   4.283   1.427   4.111
10008SOL    HW230924   4.428   1.355   4.095
10009SOL     OW30925   1.911   3.741   1.565
10009SOL    HW130926   1.956   3.820   1.523
10009SOL    HW230927   1.980   3.674   1.591
10010SOL     OW30928   2.078   6.821   0.027
10010SOL    HW130929   2.077   6.813   6.950
10010SOL    HW230930   2.001   6.876   0.057
10011SOL     OW30931   0.035   2.488   5.084
10011SOL    HW130932   0.095   2.408   5.085
10011SOL    HW230933   6.998   2.485   5.164
10012SOL     OW30934   5.062   0.147   2.884
10012SOL    HW130935   5.086   0.080   2.814
10012SOL    HW230936   5.145   0.188   2.922
10013SOL     OW30937   2.030   1.466   4.615
10013SOL    HW130938   1.985   1.511   4.538
10013SOL    HW230939   2.123   1.440   4.589
10014SOL     OW30940   6.275   2.712   6.921
10014SOL    HW130941   6.198   2.665   6.962
10014SOL    HW230942   6.268   2.707   6.821
10015SOL     OW30943   2.900   4.431   0.245
10015SOL    HW130944   2.847   4.371   0.185
10015SOL    HW230945   2.914   4.386   0.334
10016SOL     OW30946   2.372   0.266   4.740
10016SOL    HW130947   2.309   0.248   4.817
10016SOL    HW230948   2.361   0.194   4.671
10017SOL     OW30949   1.852   2.674   2.314
10017SOL    HW130950   1.889   2.671   2.221
10017SOL    HW230951   1.857   2.767   2.349
10018SOL     OW30952   5.282   6.692   5.914
10018SOL    HW130953   5.213   6.691   5.841
10018SOL    HW230954   5.321   6.600   5.924
10019SOL     OW30955   1.363   1.672   2.981
10019SOL    HW130956   1.320   1.603   2.924
10019SOL    HW230957   1.308   1.756   2.979
10020SOL     OW30958   0.369   2.470   1.659
10020SOL    HW130959   0.355   2.371   1.662
10020SOL    HW230960   0.319   2.513   1.734
10021SOL     OW30961   0.418   3.134   1.804
10021SOL    HW130962   0.450   3.227   1.784
10021SOL    HW230963   0.354   3.105   1.732
10022SOL     OW30964   3.241   0.027   0.982
10022SOL    HW130965   3.175   0.067   0.919
10022SOL    HW230966   3.315   0.093   0.999
10023SOL     OW30967   1.665   5.261   5.819
10023SOL    HW130968   1.656   5.204   5.901
10023SOL    HW230969   1.658   5.204   5.737
10024SOL     OW30970   2.331   6.574   1.781
10024SOL    HW130971   2.286   6.587   1.692
10024SOL    HW230972   2.263   6.546   1.849
10025SOL     OW30973   1.185   0.879   1.355
10025SOL    HW130974   1.086   0.871   1.347
10025SOL    HW230975   1.214   0.967   1.317
10026SOL     OW30976   4.882   6.533   3.989
10026SOL    HW130977   4.858   6.604   3.922
10026SOL    HW230978   4.959   6.564   4.044
10027SOL     OW30979   0.262   4.458   5.044
10027SOL    HW130980   0.261   4.537   4.982
10027SOL    HW230981   0.341   4.401   5.024
10028SOL     OW30982   1.451   1.907   1.440
10028SOL    HW130983   1.532   1.951   1.402
10028SOL    HW230984   1.405   1.970   1.502
10029SOL     OW30985   3.183   2.133   3.659
10029SOL    HW130986   3.164   2.118   3.756
10029SOL    HW230987   3.105   2.178   3.616
10030SOL     OW30988   2.530   6.391   3.906
10030SOL    HW130989   2.593   6.435   3.970
10030SOL    HW230990   2.458   6.455   3.881
10031SOL     OW30991   5.965   5.109   3.701
10031SOL    HW130992   5.961   5.010   3.694
10031SOL    HW230993   5.920   5.151   3.623
10032SOL     OW30994   3.160   1.062   5.469
10032SOL    HW130995   3.182   0.965   5.481
10032SOL    HW230996   3.230   1.118   5.513
10033SOL     OW30997   4.894   2.305   4.011
10033SOL    HW130998   4.852   2.250   3.939
10033SOL    HW230999   4.989   2.326   3.986
10034SOL     OW31000   3.133   0.133   4.052
10034SOL    HW131001   3.124   0.233   4.052
10034SOL    HW231002   3.224   0.108   4.017
10035SOL     OW31003   6.766   4.395   2.111
10035SOL    HW131004   6.729   4.395   2.019
10035SOL    HW231005   6.863   4.367   2.109
10036SOL     OW31006   5.253   1.649   1.078
10036SOL    HW131007   5.293   1.695   0.999
10036SOL    HW231008   5.310   1.572   1.105
10037SOL     OW31009   5.888   1.160   1.114
10037SOL    HW131010   5.795   1.136   1.142
10037SOL    HW231011   5.934   1.078   1.080
10038SOL     OW31012   3.987   0.779   6.679
10038SOL    HW131013   3.894   0.754   6.708
10038SOL    HW231014   3.997   0.879   6.683
10039SOL     OW31015   3.414   0.278   3.584
10039SOL    HW131016   3.378   0.246   3.672
10039SOL    HW231017   3.351   0.254   3.511
10040SOL     OW31018   4.223   5.658   6.420
10040SOL    HW131019   4.253   5.567   6.392
10040SOL    HW231020   4.280   5.728   6.377
10041SOL     OW31021   3.932   6.302   6.497
10041SOL    HW131022   3.997   6.349   6.437
10041SOL    HW231023   3.963   6.308   6.592
10042SOL     OW31024   0.988   1.741   4.580
10042SOL    HW131025   0.918   1.794   4.627
10042SOL    HW231026   1.042   1.802   4.522
10043SOL     OW31027   6.709   1.909   4.836
10043SOL    HW131028   6.769   1.984   4.809
10043SOL    HW231029   6.739   1.872   4.924
10044SOL     OW31030   2.679   1.451   5.128
10044SOL    HW131031   2.762   1.506   5.128
10044SOL    HW231032   2.699   1.358   5.158
10045SOL     OW31033   3.577   0.543   3.288
10045SOL    HW131034   3.628   0.629   3.291
10045SOL    HW231035   3.502   0.552   3.223
10046SOL     OW31036   1.967   4.112   0.757
10046SOL    HW131037   1.940   4.036   0.698
10046SOL    HW231038   2.038   4.165   0.712
10047SOL     OW31039   0.986   3.841   4.794
10047SOL    HW131040   0.922   3.764   4.787
10047SOL    HW231041   1.042   3.845   4.712
10048SOL     OW31042   6.368   0.788   2.939
10048SOL    HW131043   6.411   0.776   2.849
10048SOL    HW231044   6.275   0.822   2.926
10049SOL     OW31045   0.907   1.939   6.410
10049SOL    HW131046   0.923   1.913   6.505
10049SOL    HW231047   0.963   1.882   6.350
10050SOL     OW31048   5.381   3.736   4.515
10050SOL    HW131049   5.348   3.672   4.447
10050SOL    HW231050   5.309   3.755   4.582
10051SOL     OW31051   6.322   3.847   5.584
10051SOL    HW131052   6.384   3.772   5.604
10051SOL    HW231053   6.247   3.814   5.527
10052SOL     OW31054   2.072   1.155   2.813
10052SOL    HW131055   2.119   1.068   2.797
10052SOL    HW231056   1.980   1.151   2.773
10053SOL     OW31057   3.692   5.314   3.269
10053SOL    HW131058   3.767   5.278   3.324
10053SOL    HW231059   3.693   5.414   3.273
10054SOL     OW31060   5.191   6.086   6.429
10054SOL    HW131061   5.180   5.993   6.395
10054SOL    HW231062   5.225   6.084   6.523
10055SOL     OW31063   6.263   1.223   4.824
10055SOL    HW131064   6.167   1.223   4.797
10055SOL    HW231065   6.277   1.287   4.899
10056SOL     OW31066   5.380   4.213   3.013
10056SOL    HW131067   5.372   4.140   2.945
10056SOL    HW231068   5.298   4.215   3.070
10057SOL     OW31069   4.153   2.687   5.676
10057SOL    HW131070   4.152   2.669   5.577
10057SOL    HW231071   4.169   2.601   5.725
10058SOL     OW31072   6.643   3.749   5.366
10058SOL    HW131073   6.739   3.731   5.350
10058SOL    HW231074   6.607   3.684   5.433
10059SOL     OW31075   0.134   1.292   0.504
10059SOL    HW131076   0.081   1.290   0.589
10059SOL    HW231077   0.207   1.360   0.511
10060SOL     OW31078   2.168   3.002   2.270
10060SOL    HW131079   2.164   3.057   2.187
10060SOL    HW231080   2.086   3.019   2.325
10061SOL     OW31081   4.885   1.401   4.403
10061SOL    HW131082   4.970   1.348   4.411
10061SOL    HW231083   4.815   1.347   4.357
10062SOL     OW31084   5.573   0.196   3.833
10062SOL    HW131085   5.644   0.176   3.900
10062SOL    HW231086   5.507   0.260   3.873
10063SOL     OW31087   2.733   1.107   4.383
10063SOL    HW131088   2.728   1.022   4.435
10063SOL    HW231089   2.740   1.184   4.446
10064SOL     OW31090   5.077   6.838   0.393
10064SOL    HW131091   5.116   6.913   0.340
10064SOL    HW231092   4.980   6.855   0.410
10065SOL     OW31093   2.562   0.248   2.916
10065SOL    HW131094   2.605   0.182   2.979
10065SOL    HW231095   2.603   0.238   2.825
10066SOL     OW31096   0.660   2.120   4.181
10066SOL    HW131097   0.596   2.191   4.210
10066SOL    HW231098   0.709   2.084   4.260
10067SOL     OW31099   0.415   3.466   5.112
10067SOL    HW131100   0.336   3.435   5.059
10067SOL    HW231101   0.424   3.410   5.194
10068SOL     OW31102   0.492   3.566   3.507
10068SOL    HW131103   0.536   3.503   3.572
10068SOL    HW231104   0.561   3.601   3.444
10069SOL     OW31105   3.359   4.917   1.361
10069SOL    HW131106   3.318   4.941   1.449
10069SOL    HW231107   3.444   4.867   1.376
10070SOL     OW31108   0.126   6.407   5.058
10070SOL    HW131109   0.032   6.407   5.090
10070SOL    HW231110   0.128   6.430   4.960
10071SOL     OW31111   0.035   5.881   4.059
10071SOL    HW131112   0.108   5.922   4.004
10071SOL    HW231113   6.982   5.945   4.067
10072SOL     OW31114   0.534   6.821   4.384
10072SOL    HW131115   0.602   6.839   4.312
10072SOL    HW231116   0.581   6.805   4.471
10073SOL     OW31117   6.877   3.933   4.004
10073SOL    HW131118   6.861   3.995   3.927
10073SOL    HW231119   6.937   3.858   3.974
10074SOL     OW31120   2.266   0.387   6.317
10074SOL    HW131121   2.251   0.288   6.318
10074SOL    HW231122   2.318   0.412   6.235
10075SOL     OW31123   1.321   2.485   2.072
10075SOL    HW131124   1.324   2.495   1.972
10075SOL    HW231125   1.369   2.402   2.098
10076SOL     OW31126   5.872   6.209   3.217
10076SOL    HW131127   5.949   6.162   3.173
10076SOL    HW231128   5.794   6.146   3.223
10077SOL     OW31129   4.729   3.788   0.387
10077SOL    HW131130   4.774   3.856   0.329
10077SOL    HW231131   4.638   3.767   0.350
10078SOL     OW31132   6.560   6.161   4.284
10078SOL    HW131133   6.532   6.079   4.335
10078SOL    HW231134   6.572   6.238   4.347
10079SOL     OW31135   5.979   3.109   3.226
10079SOL    HW131136   6.058   3.126   3.166
10079SOL    HW231137   5.901   3.163   3.194
10080SOL     OW31138   5.548   1.120   6.112
10080SOL    HW131139   5.553   1.062   6.031
10080SOL    HW231140   5.551   1.063   6.194
10081SOL     OW31141   0.606   1.761   0.148
10081SOL    HW131142   0.672   1.779   0.221
10081SOL    HW231143   0.639   1.685   0.091
10082SOL     OW31144   0.601   5.501   1.929
10082SOL    HW131145   0.580   5.559   1.851
10082SOL    HW231146   0.515   5.467   1.969
10083SOL     OW31147   3.767   0.256   3.928
10083SOL    HW131148   3.805   0.328   3.870
10083SOL    HW231149   3.702   0.297   3.992
10084SOL     OW31150   1.296   0.534   5.735
10084SOL    HW131151   1.203   0.555   5.766
10084SOL    HW231152   1.311   0.576   5.645
10085SOL     OW31153   3.401   6.944   0.662
10085SOL    HW131154   3.430   7.000   0.739
10085SOL    HW231155   3.335   6.994   0.607
10086SOL     OW31156   5.789   5.924   2.779
10086SOL    HW131157   5.850   6.003   2.787
10086SOL    HW231158   5.700   5.954   2.745
10087SOL     OW31159   6.257   5.675   4.024
10087SOL    HW131160   6.246   5.655   4.121
10087SOL    HW231161   6.353   5.661   3.998
10088SOL     OW31162   0.006   0.078   2.580
10088SOL    HW131163   6.937   0.114   2.597
10088SOL    HW231164   0.066   0.105   2.655
10089SOL     OW31165   2.827   2.035   3.484
10089SOL    HW131166   2.894   1.961   3.482
10089SOL    HW231167   2.736   1.998   3.466
10090SOL     OW31168   0.034   4.913   1.677
10090SOL    HW131169   6.977   4.853   1.674
10090SOL    HW231170   0.007   5.002   1.714
10091SOL     OW31171   6.599   5.775   6.747
10091SOL    HW131172   6.510   5.730   6.749
10091SOL    HW231173   6.589   5.870   6.777
10092SOL     OW31174   1.726   2.869   6.281
10092SOL    HW131175   1.702   2.934   6.208
10092SOL    HW231176   1.752   2.920   6.363
10093SOL     OW31177   4.814   3.365   5.337
10093SOL    HW131178   4.786   3.274   5.370
10093SOL    HW231179   4.741   3.404   5.282
10094SOL     OW31180   2.849   6.051   1.457
10094SOL    HW131181   2.760   6.005   1.459
10094SOL    HW231182   2.871   6.084   1.548
10095SOL     OW31183   5.481   1.329   4.379
10095SOL    HW131184   5.422   1.349   4.301
10095SOL    HW231185   5.442   1.368   4.462
10096SOL     OW31186   4.735   6.429   2.265
10096SOL    HW131187   4.795   6.354   2.292
10096SOL    HW231188   4.789   6.512   2.253
10097SOL     OW31189   1.246   1.954   0.126
10097SOL    HW131190   1.158   2.000   0.111
10097SOL    HW231191   1.253   1.874   0.067
10098SOL     OW31192   2.893   0.033   5.305
10098SOL    HW131193   2.834   7.014   5.373
10098SOL    HW231194   2.927   0.120   5.340
10099SOL     OW31195   0.933   4.860   0.996
10099SOL    HW131196   0.842   4.838   0.961
10099SOL    HW231197   0.981   4.776   1.021
10100SOL     OW31198   5.170   6.241   5.254
10100SOL    HW131199   5.147   6.338   5.255
10100SOL    HW231200   5.261   6.228   5.215
10101SOL     OW31201   0.016   3.156   1.960
10101SOL    HW131202   0.021   3.058   1.941
10101SOL    HW231203   6.967   3.196   1.904
10102SOL     OW31204   6.930   0.923   1.773
10102SOL    HW131205   6.992   0.851   1.741
10102SOL    HW231206   6.982   1.005   1.793
10103SOL     OW31207   2.206   0.277   5.658
10103SOL    HW131208   2.203   0.362   5.605
10103SOL    HW231209   2.276   0.284   5.729
10104SOL     OW31210   1.505   1.884   5.566
10104SOL    HW131211   1.515   1.983   5.575
10104SOL    HW231212   1.470   1.862   5.475
10105SOL     OW31213   2.090   0.567   6.218
10105SOL    HW131214   2.012   0.539   6.162
10105SOL    HW231215   2.122   0.489   6.272
10106SOL     OW31216   3.589   6.814   0.502
10106SOL    HW131217   3.682   6.851   0.504
10106SOL    HW231218   3.535   6.857   0.575
10107SOL     OW31219   5.356   1.485   5.967
10107SOL    HW131220   5.349   1.476   6.066
10107SOL    HW231221   5.319   1.403   5.923
10108SOL     OW31222   6.874   1.516   0.335
10108SOL    HW131223   6.938   1.578   0.382
10108SOL    HW231224   6.894   1.422   0.362
10109SOL     OW31225   0.300   0.925   1.169
10109SOL    HW131226   0.282   0.828   1.180
10109SOL    HW231227   0.244   0.961   1.094
10110SOL     OW31228   4.988   4.511   4.141
10110SOL    HW131229   4.952   4.531   4.232
10110SOL    HW231230   5.054   4.436   4.147
10111SOL     OW31231   6.867   3.839   3.479
10111SOL    HW131232   6.780   3.883   3.501
10111SOL    HW231233   6.872   3.750   3.525
10112SOL     OW31234   5.743   2.977   2.852
10112SOL    HW131235   5.786   2.886   2.847
10112SOL    HW231236   5.797   3.042   2.798
10113SOL     OW31237   4.758   6.930   0.440
10113SOL    HW131238   4.689   6.938   0.368
10113SOL    HW231239   4.777   7.020   0.478
10114SOL     OW31240   4.134   2.259   2.422
10114SOL    HW131241   4.082   2.270   2.506
10114SOL    HW231242   4.213   2.320   2.423
10115SOL     OW31243   4.358   2.060   5.214
10115SOL    HW131244   4.314   1.979   5.254
10115SOL    HW231245   4.456   2.057   5.233
10116SOL     OW31246   0.628   6.358   6.733
10116SOL    HW131247   0.584   6.405   6.656
10116SOL    HW231248   0.697   6.294   6.699
10117SOL     OW31249   6.772   6.410   5.773
10117SOL    HW131250   6.816   6.320   5.765
10117SOL    HW231251   6.709   6.408   5.851
10118SOL     OW31252   2.524   4.915   3.654
10118SOL    HW131253   2.618   4.933   3.686
10118SOL    HW231254   2.524   4.908   3.554
10119SOL     OW31255   6.685   4.881   4.012
10119SOL    HW131256   6.679   4.967   4.062
10119SOL    HW231257   6.725   4.810   4.070
10120SOL     OW31258   1.743   3.591   4.282
10120SOL    HW131259   1.687   3.615   4.202
10120SOL    HW231260   1.685   3.583   4.363
10121SOL     OW31261   5.751   3.245   6.837
10121SOL    HW131262   5.703   3.183   6.775
10121SOL    HW231263   5.820   3.297   6.786
10122SOL     OW31264   5.256   2.065   3.557
10122SOL    HW131265   5.230   2.047   3.462
10122SOL    HW231266   5.230   1.987   3.614
10123SOL     OW31267   5.777   6.077   0.967
10123SOL    HW131268   5.824   6.165   0.962
10123SOL    HW231269   5.681   6.093   0.991
10124SOL     OW31270   1.402   4.800   0.638
10124SOL    HW131271   1.324   4.822   0.579
10124SOL    HW231272   1.476   4.864   0.619
10125SOL     OW31273   2.323   1.129   0.999
10125SOL    HW131274   2.331   1.031   1.019
10125SOL    HW231275   2.412   1.165   0.972
10126SOL     OW31276   0.195   0.197   6.864
10126SOL    HW131277   0.276   0.207   6.921
10126SOL    HW231278   0.119   0.162   6.919
10127SOL     OW31279   2.150   3.642   0.673
10127SOL    HW131280   2.122   3.558   0.721
10127SOL    HW231281   2.116   3.640   0.579
10128SOL     OW31282   3.463   0.831   5.750
10128SOL    HW131283   3.365   0.817   5.739
10128SOL    HW231284   3.479   0.898   5.823
10129SOL     OW31285   6.745   1.189   2.381
10129SOL    HW131286   6.815   1.117   2.384
10129SOL    HW231287   6.708   1.196   2.289
10130SOL     OW31288   0.484   3.774   1.948
10130SOL    HW131289   0.525   3.814   1.866
10130SOL    HW231290   0.398   3.728   1.923
10131SOL     OW31291   1.730   0.141   4.487
10131SOL    HW131292   1.757   0.045   4.481
10131SOL    HW231293   1.809   0.197   4.511
10132SOL     OW31294   1.707   0.359   3.474
10132SOL    HW131295   1.792   0.387   3.431
10132SOL    HW231296   1.723   0.342   3.571
10133SOL     OW31297   4.719   6.659   0.931
10133SOL    HW131298   4.697   6.755   0.913
10133SOL    HW231299   4.650   6.620   0.992
10134SOL     OW31300   5.538   0.912   2.876
10134SOL    HW131301   5.585   0.902   2.963
10134SOL    HW231302   5.439   0.921   2.892
10135SOL     OW31303   5.167   2.173   4.246
10135SOL    HW131304   5.152   2.127   4.158
10135SOL    HW231305   5.085   2.224   4.271
10136SOL     OW31306   5.330   1.750   2.367
10136SOL    HW131307   5.368   1.733   2.276
10136SOL    HW231308   5.248   1.693   2.379
10137SOL     OW31309   0.382   4.668   5.272
10137SOL    HW131310   0.297   4.635   5.230
10137SOL    HW231311   0.371   4.672   5.371
10138SOL     OW31312   5.764   3.382   0.276
10138SOL    HW131313   5.838   3.371   0.210
10138SOL    HW231314   5.715   3.296   0.286
10139SOL     OW31315   3.109   4.048   4.594
10139SOL    HW131316   3.065   4.011   4.675
10139SOL    HW231317   3.040   4.084   4.531
10140SOL     OW31318   0.398   6.603   6.729
10140SOL    HW131319   0.346   6.535   6.679
10140SOL    HW231320   0.343   6.686   6.741
10141SOL     OW31321   4.613   1.131   4.948
10141SOL    HW131322   4.534   1.192   4.959
10141SOL    HW231323   4.607   1.085   4.859
10142SOL     OW31324   6.100   6.507   5.807
10142SOL    HW131325   6.069   6.463   5.722
10142SOL    HW231326   6.198   6.527   5.800
10143SOL     OW31327   5.628   2.433   0.427
10143SOL    HW131328   5.538   2.403   0.395
10143SOL    HW231329   5.674   2.356   0.473
10144SOL     OW31330   4.447   6.733   5.502
10144SOL    HW131331   4.375   6.666   5.486
10144SOL    HW231332   4.408   6.814   5.546
10145SOL     OW31333   3.702   5.388   2.777
10145SOL    HW131334   3.604   5.370   2.787
10145SOL    HW231335   3.746   5.377   2.866
10146SOL     OW31336   6.230   3.713   4.407
10146SOL    HW131337   6.207   3.686   4.501
10146SOL    HW231338   6.201   3.642   4.344
10147SOL     OW31339   4.988   3.891   6.608
10147SOL    HW131340   4.898   3.861   6.637
10147SOL    HW231341   5.041   3.921   6.688
10148SOL     OW31342   5.906   4.671   0.692
10148SOL    HW131343   5.930   4.576   0.677
10148SOL    HW231344   5.949   4.729   0.623
10149SOL     OW31345   5.341   4.229   1.162
10149SOL    HW131346   5.424   4.200   1.210
10149SOL    HW231347   5.288   4.289   1.221
10150SOL     OW31348   4.312   3.447   1.776
10150SOL    HW131349   4.265   3.518   1.827
10150SOL    HW231350   4.291   3.358   1.816
10151SOL     OW31351   1.181   0.009   6.547
10151SOL    HW131352   1.083   7.023   6.528
10151SOL    HW231353   1.212   6.955   6.603
10152SOL     OW31354   6.667   5.826   3.628
10152SOL    HW131355   6.604   5.833   3.705
10152SOL    HW231356   6.734   5.754   3.647
10153SOL     OW31357   4.897   5.911   4.286
10153SOL    HW131358   4.991   5.900   4.252
10153SOL    HW231359   4.842   5.959   4.217
10154SOL     OW31360   3.703   6.462   5.301
10154SOL    HW131361   3.687   6.509   5.214
10154SOL    HW231362   3.628   6.483   5.365
10155SOL     OW31363   4.988   2.724   5.389
10155SOL    HW131364   4.914   2.689   5.332
10155SOL    HW231365   5.036   2.796   5.339
10156SOL     OW31366   5.468   0.436   1.583
10156SOL    HW131367   5.458   0.516   1.524
10156SOL    HW231368   5.564   0.426   1.609
10157SOL     OW31369   6.914   2.637   0.213
10157SOL    HW131370   6.972   2.570   0.259
10157SOL    HW231371   6.884   2.600   0.125
10158SOL     OW31372   6.339   6.716   1.220
10158SOL    HW131373   6.246   6.732   1.251
10158SOL    HW231374   6.338   6.670   1.132
10159SOL     OW31375   3.849   3.548   2.396
10159SOL    HW131376   3.807   3.634   2.425
10159SOL    HW231377   3.779   3.476   2.394
10160SOL     OW31378   1.662   3.989   3.457
10160SOL    HW131379   1.607   4.001   3.374
10160SOL    HW231380   1.601   3.972   3.535
10161SOL     OW31381   3.536   4.681   6.514
10161SOL    HW131382   3.574   4.660   6.424
10161SOL    HW231383   3.512   4.778   6.518
10162SOL     OW31384   2.719   4.554   0.521
10162SOL    HW131385   2.806   4.519   0.557
10162SOL    HW231386   2.724   4.654   0.516
10163SOL     OW31387   0.532   4.762   6.791
10163SOL    HW131388   0.500   4.667   6.790
10163SOL    HW231389   0.456   4.823   6.809
10164SOL     OW31390   5.855   3.638   4.508
10164SOL    HW131391   5.859   3.561   4.572
10164SOL    HW231392   5.836   3.722   4.558
10165SOL     OW31393   6.747   2.216   3.374
10165SOL    HW131394   6.797   2.170   3.448
10165SOL    HW231395   6.748   2.315   3.390
10166SOL     OW31396   1.934   1.621   1.751
10166SOL    HW131397   1.965   1.548   1.690
10166SOL    HW231398   2.011   1.655   1.805
10167SOL     OW31399   6.846   5.674   6.824
10167SOL    HW131400   6.768   5.720   6.781
10167SOL    HW231401   6.860   5.584   6.781
10168SOL     OW31402   6.618   2.182   6.208
10168SOL    HW131403   6.540   2.134   6.249
10168SOL    HW231404   6.594   2.278   6.192
10169SOL     OW31405   6.181   3.394   3.085
10169SOL    HW131406   6.121   3.375   3.163
10169SOL    HW231407   6.235   3.313   3.064
10170SOL     OW31408   6.096   6.084   6.195
10170SOL    HW131409   6.021   6.019   6.193
10170SOL    HW231410   6.064   6.171   6.232
10171SOL     OW31411   0.798   2.326   3.874
10171SOL    HW131412   0.736   2.310   3.951
10171SOL    HW231413   0.745   2.341   3.791
10172SOL     OW31414   0.509   6.520   4.482
10172SOL    HW131415   0.447   6.445   4.503
10172SOL    HW231416   0.468   6.580   4.414
10173SOL     OW31417   1.968   3.440   6.658
10173SOL    HW131418   2.058   3.449   6.700
10173SOL    HW231419   1.916   3.369   6.706
10174SOL     OW31420   4.848   4.725   3.573
10174SOL    HW131421   4.838   4.697   3.477
10174SOL    HW231422   4.760   4.715   3.620
10175SOL     OW31423   5.974   1.721   3.769
10175SOL    HW131424   6.059   1.709   3.821
10175SOL    HW231425   5.909   1.649   3.796
10176SOL     OW31426   6.443   2.769   5.405
10176SOL    HW131427   6.381   2.783   5.328
10176SOL    HW231428   6.506   2.694   5.383
10177SOL     OW31429   1.715   0.142   0.660
10177SOL    HW131430   1.737   0.080   0.735
10177SOL    HW231431   1.746   0.103   0.573
10178SOL     OW31432   1.075   0.889   0.434
10178SOL    HW131433   1.165   0.923   0.459
10178SOL    HW231434   1.015   0.890   0.514
10179SOL     OW31435   0.852   3.596   6.495
10179SOL    HW131436   0.874   3.525   6.563
10179SOL    HW231437   0.925   3.664   6.493
10180SOL     OW31438   4.534   0.187   0.943
10180SOL    HW131439   4.543   0.259   1.011
10180SOL    HW231440   4.617   0.184   0.886
10181SOL     OW31441   0.801   3.111   1.216
10181SOL    HW131442   0.711   3.151   1.233
10181SOL    HW231443   0.809   3.025   1.265
10182SOL     OW31444   4.771   1.377   6.851
10182SOL    HW131445   4.777   1.372   6.752
10182SOL    HW231446   4.740   1.468   6.879
10183SOL     OW31447   5.889   2.751   5.915
10183SOL    HW131448   5.894   2.670   5.857
10183SOL    HW231449   5.949   2.822   5.877
10184SOL     OW31450   4.979   2.829   0.013
10184SOL    HW131451   4.961   2.793   6.944
10184SOL    HW231452   5.063   2.883   0.012
10185SOL     OW31453   6.213   5.788   2.236
10185SOL    HW131454   6.176   5.764   2.326
10185SOL    HW231455   6.313   5.783   2.238
10186SOL     OW31456   4.950   3.641   4.806
10186SOL    HW131457   4.899   3.638   4.893
10186SOL    HW231458   4.977   3.548   4.781
10187SOL     OW31459   1.791   3.606   5.725
10187SOL    HW131460   1.807   3.604   5.626
10187SOL    HW231461   1.788   3.513   5.761
10188SOL     OW31462   2.519   4.915   6.519
10188SOL    HW131463   2.516   4.918   6.619
10188SOL    HW231464   2.576   4.839   6.490
10189SOL     OW31465   1.020   0.833   6.070
10189SOL    HW131466   0.975   0.922   6.064
10189SOL    HW231467   0.962   0.769   6.121
10190SOL     OW31468   4.160   3.189   1.812
10190SOL    HW131469   4.230   3.119   1.823
10190SOL    HW231470   4.141   3.232   1.901
10191SOL     OW31471   4.958   5.344   0.325
10191SOL    HW131472   4.960   5.432   0.373
10191SOL    HW231473   5.014   5.278   0.375
10192SOL     OW31474   3.222   1.812   5.237
10192SOL    HW131475   3.145   1.837   5.296
10192SOL    HW231476   3.287   1.758   5.289
10193SOL     OW31477   3.081   3.939   2.348
10193SOL    HW131478   3.098   3.845   2.319
10193SOL    HW231479   3.060   3.995   2.268
10194SOL     OW31480   4.758   0.540   4.426
10194SOL    HW131481   4.676   0.523   4.371
10194SOL    HW231482   4.827   0.585   4.369
10195SOL     OW31483   6.816   0.303   1.991
10195SOL    HW131484   6.900   0.253   1.969
10195SOL    HW231485   6.826   0.399   1.965
10196SOL     OW31486   4.822   1.961   3.546
10196SOL    HW131487   4.831   2.041   3.486
10196SOL    HW231488   4.897   1.960   3.611
10197SOL     OW31489   4.726   1.624   4.085
10197SOL    HW131490   4.636   1.641   4.044
10197SOL    HW231491   4.748   1.527   4.076
10198SOL     OW31492   4.061   6.604   0.625
10198SOL    HW131493   4.134   6.538   0.642
10198SOL    HW231494   4.085   6.660   0.546
10199SOL     OW31495   0.739   2.161   6.995
10199SOL    HW131496   0.750   2.261   6.995
10199SOL    HW231497   0.643   2.139   6.975
10200SOL     OW31498   5.422   3.550   5.436
10200SOL    HW131499   5.521   3.549   5.452
10200SOL    HW231500   5.390   3.645   5.432
10201SOL     OW31501   0.422   6.261   0.958
10201SOL    HW131502   0.375   6.173   0.956
10201SOL    HW231503   0.519   6.246   0.976
10202SOL     OW31504   1.072   4.483   0.160
10202SOL    HW131505   1.019   4.429   0.226
10202SOL    HW231506   1.127   4.550   0.209
10203SOL     OW31507   1.286   2.894   1.862
10203SOL    HW131508   1.209   2.868   1.803
10203SOL    HW231509   1.251   2.934   1.947
10204SOL     OW31510   3.111   5.660   6.293
10204SOL    HW131511   3.038   5.591   6.300
10204SOL    HW231512   3.196   5.622   6.329
10205SOL     OW31513   3.338   1.127   2.266
10205SOL    HW131514   3.294   1.207   2.225
10205SOL    HW231515   3.325   1.129   2.365
10206SOL     OW31516   5.224   7.003   6.211
10206SOL    HW131517   5.256   0.028   6.292
10206SOL    HW231518   5.186   0.045   6.145
10207SOL     OW31519   2.350   1.127   0.244
10207SOL    HW131520   2.408   1.124   0.162
10207SOL    HW231521   2.403   1.096   0.322
10208SOL     OW31522   6.685   4.598   3.673
10208SOL    HW131523   6.619   4.531   3.638
10208SOL    HW231524   6.637   4.683   3.694
10209SOL     OW31525   0.409   0.681   5.790
10209SOL    HW131526   0.416   0.778   5.765
10209SOL    HW231527   0.447   0.625   5.716
10210SOL     OW31528   5.224   0.043   1.507
10210SOL    HW131529   5.296   0.002   1.452
10210SOL    HW231530   5.265   0.100   1.579
10211SOL     OW31531   3.958   6.570   5.322
10211SOL    HW131532   4.010   6.527   5.248
10211SOL    HW231533   3.860   6.557   5.306
10212SOL     OW31534   0.088   0.690   4.787
10212SOL    HW131535   0.039   0.775   4.806
10212SOL    HW231536   0.169   0.710   4.731
10213SOL     OW31537   5.229   2.580   2.594
10213SOL    HW131538   5.235   2.592   2.495
10213SOL    HW231539   5.132   2.573   2.621
10214SOL     OW31540   1.182   2.024   2.487
10214SOL    HW131541   1.187   2.055   2.392
10214SOL    HW231542   1.092   1.982   2.504
10215SOL     OW31543   3.635   2.889   3.768
10215SOL    HW131544   3.535   2.891   3.765
10215SOL    HW231545   3.665   2.885   3.863
10216SOL     OW31546   0.740   0.171   0.840
10216SOL    HW131547   0.670   0.167   0.769
10216SOL    HW231548   0.829   0.148   0.801
10217SOL     OW31549   2.495   1.748   3.488
10217SOL    HW131550   2.396   1.743   3.501
10217SOL    HW231551   2.530   1.657   3.467
10218SOL     OW31552   1.740   0.520   2.094
10218SOL    HW131553   1.830   0.512   2.138
10218SOL    HW231554   1.719   0.617   2.079
10219SOL     OW31555   0.251   3.349   2.033
10219SOL    HW131556   0.161   3.308   2.020
10219SOL    HW231557   0.318   3.276   2.050
10220SOL     OW31558   4.360   1.721   1.697
10220SOL    HW131559   4.315   1.738   1.784
10220SOL    HW231560   4.439   1.661   1.712
10221SOL     OW31561   1.823   2.796   4.426
10221SOL    HW131562   1.801   2.894   4.421
10221SOL    HW231563   1.749   2.743   4.385
10222SOL     OW31564   2.299   3.262   5.999
10222SOL    HW131565   2.320   3.181   6.054
10222SOL    HW231566   2.348   3.341   6.037
10223SOL     OW31567   1.633   5.907   6.704
10223SOL    HW131568   1.662   6.001   6.685
10223SOL    HW231569   1.710   5.845   6.692
10224SOL     OW31570   0.135   1.740   5.303
10224SOL    HW131571   0.226   1.772   5.277
10224SOL    HW231572   0.140   1.643   5.327
10225SOL     OW31573   1.890   6.241   6.324
10225SOL    HW131574   1.867   6.304   6.399
10225SOL    HW231575   1.989   6.233   6.318
10226SOL     OW31576   2.457   0.179   6.770
10226SOL    HW131577   2.443   0.278   6.777
10226SOL    HW231578   2.438   0.149   6.677
10227SOL     OW31579   5.058   4.961   0.908
10227SOL    HW131580   5.037   4.868   0.939
10227SOL    HW231581   5.156   4.968   0.890
10228SOL     OW31582   0.876   5.481   1.956
10228SOL    HW131583   0.902   5.562   2.010
10228SOL    HW231584   0.777   5.482   1.941
10229SOL     OW31585   1.401   1.687   4.007
10229SOL    HW131586   1.362   1.739   3.931
10229SOL    HW231587   1.431   1.750   4.078
10230SOL     OW31588   6.322   6.248   3.206
10230SOL    HW131589   6.349   6.326   3.150
10230SOL    HW231590   6.400   6.220   3.262
10231SOL     OW31591   6.494   5.725   5.412
10231SOL    HW131592   6.483   5.697   5.317
10231SOL    HW231593   6.553   5.659   5.459
10232SOL     OW31594   2.868   0.643   4.570
10232SOL    HW131595   2.845   0.627   4.474
10232SOL    HW231596   2.962   0.613   4.588
10233SOL     OW31597   4.683   3.820   5.333
10233SOL    HW131598   4.694   3.880   5.254
10233SOL    HW231599   4.653   3.730   5.302
10234SOL     OW31600   5.087   1.361   0.374
10234SOL    HW131601   5.063   1.398   0.284
10234SOL    HW231602   5.023   1.287   0.397
10235SOL     OW31603   4.653   2.875   0.038
10235SOL    HW131604   4.690   2.964   0.065
10235SOL    HW231605   4.677   2.807   0.107
10236SOL     OW31606   2.345   0.313   1.813
10236SOL    HW131607   2.323   0.372   1.735
10236SOL    HW231608   2.285   0.334   1.890
10237SOL     OW31609   6.641   4.309   0.861
10237SOL    HW131610   6.646   4.319   0.961
10237SOL    HW231611   6.687   4.386   0.818
10238SOL     OW31612   3.152   3.965   3.600
10238SOL    HW131613   3.214   4.000   3.529
10238SOL    HW231614   3.179   4.002   3.689
10239SOL     OW31615   1.533   4.035   5.480
10239SOL    HW131616   1.551   4.113   5.419
10239SOL    HW231617   1.608   3.970   5.474
10240SOL     OW31618   2.273   4.853   3.696
10240SOL    HW131619   2.372   4.860   3.706
10240SOL    HW231620   2.249   4.856   3.599
10241SOL     OW31621   6.544   0.179   2.254
10241SOL    HW131622   6.500   0.236   2.185
10241SOL    HW231623   6.642   0.197   2.254
10242SOL     OW31624   6.924   0.908   6.989
10242SOL    HW131625   6.875   0.913   6.902
10242SOL    HW231626   6.945   0.812   7.009
10243SOL     OW31627   0.999   4.969   1.459
10243SOL    HW131628   1.023   4.984   1.555
10243SOL    HW231629   1.003   5.056   1.410
10244SOL     OW31630   0.959   4.232   0.718
10244SOL    HW131631   0.983   4.179   0.799
10244SOL    HW231632   0.998   4.187   0.637
10245SOL     OW31633   2.725   4.678   6.753
10245SOL    HW131634   2.708   4.775   6.773
10245SOL    HW231635   2.821   4.657   6.768
10246SOL     OW31636   3.194   4.096   3.869
10246SOL    HW131637   3.260   4.131   3.935
10246SOL    HW231638   3.108   4.075   3.915
10247SOL     OW31639   0.254   5.357   5.691
10247SOL    HW131640   0.326   5.423   5.714
10247SOL    HW231641   0.195   5.343   5.771
10248SOL     OW31642   3.483   6.633   2.212
10248SOL    HW131643   3.457   6.622   2.115
10248SOL    HW231644   3.418   6.695   2.256
10249SOL     OW31645   3.472   1.095   5.905
10249SOL    HW131646   3.407   1.078   5.979
10249SOL    HW231647   3.439   1.170   5.848
10250SOL     OW31648   6.894   2.836   0.877
10250SOL    HW131649   6.798   2.815   0.894
10250SOL    HW231650   6.942   2.754   0.847
10251SOL     OW31651   2.314   2.158   5.427
10251SOL    HW131652   2.369   2.205   5.359
10251SOL    HW231653   2.308   2.214   5.510
10252SOL     OW31654   4.911   5.085   6.971
10252SOL    HW131655   4.982   5.108   6.904
10252SOL    HW231656   4.841   5.028   6.928
10253SOL     OW31657   4.037   5.633   0.359
10253SOL    HW131658   4.126   5.679   0.357
10253SOL    HW231659   3.965   5.701   0.378
10254SOL     OW31660   5.133   1.870   5.335
10254SOL    HW131661   5.095   1.945   5.281
10254SOL    HW231662   5.064   1.799   5.346
10255SOL     OW31663   1.647   6.707   1.464
10255SOL    HW131664   1.659   6.761   1.548
10255SOL    HW231665   1.730   6.655   1.446
10256SOL     OW31666   5.826   0.812   1.659
10256SOL    HW131667   5.922   0.785   1.655
10256SOL    HW231668   5.810   0.864   1.743
10257SOL     OW31669   2.136   5.338   4.415
10257SOL    HW131670   2.139   5.323   4.514
10257SOL    HW231671   2.201   5.409   4.390
10258SOL     OW31672   3.810   0.938   4.541
10258SOL    HW131673   3.755   0.973   4.466
10258SOL    HW231674   3.888   0.888   4.504
10259SOL     OW31675   0.372   4.321   3.153
10259SOL    HW131676   0.460   4.333   3.109
10259SOL    HW231677   0.314   4.400   3.134
10260SOL     OW31678   0.951   0.605   3.567
10260SOL    HW131679   1.032   0.661   3.581
10260SOL    HW231680   0.909   0.585   3.656
10261SOL     OW31681   6.862   5.259   2.978
10261SOL    HW131682   6.797   5.230   3.047
10261SOL    HW231683   6.893   5.180   2.925
10262SOL     OW31684   2.412   6.560   4.461
10262SOL    HW131685   2.439   6.572   4.557
10262SOL    HW231686   2.342   6.490   4.454
10263SOL     OW31687   5.033   0.751   6.473
10263SOL    HW131688   4.979   0.828   6.506
10263SOL    HW231689   4.973   0.672   6.459
10264SOL     OW31690   5.910   2.641   6.153
10264SOL    HW131691   5.922   2.699   6.072
10264SOL    HW231692   5.843   2.569   6.133
10265SOL     OW31693   3.114   2.183   3.048
10265SOL    HW131694   3.070   2.094   3.059
10265SOL    HW231695   3.123   2.204   2.950
10266SOL     OW31696   3.056   3.091   4.942
10266SOL    HW131697   3.133   3.041   4.982
10266SOL    HW231698   2.978   3.030   4.932
10267SOL     OW31699   6.387   1.536   0.238
10267SOL    HW131700   6.345   1.565   0.153
10267SOL    HW231701   6.329   1.563   0.315
10268SOL     OW31702   5.213   5.258   1.907
10268SOL    HW131703   5.251   5.197   1.837
10268SOL    HW231704   5.187   5.204   1.987
10269SOL     OW31705   0.671   2.621   5.047
10269SOL    HW131706   0.624   2.676   5.116
10269SOL    HW231707   0.759   2.589   5.084
10270SOL     OW31708   3.399   5.161   3.180
10270SOL    HW131709   3.464   5.158   3.104
10270SOL    HW231710   3.309   5.188   3.146
10271SOL     OW31711   3.398   2.922   0.165
10271SOL    HW131712   3.382   2.921   0.066
10271SOL    HW231713   3.312   2.911   0.213
10272SOL     OW31714   0.616   0.085   5.217
10272SOL    HW131715   0.617   7.016   5.254
10272SOL    HW231716   0.563   0.088   5.133
10273SOL     OW31717   4.048   5.505   3.087
10273SOL    HW131718   4.138   5.533   3.053
10273SOL    HW231719   4.007   5.442   3.021
10274SOL     OW31720   0.245   4.827   4.535
10274SOL    HW131721   0.322   4.875   4.576
10274SOL    HW231722   0.185   4.792   4.607
10275SOL     OW31723   0.591   6.706   1.824
10275SOL    HW131724   0.516   6.705   1.890
10275SOL    HW231725   0.649   6.626   1.839
10276SOL     OW31726   5.797   5.497   5.729
10276SOL    HW131727   5.700   5.518   5.729
10276SOL    HW231728   5.850   5.580   5.746
10277SOL     OW31729   2.292   5.390   4.108
10277SOL    HW131730   2.256   5.301   4.134
10277SOL    HW231731   2.233   5.431   4.039
10278SOL     OW31732   6.540   1.189   4.485
10278SOL    HW131733   6.619   1.243   4.455
10278SOL    HW231734   6.551   1.095   4.454
10279SOL     OW31735   2.176   5.901   4.840
10279SOL    HW131736   2.267   5.942   4.834
10279SOL    HW231737   2.127   5.917   4.754
10280SOL     OW31738   1.147   4.243   1.402
10280SOL    HW131739   1.213   4.257   1.475
10280SOL    HW231740   1.118   4.147   1.401
10281SOL     OW31741   6.137   0.903   2.961
10281SOL    HW131742   6.119   0.960   2.881
10281SOL    HW231743   6.101   0.949   3.043
10282SOL     OW31744   6.456   4.453   4.337
10282SOL    HW131745   6.401   4.417   4.412
10282SOL    HW231746   6.405   4.445   4.251
10283SOL     OW31747   0.573   3.657   1.117
10283SOL    HW131748   0.487   3.606   1.118
10283SOL    HW231749   0.650   3.594   1.125
10284SOL     OW31750   5.480   3.707   5.149
10284SOL    HW131751   5.400   3.648   5.155
10284SOL    HW231752   5.553   3.659   5.102
10285SOL     OW31753   4.733   0.949   1.035
10285SOL    HW131754   4.762   0.981   1.125
10285SOL    HW231755   4.636   0.925   1.038
10286SOL     OW31756   3.004   1.788   4.100
10286SOL    HW131757   2.943   1.863   4.125
10286SOL    HW231758   2.955   1.724   4.041
10287SOL     OW31759   2.490   6.092   0.689
10287SOL    HW131760   2.424   6.104   0.614
10287SOL    HW231761   2.504   5.995   0.706
10288SOL     OW31762   5.150   5.959   2.122
10288SOL    HW131763   5.222   5.896   2.149
10288SOL    HW231764   5.095   5.984   2.202
10289SOL     OW31765   3.366   0.706   2.142
10289SOL    HW131766   3.454   0.685   2.183
10289SOL    HW231767   3.293   0.674   2.202
10290SOL     OW31768   3.025   3.897   1.879
10290SOL    HW131769   3.081   3.898   1.796
10290SOL    HW231770   3.061   3.962   1.945
10291SOL     OW31771   3.685   0.807   3.610
10291SOL    HW131772   3.714   0.875   3.543
10291SOL    HW231773   3.592   0.828   3.641
10292SOL     OW31774   2.060   0.504   4.891
10292SOL    HW131775   1.972   0.522   4.935
10292SOL    HW231776   2.061   0.547   4.800
10293SOL     OW31777   1.744   5.369   3.293
10293SOL    HW131778   1.724   5.426   3.213
10293SOL    HW231779   1.709   5.414   3.375
10294SOL     OW31780   5.199   3.794   2.321
10294SOL    HW131781   5.273   3.727   2.331
10294SOL    HW231782   5.120   3.763   2.373
10295SOL     OW31783   5.663   5.616   6.030
10295SOL    HW131784   5.628   5.679   6.099
10295SOL    HW231785   5.614   5.529   6.036
10296SOL     OW31786   4.889   3.188   0.403
10296SOL    HW131787   4.882   3.106   0.459
10296SOL    HW231788   4.820   3.255   0.433
10297SOL     OW31789   1.836   6.620   6.394
10297SOL    HW131790   1.767   6.650   6.329
10297SOL    HW231791   1.925   6.614   6.348
10298SOL     OW31792   3.551   4.987   1.746
10298SOL    HW131793   3.576   4.906   1.800
10298SOL    HW231794   3.624   5.007   1.681
10299SOL     OW31795   4.709   5.153   2.579
10299SOL    HW131796   4.704   5.155   2.479
10299SOL    HW231797   4.620   5.177   2.618
10300SOL     OW31798   1.756   4.845   3.267
10300SOL    HW131799   1.734   4.941   3.249
10300SOL    HW231800   1.853   4.829   3.249
10301SOL     OW31801   5.852   2.252   3.843
10301SOL    HW131802   5.782   2.306   3.798
10301SOL    HW231803   5.869   2.169   3.789
10302SOL     OW31804   0.685   5.622   3.727
10302SOL    HW131805   0.652   5.596   3.818
10302SOL    HW231806   0.619   5.594   3.658
10303SOL     OW31807   2.033   5.718   2.520
10303SOL    HW131808   1.991   5.631   2.494
10303SOL    HW231809   1.969   5.771   2.575
10304SOL     OW31810   5.024   0.767   2.813
10304SOL    HW131811   5.101   0.704   2.820
10304SOL    HW231812   4.994   0.773   2.717
10305SOL     OW31813   0.154   4.638   6.945
10305SOL    HW131814   0.090   4.564   6.923
10305SOL    HW231815   0.218   4.649   6.870
10306SOL     OW31816   4.406   6.848   6.953
10306SOL    HW131817   4.329   6.909   6.933
10306SOL    HW231818   4.382   6.754   6.926
10307SOL     OW31819   2.325   2.572   4.964
10307SOL    HW131820   2.272   2.533   5.039
10307SOL    HW231821   2.390   2.504   4.930
10308SOL     OW31822   2.735   5.334   4.453
10308SOL    HW131823   2.652   5.330   4.508
10308SOL    HW231824   2.712   5.346   4.357
10309SOL     OW31825   5.908   0.989   3.902
10309SOL    HW131826   5.856   1.069   3.872
10309SOL    HW231827   5.869   0.907   3.860
10310SOL     OW31828   4.326   2.839   1.644
10310SOL    HW131829   4.409   2.783   1.649
10310SOL    HW231830   4.350   2.935   1.660
10311SOL     OW31831   0.691   6.225   0.983
10311SOL    HW131832   0.733   6.188   1.066
10311SOL    HW231833   0.760   6.276   0.930
10312SOL     OW31834   2.403   6.269   1.068
10312SOL    HW131835   2.451   6.255   0.981
10312SOL    HW231836   2.460   6.323   1.129
10313SOL     OW31837   4.266   7.006   1.415
10313SOL    HW131838   4.245   0.054   1.482
10313SOL    HW231839   4.296   0.025   1.330
10314SOL     OW31840   0.154   0.431   2.432
10314SOL    HW131841   0.225   0.490   2.469
10314SOL    HW231842   0.104   0.479   2.360
10315SOL     OW31843   6.177   5.282   4.042
10315SOL    HW131844   6.262   5.241   4.009
10315SOL    HW231845   6.143   5.347   3.973
10316SOL     OW31846   6.931   2.587   4.867
10316SOL    HW131847   6.843   2.541   4.865
10316SOL    HW231848   6.985   2.554   4.944
10317SOL     OW31849   3.502   5.837   5.474
10317SOL    HW131850   3.464   5.836   5.382
10317SOL    HW231851   3.601   5.847   5.470
10318SOL     OW31852   4.918   6.042   6.913
10318SOL    HW131853   4.827   6.007   6.936
10318SOL    HW231854   4.927   6.045   6.813
10319SOL     OW31855   2.075   2.527   5.616
10319SOL    HW131856   2.110   2.523   5.709
10319SOL    HW231857   2.047   2.620   5.594
10320SOL     OW31858   0.906   0.516   1.682
10320SOL    HW131859   0.853   0.441   1.723
10320SOL    HW231860   0.995   0.523   1.727
10321SOL     OW31861   4.400   0.550   3.404
10321SOL    HW131862   4.469   0.617   3.377
10321SOL    HW231863   4.378   0.491   3.327
10322SOL     OW31864   6.270   6.043   6.409
10322SOL    HW131865   6.253   6.121   6.348
10322SOL    HW231866   6.211   6.051   6.489
10323SOL     OW31867   6.577   3.932   5.707
10323SOL    HW131868   6.638   4.011   5.702
10323SOL    HW231869   6.491   3.953   5.661
10324SOL     OW31870   2.910   3.282   2.867
10324SOL    HW131871   2.942   3.211   2.805
10324SOL    HW231872   2.917   3.249   2.961
10325SOL     OW31873   6.322   3.856   3.049
10325SOL    HW131874   6.382   3.897   3.118
10325SOL    HW231875   6.301   3.922   2.978
10326SOL     OW31876   4.108   3.231   0.100
10326SOL    HW131877   4.090   3.286   0.018
10326SOL    HW231878   4.107   3.291   0.180
10327SOL     OW31879   2.514   1.871   1.804
10327SOL    HW131880   2.563   1.831   1.881
10327SOL    HW231881   2.438   1.927   1.838
10328SOL     OW31882   6.271   3.632   1.366
10328SOL    HW131883   6.221   3.629   1.280
10328SOL    HW231884   6.213   3.597   1.440
10329SOL     OW31885   3.551   7.002   4.742
10329SOL    HW131886   3.616   7.003   4.666
10329SOL    HW231887   3.525   0.072   4.765
10330SOL     OW31888   3.655   5.356   2.215
10330SOL    HW131889   3.573   5.411   2.205
10330SOL    HW231890   3.651   5.306   2.302
10331SOL     OW31891   6.635   0.466   3.942
10331SOL    HW131892   6.676   0.421   3.862
10331SOL    HW231893   6.581   0.544   3.913
10332SOL     OW31894   6.122   1.567   0.342
10332SOL    HW131895   6.086   1.641   0.398
10332SOL    HW231896   6.062   1.551   0.264
10333SOL     OW31897   6.728   4.383   4.384
10333SOL    HW131898   6.692   4.299   4.423
10333SOL    HW231899   6.655   4.431   4.335
10334SOL     OW31900   2.268   5.726   3.964
10334SOL    HW131901   2.197   5.659   3.947
10334SOL    HW231902   2.258   5.764   4.056
10335SOL     OW31903   2.481   4.684   0.116
10335SOL    HW131904   2.419   4.673   0.193
10335SOL    HW231905   2.448   4.632   0.037
10336SOL     OW31906   5.794   6.616   3.143
10336SOL    HW131907   5.833   6.705   3.120
10336SOL    HW231908   5.706   6.628   3.189
10337SOL     OW31909   6.495   6.820   5.848
10337SOL    HW131910   6.588   6.826   5.883
10337SOL    HW231911   6.490   6.864   5.759
10338SOL     OW31912   3.101   6.096   2.034
10338SOL    HW131913   3.056   6.134   1.953
10338SOL    HW231914   3.163   6.023   2.006
10339SOL     OW31915   3.269   5.716   0.606
10339SOL    HW131916   3.247   5.679   0.516
10339SOL    HW231917   3.338   5.787   0.597
10340SOL     OW31918   1.626   5.409   0.397
10340SOL    HW131919   1.577   5.496   0.397
10340SOL    HW231920   1.562   5.335   0.416
10341SOL     OW31921   2.144   3.263   1.770
10341SOL    HW131922   2.204   3.251   1.691
10341SOL    HW231923   2.187   3.325   1.836
10342SOL     OW31924   2.082   6.050   5.774
10342SOL    HW131925   2.075   6.087   5.867
10342SOL    HW231926   2.141   6.109   5.719
10343SOL     OW31927   1.833   4.001   0.325
10343SOL    HW131928   1.841   4.101   0.320
10343SOL    HW231929   1.814   3.974   0.420
10344SOL     OW31930   4.177   3.646   1.890
10344SOL    HW131931   4.115   3.648   1.969
10344SOL    HW231932   4.192   3.739   1.858
10345SOL     OW31933   1.762   0.643   6.235
10345SOL    HW131934   1.795   0.609   6.147
10345SOL    HW231935   1.708   0.572   6.279
10346SOL     OW31936   6.207   0.954   1.140
10346SOL    HW131937   6.145   0.940   1.063
10346SOL    HW231938   6.292   0.904   1.125
10347SOL     OW31939   5.252   2.335   2.332
10347SOL    HW131940   5.242   2.301   2.426
10347SOL    HW231941   5.210   2.425   2.325
10348SOL     OW31942   6.624   1.672   6.671
10348SOL    HW131943   6.550   1.639   6.730
10348SOL    HW231944   6.587   1.698   6.582
10349SOL     OW31945   6.989   1.810   0.300
10349SOL    HW131946   7.008   1.761   0.385
10349SOL    HW231947   6.944   1.897   0.320
10350SOL     OW31948   2.807   6.699   4.672
10350SOL    HW131949   2.906   6.697   4.655
10350SOL    HW231950   2.785   6.773   4.735
10351SOL     OW31951   5.780   5.444   6.266
10351SOL    HW131952   5.712   5.483   6.328
10351SOL    HW231953   5.808   5.513   6.200
10352SOL     OW31954   5.527   1.431   6.641
10352SOL    HW131955   5.574   1.364   6.583
10352SOL    HW231956   5.525   1.520   6.596
10353SOL     OW31957   6.625   2.797   4.330
10353SOL    HW131958   6.634   2.874   4.394
10353SOL    HW231959   6.704   2.795   4.269
10354SOL     OW31960   0.454   2.106   1.876
10354SOL    HW131961   0.400   2.036   1.923
10354SOL    HW231962   0.535   2.064   1.837
10355SOL     OW31963   1.318   0.672   1.008
10355SOL    HW131964   1.345   0.667   1.104
10355SOL    HW231965   1.360   0.596   0.958
10356SOL     OW31966   0.064   3.803   5.883
10356SOL    HW131967   0.039   3.806   5.980
10356SOL    HW231968   0.154   3.759   5.874
10357SOL     OW31969   4.113   2.873   6.579
10357SOL    HW131970   4.126   2.817   6.497
10357SOL    HW231971   4.036   2.935   6.565
10358SOL     OW31972   0.257   2.849   3.877
10358SOL    HW131973   0.216   2.758   3.865
10358SOL    HW231974   0.319   2.848   3.955
10359SOL     OW31975   5.237   2.018   1.744
10359SOL    HW131976   5.191   2.023   1.833
10359SOL    HW231977   5.181   2.065   1.675
10360SOL     OW31978   5.025   5.845   1.905
10360SOL    HW131979   5.111   5.889   1.932
10360SOL    HW231980   4.983   5.898   1.831
10361SOL     OW31981   2.304   0.969   2.783
10361SOL    HW131982   2.291   0.942   2.687
10361SOL    HW231983   2.319   0.887   2.839
10362SOL     OW31984   0.811   4.920   3.180
10362SOL    HW131985   0.878   4.872   3.237
10362SOL    HW231986   0.725   4.930   3.230
10363SOL     OW31987   5.171   2.592   1.539
10363SOL    HW131988   5.127   2.633   1.459
10363SOL    HW231989   5.216   2.507   1.512
10364SOL     OW31990   4.496   4.203   1.490
10364SOL    HW131991   4.577   4.153   1.459
10364SOL    HW231992   4.511   4.301   1.476
10365SOL     OW31993   5.811   3.885   6.812
10365SOL    HW131994   5.738   3.824   6.782
10365SOL    HW231995   5.811   3.968   6.756
10366SOL     OW31996   3.453   6.468   3.679
10366SOL    HW131997   3.390   6.541   3.707
10366SOL    HW231998   3.500   6.496   3.596
10367SOL     OW31999   0.029   1.780   1.658
10367SOL    HW132000   6.954   1.764   1.654
10367SOL    HW232001   0.075   1.722   1.591
10368SOL     OW32002   1.702   1.396   2.275
10368SOL    HW132003   1.782   1.338   2.290
10368SOL    HW232004   1.618   1.344   2.296
10369SOL     OW32005   3.105   6.859   6.132
10369SOL    HW132006   3.011   6.887   6.154
10369SOL    HW232007   3.144   6.808   6.209
10370SOL     OW32008   7.009   1.122   5.138
10370SOL    HW132009   6.953   1.196   5.101
10370SOL    HW232010   0.081   1.136   5.110
10371SOL     OW32011   2.322   6.333   4.758
10371SOL    HW132012   2.414   6.366   4.738
10371SOL    HW232013   2.268   6.332   4.674
10372SOL     OW32014   2.309   1.347   6.949
10372SOL    HW132015   2.408   1.361   6.950
10372SOL    HW232016   2.288   1.259   6.907
10373SOL     OW32017   1.306   6.722   5.152
10373SOL    HW132018   1.355   6.785   5.092
10373SOL    HW232019   1.302   6.632   5.110
10374SOL     OW32020   3.458   0.521   3.700
10374SOL    HW132021   3.447   0.436   3.649
10374SOL    HW232022   3.553   0.530   3.731
10375SOL     OW32023   2.486   2.534   6.130
10375SOL    HW132024   2.553   2.601   6.097
10375SOL    HW232025   2.397   2.577   6.138
10376SOL     OW32026   1.549   5.899   4.422
10376SOL    HW132027   1.629   5.852   4.459
10376SOL    HW232028   1.472   5.890   4.485
10377SOL     OW32029   0.261   0.858   2.106
10377SOL    HW132030   0.301   0.833   2.194
10377SOL    HW232031   0.286   0.790   2.037
10378SOL     OW32032   6.138   5.826   5.329
10378SOL    HW132033   6.155   5.916   5.369
10378SOL    HW232034   6.039   5.808   5.329
10379SOL     OW32035   3.326   5.638   4.398
10379SOL    HW132036   3.369   5.659   4.310
10379SOL    HW232037   3.281   5.721   4.433
10380SOL     OW32038   1.077   2.436   4.451
10380SOL    HW132039   1.155   2.423   4.391
10380SOL    HW232040   1.105   2.419   4.546
10381SOL     OW32041   4.431   3.952   1.150
10381SOL    HW132042   4.411   3.988   1.059
10381SOL    HW232043   4.422   3.853   1.150
10382SOL     OW32044   2.447   5.312   1.370
10382SOL    HW132045   2.368   5.359   1.408
10382SOL    HW232046   2.422   5.218   1.346
10383SOL     OW32047   1.189   4.042   0.874
10383SOL    HW132048   1.233   3.992   0.949
10383SOL    HW232049   1.208   3.996   0.787
10384SOL     OW32050   6.817   6.829   0.866
10384SOL    HW132051   6.729   6.788   0.890
10384SOL    HW232052   6.818   6.925   0.894
10385SOL     OW32053   3.875   6.017   6.540
10385SOL    HW132054   3.876   6.112   6.510
10385SOL    HW232055   3.855   5.957   6.462
10386SOL     OW32056   0.019   1.112   5.693
10386SOL    HW132057   0.095   1.056   5.662
10386SOL    HW232058   6.963   1.053   5.712
10387SOL     OW32059   4.440   2.300   3.405
10387SOL    HW132060   4.471   2.305   3.310
10387SOL    HW232061   4.343   2.277   3.408
10388SOL     OW32062   1.972   6.016   1.865
10388SOL    HW132063   2.071   6.014   1.876
10388SOL    HW232064   1.929   5.955   1.931
10389SOL     OW32065   6.629   4.968   0.850
10389SOL    HW132066   6.550   4.943   0.794
10389SOL    HW232067   6.680   4.885   0.874
10390SOL     OW32068   1.976   3.737   0.448
10390SOL    HW132069   2.040   3.794   0.398
10390SOL    HW232070   1.900   3.793   0.483
10391SOL     OW32071   0.050   5.974   3.496
10391SOL    HW132072   0.078   5.915   3.572
10391SOL    HW232073   7.006   6.040   3.528
10392SOL     OW32074   6.072   4.497   5.770
10392SOL    HW132075   6.084   4.595   5.756
10392SOL    HW232076   6.134   4.447   5.709
10393SOL     OW32077   2.471   2.593   3.256
10393SOL    HW132078   2.550   2.550   3.212
10393SOL    HW232079   2.461   2.558   3.349
10394SOL     OW32080   2.403   5.212   5.610
10394SOL    HW132081   2.337   5.286   5.616
10394SOL    HW232082   2.413   5.184   5.515
10395SOL     OW32083   0.900   0.896   1.774
10395SOL    HW132084   0.888   0.994   1.759
10395SOL    HW232085   0.990   0.868   1.744
10396SOL     OW32086   3.847   1.186   3.856
10396SOL    HW132087   3.821   1.248   3.782
10396SOL    HW232088   3.781   1.111   3.861
10397SOL     OW32089   3.538   1.143   4.763
10397SOL    HW132090   3.507   1.184   4.848
10397SOL    HW232091   3.618   1.087   4.780
10398SOL     OW32092   5.902   2.162   0.789
10398SOL    HW132093   5.876   2.209   0.874
10398SOL    HW232094   5.997   2.132   0.797
10399SOL     OW32095   5.054   1.824   3.387
10399SOL    HW132096   5.118   1.761   3.431
10399SOL    HW232097   4.968   1.824   3.438
10400SOL     OW32098   4.333   5.609   0.349
10400SOL    HW132099   4.328   5.571   0.256
10400SOL    HW232100   4.303   5.540   0.414
10401SOL     OW32101   0.078   6.671   2.126
10401SOL    HW132102   0.071   6.730   2.045
10401SOL    HW232103   7.017   6.677   2.178
10402SOL     OW32104   0.188   1.644   5.913
10402SOL    HW132105   0.172   1.677   5.820
10402SOL    HW232106   0.174   1.545   5.917
10403SOL     OW32107   4.237   2.183   2.990
10403SOL    HW132108   4.206   2.120   2.919
10403SOL    HW232109   4.327   2.154   3.024
10404SOL     OW32110   6.573   5.721   4.248
10404SOL    HW132111   6.503   5.789   4.272
10404SOL    HW232112   6.560   5.693   4.153
10405SOL     OW32113   1.164   5.958   4.818
10405SOL    HW132114   1.158   5.874   4.764
10405SOL    HW232115   1.215   6.027   4.767
10406SOL     OW32116   1.921   3.259   4.853
10406SOL    HW132117   2.017   3.278   4.870
10406SOL    HW232118   1.907   3.160   4.845
10407SOL     OW32119   2.857   6.925   6.182
10407SOL    HW132120   2.852   7.014   6.136
10407SOL    HW232121   2.814   6.931   6.272
10408SOL     OW32122   4.525   0.057   1.263
10408SOL    HW132123   4.448   0.104   1.221
10408SOL    HW232124   4.576   0.120   1.321
10409SOL     OW32125   6.603   4.651   0.961
10409SOL    HW132126   6.528   4.611   1.013
10409SOL    HW232127   6.689   4.609   0.989
10410SOL     OW32128   4.894   2.154   1.767
10410SOL    HW132129   4.920   2.076   1.824
10410SOL    HW232130   4.795   2.167   1.773
10411SOL     OW32131   3.267   6.036   3.541
10411SOL    HW132132   3.281   6.090   3.624
10411SOL    HW232133   3.227   6.093   3.470
10412SOL     OW32134   0.816   1.230   0.988
10412SOL    HW132135   0.787   1.325   0.980
10412SOL    HW232136   0.761   1.185   1.059
10413SOL     OW32137   6.203   3.004   1.672
10413SOL    HW132138   6.145   2.935   1.629
10413SOL    HW232139   6.195   2.997   1.772
10414SOL     OW32140   3.390   4.755   6.036
10414SOL    HW132141   3.464   4.706   6.081
10414SOL    HW232142   3.406   4.756   5.937
10415SOL     OW32143   1.727   4.479   3.991
10415SOL    HW132144   1.749   4.399   3.936
10415SOL    HW232145   1.688   4.450   4.079
10416SOL     OW32146   6.015   0.131   5.155
10416SOL    HW132147   6.040   0.144   5.251
10416SOL    HW232148   6.096   0.110   5.101
10417SOL     OW32149   3.945   5.111   3.700
10417SOL    HW132150   4.024   5.168   3.681
10417SOL    HW232151   3.940   5.037   3.633
10418SOL     OW32152   6.679   4.621   5.735
10418SOL    HW132153   6.659   4.702   5.679
10418SOL    HW232154   6.594   4.578   5.764
10419SOL     OW32155   3.389   6.571   6.584
10419SOL    HW132156   3.398   6.664   6.620
10419SOL    HW232157   3.475   6.522   6.594
10420SOL     OW32158   0.430   3.464   4.016
10420SOL    HW132159   0.506   3.520   4.051
10420SOL    HW232160   0.343   3.505   4.043
10421SOL     OW32161   1.062   3.298   3.790
10421SOL    HW132162   1.100   3.385   3.821
10421SOL    HW232163   1.096   3.224   3.848
10422SOL     OW32164   6.196   3.609   5.066
10422SOL    HW132165   6.243   3.583   5.150
10422SOL    HW232166   6.263   3.639   4.998
10423SOL     OW32167   6.012   5.145   6.022
10423SOL    HW132168   6.001   5.214   5.951
10423SOL    HW232169   6.092   5.088   6.001
10424SOL     OW32170   4.120   3.032   0.767
10424SOL    HW132171   4.065   2.955   0.736
10424SOL    HW232172   4.150   3.086   0.688
10425SOL     OW32173   0.910   6.405   2.471
10425SOL    HW132174   0.863   6.484   2.431
10425SOL    HW232175   0.899   6.325   2.412
10426SOL     OW32176   5.541   4.431   0.196
10426SOL    HW132177   5.456   4.440   0.144
10426SOL    HW232178   5.576   4.338   0.187
10427SOL     OW32179   3.741   1.352   0.189
10427SOL    HW132180   3.654   1.351   0.239
10427SOL    HW232181   3.723   1.375   0.093
10428SOL     OW32182   3.438   0.908   3.723
10428SOL    HW132183   3.374   0.903   3.799
10428SOL    HW232184   3.389   0.932   3.639
10429SOL     OW32185   6.701   4.000   2.200
10429SOL    HW132186   6.644   3.992   2.282
10429SOL    HW232187   6.786   4.047   2.223
10430SOL     OW32188   5.144   0.171   5.162
10430SOL    HW132189   5.142   0.235   5.085
10430SOL    HW232190   5.230   0.183   5.212
10431SOL     OW32191   2.543   5.743   4.239
10431SOL    HW132192   2.448   5.727   4.264
10431SOL    HW232193   2.548   5.815   4.170
10432SOL     OW32194   6.142   0.378   4.268
10432SOL    HW132195   6.050   0.417   4.259
10432SOL    HW232196   6.207   0.432   4.216
10433SOL     OW32197   1.022   5.935   2.439
10433SOL    HW132198   0.981   6.019   2.406
10433SOL    HW232199   0.952   5.866   2.452
10434SOL     OW32200   3.688   5.806   2.885
10434SOL    HW132201   3.667   5.778   2.792
10434SOL    HW232202   3.783   5.837   2.890
10435SOL     OW32203   0.663   1.270   5.456
10435SOL    HW132204   0.639   1.184   5.411
10435SOL    HW232205   0.757   1.264   5.492
10436SOL     OW32206   6.162   4.766   5.346
10436SOL    HW132207   6.261   4.759   5.361
10436SOL    HW232208   6.128   4.853   5.381
10437SOL     OW32209   4.449   4.068   6.059
10437SOL    HW132210   4.518   4.135   6.085
10437SOL    HW232211   4.403   4.098   5.976
10438SOL     OW32212   0.292   6.182   6.854
10438SOL    HW132213   0.252   6.243   6.785
10438SOL    HW232214   0.371   6.226   6.896
10439SOL     OW32215   4.220   1.477   4.696
10439SOL    HW132216   4.239   1.489   4.599
10439SOL    HW232217   4.302   1.496   4.749
10440SOL     OW32218   0.375   6.709   0.744
10440SOL    HW132219   0.430   6.628   0.728
10440SOL    HW232220   0.399   6.780   0.678
10441SOL     OW32221   4.427   1.242   1.428
10441SOL    HW132222   4.371   1.199   1.499
10441SOL    HW232223   4.430   1.341   1.444
10442SOL     OW32224   4.293   6.713   6.555
10442SOL    HW132225   4.324   6.781   6.488
10442SOL    HW232226   4.351   6.631   6.548
10443SOL     OW32227   4.975   3.505   3.838
10443SOL    HW132228   4.981   3.423   3.895
10443SOL    HW232229   4.987   3.586   3.896
10444SOL     OW32230   4.572   5.811   3.306
10444SOL    HW132231   4.586   5.741   3.376
10444SOL    HW232232   4.576   5.901   3.348
10445SOL     OW32233   0.407   4.298   4.371
10445SOL    HW132234   0.391   4.395   4.350
10445SOL    HW232235   0.472   4.260   4.305
10446SOL     OW32236   2.364   3.188   5.755
10446SOL    HW132237   2.290   3.209   5.691
10446SOL    HW232238   2.340   3.223   5.846
10447SOL     OW32239   0.174   0.830   2.654
10447SOL    HW132240   0.118   0.906   2.621
10447SOL    HW232241   0.269   0.859   2.662
10448SOL     OW32242   4.771   0.705   2.658
10448SOL    HW132243   4.777   0.793   2.610
10448SOL    HW232244   4.693   0.653   2.623
10449SOL     OW32245   1.753   5.085   5.203
10449SOL    HW132246   1.660   5.112   5.225
10449SOL    HW232247   1.816   5.131   5.266
10450SOL     OW32248   0.524   1.105   0.877
10450SOL    HW132249   0.550   1.062   0.964
10450SOL    HW232250   0.599   1.162   0.845
10451SOL     OW32251   2.252   5.392   2.749
10451SOL    HW132252   2.230   5.489   2.750
10451SOL    HW232253   2.343   5.379   2.790
10452SOL     OW32254   6.567   3.339   1.951
10452SOL    HW132255   6.623   3.291   1.883
10452SOL    HW232256   6.509   3.406   1.906
10453SOL     OW32257   4.792   0.039   1.127
10453SOL    HW132258   4.695   0.043   1.149
10453SOL    HW232259   4.821   6.967   1.119
10454SOL     OW32260   5.288   3.081   0.400
10454SOL    HW132261   5.243   3.169   0.384
10454SOL    HW232262   5.219   3.008   0.396
10455SOL     OW32263   6.062   6.594   3.727
10455SOL    HW132264   6.095   6.639   3.644
10455SOL    HW232265   6.137   6.547   3.773
10456SOL     OW32266   1.844   5.608   0.346
10456SOL    HW132267   1.798   5.696   0.355
10456SOL    HW232268   1.779   5.534   0.366
10457SOL     OW32269   3.495   2.941   1.486
10457SOL    HW132270   3.575   2.966   1.541
10457SOL    HW232271   3.472   2.845   1.503
10458SOL     OW32272   6.480   0.637   6.435
10458SOL    HW132273   6.533   0.714   6.402
10458SOL    HW232274   6.385   0.645   6.403
10459SOL     OW32275   4.652   6.158   1.693
10459SOL    HW132276   4.569   6.111   1.724
10459SOL    HW232277   4.732   6.104   1.716
10460SOL     OW32278   0.588   4.200   2.340
10460SOL    HW132279   0.611   4.118   2.287
10460SOL    HW232280   0.598   4.180   2.438
10461SOL     OW32281   6.695   5.159   5.862
10461SOL    HW132282   6.794   5.167   5.873
10461SOL    HW232283   6.651   5.244   5.892
10462SOL     OW32284   5.615   1.245   3.515
10462SOL    HW132285   5.546   1.235   3.443
10462SOL    HW232286   5.590   1.321   3.575
10463SOL     OW32287   4.739   3.431   6.059
10463SOL    HW132288   4.652   3.394   6.093
10463SOL    HW232289   4.774   3.373   5.986
10464SOL     OW32290   6.571   6.573   1.530
10464SOL    HW132291   6.571   6.652   1.469
10464SOL    HW232292   6.593   6.603   1.623
10465SOL     OW32293   5.906   5.908   0.503
10465SOL    HW132294   5.971   5.832   0.505
10465SOL    HW232295   5.870   5.918   0.410
10466SOL     OW32296   4.724   5.007   5.782
10466SOL    HW132297   4.704   4.912   5.755
10466SOL    HW232298   4.732   5.064   5.700
10467SOL     OW32299   2.900   1.041   0.054
10467SOL    HW132300   2.869   1.035   6.983
10467SOL    HW232301   3.000   1.046   0.056
10468SOL     OW32302   4.008   5.135   3.193
10468SOL    HW132303   3.993   5.052   3.245
10468SOL    HW232304   4.008   5.214   3.255
10469SOL     OW32305   3.884   4.545   5.610
10469SOL    HW132306   3.903   4.450   5.586
10469SOL    HW232307   3.806   4.549   5.673
10470SOL     OW32308   2.302   2.729   3.631
10470SOL    HW132309   2.265   2.722   3.723
10470SOL    HW232310   2.264   2.809   3.584
10471SOL     OW32311   3.113   1.483   0.848
10471SOL    HW132312   3.091   1.523   0.759
10471SOL    HW232313   3.032   1.486   0.907
10472SOL     OW32314   3.774   5.487   0.167
10472SOL    HW132315   3.793   5.492   0.069
10472SOL    HW232316   3.727   5.570   0.196
10473SOL     OW32317   6.952   0.079   6.871
10473SOL    HW132318   6.943   0.148   6.798
10473SOL    HW232319   6.866   0.073   6.921
10474SOL     OW32320   3.424   2.043   4.373
10474SOL    HW132321   3.368   1.988   4.434
10474SOL    HW232322   3.391   2.137   4.373
10475SOL     OW32323   4.861   6.426   0.863
10475SOL    HW132324   4.917   6.456   0.786
10475SOL    HW232325   4.816   6.505   0.905
10476SOL     OW32326   6.788   6.165   0.085
10476SOL    HW132327   6.837   6.179   0.171
10476SOL    HW232328   6.725   6.088   0.095
10477SOL     OW32329   0.472   1.359   4.895
10477SOL    HW132330   0.486   1.375   4.993
10477SOL    HW232331   0.542   1.297   4.861
10478SOL     OW32332   0.060   0.533   1.331
10478SOL    HW132333   0.094   0.525   1.237
10478SOL    HW232334   6.984   0.533   1.330
10479SOL     OW32335   0.061   2.130   2.567
10479SOL    HW132336   0.008   2.197   2.620
10479SOL    HW232337   0.124   2.178   2.505
10480SOL     OW32338   6.283   0.126   2.012
10480SOL    HW132339   6.237   0.038   2.007
10480SOL    HW232340   6.309   0.144   2.107
10481SOL     OW32341   2.992   0.000   4.244
10481SOL    HW132342   2.973   0.053   4.327
10481SOL    HW232343   3.054   0.053   4.185
10482SOL     OW32344   6.478   4.967   4.323
10482SOL    HW132345   6.382   4.939   4.316
10482SOL    HW232346   6.531   4.893   4.365
10483SOL     OW32347   6.586   4.810   0.097
10483SOL    HW132348   6.557   4.714   0.093
10483SOL    HW232349   6.511   4.869   0.067
10484SOL     OW32350   5.934   1.289   2.063
10484SOL    HW132351   5.847   1.262   2.022
10484SOL    HW232352   5.947   1.387   2.051
10485SOL     OW32353   3.141   3.721   1.011
10485SOL    HW132354   3.093   3.797   1.055
10485SOL    HW232355   3.240   3.732   1.023
10486SOL     OW32356   0.029   1.036   0.176
10486SOL    HW132357   7.008   1.005   0.092
10486SOL    HW232358   6.983   1.050   0.247
10487SOL     OW32359   4.750   1.899   1.995
10487SOL    HW132360   4.691   1.956   2.052
10487SOL    HW232361   4.695   1.832   1.946
10488SOL     OW32362   3.028   1.796   5.605
10488SOL    HW132363   2.957   1.764   5.666
10488SOL    HW232364   3.114   1.749   5.626
10489SOL     OW32365   0.205   0.382   4.436
10489SOL    HW132366   0.285   0.425   4.478
10489SOL    HW232367   0.235   0.312   4.372
10490SOL     OW32368   5.671   1.925   0.783
10490SOL    HW132369   5.747   1.983   0.815
10490SOL    HW232370   5.703   1.867   0.709
10491SOL     OW32371   2.384   1.838   5.875
10491SOL    HW132372   2.369   1.853   5.973
10491SOL    HW232373   2.433   1.916   5.836
10492SOL     OW32374   5.673   5.346   0.516
10492SOL    HW132375   5.726   5.263   0.535
10492SOL    HW232376   5.605   5.326   0.445
10493SOL     OW32377   3.297   6.862   2.045
10493SOL    HW132378   3.242   6.859   1.961
10493SOL    HW232379   3.269   6.940   2.101
10494SOL     OW32380   5.611   4.578   5.601
10494SOL    HW132381   5.676   4.558   5.674
10494SOL    HW232382   5.652   4.555   5.513
10495SOL     OW32383   0.962   6.408   1.216
10495SOL    HW132384   0.924   6.491   1.173
10495SOL    HW232385   1.061   6.411   1.213
10496SOL     OW32386   6.315   3.529   6.157
10496SOL    HW132387   6.271   3.572   6.236
10496SOL    HW232388   6.261   3.451   6.127
10497SOL     OW32389   2.154   6.878   1.985
10497SOL    HW132390   2.139   6.935   2.066
10497SOL    HW232391   2.122   6.926   1.904
10498SOL     OW32392   4.581   5.405   0.632
10498SOL    HW132393   4.517   5.356   0.572
10498SOL    HW232394   4.539   5.490   0.662
10499SOL     OW32395   4.415   0.210   2.349
10499SOL    HW132396   4.342   0.142   2.354
10499SOL    HW232397   4.502   0.166   2.327
10500SOL     OW32398   6.055   1.375   5.867
10500SOL    HW132399   6.010   1.377   5.957
10500SOL    HW232400   5.986   1.359   5.796
10501SOL     OW32401   2.138   5.758   2.246
10501SOL    HW132402   2.101   5.762   2.338
10501SOL    HW232403   2.196   5.677   2.237
10502SOL     OW32404   2.244   1.956   1.863
10502SOL    HW132405   2.209   2.026   1.924
10502SOL    HW232406   2.209   1.866   1.892
10503SOL     OW32407   4.685   2.867   1.168
10503SOL    HW132408   4.671   2.919   1.252
10503SOL    HW232409   4.633   2.782   1.173
10504SOL     OW32410   1.306   2.697   5.709
10504SOL    HW132411   1.343   2.725   5.620
10504SOL    HW232412   1.301   2.597   5.713
10505SOL     OW32413   5.485   5.006   0.627
10505SOL    HW132414   5.580   5.031   0.611
10505SOL    HW232415   5.427   5.087   0.618
10506SOL     OW32416   0.351   3.778   0.324
10506SOL    HW132417   0.434   3.835   0.325
10506SOL    HW232418   0.377   3.682   0.325
10507SOL     OW32419   1.703   6.556   1.070
10507SOL    HW132420   1.607   6.575   1.048
10507SOL    HW232421   1.760   6.633   1.040
10508SOL     OW32422   6.692   5.654   4.697
10508SOL    HW132423   6.647   5.673   4.784
10508SOL    HW232424   6.677   5.558   4.672
10509SOL     OW32425   0.024   5.917   5.580
10509SOL    HW132426   6.988   5.991   5.611
10509SOL    HW232427   6.993   5.847   5.533
10510SOL     OW32428   4.701   5.911   6.984
10510SOL    HW132429   4.645   5.854   6.923
10510SOL    HW232430   4.747   5.852   0.028
10511SOL     OW32431   2.861   1.379   1.848
10511SOL    HW132432   2.866   1.377   1.748
10511SOL    HW232433   2.783   1.434   1.876
10512SOL     OW32434   4.367   0.260   5.801
10512SOL    HW132435   4.292   0.315   5.838
10512SOL    HW232436   4.454   0.305   5.820
10513SOL     OW32437   6.425   2.517   3.878
10513SOL    HW132438   6.465   2.480   3.962
10513SOL    HW232439   6.326   2.529   3.891
10514SOL     OW32440   0.640   3.390   1.483
10514SOL    HW132441   0.638   3.348   1.392
10514SOL    HW232442   0.556   3.442   1.497
10515SOL     OW32443   0.794   3.289   3.842
10515SOL    HW132444   0.881   3.337   3.838
10515SOL    HW232445   0.801   3.201   3.797
10516SOL     OW32446   3.966   1.711   0.416
10516SOL    HW132447   4.016   1.654   0.482
10516SOL    HW232448   3.870   1.718   0.442
10517SOL     OW32449   0.521   3.246   1.247
10517SOL    HW132450   0.443   3.307   1.231
10517SOL    HW232451   0.487   3.156   1.275
10518SOL     OW32452   6.669   5.966   0.754
10518SOL    HW132453   6.729   5.975   0.833
10518SOL    HW232454   6.675   6.048   0.698
10519SOL     OW32455   3.040   3.252   0.852
10519SOL    HW132456   2.949   3.210   0.843
10519SOL    HW232457   3.040   3.313   0.930
10520SOL     OW32458   0.637   2.343   6.180
10520SOL    HW132459   0.687   2.377   6.100
10520SOL    HW232460   0.665   2.248   6.198
10521SOL     OW32461   6.506   5.587   1.629
10521SOL    HW132462   6.480   5.501   1.673
10521SOL    HW232463   6.463   5.664   1.678
10522SOL     OW32464   0.422   0.526   4.552
10522SOL    HW132465   0.412   0.518   4.651
10522SOL    HW232466   0.474   0.448   4.517
10523SOL     OW32467   0.815   4.505   2.812
10523SOL    HW132468   0.894   4.444   2.803
10523SOL    HW232469   0.784   4.505   2.908
10524SOL     OW32470   0.690   6.602   4.082
10524SOL    HW132471   0.751   6.525   4.100
10524SOL    HW232472   0.622   6.576   4.014
10525SOL     OW32473   4.230   0.548   5.786
10525SOL    HW132474   4.193   0.519   5.697
10525SOL    HW232475   4.313   0.603   5.771
10526SOL     OW32476   1.365   6.331   3.042
10526SOL    HW132477   1.440   6.385   3.080
10526SOL    HW232478   1.326   6.378   2.963
10527SOL     OW32479   0.793   0.912   5.606
10527SOL    HW132480   0.753   0.901   5.697
10527SOL    HW232481   0.798   0.823   5.561
10528SOL     OW32482   1.522   3.345   6.028
10528SOL    HW132483   1.519   3.439   6.062
10528SOL    HW232484   1.447   3.331   5.963
10529SOL     OW32485   2.974   6.442   4.089
10529SOL    HW132486   3.006   6.465   4.180
10529SOL    HW232487   2.880   6.407   4.094
10530SOL     OW32488   1.122   0.379   6.487
10530SOL    HW132489   1.161   0.436   6.416
10530SOL    HW232490   1.195   0.342   6.545
10531SOL     OW32491   1.600   2.511   4.131
10531SOL    HW132492   1.669   2.455   4.085
10531SOL    HW232493   1.638   2.601   4.149
10532SOL     OW32494   0.872   6.818   6.090
10532SOL    HW132495   0.875   6.880   6.169
10532SOL    HW232496   0.867   6.872   6.006
10533SOL     OW32497   3.140   6.699   3.216
10533SOL    HW132498   3.157   6.682   3.313
10533SOL    HW232499   3.200   6.773   3.184
10534SOL     OW32500   6.494   5.439   2.417
10534SOL    HW132501   6.549   5.356   2.428
10534SOL    HW232502   6.551   5.520   2.431
10535SOL     OW32503   1.616   2.063   2.187
10535SOL    HW132504   1.586   2.018   2.271
10535SOL    HW232505   1.600   2.003   2.109
10536SOL     OW32506   4.174   0.661   4.302
10536SOL    HW132507   4.233   0.618   4.371
10536SOL    HW232508   4.183   0.761   4.309
10537SOL     OW32509   4.301   6.450   4.564
10537SOL    HW132510   4.259   6.445   4.473
10537SOL    HW232511   4.259   6.382   4.624
10538SOL     OW32512   6.066   3.408   0.687
10538SOL    HW132513   6.074   3.487   0.748
10538SOL    HW232514   6.156   3.367   0.673
10539SOL     OW32515   0.569   4.839   0.125
10539SOL    HW132516   0.547   4.796   0.213
10539SOL    HW232517   0.485   4.875   0.084
10540SOL     OW32518   1.622   3.146   5.675
10540SOL    HW132519   1.719   3.121   5.679
10540SOL    HW232520   1.566   3.064   5.685
10541SOL     OW32521   3.476   3.845   1.632
10541SOL    HW132522   3.478   3.746   1.618
10541SOL    HW232523   3.564   3.884   1.603
10542SOL     OW32524   0.187   0.942   5.570
10542SOL    HW132525   0.106   0.893   5.603
10542SOL    HW232526   0.208   0.914   5.477
10543SOL     OW32527   0.333   1.504   4.701
10543SOL    HW132528   0.397   1.550   4.640
10543SOL    HW232529   0.383   1.448   4.766
10544SOL     OW32530   2.686   6.717   1.888
10544SOL    HW132531   2.589   6.737   1.901
10544SOL    HW232532   2.704   6.699   1.791
10545SOL     OW32533   0.444   1.864   1.078
10545SOL    HW132534   0.455   1.815   1.164
10545SOL    HW232535   0.378   1.938   1.089
10546SOL     OW32536   1.540   6.898   0.592
10546SOL    HW132537   1.539   6.930   0.686
10546SOL    HW232538   1.610   6.827   0.582
10547SOL     OW32539   5.147   3.135   3.266
10547SOL    HW132540   5.190   3.050   3.234
10547SOL    HW232541   5.106   3.120   3.356
10548SOL     OW32542   5.986   4.601   4.255
10548SOL    HW132543   5.957   4.660   4.330
10548SOL    HW232544   5.917   4.601   4.183
10549SOL     OW32545   0.754   0.256   2.013
10549SOL    HW132546   0.732   0.298   1.925
10549SOL    HW232547   0.852   0.265   2.030
10550SOL     OW32548   4.775   6.756   3.859
10550SOL    HW132549   4.679   6.783   3.865
10550SOL    HW232550   4.790   6.706   3.773
10551SOL     OW32551   1.465   2.658   0.164
10551SOL    HW132552   1.440   2.647   0.260
10551SOL    HW232553   1.508   2.748   0.151
10552SOL     OW32554   2.381   1.167   5.575
10552SOL    HW132555   2.289   1.181   5.612
10552SOL    HW232556   2.445   1.227   5.623
10553SOL     OW32557   0.609   4.605   1.121
10553SOL    HW132558   0.609   4.656   1.035
10553SOL    HW232559   0.620   4.507   1.101
10554SOL     OW32560   5.339   4.593   0.985
10554SOL    HW132561   5.324   4.686   0.951
10554SOL    HW232562   5.336   4.528   0.909
10555SOL     OW32563   2.020   2.367   0.514
10555SOL    HW132564   2.052   2.389   0.606
10555SOL    HW232565   2.018   2.267   0.503
10556SOL     OW32566   1.608   1.617   4.385
10556SOL    HW132567   1.559   1.703   4.403
10556SOL    HW232568   1.600   1.594   4.288
10557SOL     OW32569   1.636   2.955   3.049
10557SOL    HW132570   1.588   2.997   3.126
10557SOL    HW232571   1.729   2.991   3.044
10558SOL     OW32572   4.103   6.915   4.951
10558SOL    HW132573   4.071   6.988   4.890
10558SOL    HW232574   4.142   6.841   4.896
10559SOL     OW32575   4.929   0.763   1.640
10559SOL    HW132576   4.992   0.816   1.583
10559SOL    HW232577   4.980   0.691   1.688
10560SOL     OW32578   4.933   6.625   2.301
10560SOL    HW132579   4.907   6.632   2.397
10560SOL    HW232580   4.901   6.706   2.251
10561SOL     OW32581   3.634   4.355   1.765
10561SOL    HW132582   3.657   4.320   1.856
10561SOL    HW232583   3.633   4.455   1.767
10562SOL     OW32584   3.850   5.537   6.889
10562SOL    HW132585   3.785   5.554   6.815
10562SOL    HW232586   3.904   5.456   6.867
10563SOL     OW32587   0.408   1.023   3.240
10563SOL    HW132588   0.347   1.016   3.320
10563SOL    HW232589   0.464   0.941   3.234
10564SOL     OW32590   5.742   5.703   2.931
10564SOL    HW132591   5.657   5.664   2.897
10564SOL    HW232592   5.757   5.792   2.887
10565SOL     OW32593   0.793   6.516   5.782
10565SOL    HW132594   0.889   6.491   5.799
10565SOL    HW232595   0.759   6.568   5.861
10566SOL     OW32596   3.652   1.898   6.806
10566SOL    HW132597   3.621   1.815   6.853
10566SOL    HW232598   3.736   1.878   6.756
10567SOL     OW32599   2.289   2.135   5.125
10567SOL    HW132600   2.380   2.109   5.093
10567SOL    HW232601   2.233   2.053   5.134
10568SOL     OW32602   6.544   2.942   1.407
10568SOL    HW132603   6.545   2.858   1.353
10568SOL    HW232604   6.511   3.018   1.351
10569SOL     OW32605   5.468   1.165   2.292
10569SOL    HW132606   5.394   1.108   2.328
10569SOL    HW232607   5.468   1.162   2.193
10570SOL     OW32608   1.104   4.616   3.023
10570SOL    HW132609   1.021   4.658   2.985
10570SOL    HW232610   1.102   4.624   3.123
10571SOL     OW32611   6.835   4.489   4.960
10571SOL    HW132612   6.831   4.565   5.025
10571SOL    HW232613   6.787   4.514   4.876
10572SOL     OW32614   6.693   4.420   2.861
10572SOL    HW132615   6.600   4.384   2.853
10572SOL    HW232616   6.759   4.344   2.855
10573SOL     OW32617   5.676   0.323   4.834
10573SOL    HW132618   5.738   0.290   4.905
10573SOL    HW232619   5.603   0.256   4.820
10574SOL     OW32620   1.029   1.520   3.970
10574SOL    HW132621   0.968   1.589   4.009
10574SOL    HW232622   1.104   1.503   4.034
10575SOL     OW32623   0.054   1.151   3.805
10575SOL    HW132624   0.154   1.147   3.815
10575SOL    HW232625   0.014   1.186   3.890
10576SOL     OW32626   6.924   5.702   5.012
10576SOL    HW132627   6.985   5.628   4.982
10576SOL    HW232628   6.919   5.771   4.940
10577SOL     OW32629   1.829   4.528   0.056
10577SOL    HW132630   1.784   4.584   7.010
10577SOL    HW232631   1.817   4.569   0.146
10578SOL     OW32632   4.798   1.548   2.961
10578SOL    HW132633   4.770   1.543   2.865
10578SOL    HW232634   4.764   1.469   3.010
10579SOL     OW32635   4.428   3.134   1.715
10579SOL    HW132636   4.456   3.211   1.658
10579SOL    HW232637   4.508   3.099   1.764
10580SOL     OW32638   6.512   0.566   6.687
10580SOL    HW132639   6.446   0.625   6.733
10580SOL    HW232640   6.507   0.581   6.588
10581SOL     OW32641   5.548   0.019   3.076
10581SOL    HW132642   5.478   7.014   3.142
10581SOL    HW232643   5.603   6.963   3.050
10582SOL     OW32644   4.611   4.449   5.727
10582SOL    HW132645   4.587   4.352   5.723
10582SOL    HW232646   4.562   4.493   5.801
10583SOL     OW32647   3.287   1.246   3.990
10583SOL    HW132648   3.335   1.223   3.905
10583SOL    HW232649   3.338   1.316   4.039
10584SOL     OW32650   6.852   0.635   0.419
10584SOL    HW132651   6.771   0.692   0.407
10584SOL    HW232652   6.871   0.587   0.334
10585SOL     OW32653   2.738   1.999   5.314
10585SOL    HW132654   2.762   1.987   5.218
10585SOL    HW232655   2.700   2.090   5.328
10586SOL     OW32656   6.005   4.889   5.139
10586SOL    HW132657   5.955   4.956   5.194
10586SOL    HW232658   6.049   4.823   5.200
10587SOL     OW32659   6.374   4.980   0.074
10587SOL    HW132660   6.290   4.927   0.069
10587SOL    HW232661   6.352   5.076   0.094
10588SOL     OW32662   1.498   3.340   4.657
10588SOL    HW132663   1.443   3.352   4.740
10588SOL    HW232664   1.595   3.350   4.680
10589SOL     OW32665   6.087   1.016   4.650
10589SOL    HW132666   6.183   1.013   4.679
10589SOL    HW232667   6.080   1.061   4.561
10590SOL     OW32668   0.313   0.629   1.149
10590SOL    HW132669   0.405   0.597   1.168
10590SOL    HW232670   0.271   0.571   1.079
10591SOL     OW32671   1.388   2.175   0.197
10591SOL    HW132672   1.400   2.234   0.117
10591SOL    HW232673   1.355   2.086   0.168
10592SOL     OW32674   6.003   3.506   2.904
10592SOL    HW132675   6.068   3.449   2.955
10592SOL    HW232676   5.998   3.596   2.947
10593SOL     OW32677   2.200   5.907   0.338
10593SOL    HW132678   2.103   5.923   0.324
10593SOL    HW232679   2.250   5.927   0.253
10594SOL     OW32680   5.152   1.140   3.200
10594SOL    HW132681   5.053   1.131   3.217
10594SOL    HW232682   5.167   1.203   3.124
10595SOL     OW32683   5.304   6.698   7.016
10595SOL    HW132684   5.259   6.719   6.929
10595SOL    HW232685   5.291   6.601   0.014
10596SOL     OW32686   4.401   1.474   0.368
10596SOL    HW132687   4.394   1.382   0.406
10596SOL    HW232688   4.449   1.533   0.433
10597SOL     OW32689   3.148   1.250   5.898
10597SOL    HW132690   3.154   1.184   5.974
10597SOL    HW232691   3.057   1.247   5.859
10598SOL     OW32692   3.239   2.675   6.847
10598SOL    HW132693   3.299   2.741   6.801
10598SOL    HW232694   3.210   2.713   6.935
10599SOL     OW32695   5.418   3.436   6.352
10599SOL    HW132696   5.344   3.486   6.309
10599SOL    HW232697   5.454   3.489   6.430
10600SOL     OW32698   3.451   2.504   0.662
10600SOL    HW132699   3.362   2.474   0.696
10600SOL    HW232700   3.481   2.585   0.713
10601SOL     OW32701   1.518   4.852   5.287
10601SOL    HW132702   1.511   4.812   5.196
10601SOL    HW232703   1.493   4.949   5.283
10602SOL     OW32704   2.284   0.624   2.106
10602SOL    HW132705   2.249   0.680   2.031
10602SOL    HW232706   2.369   0.664   2.140
10603SOL     OW32707   3.648   0.317   3.133
10603SOL    HW132708   3.629   0.375   3.213
10603SOL    HW232709   3.706   0.368   3.069
10604SOL     OW32710   6.319   5.818   5.608
10604SOL    HW132711   6.382   5.788   5.537
10604SOL    HW232712   6.300   5.916   5.595
10605SOL     OW32713   2.057   6.759   6.792
10605SOL    HW132714   2.095   6.714   6.711
10605SOL    HW232715   1.961   6.783   6.776
10606SOL     OW32716   0.418   0.361   1.679
10606SOL    HW132717   0.347   0.330   1.741
10606SOL    HW232718   0.377   0.411   1.603
10607SOL     OW32719   4.259   5.395   5.804
10607SOL    HW132720   4.166   5.390   5.768
10607SOL    HW232721   4.288   5.491   5.809
10608SOL     OW32722   6.228   3.310   5.149
10608SOL    HW132723   6.138   3.268   5.134
10608SOL    HW232724   6.217   3.408   5.165
10609SOL     OW32725   2.707   6.356   6.929
10609SOL    HW132726   2.805   6.365   6.942
10609SOL    HW232727   2.689   6.307   6.843
10610SOL     OW32728   1.145   2.232   4.106
10610SOL    HW132729   1.131   2.245   4.008
10610SOL    HW232730   1.189   2.314   4.144
10611SOL     OW32731   1.990   3.978   6.748
10611SOL    HW132732   1.919   4.049   6.745
10611SOL    HW232733   2.010   3.948   6.654
10612SOL     OW32734   3.319   1.880   4.684
10612SOL    HW132735   3.231   1.833   4.683
10612SOL    HW232736   3.315   1.958   4.746
10613SOL     OW32737   5.348   6.290   5.461
10613SOL    HW132738   5.291   6.258   5.385
10613SOL    HW232739   5.444   6.273   5.440
10614SOL     OW32740   4.975   2.006   5.103
10614SOL    HW132741   4.880   1.977   5.116
10614SOL    HW232742   4.977   2.088   5.046
10615SOL     OW32743   4.415   0.643   5.458
10615SOL    HW132744   4.508   0.621   5.488
10615SOL    HW232745   4.380   0.568   5.403
10616SOL     OW32746   2.027   0.018   0.252
10616SOL    HW132747   2.002   0.111   0.225
10616SOL    HW232748   1.964   6.976   0.210
10617SOL     OW32749   3.001   3.995   1.141
10617SOL    HW132750   3.038   3.935   1.212
10617SOL    HW232751   2.916   4.037   1.173
10618SOL     OW32752   1.133   3.566   5.983
10618SOL    HW132753   1.229   3.546   5.963
10618SOL    HW232754   1.124   3.588   6.081
10619SOL     OW32755   0.328   2.917   2.616
10619SOL    HW132756   0.385   2.842   2.582
10619SOL    HW232757   0.258   2.881   2.677
10620SOL     OW32758   1.250   6.312   5.324
10620SOL    HW132759   1.291   6.398   5.295
10620SOL    HW232760   1.156   6.307   5.291
10621SOL     OW32761   0.456   5.219   1.477
10621SOL    HW132762   0.524   5.221   1.550
10621SOL    HW232763   0.495   5.259   1.394
10622SOL     OW32764   5.129   1.999   1.990
10622SOL    HW132765   5.158   2.026   2.082
10622SOL    HW232766   5.075   1.915   1.996
10623SOL     OW32767   0.611   4.953   5.604
10623SOL    HW132768   0.573   4.898   5.529
10623SOL    HW232769   0.592   5.050   5.587
10624SOL     OW32770   1.084   2.435   4.783
10624SOL    HW132771   1.013   2.412   4.851
10624SOL    HW232772   1.123   2.525   4.805
10625SOL     OW32773   0.262   4.759   0.963
10625SOL    HW132774   0.299   4.799   1.047
10625SOL    HW232775   0.206   4.827   0.915
10626SOL     OW32776   2.423   2.780   0.330
10626SOL    HW132777   2.451   2.732   0.246
10626SOL    HW232778   2.324   2.795   0.328
10627SOL     OW32779   5.004   0.458   0.367
10627SOL    HW132780   5.070   0.503   0.428
10627SOL    HW232781   5.033   0.365   0.348
10628SOL     OW32782   4.885   6.419   0.378
10628SOL    HW132783   4.872   6.327   0.416
10628SOL    HW232784   4.799   6.452   0.341
10629SOL     OW32785   2.720   4.991   4.981
10629SOL    HW132786   2.808   4.956   4.948
10629SOL    HW232787   2.681   4.927   5.047
10630SOL     OW32788   6.154   1.090   3.948
10630SOL    HW132789   6.065   1.047   3.939
10630SOL    HW232790   6.144   1.176   3.998
10631SOL     OW32791   3.419   5.241   5.349
10631SOL    HW132792   3.506   5.238   5.300
10631SOL    HW232793   3.354   5.179   5.305
10632SOL     OW32794   5.250   0.236   3.657
10632SOL    HW132795   5.323   0.206   3.596
10632SOL    HW232796   5.286   0.241   3.751
10633SOL     OW32797   2.321   2.888   0.613
10633SOL    HW132798   2.358   2.933   0.532
10633SOL    HW232799   2.307   2.790   0.594
10634SOL     OW32800   3.028   4.265   0.474
10634SOL    HW132801   3.092   4.330   0.515
10634SOL    HW232802   3.072   4.175   0.468
10635SOL     OW32803   1.922   3.330   0.084
10635SOL    HW132804   1.908   3.388   0.165
10635SOL    HW232805   2.015   3.345   0.049
10636SOL     OW32806   0.544   2.097   1.011
10636SOL    HW132807   0.520   2.006   1.047
10636SOL    HW232808   0.525   2.166   1.081
10637SOL     OW32809   1.959   4.656   5.652
10637SOL    HW132810   2.038   4.657   5.713
10637SOL    HW232811   1.975   4.720   5.576
10638SOL     OW32812   5.835   5.463   2.651
10638SOL    HW132813   5.889   5.451   2.735
10638SOL    HW232814   5.894   5.446   2.572
10639SOL     OW32815   1.071   3.493   3.158
10639SOL    HW132816   1.025   3.407   3.181
10639SOL    HW232817   1.003   3.560   3.130
10640SOL     OW32818   4.484   6.977   4.883
10640SOL    HW132819   4.466   6.887   4.843
10640SOL    HW232820   4.548   0.004   4.825
10641SOL     OW32821   2.153   2.147   2.009
10641SOL    HW132822   2.219   2.151   2.083
10641SOL    HW232823   2.116   2.239   1.993
10642SOL     OW32824   6.516   2.608   1.576
10642SOL    HW132825   6.572   2.582   1.655
10642SOL    HW232826   6.441   2.666   1.607
10643SOL     OW32827   1.427   5.462   4.560
10643SOL    HW132828   1.348   5.406   4.584
10643SOL    HW232829   1.443   5.457   4.461
10644SOL     OW32830   5.342   2.749   2.804
10644SOL    HW132831   5.316   2.702   2.888
10644SOL    HW232832   5.303   2.701   2.726
10645SOL     OW32833   2.038   2.702   4.592
10645SOL    HW132834   1.967   2.738   4.531
10645SOL    HW232835   2.106   2.772   4.609
10646SOL     OW32836   0.911   0.302   6.913
10646SOL    HW132837   0.988   0.365   6.921
10646SOL    HW232838   0.835   0.348   6.868
10647SOL     OW32839   3.053   5.321   4.869
10647SOL    HW132840   2.960   5.316   4.905
10647SOL    HW232841   3.051   5.317   4.769
10648SOL     OW32842   5.924   4.021   6.087
10648SOL    HW132843   5.836   3.979   6.105
10648SOL    HW232844   5.976   4.027   6.172
10649SOL     OW32845   0.133   4.573   2.559
10649SOL    HW132846   0.203   4.570   2.488
10649SOL    HW232847   0.161   4.636   2.631
10650SOL     OW32848   1.186   0.360   4.001
10650SOL    HW132849   1.121   0.284   4.006
10650SOL    HW232850   1.205   0.393   4.093
10651SOL     OW32851   5.615   6.788   0.343
10651SOL    HW132852   5.549   6.725   0.385
10651SOL    HW232853   5.691   6.803   0.406
10652SOL     OW32854   3.555   6.950   5.300
10652SOL    HW132855   3.654   6.941   5.308
10652SOL    HW232856   3.511   6.872   5.344
10653SOL     OW32857   4.061   5.555   3.370
10653SOL    HW132858   4.157   5.565   3.345
10653SOL    HW232859   4.011   5.510   3.296
10654SOL     OW32860   5.018   0.871   1.271
10654SOL    HW132861   5.063   0.909   1.191
10654SOL    HW232862   4.988   0.777   1.252
10655SOL     OW32863   2.422   5.768   0.524
10655SOL    HW132864   2.489   5.780   0.450
10655SOL    HW232865   2.330   5.775   0.486
10656SOL     OW32866   6.867   1.871   2.736
10656SOL    HW132867   6.785   1.915   2.775
10656SOL    HW232868   6.842   1.825   2.651
10657SOL     OW32869   6.124   0.873   5.693
10657SOL    HW132870   6.187   0.926   5.749
10657SOL    HW232871   6.105   0.786   5.737
10658SOL     OW32872   6.483   5.037   4.989
10658SOL    HW132873   6.417   5.093   5.039
10658SOL    HW232874   6.436   4.986   4.918
10659SOL     OW32875   0.612   5.350   1.313
10659SOL    HW132876   0.578   5.329   1.221
10659SOL    HW232877   0.678   5.425   1.307
10660SOL     OW32878   5.130   4.166   6.381
10660SOL    HW132879   5.083   4.236   6.435
10660SOL    HW232880   5.067   4.128   6.314
10661SOL     OW32881   1.067   6.730   1.746
10661SOL    HW132882   1.091   6.739   1.649
10661SOL    HW232883   1.150   6.717   1.800
10662SOL     OW32884   5.468   6.448   3.151
10662SOL    HW132885   5.377   6.417   3.123
10662SOL    HW232886   5.485   6.538   3.113
10663SOL     OW32887   0.413   2.026   2.447
10663SOL    HW132888   0.434   2.123   2.435
10663SOL    HW232889   0.366   2.013   2.535
10664SOL     OW32890   6.585   4.331   4.966
10664SOL    HW132891   6.533   4.302   4.885
10664SOL    HW232892   6.672   4.282   4.969
10665SOL     OW32893   1.059   1.831   0.874
10665SOL    HW132894   1.004   1.907   0.839
10665SOL    HW232895   1.032   1.811   0.968
10666SOL     OW32896   3.452   4.171   1.647
10666SOL    HW132897   3.531   4.225   1.673
10666SOL    HW232898   3.462   4.078   1.682
10667SOL     OW32899   4.526   3.231   5.740
10667SOL    HW132900   4.605   3.188   5.695
10667SOL    HW232901   4.521   3.327   5.712
10668SOL     OW32902   2.642   0.404   4.960
10668SOL    HW132903   2.552   0.404   5.004
10668SOL    HW232904   2.662   0.313   4.925
10669SOL     OW32905   5.311   6.918   1.019
10669SOL    HW132906   5.239   6.853   1.046
10669SOL    HW232907   5.395   6.868   1.000
10670SOL     OW32908   5.541   4.275   5.089
10670SOL    HW132909   5.595   4.302   5.169
10670SOL    HW232910   5.497   4.187   5.107
10671SOL     OW32911   2.654   2.409   3.163
10671SOL    HW132912   2.606   2.332   3.204
10671SOL    HW232913   2.677   2.387   3.068
10672SOL     OW32914   6.644   3.036   0.827
10672SOL    HW132915   6.646   2.952   0.881
10672SOL    HW232916   6.662   3.015   0.731
10673SOL     OW32917   1.194   1.229   6.344
10673SOL    HW132918   1.260   1.163   6.378
10673SOL    HW232919   1.129   1.252   6.416
10674SOL     OW32920   3.898   4.002   2.225
10674SOL    HW132921   3.860   3.923   2.178
10674SOL    HW232922   3.941   4.063   2.158
10675SOL     OW32923   1.812   0.149   6.651
10675SOL    HW132924   1.903   0.174   6.685
10675SOL    HW232925   1.792   0.202   6.569
10676SOL     OW32926   6.654   6.383   6.026
10676SOL    HW132927   6.678   6.287   6.042
10676SOL    HW232928   6.711   6.442   6.083
10677SOL     OW32929   1.397   0.553   2.460
10677SOL    HW132930   1.465   0.482   2.480
10677SOL    HW232931   1.312   0.532   2.508
10678SOL     OW32932   3.734   5.910   4.154
10678SOL    HW132933   3.645   5.942   4.124
10678SOL    HW232934   3.752   5.943   4.247
10679SOL     OW32935   4.497   5.727   6.057
10679SOL    HW132936   4.572   5.673   6.019
10679SOL    HW232937   4.516   5.749   6.153
10680SOL     OW32938   3.179   1.721   2.918
10680SOL    HW132939   3.266   1.753   2.956
10680SOL    HW232940   3.159   1.770   2.833
10681SOL     OW32941   0.441   3.267   0.411
10681SOL    HW132942   0.380   3.347   0.408
10681SOL    HW232943   0.512   3.283   0.480
10682SOL     OW32944   1.316   1.137   4.874
10682SOL    HW132945   1.293   1.155   4.969
10682SOL    HW232946   1.234   1.108   4.824
10683SOL     OW32947   3.601   1.663   3.495
10683SOL    HW132948   3.549   1.610   3.562
10683SOL    HW232949   3.539   1.697   3.424
10684SOL     OW32950   5.559   4.108   1.266
10684SOL    HW132951   5.615   4.140   1.343
10684SOL    HW232952   5.560   4.008   1.264
10685SOL     OW32953   0.543   5.516   2.400
10685SOL    HW132954   0.607   5.439   2.391
10685SOL    HW232955   0.566   5.570   2.481
10686SOL     OW32956   1.042   4.815   6.084
10686SOL    HW132957   1.012   4.727   6.048
10686SOL    HW232958   1.091   4.801   6.170
10687SOL     OW32959   6.693   5.131   1.526
10687SOL    HW132960   6.666   5.200   1.458
10687SOL    HW232961   6.637   5.049   1.513
10688SOL     OW32962   6.528   4.200   2.770
10688SOL    HW132963   6.432   4.200   2.798
10688SOL    HW232964   6.582   4.149   2.837
10689SOL     OW32965   0.528   5.892   3.377
10689SOL    HW132966   0.538   5.973   3.435
10689SOL    HW232967   0.617   5.851   3.361
10690SOL     OW32968   0.404   6.273   3.309
10690SOL    HW132969   0.396   6.335   3.387
10690SOL    HW232970   0.322   6.215   3.304
10691SOL     OW32971   0.705   2.384   2.432
10691SOL    HW132972   0.689   2.309   2.496
10691SOL    HW232973   0.804   2.399   2.423
10692SOL     OW32974   2.922   5.867   3.011
10692SOL    HW132975   3.010   5.895   3.049
10692SOL    HW232976   2.872   5.949   2.980
10693SOL     OW32977   2.524   7.021   7.009
10693SOL    HW132978   2.482   0.047   6.934
10693SOL    HW232979   2.454   6.973   0.038
10694SOL     OW32980   5.278   6.230   1.638
10694SOL    HW132981   5.222   6.190   1.710
10694SOL    HW232982   5.305   6.322   1.663
10695SOL     OW32983   5.369   1.830   3.100
10695SOL    HW132984   5.450   1.829   3.159
10695SOL    HW232985   5.373   1.908   3.038
10696SOL     OW32986   6.786   3.773   3.739
10696SOL    HW132987   6.689   3.788   3.755
10696SOL    HW232988   6.826   3.726   3.818
10697SOL     OW32989   0.107   6.236   4.398
10697SOL    HW132990   0.133   6.317   4.345
10697SOL    HW232991   0.009   6.219   4.387
10698SOL     OW32992   4.372   5.707   5.131
10698SOL    HW132993   4.459   5.741   5.095
10698SOL    HW232994   4.354   5.749   5.220
10699SOL     OW32995   4.179   3.388   2.041
10699SOL    HW132996   4.083   3.395   2.012
10699SOL    HW232997   4.208   3.475   2.081
10700SOL     OW32998   6.918   6.852   1.760
10700SOL    HW132999   7.010   6.882   1.734
10700SOL    HW233000   6.850   6.908   1.713
10701SOL     OW33001   3.240   6.117   6.905
10701SOL    HW133002   3.219   6.130   6.808
10701SOL    HW233003   3.338   6.104   6.917
10702SOL     OW33004   5.574   3.116   2.327
10702SOL    HW133005   5.519   3.046   2.372
10702SOL    HW233006   5.636   3.157   2.393
10703SOL     OW33007   3.356   4.127   4.980
10703SOL    HW133008   3.293   4.104   5.053
10703SOL    HW233009   3.433   4.179   5.017
10704SOL     OW33010   6.514   5.398   1.875
10704SOL    HW133011   6.573   5.317   1.881
10704SOL    HW233012   6.418   5.370   1.875
10705SOL     OW33013   6.287   4.848   1.842
10705SOL    HW133014   6.287   4.749   1.855
10705SOL    HW233015   6.380   4.883   1.849
10706SOL     OW33016   4.842   6.744   2.534
10706SOL    HW133017   4.896   6.736   2.618
10706SOL    HW233018   4.882   6.815   2.475
10707SOL     OW33019   0.385   6.237   3.724
10707SOL    HW133020   0.451   6.238   3.799
10707SOL    HW233021   0.296   6.207   3.758
10708SOL     OW33022   4.181   0.884   2.404
10708SOL    HW133023   4.141   0.975   2.404
10708SOL    HW233024   4.180   0.847   2.497
10709SOL     OW33025   6.196   6.565   5.063
10709SOL    HW133026   6.104   6.562   5.103
10709SOL    HW233027   6.206   6.651   5.011
10710SOL     OW33028   0.345   6.752   5.201
10710SOL    HW133029   0.424   6.690   5.201
10710SOL    HW233030   0.366   6.833   5.256
10711SOL     OW33031   1.735   6.000   3.935
10711SOL    HW133032   1.698   6.073   3.992
10711SOL    HW233033   1.670   5.977   3.863
10712SOL     OW33034   2.740   1.189   1.510
10712SOL    HW133035   2.666   1.180   1.577
10712SOL    HW233036   2.767   1.285   1.502
10713SOL     OW33037   1.303   4.377   1.677
10713SOL    HW133038   1.219   4.364   1.729
10713SOL    HW233039   1.335   4.288   1.644
10714SOL     OW33040   5.976   3.853   4.838
10714SOL    HW133041   6.025   3.893   4.916
10714SOL    HW233042   6.022   3.770   4.808
10715SOL     OW33043   4.439   7.014   3.239
10715SOL    HW133044   4.533   6.999   3.268
10715SOL    HW233045   4.377   6.962   3.298
10716SOL     OW33046   5.672   2.520   4.803
10716SOL    HW133047   5.703   2.508   4.708
10716SOL    HW233048   5.746   2.495   4.866
10717SOL     OW33049   1.010   2.734   1.155
10717SOL    HW133050   1.021   2.666   1.082
10717SOL    HW233051   1.096   2.784   1.166
10718SOL     OW33052   1.459   2.980   6.463
10718SOL    HW133053   1.431   3.055   6.404
10718SOL    HW233054   1.558   2.983   6.476
10719SOL     OW33055   4.951   5.571   0.461
10719SOL    HW133056   4.932   5.593   0.556
10719SOL    HW233057   4.958   5.655   0.408
10720SOL     OW33058   6.612   3.423   5.254
10720SOL    HW133059   6.632   3.423   5.156
10720SOL    HW233060   6.517   3.451   5.269
10721SOL     OW33061   5.993   4.289   5.357
10721SOL    HW133062   5.952   4.275   5.447
10721SOL    HW233063   5.999   4.387   5.338
10722SOL     OW33064   0.277   3.500   0.408
10722SOL    HW133065   0.234   3.492   0.318
10722SOL    HW233066   0.208   3.530   0.475
10723SOL     OW33067   0.691   3.836   5.903
10723SOL    HW133068   0.691   3.768   5.829
10723SOL    HW233069   0.786   3.854   5.930
10724SOL     OW33070   4.253   1.131   0.041
10724SOL    HW133071   4.329   1.071   0.069
10724SOL    HW233072   4.271   1.165   6.972
10725SOL     OW33073   0.133   4.847   4.278
10725SOL    HW133074   0.178   4.832   4.366
10725SOL    HW233075   0.159   4.936   4.241
10726SOL     OW33076   5.440   6.824   6.152
10726SOL    HW133077   5.384   6.907   6.157
10726SOL    HW233078   5.410   6.768   6.074
10727SOL     OW33079   0.475   5.289   4.194
10727SOL    HW133080   0.559   5.236   4.208
10727SOL    HW233081   0.444   5.327   4.281
10728SOL     OW33082   6.081   6.198   1.089
10728SOL    HW133083   6.021   6.262   1.040
10728SOL    HW233084   6.084   6.223   1.185
10729SOL     OW33085   5.757   0.956   2.555
10729SOL    HW133086   5.765   0.898   2.474
10729SOL    HW233087   5.765   1.052   2.528
10730SOL     OW33088   2.308   0.492   1.598
10730SOL    HW133089   2.322   0.411   1.542
10730SOL    HW233090   2.269   0.565   1.543
10731SOL     OW33091   2.789   5.458   0.177
10731SOL    HW133092   2.845   5.491   0.101
10731SOL    HW233093   2.849   5.435   0.255
10732SOL     OW33094   4.802   5.427   2.271
10732SOL    HW133095   4.899   5.424   2.247
10732SOL    HW233096   4.764   5.515   2.245
10733SOL     OW33097   5.061   1.947   6.688
10733SOL    HW133098   5.141   1.928   6.631
10733SOL    HW233099   5.078   2.028   6.744
10734SOL     OW33100   1.124   0.371   0.125
10734SOL    HW133101   1.039   0.380   0.176
10734SOL    HW233102   1.146   0.274   0.112
10735SOL     OW33103   1.460   4.743   2.898
10735SOL    HW133104   1.540   4.802   2.909
10735SOL    HW233105   1.456   4.679   2.975
10736SOL     OW33106   0.464   0.568   3.512
10736SOL    HW133107   0.526   0.645   3.527
10736SOL    HW233108   0.371   0.602   3.502
10737SOL     OW33109   1.427   1.650   0.641
10737SOL    HW133110   1.490   1.694   0.577
10737SOL    HW233111   1.410   1.711   0.719
10738SOL     OW33112   2.393   0.713   2.920
10738SOL    HW133113   2.357   0.626   2.885
10738SOL    HW233114   2.364   0.726   3.014
10739SOL     OW33115   0.088   1.519   1.510
10739SOL    HW133116   0.172   1.548   1.463
10739SOL    HW233117   0.094   1.422   1.532
10740SOL     OW33118   1.341   4.629   5.347
10740SOL    HW133119   1.359   4.567   5.424
10740SOL    HW233120   1.394   4.713   5.360
10741SOL     OW33121   0.243   0.706   3.187
10741SOL    HW133122   0.328   0.657   3.168
10741SOL    HW233123   0.204   0.740   3.102
10742SOL     OW33124   5.990   0.414   1.379
10742SOL    HW133125   5.949   0.498   1.344
10742SOL    HW233126   6.081   0.403   1.338
10743SOL     OW33127   2.483   1.611   4.437
10743SOL    HW133128   2.438   1.523   4.418
10743SOL    HW233129   2.418   1.685   4.420
10744SOL     OW33130   2.986   1.111   2.285
10744SOL    HW133131   2.929   1.181   2.327
10744SOL    HW233132   3.013   1.140   2.194
10745SOL     OW33133   1.154   4.712   1.110
10745SOL    HW133134   1.186   4.740   1.020
10745SOL    HW233135   1.228   4.668   1.160
10746SOL     OW33136   1.685   3.614   1.565
10746SOL    HW133137   1.694   3.518   1.592
10746SOL    HW233138   1.776   3.655   1.555
10747SOL     OW33139   4.353   0.895   3.056
10747SOL    HW133140   4.425   0.848   3.005
10747SOL    HW233141   4.335   0.844   3.141
10748SOL     OW33142   3.344   0.655   1.188
10748SOL    HW133143   3.365   0.573   1.242
10748SOL    HW233144   3.425   0.679   1.133
10749SOL     OW33145   0.136   4.784   3.912
10749SOL    HW133146   0.105   4.746   3.999
10749SOL    HW233147   0.086   4.868   3.892
10750SOL     OW33148   4.047   6.020   4.680
10750SOL    HW133149   3.966   6.077   4.665
10750SOL    HW233150   4.050   5.949   4.609
10751SOL     OW33151   0.761   3.994   4.912
10751SOL    HW133152   0.754   4.083   4.866
10751SOL    HW233153   0.842   3.945   4.878
10752SOL     OW33154   6.522   3.961   6.237
10752SOL    HW133155   6.472   3.907   6.171
10752SOL    HW233156   6.483   4.053   6.241
10753SOL     OW33157   5.155   0.539   4.319
10753SOL    HW133158   5.170   0.631   4.284
10753SOL    HW233159   5.240   0.487   4.313
10754SOL     OW33160   1.511   1.965   3.768
10754SOL    HW133161   1.420   1.926   3.758
10754SOL    HW233162   1.561   1.958   3.682
10755SOL     OW33163   0.556   2.315   0.484
10755SOL    HW133164   0.473   2.259   0.489
10755SOL    HW233165   0.633   2.258   0.454
10756SOL     OW33166   6.649   4.776   6.730
10756SOL    HW133167   6.662   4.863   6.779
10756SOL    HW233168   6.551   4.758   6.721
10757SOL     OW33169   1.069   3.113   0.385
10757SOL    HW133170   1.142   3.131   0.452
10757SOL    HW233171   1.110   3.081   0.300
10758SOL     OW33172   1.105   6.815   5.301
10758SOL    HW133173   1.094   6.758   5.382
10758SOL    HW233174   1.161   6.767   5.234
10759SOL     OW33175   1.654   3.116   6.902
10759SOL    HW133176   1.577   3.145   6.959
10759SOL    HW233177   1.703   3.197   6.869
10760SOL     OW33178   6.693   1.261   0.439
10760SOL    HW133179   6.676   1.302   0.350
10760SOL    HW233180   6.654   1.169   0.441
10761SOL     OW33181   1.146   2.031   6.185
10761SOL    HW133182   1.110   2.053   6.094
10761SOL    HW233183   1.142   1.932   6.199
10762SOL     OW33184   3.867   1.694   5.020
10762SOL    HW133185   3.959   1.720   5.047
10762SOL    HW233186   3.837   1.750   4.942
10763SOL     OW33187   4.653   6.403   1.219
10763SOL    HW133188   4.590   6.372   1.148
10763SOL    HW233189   4.687   6.324   1.270
10764SOL     OW33190   6.048   1.831   5.258
10764SOL    HW133191   6.002   1.756   5.211
10764SOL    HW233192   5.982   1.886   5.308
10765SOL     OW33193   5.722   3.000   1.189
10765SOL    HW133194   5.732   3.029   1.284
10765SOL    HW233195   5.625   2.990   1.168
10766SOL     OW33196   3.461   3.258   0.961
10766SOL    HW133197   3.496   3.333   1.016
10766SOL    HW233198   3.531   3.230   0.895
10767SOL     OW33199   1.492   0.489   6.835
10767SOL    HW133200   1.421   0.495   6.905
10767SOL    HW233201   1.456   0.522   6.748
10768SOL     OW33202   4.139   5.358   1.133
10768SOL    HW133203   4.054   5.312   1.105
10768SOL    HW233204   4.121   5.415   1.213
10769SOL     OW33205   2.097   5.184   4.992
10769SOL    HW133206   2.154   5.114   5.033
10769SOL    HW233207   2.067   5.154   4.901
10770SOL     OW33208   5.974   0.431   4.812
10770SOL    HW133209   6.023   0.370   4.875
10770SOL    HW233210   5.897   0.382   4.773
10771SOL     OW33211   4.997   1.346   4.695
10771SOL    HW133212   5.069   1.411   4.722
10771SOL    HW233213   5.035   1.278   4.633
10772SOL     OW33214   6.465   6.416   4.686
10772SOL    HW133215   6.414   6.499   4.710
10772SOL    HW233216   6.538   6.401   4.753
10773SOL     OW33217   6.327   5.546   6.479
10773SOL    HW133218   6.246   5.562   6.536
10773SOL    HW233219   6.397   5.614   6.499
10774SOL     OW33220   1.544   1.590   6.887
10774SOL    HW133221   1.528   1.689   6.889
10774SOL    HW233222   1.501   1.552   6.805
10775SOL     OW33223   0.334   2.891   0.843
10775SOL    HW133224   0.404   2.829   0.878
10775SOL    HW233225   0.343   2.898   0.744
10776SOL     OW33226   1.537   6.352   6.898
10776SOL    HW133227   1.499   6.292   6.829
10776SOL    HW233228   1.632   6.374   6.875
10777SOL     OW33229   4.162   6.405   4.332
10777SOL    HW133230   4.088   6.339   4.342
10777SOL    HW233231   4.124   6.497   4.328
10778SOL     OW33232   5.729   6.142   5.167
10778SOL    HW133233   5.779   6.064   5.130
10778SOL    HW233234   5.631   6.121   5.169
10779SOL     OW33235   6.442   4.830   3.507
10779SOL    HW133236   6.487   4.822   3.595
10779SOL    HW233237   6.472   4.756   3.447
10780SOL     OW33238   1.325   0.320   3.782
10780SOL    HW133239   1.318   0.341   3.880
10780SOL    HW233240   1.257   0.251   3.758
10781SOL     OW33241   3.936   1.756   2.908
10781SOL    HW133242   3.851   1.768   2.960
10781SOL    HW233243   4.013   1.784   2.964
10782SOL     OW33244   7.016   1.445   3.636
10782SOL    HW133245   6.983   1.352   3.622
10782SOL    HW233246   0.043   1.475   3.555
10783SOL     OW33247   0.863   3.495   3.452
10783SOL    HW133248   0.946   3.547   3.432
10783SOL    HW233249   0.784   3.541   3.411
10784SOL     OW33250   2.967   0.278   3.048
10784SOL    HW133251   2.947   0.185   3.080
10784SOL    HW233252   2.952   0.283   2.949
10785SOL     OW33253   0.691   4.891   0.897
10785SOL    HW133254   0.731   4.964   0.841
10785SOL    HW233255   0.639   4.932   0.972
10786SOL     OW33256   4.828   4.575   2.475
10786SOL    HW133257   4.809   4.672   2.488
10786SOL    HW233258   4.857   4.559   2.381
10787SOL     OW33259   3.376   1.459   4.135
10787SOL    HW133260   3.326   1.444   4.220
10787SOL    HW233261   3.367   1.555   4.107
10788SOL     OW33262   2.489   4.515   6.363
10788SOL    HW133263   2.536   4.595   6.399
10788SOL    HW233264   2.481   4.446   6.435
10789SOL     OW33265   5.998   2.738   0.357
10789SOL    HW133266   5.914   2.715   0.308
10789SOL    HW233267   5.991   2.831   0.393
10790SOL     OW33268   1.706   0.504   2.976
10790SOL    HW133269   1.771   0.497   2.901
10790SOL    HW233270   1.613   0.502   2.940
10791SOL     OW33271   0.136   0.398   1.090
10791SOL    HW133272   0.225   0.353   1.098
10791SOL    HW233273   0.100   0.384   0.998
10792SOL     OW33274   3.870   3.784   2.074
10792SOL    HW133275   3.968   3.772   2.085
10792SOL    HW233276   3.849   3.797   1.977
10793SOL     OW33277   5.510   2.457   4.427
10793SOL    HW133278   5.465   2.382   4.475
10793SOL    HW233279   5.579   2.420   4.364
10794SOL     OW33280   2.965   3.817   3.475
10794SOL    HW133281   2.941   3.731   3.521
10794SOL    HW233282   3.027   3.870   3.533
10795SOL     OW33283   6.851   3.512   3.378
10795SOL    HW133284   6.865   3.494   3.475
10795SOL    HW233285   6.763   3.557   3.364
10796SOL     OW33286   5.064   6.612   0.250
10796SOL    HW133287   5.049   6.700   0.296
10796SOL    HW233288   4.997   6.546   0.284
10797SOL     OW33289   3.546   2.070   1.127
10797SOL    HW133290   3.584   2.114   1.046
10797SOL    HW233291   3.447   2.086   1.130
10798SOL     OW33292   2.478   6.557   0.951
10798SOL    HW133293   2.523   6.624   0.892
10798SOL    HW233294   2.494   6.465   0.916
10799SOL     OW33295   3.654   0.741   2.261
10799SOL    HW133296   3.655   0.828   2.311
10799SOL    HW233297   3.696   0.754   2.171
10800SOL     OW33298   0.618   0.203   0.305
10800SOL    HW133299   0.611   0.301   0.325
10800SOL    HW233300   0.709   0.183   0.269
10801SOL     OW33301   0.801   6.639   5.468
10801SOL    HW133302   0.869   6.632   5.394
10801SOL    HW233303   0.843   6.610   5.554
10802SOL     OW33304   1.442   2.850   3.305
10802SOL    HW133305   1.519   2.887   3.358
10802SOL    HW233306   1.393   2.926   3.261
10803SOL     OW33307   3.934   4.280   5.572
10803SOL    HW133308   3.969   4.224   5.497
10803SOL    HW233309   3.937   4.227   5.657
10804SOL     OW33310   5.740   3.545   1.972
10804SOL    HW133311   5.802   3.474   1.940
10804SOL    HW233312   5.665   3.557   1.907
10805SOL     OW33313   4.061   0.125   6.799
10805SOL    HW133314   4.076   0.032   6.766
10805SOL    HW233315   4.021   0.180   6.725
10806SOL     OW33316   4.616   4.260   6.112
10806SOL    HW133317   4.609   4.305   6.201
10806SOL    HW233318   4.702   4.286   6.068
10807SOL     OW33319   1.251   6.511   3.393
10807SOL    HW133320   1.226   6.420   3.359
10807SOL    HW233321   1.239   6.578   3.320
10808SOL     OW33322   6.610   3.767   6.425
10808SOL    HW133323   6.668   3.825   6.482
10808SOL    HW233324   6.549   3.825   6.371
10809SOL     OW33325   3.223   5.753   3.562
10809SOL    HW133326   3.304   5.731   3.616
10809SOL    HW233327   3.224   5.849   3.536
10810SOL     OW33328   2.177   0.269   4.945
10810SOL    HW133329   2.103   0.209   4.972
10810SOL    HW233330   2.141   0.361   4.927
10811SOL     OW33331   4.169   4.743   5.746
10811SOL    HW133332   4.086   4.742   5.802
10811SOL    HW233333   4.187   4.837   5.716
10812SOL     OW33334   1.063   3.486   1.719
10812SOL    HW133335   1.147   3.512   1.672
10812SOL    HW233336   1.055   3.538   1.804
10813SOL     OW33337   1.861   5.445   0.110
10813SOL    HW133338   1.860   5.513   0.183
10813SOL    HW233339   1.955   5.426   0.083
10814SOL     OW33340   1.425   6.482   6.564
10814SOL    HW133341   1.487   6.531   6.625
10814SOL    HW233342   1.471   6.464   6.477
10815SOL     OW33343   4.657   4.351   3.194
10815SOL    HW133344   4.684   4.268   3.145
10815SOL    HW233345   4.681   4.342   3.290
10816SOL     OW33346   1.783   2.259   1.331
10816SOL    HW133347   1.877   2.257   1.365
10816SOL    HW233348   1.753   2.166   1.311
10817SOL     OW33349   5.465   6.562   2.715
10817SOL    HW133350   5.542   6.566   2.779
10817SOL    HW233351   5.424   6.471   2.717
10818SOL     OW33352   4.454   4.544   5.440
10818SOL    HW133353   4.482   4.470   5.378
10818SOL    HW233354   4.473   4.518   5.534
10819SOL     OW33355   6.774   4.514   0.100
10819SOL    HW133356   6.794   4.419   0.074
10819SOL    HW233357   6.787   4.574   0.021
10820SOL     OW33358   5.983   5.617   3.922
10820SOL    HW133359   5.972   5.584   3.828
10820SOL    HW233360   6.081   5.622   3.944
10821SOL     OW33361   5.777   6.269   2.140
10821SOL    HW133362   5.870   6.267   2.177
10821SOL    HW233363   5.727   6.189   2.174
10822SOL     OW33364   1.165   2.981   3.236
10822SOL    HW133365   1.080   2.987   3.289
10822SOL    HW233366   1.147   3.006   3.141
10823SOL     OW33367   1.768   5.345   1.639
10823SOL    HW133368   1.692   5.310   1.695
10823SOL    HW233369   1.814   5.419   1.689
10824SOL     OW33370   5.762   0.809   3.771
10824SOL    HW133371   5.791   0.724   3.726
10824SOL    HW233372   5.743   0.879   3.702
10825SOL     OW33373   3.232   0.051   6.293
10825SOL    HW133374   3.264   0.145   6.277
10825SOL    HW233375   3.182   0.018   6.213
10826SOL     OW33376   0.214   3.498   3.466
10826SOL    HW133377   0.173   3.559   3.398
10826SOL    HW233378   0.304   3.532   3.492
10827SOL     OW33379   6.045   4.219   4.477
10827SOL    HW133380   6.044   4.267   4.389
10827SOL    HW233381   6.067   4.123   4.462
10828SOL     OW33382   0.817   5.079   1.839
10828SOL    HW133383   0.895   5.027   1.875
10828SOL    HW233384   0.732   5.033   1.864
10829SOL     OW33385   3.620   2.470   0.940
10829SOL    HW133386   3.584   2.461   1.033
10829SOL    HW233387   3.575   2.547   0.894
10830SOL     OW33388   5.294   1.688   3.931
10830SOL    HW133389   5.267   1.598   3.895
10830SOL    HW233390   5.381   1.679   3.980
10831SOL     OW33391   3.818   6.098   2.164
10831SOL    HW133392   3.766   6.166   2.112
10831SOL    HW233393   3.849   6.140   2.250
10832SOL     OW33394   0.899   2.477   0.660
10832SOL    HW133395   0.822   2.434   0.614
10832SOL    HW233396   0.919   2.428   0.745
10833SOL     OW33397   1.268   1.322   2.209
10833SOL    HW133398   1.351   1.284   2.167
10833SOL    HW233399   1.188   1.291   2.158
10834SOL     OW33400   1.385   2.150   6.591
10834SOL    HW133401   1.300   2.128   6.640
10834SOL    HW233402   1.440   2.213   6.646
10835SOL     OW33403   6.552   2.421   0.138
10835SOL    HW133404   6.611   2.381   0.067
10835SOL    HW233405   6.523   2.512   0.110
10836SOL     OW33406   6.960   1.829   4.632
10836SOL    HW133407   6.926   1.908   4.683
10836SOL    HW233408   6.946   1.746   4.686
10837SOL     OW33409   6.955   4.760   0.389
10837SOL    HW133410   6.888   4.824   0.427
10837SOL    HW233411   6.938   4.669   0.425
10838SOL     OW33412   5.894   6.364   4.811
10838SOL    HW133413   5.854   6.341   4.722
10838SOL    HW233414   5.988   6.332   4.815
10839SOL     OW33415   3.745   2.817   0.813
10839SOL    HW133416   3.771   2.886   0.880
10839SOL    HW233417   3.825   2.791   0.759
10840SOL     OW33418   3.918   5.688   2.162
10840SOL    HW133419   3.840   5.736   2.120
10840SOL    HW233420   3.983   5.661   2.090
10841SOL     OW33421   4.635   6.052   0.265
10841SOL    HW133422   4.706   6.005   0.318
10841SOL    HW233423   4.554   5.993   0.258
10842SOL     OW33424   5.063   2.770   1.348
10842SOL    HW133425   5.008   2.836   1.297
10842SOL    HW233426   5.108   2.707   1.284
10843SOL     OW33427   0.723   2.321   1.431
10843SOL    HW133428   0.654   2.248   1.429
10843SOL    HW233429   0.708   2.378   1.512
10844SOL     OW33430   0.357   6.941   4.004
10844SOL    HW133431   0.289   6.873   4.033
10844SOL    HW233432   0.369   7.008   4.076
10845SOL     OW33433   3.105   0.484   5.922
10845SOL    HW133434   3.056   0.570   5.911
10845SOL    HW233435   3.200   0.496   5.893
10846SOL     OW33436   4.364   2.848   1.169
10846SOL    HW133437   4.269   2.827   1.194
10846SOL    HW233438   4.425   2.781   1.210
10847SOL     OW33439   3.623   3.574   6.430
10847SOL    HW133440   3.627   3.489   6.377
10847SOL    HW233441   3.698   3.634   6.402
10848SOL     OW33442   2.581   2.460   0.110
10848SOL    HW133443   2.659   2.521   0.123
10848SOL    HW233444   2.567   2.443   0.013
10849SOL     OW33445   2.619   5.102   2.975
10849SOL    HW133446   2.618   5.098   3.075
10849SOL    HW233447   2.682   5.032   2.941
10850SOL     OW33448   3.619   5.697   0.266
10850SOL    HW133449   3.571   5.729   0.184
10850SOL    HW233450   3.553   5.658   0.330
10851SOL     OW33451   2.697   3.022   6.494
10851SOL    HW133452   2.687   3.094   6.426
10851SOL    HW233453   2.690   2.933   6.449
10852SOL     OW33454   0.835   6.682   6.981
10852SOL    HW133455   0.920   6.699   6.931
10852SOL    HW233456   0.811   6.764   0.011
10853SOL     OW33457   3.509   2.327   5.821
10853SOL    HW133458   3.551   2.241   5.851
10853SOL    HW233459   3.430   2.308   5.763
10854SOL     OW33460   5.268   0.456   5.385
10854SOL    HW133461   5.324   0.530   5.423
10854SOL    HW233462   5.325   0.398   5.327
10855SOL     OW33463   2.837   6.509   1.720
10855SOL    HW133464   2.805   6.471   1.806
10855SOL    HW233465   2.936   6.495   1.712
10856SOL     OW33466   5.844   1.922   2.125
10856SOL    HW133467   5.843   2.006   2.070
10856SOL    HW233468   5.762   1.868   2.106
10857SOL     OW33469   5.929   2.426   3.169
10857SOL    HW133470   5.932   2.333   3.206
10857SOL    HW233471   5.903   2.423   3.073
10858SOL     OW33472   0.555   2.254   6.695
10858SOL    HW133473   0.588   2.348   6.690
10858SOL    HW233474   0.477   2.249   6.758
10859SOL     OW33475   2.161   3.420   3.975
10859SOL    HW133476   2.176   3.323   3.953
10859SOL    HW233477   2.202   3.477   3.904
10860SOL     OW33478   6.359   1.010   5.859
10860SOL    HW133479   6.354   1.108   5.840
10860SOL    HW233480   6.445   0.990   5.906
10861SOL     OW33481   3.983   3.075   3.130
10861SOL    HW133482   3.964   3.036   3.220
10861SOL    HW233483   4.051   3.148   3.139
10862SOL     OW33484   2.528   1.578   6.180
10862SOL    HW133485   2.538   1.672   6.213
10862SOL    HW233486   2.438   1.543   6.205
10863SOL     OW33487   3.791   0.504   2.954
10863SOL    HW133488   3.749   0.543   2.872
10863SOL    HW233489   3.873   0.556   2.977
10864SOL     OW33490   3.437   5.391   0.459
10864SOL    HW133491   3.479   5.447   0.530
10864SOL    HW233492   3.408   5.303   0.499
10865SOL     OW33493   6.054   1.403   3.010
10865SOL    HW133494   6.144   1.406   2.966
10865SOL    HW233495   6.029   1.495   3.042
10866SOL     OW33496   4.419   4.828   0.282
10866SOL    HW133497   4.377   4.878   0.206
10866SOL    HW233498   4.352   4.818   0.356
10867SOL     OW33499   3.039   3.934   0.550
10867SOL    HW133500   3.020   3.941   0.452
10867SOL    HW233501   2.958   3.902   0.598
10868SOL     OW33502   2.644   2.148   3.685
10868SOL    HW133503   2.552   2.180   3.661
10868SOL    HW233504   2.699   2.143   3.602
10869NA      NA33505   0.468   2.473   6.247
10870NA      NA33506   4.272   4.669   5.291
10871NA      NA33507   2.077   4.153   2.181
10872NA      NA33508   5.054   4.157   3.614
10873NA      NA33509   4.295   2.268   5.093
10874NA      NA33510   3.062   4.408   1.524
10875NA      NA33511   0.330   4.577   0.310
10876NA      NA33512   3.134   3.459   2.964
10877NA      NA33513   4.930   5.124   0.988
10878NA      NA33514   3.432   0.122   5.303
10879NA      NA33515   5.777   5.652   0.798
10880NA      NA33516   2.377   0.791   5.006
10881NA      NA33517   4.085   5.035   1.893
10882NA      NA33518   4.071   3.262   1.610
   7.02351   7.02351   7.02351
