Generated by trjconv : CNT in water t= 234.00000
33518
    1C        C    1   2.847   2.774   4.749
    1C        C    2   2.898   2.720   4.870
    1C        C    3   2.844   2.777   4.986
    1C        C    4   2.855   2.776   4.260
    1C        C    5   2.901   2.725   4.383
    1C        C    6   2.850   2.774   4.505
    1C        C    7   3.012   2.640   4.625
    1C        C    8   2.899   2.723   4.628
    1C        C    9   3.074   2.604   4.747
    1C        C   10   3.009   2.632   4.869
    1C        C   11   3.183   2.494   4.980
    1C        C   12   3.060   2.559   4.977
    1C        C   13   2.855   2.770   3.770
    1C        C   14   2.902   2.717   3.893
    1C        C   15   2.853   2.767   4.015
    1C        C   16   3.018   2.640   4.141
    1C        C   17   2.901   2.719   4.139
    1C        C   18   3.081   2.607   4.263
    1C        C   19   3.016   2.642   4.384
    1C        C   20   3.210   2.557   4.506
    1C        C   21   3.077   2.603   4.505
    1C        C   22   3.279   2.536   4.628
    1C        C   23   3.207   2.551   4.748
    1C        C   24   3.412   2.485   4.866
    1C        C   25   3.270   2.504   4.866
    1C        C   26   3.492   2.477   4.981
    1C        C   27   2.851   2.767   3.284
    1C        C   28   2.909   2.722   3.405
    1C        C   29   2.857   2.770   3.527
    1C        C   30   3.023   2.637   3.653
    1C        C   31   2.909   2.722   3.649
    1C        C   32   3.080   2.598   3.776
    1C        C   33   3.019   2.638   3.898
    1C        C   34   3.211   2.548   4.016
    1C        C   35   3.083   2.608   4.020
    1C        C   36   3.277   2.528   4.140
    1C        C   37   3.210   2.550   4.262
    1C        C   38   3.417   2.506   4.383
    1C        C   39   3.278   2.533   4.384
    1C        C   40   3.487   2.505   4.505
    1C        C   41   3.416   2.504   4.628
    1C        C   42   3.632   2.488   4.746
    1C        C   43   3.490   2.488   4.747
    1C        C   44   3.707   2.492   4.865
    1C        C   45   3.631   2.478   4.982
    1C        C   46   2.838   2.755   2.795
    1C        C   47   2.895   2.713   2.917
    1C        C   48   2.840   2.759   3.038
    1C        C   49   3.016   2.638   3.162
    1C        C   50   2.900   2.718   3.160
    1C        C   51   3.083   2.608   3.283
    1C        C   52   3.021   2.636   3.406
    1C        C   53   3.211   2.549   3.527
    1C        C   54   3.079   2.599   3.529
    1C        C   55   3.277   2.523   3.649
    1C        C   56   3.209   2.541   3.772
    1C        C   57   3.418   2.504   3.895
    1C        C   58   3.279   2.527   3.894
    1C        C   59   3.488   2.504   4.018
    1C        C   60   3.417   2.508   4.140
    1C        C   61   3.630   2.501   4.262
    1C        C   62   3.489   2.496   4.261
    1C        C   63   3.701   2.509   4.385
    1C        C   64   3.628   2.505   4.506
    1C        C   65   3.839   2.548   4.625
    1C        C   66   3.703   2.510   4.625
    1C        C   67   3.907   2.570   4.747
    1C        C   68   3.843   2.530   4.866
    1C        C   69   4.057   2.585   4.978
    1C        C   70   3.925   2.538   4.979
    1C        C   71   2.827   2.739   2.309
    1C        C   72   2.885   2.697   2.431
    1C        C   73   2.835   2.751   2.552
    1C        C   74   3.008   2.627   2.674
    1C        C   75   2.888   2.702   2.674
    1C        C   76   3.072   2.594   2.796
    1C        C   77   3.014   2.636   2.917
    1C        C   78   3.207   2.550   3.039
    1C        C   79   3.076   2.602   3.039
    1C        C   80   3.277   2.527   3.160
    1C        C   81   3.211   2.546   3.284
    1C        C   82   3.416   2.492   3.406
    1C        C   83   3.277   2.519   3.405
    1C        C   84   3.487   2.490   3.528
    1C        C   85   3.415   2.494   3.650
    1C        C   86   3.627   2.499   3.771
    1C        C   87   3.486   2.493   3.772
    1C        C   88   3.697   2.511   3.894
    1C        C   89   3.629   2.506   4.018
    1C        C   90   3.834   2.555   4.139
    1C        C   91   3.699   2.514   4.140
    1C        C   92   3.902   2.579   4.260
    1C        C   93   3.837   2.547   4.381
    1C        C   94   4.027   2.642   4.504
    1C        C   95   3.905   2.570   4.503
    1C        C   96   4.092   2.680   4.623
    1C        C   97   4.034   2.634   4.743
    1C        C   98   4.201   2.764   4.866
    1C        C   99   4.106   2.657   4.864
    1C        C  100   4.216   2.847   4.978
    1C        C  101   2.823   2.731   2.071
    1C        C  102   2.990   2.591   2.192
    1C        C  103   2.877   2.680   2.189
    1C        C  104   3.063   2.574   2.313
    1C        C  105   3.003   2.621   2.432
    1C        C  106   3.200   2.535   2.553
    1C        C  107   3.071   2.592   2.553
    1C        C  108   3.270   2.512   2.674
    1C        C  109   3.200   2.534   2.794
    1C        C  110   3.411   2.502   2.916
    1C        C  111   3.271   2.522   2.916
    1C        C  112   3.483   2.494   3.037
    1C        C  113   3.415   2.499   3.161
    1C        C  114   3.626   2.498   3.281
    1C        C  115   3.485   2.487   3.283
    1C        C  116   3.696   2.512   3.403
    1C        C  117   3.628   2.502   3.527
    1C        C  118   3.835   2.544   3.652
    1C        C  119   3.698   2.509   3.649
    1C        C  120   3.901   2.572   3.773
    1C        C  121   3.832   2.551   3.895
    1C        C  122   4.026   2.641   4.017
    1C        C  123   3.902   2.575   4.016
    1C        C  124   4.091   2.677   4.138
    1C        C  125   4.029   2.642   4.260
    1C        C  126   4.198   2.768   4.379
    1C        C  127   4.087   2.680   4.382
    1C        C  128   4.249   2.820   4.500
    1C        C  129   4.200   2.771   4.624
    1C        C  130   4.334   2.936   4.747
    1C        C  131   4.253   2.819   4.746
    1C        C  132   4.363   3.006   4.867
    1C        C  133   4.286   2.967   4.977
    1C        C  134   3.176   2.475   2.082
    1C        C  135   3.041   2.511   2.086
    1C        C  136   3.261   2.482   2.193
    1C        C  137   3.194   2.519   2.312
    1C        C  138   3.405   2.482   2.429
    1C        C  139   3.266   2.501   2.432
    1C        C  140   3.480   2.483   2.549
    1C        C  141   3.410   2.494   2.672
    1C        C  142   3.623   2.497   2.793
    1C        C  143   3.481   2.498   2.793
    1C        C  144   3.693   2.506   2.915
    1C        C  145   3.624   2.500   3.038
    1C        C  146   3.834   2.540   3.159
    1C        C  147   3.697   2.506   3.159
    1C        C  148   3.898   2.570   3.281
    1C        C  149   3.832   2.547   3.404
    1C        C  150   4.021   2.637   3.524
    1C        C  151   3.898   2.569   3.528
    1C        C  152   4.082   2.676   3.645
    1C        C  153   4.025   2.640   3.770
    1C        C  154   4.191   2.769   3.891
    1C        C  155   4.081   2.681   3.893
    1C        C  156   4.247   2.817   4.012
    1C        C  157   4.200   2.767   4.135
    1C        C  158   4.341   2.925   4.257
    1C        C  159   4.254   2.814   4.257
    1C        C  160   4.377   2.987   4.378
    1C        C  161   4.335   2.931   4.501
    1C        C  162   4.442   3.114   4.618
    1C        C  163   4.373   2.991   4.623
    1C        C  164   4.472   3.184   4.737
    1C        C  165   4.442   3.122   4.861
    1C        C  166   4.515   3.325   4.976
    1C        C  167   4.487   3.189   4.976
    1C        C  168   3.477   2.442   2.074
    1C        C  169   3.400   2.458   2.190
    1C        C  170   3.619   2.465   2.309
    1C        C  171   3.477   2.464   2.309
    1C        C  172   3.694   2.484   2.427
    1C        C  173   3.621   2.484   2.548
    1C        C  174   3.828   2.540   2.670
    1C        C  175   3.690   2.509   2.669
    1C        C  176   3.895   2.564   2.791
    1C        C  177   3.830   2.541   2.915
    1C        C  178   4.026   2.626   3.035
    1C        C  179   3.900   2.563   3.036
    1C        C  180   4.088   2.663   3.156
    1C        C  181   4.027   2.626   3.278
    1C        C  182   4.193   2.758   3.402
    1C        C  183   4.083   2.669   3.401
    1C        C  184   4.244   2.810   3.523
    1C        C  185   4.194   2.762   3.646
    1C        C  186   4.337   2.920   3.766
    1C        C  187   4.243   2.814   3.768
    1C        C  188   4.380   2.979   3.887
    1C        C  189   4.338   2.925   4.011
    1C        C  190   4.447   3.106   4.129
    1C        C  191   4.382   2.980   4.133
    1C        C  192   4.469   3.174   4.251
    1C        C  193   4.446   3.110   4.375
    1C        C  194   4.514   3.313   4.494
    1C        C  195   4.470   3.179   4.496
    1C        C  196   4.536   3.386   4.613
    1C        C  197   4.518   3.318   4.736
    1C        C  198   4.559   3.534   4.851
    1C        C  199   4.539   3.392   4.855
    1C        C  200   4.585   3.619   4.963
    1C        C  201   3.616   2.420   2.075
    1C        C  202   3.829   2.507   2.184
    1C        C  203   3.693   2.461   2.188
    1C        C  204   3.897   2.541   2.304
    1C        C  205   3.830   2.523   2.427
    1C        C  206   4.023   2.617   2.546
    1C        C  207   3.897   2.552   2.547
    1C        C  208   4.083   2.660   2.667
    1C        C  209   4.022   2.626   2.790
    1C        C  210   4.198   2.748   2.910
    1C        C  211   4.084   2.665   2.911
    1C        C  212   4.252   2.794   3.032
    1C        C  213   4.198   2.752   3.156
    1C        C  214   4.335   2.912   3.276
    1C        C  215   4.245   2.803   3.279
    1C        C  216   4.375   2.973   3.397
    1C        C  217   4.333   2.920   3.521
    1C        C  218   4.436   3.105   3.640
    1C        C  219   4.375   2.978   3.643
    1C        C  220   4.466   3.171   3.761
    1C        C  221   4.441   3.106   3.884
    1C        C  222   4.501   3.309   4.006
    1C        C  223   4.471   3.171   4.006
    1C        C  224   4.519   3.378   4.128
    1C        C  225   4.507   3.310   4.251
    1C        C  226   4.523   3.524   4.370
    1C        C  227   4.518   3.383   4.372
    1C        C  228   4.522   3.598   4.490
    1C        C  229   4.537   3.527   4.612
    1C        C  230   4.508   3.744   4.728
    1C        C  231   4.539   3.605   4.729
    1C        C  232   4.497   3.820   4.847
    1C        C  233   4.540   3.751   4.961
    1C        C  234   4.021   2.608   2.067
    1C        C  235   3.897   2.543   2.067
    1C        C  236   4.085   2.650   2.184
    1C        C  237   4.022   2.610   2.303
    1C        C  238   4.197   2.737   2.422
    1C        C  239   4.083   2.651   2.423
    1C        C  240   4.251   2.787   2.542
    1C        C  241   4.196   2.744   2.665
    1C        C  242   4.335   2.904   2.788
    1C        C  243   4.252   2.791   2.786
    1C        C  244   4.381   2.960   2.909
    1C        C  245   4.340   2.904   3.032
    1C        C  246   4.442   3.094   3.150
    1C        C  247   4.376   2.968   3.153
    1C        C  248   4.461   3.164   3.271
    1C        C  249   4.435   3.101   3.394
    1C        C  250   4.500   3.303   3.515
    1C        C  251   4.461   3.168   3.516
    1C        C  252   4.509   3.374   3.637
    1C        C  253   4.503   3.308   3.761
    1C        C  254   4.522   3.520   3.882
    1C        C  255   4.511   3.379   3.883
    1C        C  256   4.520   3.591   4.004
    1C        C  257   4.524   3.519   4.126
    1C        C  258   4.497   3.731   4.244
    1C        C  259   4.523   3.592   4.247
    1C        C  260   4.479   3.804   4.364
    1C        C  261   4.493   3.736   4.487
    1C        C  262   4.428   3.941   4.605
    1C        C  263   4.477   3.809   4.607
    1C        C  264   4.398   4.009   4.725
    1C        C  265   4.433   3.946   4.846
    1C        C  266   4.318   4.130   4.959
    1C        C  267   4.396   4.016   4.962
    1C        C  268   4.266   2.775   2.066
    1C        C  269   4.200   2.732   2.182
    1C        C  270   4.348   2.890   2.303
    1C        C  271   4.255   2.783   2.302
    1C        C  272   4.381   2.956   2.424
    1C        C  273   4.340   2.897   2.545
    1C        C  274   4.449   3.082   2.666
    1C        C  275   4.381   2.958   2.665
    1C        C  276   4.479   3.150   2.786
    1C        C  277   4.447   3.085   2.907
    1C        C  278   4.511   3.292   3.028
    1C        C  279   4.471   3.156   3.027
    1C        C  280   4.522   3.365   3.149
    1C        C  281   4.500   3.300   3.272
    1C        C  282   4.525   3.513   3.393
    1C        C  283   4.514   3.372   3.393
    1C        C  284   4.520   3.587   3.513
    1C        C  285   4.519   3.515   3.635
    1C        C  286   4.494   3.725   3.756
    1C        C  287   4.518   3.586   3.757
    1C        C  288   4.471   3.793   3.878
    1C        C  289   4.488   3.728   4.002
    1C        C  290   4.421   3.931   4.119
    1C        C  291   4.472   3.800   4.123
    1C        C  292   4.395   3.999   4.240
    1C        C  293   4.429   3.937   4.362
    1C        C  294   4.321   4.124   4.479
    1C        C  295   4.395   4.003   4.482
    1C        C  296   4.282   4.186   4.599
    1C        C  297   4.326   4.131   4.722
    1C        C  298   4.202   4.314   4.841
    1C        C  299   4.282   4.196   4.841
    1C        C  300   4.173   4.405   4.947
    1C        C  301   4.358   2.879   2.068
    1C        C  302   4.471   3.071   2.178
    1C        C  303   4.398   2.948   2.183
    1C        C  304   4.486   3.144   2.299
    1C        C  305   4.448   3.080   2.420
    1C        C  306   4.505   3.284   2.539
    1C        C  307   4.472   3.146   2.543
    1C        C  308   4.517   3.355   2.661
    1C        C  309   4.509   3.288   2.785
    1C        C  310   4.527   3.501   2.902
    1C        C  311   4.526   3.360   2.906
    1C        C  312   4.517   3.573   3.023
    1C        C  313   4.524   3.506   3.147
    1C        C  314   4.489   3.718   3.267
    1C        C  315   4.515   3.579   3.268
    1C        C  316   4.472   3.791   3.387
    1C        C  317   4.494   3.726   3.511
    1C        C  318   4.426   3.926   3.630
    1C        C  319   4.475   3.793   3.633
    1C        C  320   4.395   3.989   3.753
    1C        C  321   4.422   3.925   3.876
    1C        C  322   4.317   4.114   3.993
    1C        C  323   4.389   3.993   3.996
    1C        C  324   4.277   4.174   4.115
    1C        C  325   4.323   4.120   4.237
    1C        C  326   4.188   4.287   4.356
    1C        C  327   4.286   4.185   4.357
    1C        C  328   4.136   4.339   4.477
    1C        C  329   4.192   4.296   4.599
    1C        C  330   4.028   4.438   4.715
    1C        C  331   4.145   4.356   4.717
    1C        C  332   3.971   4.496   4.831
    1C        C  333   4.055   4.481   4.943
    1C        C  334   4.557   3.268   2.063
    1C        C  335   4.534   3.130   2.063
    1C        C  336   4.545   3.350   2.175
    1C        C  337   4.519   3.282   2.296
    1C        C  338   4.517   3.495   2.413
    1C        C  339   4.519   3.354   2.418
    1C        C  340   4.514   3.567   2.535
    1C        C  341   4.521   3.496   2.657
    1C        C  342   4.488   3.707   2.778
    1C        C  343   4.517   3.569   2.778
    1C        C  344   4.467   3.778   2.899
    1C        C  345   4.488   3.711   3.022
    1C        C  346   4.427   3.916   3.142
    1C        C  347   4.475   3.783   3.142
    1C        C  348   4.396   3.984   3.262
    1C        C  349   4.427   3.925   3.386
    1C        C  350   4.321   4.109   3.506
    1C        C  351   4.396   3.989   3.508
    1C        C  352   4.277   4.165   3.628
    1C        C  353   4.317   4.107   3.750
    1C        C  354   4.172   4.267   3.867
    1C        C  355   4.271   4.166   3.870
    1C        C  356   4.122   4.319   3.988
    1C        C  357   4.178   4.274   4.110
    1C        C  358   4.017   4.409   4.230
    1C        C  359   4.132   4.327   4.233
    1C        C  360   3.959   4.452   4.351
    1C        C  361   4.022   4.423   4.474
    1C        C  362   3.832   4.523   4.595
    1C        C  363   3.961   4.465   4.594
    1C        C  364   3.766   4.559   4.714
    1C        C  365   3.841   4.550   4.833
    1C        C  366   3.631   4.591   4.951
    1C        C  367   3.770   4.576   4.951
    1C        C  368   4.509   3.564   2.058
    1C        C  369   4.532   3.491   2.175
    1C        C  370   4.506   3.709   2.289
    1C        C  371   4.519   3.568   2.292
    1C        C  372   4.486   3.775   2.411
    1C        C  373   4.497   3.707   2.535
    1C        C  374   4.430   3.910   2.653
    1C        C  375   4.480   3.778   2.656
    1C        C  376   4.397   3.976   2.773
    1C        C  377   4.423   3.912   2.896
    1C        C  378   4.317   4.095   3.014
    1C        C  379   4.394   3.977   3.018
    1C        C  380   4.276   4.155   3.135
    1C        C  381   4.318   4.102   3.259
    1C        C  382   4.184   4.266   3.379
    1C        C  383   4.280   4.162   3.381
    1C        C  384   4.127   4.313   3.499
    1C        C  385   4.178   4.266   3.622
    1C        C  386   4.012   4.400   3.743
    1C        C  387   4.124   4.315   3.743
    1C        C  388   3.951   4.440   3.864
    1C        C  389   4.012   4.408   3.987
    1C        C  390   3.820   4.495   4.112
    1C        C  391   3.952   4.444   4.110
    1C        C  392   3.753   4.518   4.234
    1C        C  393   3.828   4.504   4.353
    1C        C  394   3.620   4.553   4.478
    1C        C  395   3.759   4.528   4.474
    1C        C  396   3.547   4.567   4.599
    1C        C  397   3.625   4.571   4.716
    1C        C  398   3.413   4.552   4.841
    1C        C  399   3.552   4.576   4.837
    1C        C  400   3.343   4.506   4.953
    1C        C  401   4.507   3.703   2.053
    1C        C  402   4.453   3.917   2.169
    1C        C  403   4.490   3.780   2.168
    1C        C  404   4.417   3.979   2.291
    1C        C  405   4.440   3.909   2.411
    1C        C  406   4.331   4.097   2.529
    1C        C  407   4.403   3.975   2.530
    1C        C  408   4.280   4.151   2.649
    1C        C  409   4.321   4.095   2.772
    1C        C  410   4.181   4.258   2.891
    1C        C  411   4.277   4.155   2.892
    1C        C  412   4.128   4.305   3.013
    1C        C  413   4.180   4.259   3.136
    1C        C  414   4.009   4.385   3.254
    1C        C  415   4.129   4.311   3.257
    1C        C  416   3.945   4.418   3.376
    1C        C  417   4.009   4.392   3.498
    1C        C  418   3.817   4.482   3.622
    1C        C  419   3.948   4.429   3.620
    1C        C  420   3.752   4.514   3.744
    1C        C  421   3.822   4.496   3.866
    1C        C  422   3.616   4.540   3.990
    1C        C  423   3.755   4.514   3.989
    1C        C  424   3.544   4.537   4.112
    1C        C  425   3.614   4.542   4.235
    1C        C  426   3.405   4.548   4.357
    1C        C  427   3.546   4.552   4.358
    1C        C  428   3.334   4.546   4.479
    1C        C  429   3.406   4.559   4.600
    1C        C  430   3.197   4.519   4.723
    1C        C  431   3.336   4.549   4.722
    1C        C  432   3.126   4.496   4.844
    1C        C  433   3.205   4.487   4.960
    1C        C  434   4.387   4.126   2.056
    1C        C  435   4.446   3.999   2.056
    1C        C  436   4.306   4.161   2.168
    1C        C  437   4.341   4.099   2.291
    1C        C  438   4.183   4.252   2.405
    1C        C  439   4.288   4.157   2.408
    1C        C  440   4.126   4.297   2.526
    1C        C  441   4.178   4.249   2.648
    1C        C  442   4.006   4.375   2.767
    1C        C  443   4.127   4.303   2.768
    1C        C  444   3.944   4.414   2.889
    1C        C  445   4.007   4.378   3.010
    1C        C  446   3.817   4.476   3.132
    1C        C  447   3.944   4.414   3.132
    1C        C  448   3.751   4.502   3.254
    1C        C  449   3.816   4.476   3.377
    1C        C  450   3.611   4.526   3.500
    1C        C  451   3.750   4.501   3.499
    1C        C  452   3.544   4.536   3.623
    1C        C  453   3.613   4.538   3.747
    1C        C  454   3.402   4.545   3.868
    1C        C  455   3.543   4.549   3.869
    1C        C  456   3.333   4.530   3.990
    1C        C  457   3.403   4.535   4.113
    1C        C  458   3.196   4.497   4.237
    1C        C  459   3.333   4.531   4.236
    1C        C  460   3.129   4.481   4.360
    1C        C  461   3.198   4.510   4.480
    1C        C  462   2.998   4.439   4.602
    1C        C  463   3.128   4.493   4.602
    1C        C  464   2.931   4.407   4.722
    1C        C  465   2.990   4.451   4.844
    1C        C  466   2.805   4.336   4.960
    1C        C  467   2.908   4.431   4.959
    1C        C  468   4.124   4.284   2.046
    1C        C  469   4.191   4.247   2.163
    1C        C  470   4.010   4.373   2.282
    1C        C  471   4.130   4.296   2.282
    1C        C  472   3.943   4.404   2.402
    1C        C  473   4.005   4.370   2.524
    1C        C  474   3.813   4.463   2.646
    1C        C  475   3.944   4.409   2.645
    1C        C  476   3.745   4.492   2.767
    1C        C  477   3.816   4.474   2.887
    1C        C  478   3.610   4.524   3.011
    1C        C  479   3.749   4.496   3.010
    1C        C  480   3.541   4.533   3.134
    1C        C  481   3.611   4.520   3.255
    1C        C  482   3.399   4.530   3.378
    1C        C  483   3.540   4.525   3.377
    1C        C  484   3.331   4.527   3.502
    1C        C  485   3.403   4.535   3.623
    1C        C  486   3.195   4.497   3.746
    1C        C  487   3.332   4.534   3.745
    1C        C  488   3.130   4.472   3.869
    1C        C  489   3.196   4.496   3.992
    1C        C  490   3.002   4.415   4.117
    1C        C  491   3.129   4.476   4.115
    1C        C  492   2.944   4.379   4.241
    1C        C  493   2.999   4.425   4.362
    1C        C  494   2.826   4.304   4.486
    1C        C  495   2.935   4.394   4.484
    1C        C  496   2.771   4.259   4.609
    1C        C  497   2.819   4.319   4.727
    1C        C  498   2.667   4.166   4.848
    1C        C  499   2.753   4.277   4.844
    1C        C  500   2.604   4.117   4.963
    1C        C  501   4.004   4.354   2.043
    1C        C  502   3.814   4.456   2.157
    1C        C  503   3.942   4.397   2.161
    1C        C  504   3.744   4.479   2.278
    1C        C  505   3.811   4.454   2.400
    1C        C  506   3.608   4.510   2.521
    1C        C  507   3.747   4.483   2.523
    1C        C  508   3.537   4.520   2.642
    1C        C  509   3.607   4.517   2.765
    1C        C  510   3.398   4.527   2.886
    1C        C  511   3.539   4.527   2.889
    1C        C  512   3.328   4.525   3.009
    1C        C  513   3.400   4.532   3.131
    1C        C  514   3.196   4.487   3.257
    1C        C  515   3.332   4.524   3.254
    1C        C  516   3.128   4.467   3.379
    1C        C  517   3.194   4.493   3.501
    1C        C  518   3.004   4.405   3.627
    1C        C  519   3.128   4.473   3.625
    1C        C  520   2.946   4.367   3.751
    1C        C  521   3.006   4.405   3.873
    1C        C  522   2.836   4.282   3.998
    1C        C  523   2.944   4.372   3.995
    1C        C  524   2.780   4.242   4.121
    1C        C  525   2.829   4.297   4.242
    1C        C  526   2.694   4.136   4.365
    1C        C  527   2.779   4.249   4.365
    1C        C  528   2.654   4.078   4.488
    1C        C  529   2.691   4.142   4.608
    1C        C  530   2.585   3.961   4.735
    1C        C  531   2.643   4.091   4.731
    1C        C  532   2.547   3.902   4.859
    1C        C  533   2.531   3.997   4.965
    1C        C  534   3.620   4.556   2.039
    1C        C  535   3.752   4.507   2.043
    1C        C  536   3.538   4.537   2.155
    1C        C  537   3.606   4.512   2.277
    1C        C  538   3.395   4.520   2.401
    1C        C  539   3.536   4.519   2.400
    1C        C  540   3.321   4.514   2.522
    1C        C  541   3.395   4.522   2.641
    1C        C  542   3.189   4.489   2.767
    1C        C  543   3.326   4.522   2.765
    1C        C  544   3.123   4.468   2.891
    1C        C  545   3.191   4.492   3.013
    1C        C  546   3.002   4.398   3.136
    1C        C  547   3.128   4.461   3.135
    1C        C  548   2.943   4.365   3.260
    1C        C  549   3.001   4.406   3.382
    1C        C  550   2.835   4.278   3.506
    1C        C  551   2.941   4.371   3.505
    1C        C  552   2.781   4.233   3.629
    1C        C  553   2.833   4.282   3.750
    1C        C  554   2.699   4.123   3.877
    1C        C  555   2.785   4.235   3.875
    1C        C  556   2.657   4.068   4.000
    1C        C  557   2.698   4.126   4.121
    1C        C  558   2.592   3.947   4.248
    1C        C  559   2.655   4.073   4.245
    1C        C  560   2.564   3.884   4.372
    1C        C  561   2.591   3.952   4.493
    1C        C  562   2.532   3.752   4.618
    1C        C  563   2.558   3.891   4.616
    1C        C  564   2.523   3.682   4.740
    1C        C  565   2.532   3.760   4.859
    1C        C  566   2.538   3.545   4.983
    1C        C  567   2.526   3.684   4.977
    1C        C  568   3.326   4.484   2.041
    1C        C  569   3.397   4.516   2.157
    1C        C  570   3.185   4.481   2.282
    1C        C  571   3.324   4.511   2.279
    1C        C  572   3.113   4.465   2.402
    1C        C  573   3.183   4.485   2.523
    1C        C  574   2.993   4.400   2.649
    1C        C  575   3.118   4.466   2.647
    1C        C  576   2.939   4.358   2.773
    1C        C  577   3.000   4.399   2.894
    1C        C  578   2.828   4.273   3.017
    1C        C  579   2.938   4.362   3.015
    1C        C  580   2.781   4.224   3.141
    1C        C  581   2.833   4.276   3.262
    1C        C  582   2.695   4.117   3.386
    1C        C  583   2.782   4.229   3.385
    1C        C  584   2.659   4.059   3.509
    1C        C  585   2.696   4.120   3.631
    1C        C  586   2.594   3.939   3.758
    1C        C  587   2.656   4.066   3.755
    1C        C  588   2.566   3.876   3.881
    1C        C  589   2.597   3.940   4.003
    1C        C  590   2.531   3.742   4.128
    1C        C  591   2.572   3.877   4.127
    1C        C  592   2.521   3.678   4.253
    1C        C  593   2.531   3.747   4.376
    1C        C  594   2.518   3.536   4.500
    1C        C  595   2.522   3.677   4.498
    1C        C  596   2.526   3.467   4.623
    1C        C  597   2.522   3.540   4.744
    1C        C  598   2.539   3.328   4.865
    1C        C  599   2.533   3.469   4.865
    1C        C  600   2.544   3.251   4.982
    1C        C  601   3.192   4.450   2.046
    1C        C  602   2.980   4.402   2.163
    1C        C  603   3.115   4.447   2.163
    1C        C  604   2.922   4.365   2.287
    1C        C  605   2.987   4.401   2.407
    1C        C  606   2.819   4.273   2.529
    1C        C  607   2.927   4.364   2.530
    1C        C  608   2.771   4.224   2.653
    1C        C  609   2.826   4.273   2.773
    1C        C  610   2.685   4.116   2.896
    1C        C  611   2.774   4.225   2.896
    1C        C  612   2.651   4.055   3.019
    1C        C  613   2.694   4.114   3.140
    1C        C  614   2.595   3.930   3.266
    1C        C  615   2.656   4.057   3.264
    1C        C  616   2.571   3.867   3.391
    1C        C  617   2.601   3.930   3.514
    1C        C  618   2.529   3.734   3.640
    1C        C  619   2.573   3.868   3.638
    1C        C  620   2.515   3.667   3.764
    1C        C  621   2.523   3.741   3.884
    1C        C  622   2.507   3.530   4.012
    1C        C  623   2.513   3.671   4.006
    1C        C  624   2.519   3.461   4.135
    1C        C  625   2.519   3.537   4.254
    1C        C  626   2.547   3.328   4.379
    1C        C  627   2.521   3.466   4.377
    1C        C  628   2.564   3.257   4.500
    1C        C  629   2.544   3.327   4.621
    1C        C  630   2.604   3.124   4.744
    1C        C  631   2.553   3.257   4.744
    1C        C  632   2.616   3.050   4.865
    1C        C  633   2.561   3.112   4.981
    1C        C  634   2.778   4.311   2.055
    1C        C  635   2.888   4.398   2.053
    1C        C  636   2.750   4.235   2.169
    1C        C  637   2.808   4.279   2.290
    1C        C  638   2.677   4.109   2.409
    1C        C  639   2.762   4.222   2.410
    1C        C  640   2.644   4.051   2.533
    1C        C  641   2.686   4.111   2.654
    1C        C  642   2.588   3.923   2.780
    1C        C  643   2.647   4.051   2.776
    1C        C  644   2.563   3.858   2.903
    1C        C  645   2.583   3.931   3.023
    1C        C  646   2.528   3.727   3.150
    1C        C  647   2.566   3.863   3.145
    1C        C  648   2.512   3.658   3.272
    1C        C  649   2.525   3.734   3.391
    1C        C  650   2.515   3.526   3.521
    1C        C  651   2.518   3.668   3.516
    1C        C  652   2.523   3.457   3.644
    1C        C  653   2.519   3.526   3.767
    1C        C  654   2.539   3.318   3.890
    1C        C  655   2.515   3.458   3.891
    1C        C  656   2.559   3.252   4.013
    1C        C  657   2.547   3.323   4.135
    1C        C  658   2.622   3.127   4.258
    1C        C  659   2.564   3.256   4.258
    1C        C  660   2.647   3.061   4.380
    1C        C  661   2.612   3.124   4.502
    1C        C  662   2.717   2.941   4.626
    1C        C  663   2.639   3.059   4.624
    1C        C  664   2.751   2.878   4.748
    1C        C  665   2.699   2.934   4.868
    1C        C  666   2.745   2.874   4.987
    1C        C  667   2.682   4.028   2.054
    1C        C  668   2.688   4.108   2.169
    1C        C  669   2.590   3.914   2.291
    1C        C  670   2.643   4.047   2.287
    1C        C  671   2.566   3.850   2.414
    1C        C  672   2.590   3.920   2.535
    1C        C  673   2.521   3.722   2.661
    1C        C  674   2.562   3.857   2.658
    1C        C  675   2.511   3.650   2.782
    1C        C  676   2.529   3.721   2.903
    1C        C  677   2.510   3.515   3.033
    1C        C  678   2.520   3.656   3.028
    1C        C  679   2.510   3.443   3.155
    1C        C  680   2.509   3.517   3.275
    1C        C  681   2.540   3.313   3.405
    1C        C  682   2.516   3.452   3.401
    1C        C  683   2.561   3.246   3.527
    1C        C  684   2.544   3.317   3.648
    1C        C  685   2.613   3.116   3.771
    1C        C  686   2.563   3.248   3.770
    1C        C  687   2.649   3.056   3.895
    1C        C  688   2.618   3.124   4.015
    1C        C  689   2.720   2.938   4.136
    1C        C  690   2.651   3.061   4.137
    1C        C  691   2.767   2.886   4.259
    1C        C  692   2.725   2.943   4.381
    1C        C  693   2.762   2.885   4.504
    1C        C  694   2.628   3.898   2.054
    1C        C  695   2.529   3.708   2.176
    1C        C  696   2.579   3.840   2.172
    1C        C  697   2.510   3.643   2.300
    1C        C  698   2.525   3.715   2.420
    1C        C  699   2.483   3.508   2.547
    1C        C  700   2.502   3.647   2.542
    1C        C  701   2.495   3.435   2.668
    1C        C  702   2.505   3.509   2.788
    1C        C  703   2.521   3.301   2.915
    1C        C  704   2.507   3.442   2.912
    1C        C  705   2.546   3.234   3.036
    1C        C  706   2.535   3.304   3.158
    1C        C  707   2.608   3.111   3.281
    1C        C  708   2.557   3.243   3.283
    1C        C  709   2.642   3.050   3.404
    1C        C  710   2.612   3.114   3.527
    1C        C  711   2.717   2.931   3.650
    1C        C  712   2.642   3.051   3.649
    1C        C  713   2.762   2.876   3.773
    1C        C  714   2.725   2.937   3.894
    1C        C  715   2.764   2.877   4.016
    1C        C  716   2.453   3.501   2.064
    1C        C  717   2.496   3.635   2.061
    1C        C  718   2.474   3.426   2.184
    1C        C  719   2.489   3.502   2.304
    1C        C  720   2.525   3.295   2.425
    1C        C  721   2.494   3.433   2.427
    1C        C  722   2.545   3.229   2.548
    1C        C  723   2.518   3.296   2.670
    1C        C  724   2.588   3.099   2.795
    1C        C  725   2.532   3.229   2.793
    1C        C  726   2.617   3.033   2.917
    1C        C  727   2.589   3.099   3.038
    1C        C  728   2.711   2.925   3.161
    1C        C  729   2.633   3.043   3.160
    1C        C  730   2.760   2.875   3.284
    1C        C  731   2.719   2.931   3.406
    1C        C  732   2.763   2.876   3.529
    1C        C  733   2.492   3.200   2.074
    1C        C  734   2.494   3.284   2.186
    1C        C  735   2.592   3.090   2.304
    1C        C  736   2.537   3.222   2.306
    1C        C  737   2.619   3.028   2.428
    1C        C  738   2.594   3.096   2.549
    1C        C  739   2.699   2.917   2.673
    1C        C  740   2.628   3.039   2.674
    1C        C  741   2.742   2.859   2.795
    1C        C  742   2.702   2.920   2.916
    1C        C  743   2.744   2.863   3.038
    1C        C  744   2.549   3.073   2.074
    1C        C  745   2.687   2.897   2.186
    1C        C  746   2.610   3.015   2.186
    1C        C  747   2.736   2.848   2.309
    1C        C  748   2.693   2.908   2.430
    1C        C  749   2.742   2.857   2.552
    1C        C  750   2.735   2.838   2.068
    1C        C  751   3.665   2.317   1.981
    1C        O  752   3.760   2.245   2.022
    1C        O  753   3.638   2.318   1.843
    1C        C  754   4.631   3.058   1.978
    1C        O  755   4.597   3.016   1.864
    1C        O  756   4.731   2.983   2.042
    1C        C  757   4.454   4.224   1.967
    1C        O  758   4.555   4.289   2.006
    1C        O  759   4.396   4.269   1.847
    1C        C  760   3.586   4.651   1.931
    1C        O  761   3.619   4.772   1.942
    1C        O  762   3.576   4.619   1.795
    1C        C  763   2.858   4.519   1.973
    1C        O  764   2.843   4.508   1.849
    1C        O  765   2.817   4.637   2.039
    1C        C  766   2.351   3.472   1.962
    1C        O  767   2.377   3.435   1.844
    1C        O  768   2.215   3.481   1.995
    1C        C  769   4.711   3.593   5.036
    1C        O  770   4.721   3.650   5.148
    1C        O  771   4.832   3.592   4.966
    1C        C  772   4.283   4.485   5.006
    1C        O  773   4.325   4.466   5.123
    1C        O  774   4.393   4.507   4.923
    1C        C  775   4.147   2.500   5.058
    1C        O  776   4.255   2.450   5.015
    1C        O  777   4.168   2.534   5.192
    1C        C  778   2.895   4.534   5.065
    1C        O  779   2.812   4.628   5.065
    1C        O  780   2.930   4.484   5.191
    1C        C  781   2.450   3.051   5.058
    1C        O  782   2.360   2.985   5.000
    1C        O  783   2.452   3.039   5.196
    1C        C  784   2.421   3.993   5.063
    1C        O  785   2.312   4.050   5.037
    1C        O  786   2.451   3.963   5.197
    1C        C  787   2.948   2.450   1.988
    1C        O  788   2.946   2.497   1.871
    1C        O  789   2.920   2.314   1.984
    1C        C  790   3.197   2.380   5.075
    1C        O  791   3.198   2.261   5.035
    1C        O  792   3.207   2.405   5.212
    1C        H  793   4.268   3.029   5.063
    1C        H  794   4.197   2.798   5.071
    1C        H  795   4.453   3.151   5.070
    1C        H  796   4.452   3.382   5.041
    1C        H  797   4.548   3.805   5.054
    1C        H  798   4.460   4.007   5.048
    1C        H  799   4.253   4.146   5.043
    1C        H  800   4.038   4.551   5.021
    1C        H  801   3.818   4.566   5.046
    1C        H  802   3.586   4.644   5.032
    1C        H  803   3.394   4.490   5.046
    1C        H  804   3.163   4.472   5.057
    1C        H  805   3.896   2.491   5.071
    1C        H  806   3.672   2.409   5.053
    1C        H  807   2.987   2.522   5.046
    1C        H  808   3.446   2.455   5.075
    1C        H  809   2.872   2.732   5.079
    1C        H  810   2.714   2.906   5.084
    1C        H  811   2.498   3.289   5.072
    1C        H  812   2.549   3.499   5.078
    1C        H  813   2.532   3.741   5.067
    1C        H  814   2.587   4.178   5.049
    1C        H  815   2.751   4.329   5.052
    1C        H  816   2.719   2.884   1.973
    1C        H  817   2.865   2.709   1.975
    1C        H  818   3.220   2.494   1.986
    1C        H  819   3.437   2.477   1.982
    1C        H  820   3.871   2.493   1.976
    1C        H  821   4.080   2.585   1.981
    1C        H  822   4.292   2.700   1.995
    1C        H  823   4.414   2.901   1.979
    1C        H  824   4.566   3.309   1.964
    1C        H  825   4.481   3.517   1.966
    1C        H  826   4.505   3.753   1.958
    1C        H  827   3.817   4.549   1.968
    1C        H  828   3.975   4.398   1.950
    1C        H  829   4.130   4.211   1.967
    1C        H  830   4.529   3.990   1.990
    1C        H  831   2.664   3.832   1.978
    1C        H  832   2.694   4.073   1.958
    1C        H  833   2.728   4.289   1.963
    1C        H  834   3.382   4.445   1.958
    1C        H  835   3.149   4.402   1.961
    1C        H  836   2.557   3.020   1.981
    1C        H  837   2.498   3.245   1.977
    1C        H  838   2.502   3.678   1.963
    2V3OU   H29  839   2.802   3.547   2.464
    2V3OU   C27  840   2.795   3.504   2.567
    2V3OU   H27  841   2.734   3.573   2.631
    2V3OU   H28  842   2.740   3.407   2.558
    2V3OU   O11  843   2.918   3.489   2.639
    2V3OU   C15  844   2.928   3.402   2.746
    2V3OU   C13  845   3.050   3.381   2.814
    2V3OU   C14  846   3.077   3.275   2.901
    2V3OU   C16  847   2.977   3.187   2.938
    2V3OU    H6  848   2.992   3.103   3.008
    2V3OU   C12  849   3.215   3.230   2.933
    2V3OU    O2  850   3.242   3.127   2.999
    2V3OU   C10  851   3.328   3.307   2.880
    2V3OU    C8  852   3.459   3.269   2.908
    2V3OU   O10  853   3.492   3.154   2.972
    2V3OU   H26  854   3.405   3.116   2.992
    2V3OU    C6  855   3.567   3.345   2.855
    2V3OU    C5  856   3.544   3.467   2.793
    2V3OU    C4  857   3.708   3.296   2.852
    2V3OU    H4  858   3.725   3.227   2.940
    2V3OU    H5  859   3.718   3.232   2.760
    2V3OU    C2  860   3.820   3.400   2.861
    2V3OU    O6  861   3.808   3.473   2.984
    2V3OU   H21  862   3.769   3.556   2.952
    2V3OU    C3  863   3.787   3.497   2.747
    2V3OU    H2  864   3.865   3.576   2.736
    2V3OU    H3  865   3.781   3.439   2.651
    2V3OU   C25  866   3.957   3.337   2.840
    2V3OU    O7  867   4.014   3.306   2.736
    2V3OU   C26  868   4.031   3.291   2.965
    2V3OU   H22  869   4.072   3.382   3.017
    2V3OU   H23  870   4.118   3.227   2.936
    2V3OU    O8  871   3.956   3.211   3.053
    2V3OU   H24  872   3.930   3.268   3.128
    2V3OU    C1  873   3.653   3.567   2.769
    2V3OU    H1  874   3.629   3.626   2.676
    2V3OU    O3  875   3.666   3.657   2.879
    2V3OU   C19  876   3.625   3.792   2.856
    2V3OU    H9  877   3.529   3.803   2.797
    2V3OU    O4  878   3.720   3.845   2.767
    2V3OU   C20  879   3.847   3.874   2.827
    2V3OU   H10  880   3.896   3.774   2.845
    2V3OU   C24  881   3.614   3.856   2.995
    2V3OU   H16  882   3.541   3.796   3.055
    2V3OU   H17  883   3.570   3.958   2.978
    2V3OU   C23  884   3.750   3.879   3.063
    2V3OU   H15  885   3.793   3.776   3.086
    2V3OU    N1  886   3.739   3.959   3.183
    2V3OU   H19  887   3.812   3.936   3.247
    2V3OU   H20  888   3.652   3.942   3.229
    2V3OU   C21  889   3.847   3.946   2.962
    2V3OU   H11  890   3.953   3.926   2.996
    2V3OU    O5  891   3.824   4.086   2.966
    2V3OU   H18  892   3.783   4.107   3.051
    2V3OU   C22  893   3.914   3.949   2.713
    2V3OU   H12  894   3.863   4.047   2.702
    2V3OU   H13  895   3.900   3.895   2.616
    2V3OU   H14  896   4.023   3.961   2.734
    2V3OU   C11  897   3.162   3.469   2.779
    2V3OU    O1  898   3.138   3.586   2.743
    2V3OU    C9  899   3.301   3.423   2.803
    2V3OU    C7  900   3.408   3.504   2.766
    2V3OU    O9  901   3.392   3.621   2.695
    2V3OU   H25  902   3.297   3.634   2.678
    2V3OU   C17  903   2.827   3.312   2.786
    2V3OU    H7  904   2.728   3.356   2.774
    2V3OU   C18  905   2.853   3.214   2.881
    2V3OU    H8  906   2.785   3.175   2.958
    3SOL     OW  907   2.729   4.939   0.560
    3SOL    HW1  908   2.697   4.857   0.511
    3SOL    HW2  909   2.669   4.957   0.638
    4SOL     OW  910   0.182   6.466   2.325
    4SOL    HW1  911   0.211   6.426   2.412
    4SOL    HW2  912   0.082   6.464   2.320
    5SOL     OW  913   4.645   1.377   2.805
    5SOL    HW1  914   4.618   1.473   2.809
    5SOL    HW2  915   4.596   1.332   2.731
    6SOL     OW  916   4.465   0.829   1.870
    6SOL    HW1  917   4.464   0.730   1.878
    6SOL    HW2  918   4.450   0.855   1.774
    7SOL     OW  919   6.927   3.189   2.418
    7SOL    HW1  920   6.844   3.141   2.445
    7SOL    HW2  921   6.915   3.287   2.430
    8SOL     OW  922   3.296   0.849   0.034
    8SOL    HW1  923   3.359   0.831   0.110
    8SOL    HW2  924   3.337   0.816   6.976
    9SOL     OW  925   5.436   0.435   6.080
    9SOL    HW1  926   5.468   0.348   6.118
    9SOL    HW2  927   5.388   0.487   6.150
   10SOL     OW  928   1.650   5.114   6.455
   10SOL    HW1  929   1.652   5.130   6.554
   10SOL    HW2  930   1.623   5.020   6.437
   11SOL     OW  931   2.978   0.036   6.106
   11SOL    HW1  932   2.973   6.973   6.149
   11SOL    HW2  933   2.908   0.095   6.147
   12SOL     OW  934   3.543   5.851   3.374
   12SOL    HW1  935   3.519   5.932   3.320
   12SOL    HW2  936   3.557   5.773   3.313
   13SOL     OW  937   3.980   6.398   4.361
   13SOL    HW1  938   3.943   6.464   4.296
   13SOL    HW2  939   3.955   6.425   4.454
   14SOL     OW  940   3.267   5.861   5.586
   14SOL    HW1  941   3.173   5.846   5.555
   14SOL    HW2  942   3.328   5.865   5.507
   15SOL     OW  943   1.105   6.203   1.918
   15SOL    HW1  944   1.018   6.182   1.872
   15SOL    HW2  945   1.102   6.296   1.954
   16SOL     OW  946   4.774   2.644   5.749
   16SOL    HW1  947   4.824   2.625   5.833
   16SOL    HW2  948   4.690   2.695   5.771
   17SOL     OW  949   5.486   6.339   5.960
   17SOL    HW1  950   5.537   6.313   5.878
   17SOL    HW2  951   5.448   6.430   5.948
   18SOL     OW  952   3.338   0.892   5.888
   18SOL    HW1  953   3.257   0.937   5.926
   18SOL    HW2  954   3.318   0.795   5.873
   19SOL     OW  955   0.430   1.548   3.166
   19SOL    HW1  956   0.388   1.460   3.144
   19SOL    HW2  957   0.529   1.539   3.169
   20SOL     OW  958   5.226   1.705   3.969
   20SOL    HW1  959   5.127   1.696   3.960
   20SOL    HW2  960   5.264   1.738   3.883
   21SOL     OW  961   3.357   1.449   2.415
   21SOL    HW1  962   3.381   1.483   2.324
   21SOL    HW2  963   3.418   1.374   2.439
   22SOL     OW  964   2.257   6.535   0.477
   22SOL    HW1  965   2.244   6.596   0.555
   22SOL    HW2  966   2.326   6.573   0.416
   23SOL     OW  967   5.512   5.627   3.236
   23SOL    HW1  968   5.547   5.543   3.194
   23SOL    HW2  969   5.431   5.606   3.290
   24SOL     OW  970   4.408   0.418   3.432
   24SOL    HW1  971   4.472   0.355   3.477
   24SOL    HW2  972   4.373   0.484   3.499
   25SOL     OW  973   3.038   0.932   4.817
   25SOL    HW1  974   3.059   0.933   4.719
   25SOL    HW2  975   3.092   1.003   4.863
   26SOL     OW  976   0.537   0.853   0.207
   26SOL    HW1  977   0.585   0.927   0.161
   26SOL    HW2  978   0.565   0.849   0.303
   27SOL     OW  979   1.119   2.500   2.209
   27SOL    HW1  980   1.098   2.558   2.288
   27SOL    HW2  981   1.092   2.406   2.230
   28SOL     OW  982   2.987   2.057   5.823
   28SOL    HW1  983   2.962   2.023   5.733
   28SOL    HW2  984   3.037   2.143   5.814
   29SOL     OW  985   5.918   1.283   1.912
   29SOL    HW1  986   5.886   1.189   1.929
   29SOL    HW2  987   6.017   1.282   1.898
   30SOL     OW  988   4.397   0.633   4.330
   30SOL    HW1  989   4.441   0.550   4.364
   30SOL    HW2  990   4.388   0.698   4.405
   31SOL     OW  991   0.991   2.468   6.561
   31SOL    HW1  992   0.906   2.421   6.535
   31SOL    HW2  993   0.970   2.550   6.614
   32SOL     OW  994   0.455   1.561   2.473
   32SOL    HW1  995   0.524   1.633   2.465
   32SOL    HW2  996   0.378   1.582   2.413
   33SOL     OW  997   1.838   4.446   6.126
   33SOL    HW1  998   1.761   4.509   6.115
   33SOL    HW2  999   1.845   4.387   6.046
   34SOL     OW 1000   2.850   0.268   4.327
   34SOL    HW1 1001   2.897   0.340   4.276
   34SOL    HW2 1002   2.806   0.308   4.408
   35SOL     OW 1003   3.743   4.059   6.874
   35SOL    HW1 1004   3.739   4.126   6.800
   35SOL    HW2 1005   3.817   3.994   6.856
   36SOL     OW 1006   6.051   1.117   4.553
   36SOL    HW1 1007   6.030   1.020   4.560
   36SOL    HW2 1008   5.976   1.171   4.591
   37SOL     OW 1009   1.196   1.768   0.193
   37SOL    HW1 1010   1.276   1.783   0.134
   37SOL    HW2 1011   1.224   1.714   0.273
   38SOL     OW 1012   6.920   5.145   2.278
   38SOL    HW1 1013   6.946   5.048   2.285
   38SOL    HW2 1014   6.914   5.170   2.182
   39SOL     OW 1015   6.967   4.844   6.645
   39SOL    HW1 1016   6.967   4.936   6.685
   39SOL    HW2 1017   0.025   4.830   6.595
   40SOL     OW 1018   5.212   1.727   0.299
   40SOL    HW1 1019   5.223   1.633   0.267
   40SOL    HW2 1020   5.151   1.729   0.378
   41SOL     OW 1021   6.722   5.286   3.067
   41SOL    HW1 1022   6.654   5.350   3.102
   41SOL    HW2 1023   6.807   5.296   3.118
   42SOL     OW 1024   3.029   5.270   5.316
   42SOL    HW1 1025   2.967   5.213   5.262
   42SOL    HW2 1026   3.027   5.241   5.412
   43SOL     OW 1027   5.915   6.980   5.682
   43SOL    HW1 1028   6.005   6.981   5.727
   43SOL    HW2 1029   5.903   6.893   5.635
   44SOL     OW 1030   4.624   1.558   5.951
   44SOL    HW1 1031   4.556   1.620   5.913
   44SOL    HW2 1032   4.622   1.563   6.051
   45SOL     OW 1033   3.982   6.030   2.483
   45SOL    HW1 1034   4.029   6.035   2.571
   45SOL    HW2 1035   3.980   6.120   2.441
   46SOL     OW 1036   0.515   2.902   3.141
   46SOL    HW1 1037   0.586   2.842   3.179
   46SOL    HW2 1038   0.557   2.989   3.113
   47SOL     OW 1039   5.149   4.271   0.783
   47SOL    HW1 1040   5.068   4.271   0.840
   47SOL    HW2 1041   5.219   4.211   0.823
   48SOL     OW 1042   0.100   3.306   5.670
   48SOL    HW1 1043   0.140   3.389   5.632
   48SOL    HW2 1044   0.084   3.319   5.768
   49SOL     OW 1045   5.006   3.956   2.013
   49SOL    HW1 1046   5.033   3.872   1.966
   49SOL    HW2 1047   5.038   4.035   1.961
   50SOL     OW 1048   5.409   0.851   5.016
   50SOL    HW1 1049   5.462   0.926   5.055
   50SOL    HW2 1050   5.408   0.858   4.916
   51SOL     OW 1051   2.601   6.772   2.870
   51SOL    HW1 1052   2.571   6.831   2.796
   51SOL    HW2 1053   2.699   6.785   2.885
   52SOL     OW 1054   5.803   3.082   2.596
   52SOL    HW1 1055   5.879   3.054   2.538
   52SOL    HW2 1056   5.818   3.051   2.690
   53SOL     OW 1057   3.704   6.759   4.109
   53SOL    HW1 1058   3.615   6.749   4.064
   53SOL    HW2 1059   3.774   6.775   4.039
   54SOL     OW 1060   3.681   4.852   1.164
   54SOL    HW1 1061   3.694   4.948   1.186
   54SOL    HW2 1062   3.770   4.807   1.156
   55SOL     OW 1063   2.461   2.885   6.028
   55SOL    HW1 1064   2.381   2.830   6.004
   55SOL    HW2 1065   2.444   2.934   6.113
   56SOL     OW 1066   0.123   0.238   0.874
   56SOL    HW1 1067   0.180   0.249   0.793
   56SOL    HW2 1068   0.091   0.143   0.879
   57SOL     OW 1069   4.765   0.878   1.540
   57SOL    HW1 1070   4.757   0.976   1.561
   57SOL    HW2 1071   4.813   0.866   1.453
   58SOL     OW 1072   0.103   6.161   5.542
   58SOL    HW1 1073   0.112   6.150   5.641
   58SOL    HW2 1074   0.179   6.115   5.497
   59SOL     OW 1075   1.075   2.240   5.384
   59SOL    HW1 1076   1.155   2.210   5.435
   59SOL    HW2 1077   1.017   2.297   5.442
   60SOL     OW 1078   5.420   2.494   5.021
   60SOL    HW1 1079   5.496   2.516   4.960
   60SOL    HW2 1080   5.449   2.505   5.116
   61SOL     OW 1081   6.195   2.199   5.023
   61SOL    HW1 1082   6.240   2.158   4.943
   61SOL    HW2 1083   6.255   2.191   5.102
   62SOL     OW 1084   0.751   1.094   1.627
   62SOL    HW1 1085   0.680   1.136   1.683
   62SOL    HW2 1086   0.779   1.159   1.556
   63SOL     OW 1087   5.162   1.201   3.327
   63SOL    HW1 1088   5.100   1.233   3.255
   63SOL    HW2 1089   5.256   1.225   3.303
   64SOL     OW 1090   0.011   3.704   5.708
   64SOL    HW1 1091   0.098   3.665   5.678
   64SOL    HW2 1092   6.965   3.639   5.687
   65SOL     OW 1093   0.424   5.261   6.575
   65SOL    HW1 1094   0.478   5.179   6.596
   65SOL    HW2 1095   0.465   5.309   6.498
   66SOL     OW 1096   4.409   1.364   5.306
   66SOL    HW1 1097   4.365   1.305   5.239
   66SOL    HW2 1098   4.504   1.381   5.279
   67SOL     OW 1099   5.724   3.902   5.936
   67SOL    HW1 1100   5.724   3.802   5.927
   67SOL    HW2 1101   5.709   3.926   6.032
   68SOL     OW 1102   5.976   0.952   6.515
   68SOL    HW1 1103   5.913   0.950   6.593
   68SOL    HW2 1104   6.040   0.876   6.522
   69SOL     OW 1105   0.916   3.630   5.988
   69SOL    HW1 1106   1.008   3.665   6.006
   69SOL    HW2 1107   0.862   3.701   5.943
   70SOL     OW 1108   5.391   4.111   4.889
   70SOL    HW1 1109   5.306   4.075   4.848
   70SOL    HW2 1110   5.448   4.149   4.817
   71SOL     OW 1111   4.565   1.674   3.347
   71SOL    HW1 1112   4.551   1.576   3.363
   71SOL    HW2 1113   4.624   1.686   3.267
   72SOL     OW 1114   2.087   6.862   4.214
   72SOL    HW1 1115   2.005   6.918   4.200
   72SOL    HW2 1116   2.060   6.768   4.235
   73SOL     OW 1117   3.605   0.558   1.462
   73SOL    HW1 1118   3.642   0.482   1.408
   73SOL    HW2 1119   3.577   0.632   1.401
   74SOL     OW 1120   4.310   6.949   0.062
   74SOL    HW1 1121   4.220   6.924   0.028
   74SOL    HW2 1122   4.320   6.917   0.157
   75SOL     OW 1123   4.569   0.260   1.052
   75SOL    HW1 1124   4.590   0.185   1.115
   75SOL    HW2 1125   4.538   0.221   0.965
   76SOL     OW 1126   3.090   3.603   1.420
   76SOL    HW1 1127   3.133   3.682   1.463
   76SOL    HW2 1128   3.082   3.529   1.487
   77SOL     OW 1129   0.226   6.871   3.349
   77SOL    HW1 1130   0.263   6.832   3.264
   77SOL    HW2 1131   0.155   6.938   3.327
   78SOL     OW 1132   6.001   1.648   0.179
   78SOL    HW1 1133   5.998   1.548   0.177
   78SOL    HW2 1134   5.970   1.680   0.268
   79SOL     OW 1135   2.927   5.726   0.902
   79SOL    HW1 1136   2.960   5.817   0.926
   79SOL    HW2 1137   2.878   5.686   0.980
   80SOL     OW 1138   5.074   1.254   4.446
   80SOL    HW1 1139   5.082   1.322   4.373
   80SOL    HW2 1140   5.140   1.274   4.518
   81SOL     OW 1141   2.088   0.322   2.103
   81SOL    HW1 1142   2.021   0.394   2.084
   81SOL    HW2 1143   2.042   0.234   2.108
   82SOL     OW 1144   5.869   4.513   0.556
   82SOL    HW1 1145   5.920   4.524   0.641
   82SOL    HW2 1146   5.904   4.577   0.487
   83SOL     OW 1147   0.600   0.382   0.198
   83SOL    HW1 1148   0.682   0.329   0.175
   83SOL    HW2 1149   0.524   0.352   0.140
   84SOL     OW 1150   6.178   3.098   3.325
   84SOL    HW1 1151   6.259   3.078   3.270
   84SOL    HW2 1152   6.097   3.062   3.279
   85SOL     OW 1153   1.668   0.823   3.612
   85SOL    HW1 1154   1.603   0.883   3.565
   85SOL    HW2 1155   1.761   0.857   3.598
   86SOL     OW 1156   0.330   1.388   5.754
   86SOL    HW1 1157   0.350   1.466   5.694
   86SOL    HW2 1158   0.279   1.420   5.834
   87SOL     OW 1159   4.836   3.938   1.058
   87SOL    HW1 1160   4.903   3.875   1.017
   87SOL    HW2 1161   4.882   3.994   1.127
   88SOL     OW 1162   3.516   1.846   5.738
   88SOL    HW1 1163   3.424   1.845   5.776
   88SOL    HW2 1164   3.546   1.940   5.725
   89SOL     OW 1165   1.994   2.703   5.717
   89SOL    HW1 1166   1.985   2.728   5.813
   89SOL    HW2 1167   1.949   2.615   5.701
   90SOL     OW 1168   3.561   5.107   2.296
   90SOL    HW1 1169   3.644   5.053   2.306
   90SOL    HW2 1170   3.566   5.159   2.210
   91SOL     OW 1171   5.722   4.169   5.575
   91SOL    HW1 1172   5.644   4.160   5.513
   91SOL    HW2 1173   5.798   4.212   5.526
   92SOL     OW 1174   4.568   4.666   0.750
   92SOL    HW1 1175   4.506   4.620   0.687
   92SOL    HW2 1176   4.542   4.763   0.757
   93SOL     OW 1177   3.220   3.705   0.207
   93SOL    HW1 1178   3.133   3.656   0.217
   93SOL    HW2 1179   3.202   3.799   0.178
   94SOL     OW 1180   1.959   6.128   6.101
   94SOL    HW1 1181   1.972   6.225   6.124
   94SOL    HW2 1182   1.916   6.082   6.179
   95SOL     OW 1183   0.793   0.384   3.412
   95SOL    HW1 1184   0.802   0.474   3.453
   95SOL    HW2 1185   0.710   0.340   3.446
   96SOL     OW 1186   2.774   0.847   4.763
   96SOL    HW1 1187   2.716   0.926   4.745
   96SOL    HW2 1188   2.852   0.876   4.819
   97SOL     OW 1189   2.454   3.185   6.049
   97SOL    HW1 1190   2.375   3.156   5.995
   97SOL    HW2 1191   2.538   3.157   6.003
   98SOL     OW 1192   0.818   3.672   1.133
   98SOL    HW1 1193   0.911   3.671   1.096
   98SOL    HW2 1194   0.823   3.661   1.233
   99SOL     OW 1195   3.904   2.466   1.460
   99SOL    HW1 1196   3.877   2.469   1.556
   99SOL    HW2 1197   4.004   2.469   1.453
  100SOL     OW 1198   0.436   7.025   4.905
  100SOL    HW1 1199   0.457   6.936   4.945
  100SOL    HW2 1200   0.360   0.039   4.956
  101SOL     OW 1201   1.311   5.255   2.535
  101SOL    HW1 1202   1.229   5.271   2.590
  101SOL    HW2 1203   1.308   5.163   2.498
  102SOL     OW 1204   3.954   5.577   1.518
  102SOL    HW1 1205   3.941   5.482   1.488
  102SOL    HW2 1206   3.893   5.637   1.465
  103SOL     OW 1207   2.188   2.145   1.611
  103SOL    HW1 1208   2.276   2.156   1.565
  103SOL    HW2 1209   2.116   2.186   1.555
  104SOL     OW 1210   1.376   5.398   2.307
  104SOL    HW1 1211   1.409   5.333   2.239
  104SOL    HW2 1212   1.355   5.349   2.392
  105SOL     OW 1213   6.394   1.268   6.711
  105SOL    HW1 1214   6.310   1.220   6.686
  105SOL    HW2 1215   6.441   1.217   6.784
  106SOL     OW 1216   3.384   6.091   4.737
  106SOL    HW1 1217   3.330   6.007   4.727
  106SOL    HW2 1218   3.381   6.143   4.652
  107SOL     OW 1219   1.205   0.983   1.230
  107SOL    HW1 1220   1.255   0.947   1.309
  107SOL    HW2 1221   1.255   0.961   1.146
  108SOL     OW 1222   2.433   6.531   5.636
  108SOL    HW1 1223   2.404   6.438   5.658
  108SOL    HW2 1224   2.392   6.595   5.701
  109SOL     OW 1225   0.715   0.479   1.938
  109SOL    HW1 1226   0.769   0.421   1.878
  109SOL    HW2 1227   0.773   0.549   1.979
  110SOL     OW 1228   2.970   5.599   4.132
  110SOL    HW1 1229   2.943   5.682   4.181
  110SOL    HW2 1230   2.928   5.519   4.176
  111SOL     OW 1231   1.386   1.015   4.195
  111SOL    HW1 1232   1.402   0.968   4.282
  111SOL    HW2 1233   1.338   0.954   4.132
  112SOL     OW 1234   3.573   6.475   6.362
  112SOL    HW1 1235   3.632   6.498   6.440
  112SOL    HW2 1236   3.610   6.395   6.315
  113SOL     OW 1237   0.495   5.179   3.054
  113SOL    HW1 1238   0.483   5.083   3.080
  113SOL    HW2 1239   0.453   5.237   3.124
  114SOL     OW 1240   1.273   0.014   2.284
  114SOL    HW1 1241   1.223   0.088   2.238
  114SOL    HW2 1242   1.217   7.004   2.357
  115SOL     OW 1243   4.936   1.629   3.300
  115SOL    HW1 1244   4.918   1.584   3.387
  115SOL    HW2 1245   4.877   1.709   3.290
  116SOL     OW 1246   6.192   5.630   2.182
  116SOL    HW1 1247   6.104   5.586   2.198
  116SOL    HW2 1248   6.178   5.716   2.133
  117SOL     OW 1249   1.472   2.040   0.711
  117SOL    HW1 1250   1.419   1.998   0.637
  117SOL    HW2 1251   1.423   2.030   0.798
  118SOL     OW 1252   2.020   0.981   2.332
  118SOL    HW1 1253   1.929   1.023   2.336
  118SOL    HW2 1254   2.015   0.895   2.281
  119SOL     OW 1255   0.448   0.244   0.029
  119SOL    HW1 1256   0.398   0.199   6.983
  119SOL    HW2 1257   0.462   0.180   0.105
  120SOL     OW 1258   5.542   0.407   6.609
  120SOL    HW1 1259   5.579   0.352   6.535
  120SOL    HW2 1260   5.469   0.466   6.574
  121SOL     OW 1261   1.494   3.252   5.792
  121SOL    HW1 1262   1.543   3.339   5.799
  121SOL    HW2 1263   1.430   3.244   5.868
  122SOL     OW 1264   1.922   3.488   6.295
  122SOL    HW1 1265   1.854   3.562   6.302
  122SOL    HW2 1266   2.006   3.525   6.255
  123SOL     OW 1267   0.743   1.175   2.383
  123SOL    HW1 1268   0.841   1.156   2.391
  123SOL    HW2 1269   0.714   1.229   2.462
  124SOL     OW 1270   3.542   2.623   0.267
  124SOL    HW1 1271   3.451   2.622   0.307
  124SOL    HW2 1272   3.534   2.638   0.168
  125SOL     OW 1273   3.571   1.798   0.604
  125SOL    HW1 1274   3.649   1.817   0.665
  125SOL    HW2 1275   3.508   1.736   0.650
  126SOL     OW 1276   1.967   4.235   0.548
  126SOL    HW1 1277   1.900   4.287   0.600
  126SOL    HW2 1278   2.059   4.260   0.578
  127SOL     OW 1279   0.445   4.829   6.874
  127SOL    HW1 1280   0.490   4.816   6.962
  127SOL    HW2 1281   0.360   4.777   6.871
  128SOL     OW 1282   5.278   1.921   1.273
  128SOL    HW1 1283   5.321   1.994   1.326
  128SOL    HW2 1284   5.179   1.934   1.273
  129SOL     OW 1285   2.655   3.497   6.304
  129SOL    HW1 1286   2.689   3.532   6.217
  129SOL    HW2 1287   2.703   3.412   6.327
  130SOL     OW 1288   1.082   1.706   4.296
  130SOL    HW1 1289   1.063   1.804   4.303
  130SOL    HW2 1290   1.168   1.685   4.342
  131SOL     OW 1291   4.550   0.938   3.391
  131SOL    HW1 1292   4.502   0.997   3.456
  131SOL    HW2 1293   4.637   0.909   3.430
  132SOL     OW 1294   2.912   3.126   1.651
  132SOL    HW1 1295   2.979   3.053   1.665
  132SOL    HW2 1296   2.821   3.086   1.638
  133SOL     OW 1297   5.403   1.003   4.416
  133SOL    HW1 1298   5.431   0.911   4.388
  133SOL    HW2 1299   5.312   0.999   4.458
  134SOL     OW 1300   6.510   0.929   2.447
  134SOL    HW1 1301   6.433   0.866   2.454
  134SOL    HW2 1302   6.517   0.983   2.531
  135SOL     OW 1303   5.664   3.616   3.542
  135SOL    HW1 1304   5.716   3.620   3.457
  135SOL    HW2 1305   5.661   3.522   3.574
  136SOL     OW 1306   1.912   4.924   6.018
  136SOL    HW1 1307   1.930   5.019   5.993
  136SOL    HW2 1308   1.971   4.899   6.095
  137SOL     OW 1309   5.691   1.924   3.343
  137SOL    HW1 1310   5.745   1.842   3.361
  137SOL    HW2 1311   5.689   1.942   3.245
  138SOL     OW 1312   1.245   4.556   2.333
  138SOL    HW1 1313   1.211   4.518   2.419
  138SOL    HW2 1314   1.343   4.541   2.325
  139SOL     OW 1315   1.436   0.197   5.525
  139SOL    HW1 1316   1.529   0.193   5.560
  139SOL    HW2 1317   1.426   0.133   5.448
  140SOL     OW 1318   1.333   6.517   3.897
  140SOL    HW1 1319   1.423   6.521   3.854
  140SOL    HW2 1320   1.303   6.609   3.920
  141SOL     OW 1321   0.473   2.670   5.107
  141SOL    HW1 1322   0.430   2.723   5.180
  141SOL    HW2 1323   0.502   2.732   5.034
  142SOL     OW 1324   0.986   3.915   1.169
  142SOL    HW1 1325   1.012   3.980   1.241
  142SOL    HW2 1326   0.889   3.894   1.177
  143SOL     OW 1327   5.355   4.398   0.489
  143SOL    HW1 1328   5.351   4.330   0.562
  143SOL    HW2 1329   5.420   4.368   0.419
  144SOL     OW 1330   1.599   4.595   6.060
  144SOL    HW1 1331   1.583   4.633   5.969
  144SOL    HW2 1332   1.631   4.667   6.122
  145SOL     OW 1333   0.477   5.422   0.856
  145SOL    HW1 1334   0.547   5.404   0.787
  145SOL    HW2 1335   0.461   5.520   0.862
  146SOL     OW 1336   4.659   0.578   5.843
  146SOL    HW1 1337   4.720   0.502   5.820
  146SOL    HW2 1338   4.712   0.654   5.881
  147SOL     OW 1339   5.744   3.221   6.825
  147SOL    HW1 1340   5.844   3.221   6.817
  147SOL    HW2 1341   5.717   3.166   6.904
  148SOL     OW 1342   6.631   5.639   0.855
  148SOL    HW1 1343   6.581   5.693   0.922
  148SOL    HW2 1344   6.595   5.659   0.763
  149SOL     OW 1345   4.186   2.194   4.042
  149SOL    HW1 1346   4.275   2.237   4.059
  149SOL    HW2 1347   4.199   2.118   3.978
  150SOL     OW 1348   5.997   6.773   0.702
  150SOL    HW1 1349   5.909   6.821   0.713
  150SOL    HW2 1350   6.013   6.755   0.605
  151SOL     OW 1351   2.915   2.161   1.100
  151SOL    HW1 1352   3.007   2.190   1.127
  151SOL    HW2 1353   2.911   2.061   1.096
  152SOL     OW 1354   0.092   0.566   1.754
  152SOL    HW1 1355   0.130   0.603   1.839
  152SOL    HW2 1356   0.024   0.630   1.718
  153SOL     OW 1357   2.745   0.890   3.541
  153SOL    HW1 1358   2.820   0.930   3.489
  153SOL    HW2 1359   2.679   0.847   3.479
  154SOL     OW 1360   1.094   3.447   2.048
  154SOL    HW1 1361   1.160   3.371   2.049
  154SOL    HW2 1362   1.085   3.482   1.955
  155SOL     OW 1363   0.520   1.486   4.499
  155SOL    HW1 1364   0.532   1.574   4.454
  155SOL    HW2 1365   0.589   1.421   4.466
  156SOL     OW 1366   0.191   0.549   0.802
  156SOL    HW1 1367   0.272   0.537   0.746
  156SOL    HW2 1368   0.195   0.487   0.881
  157SOL     OW 1369   5.347   2.919   1.771
  157SOL    HW1 1370   5.262   2.878   1.736
  157SOL    HW2 1371   5.330   2.958   1.862
  158SOL     OW 1372   1.992   4.172   2.320
  158SOL    HW1 1373   1.949   4.111   2.386
  158SOL    HW2 1374   2.091   4.167   2.329
  159SOL     OW 1375   4.791   3.942   2.896
  159SOL    HW1 1376   4.793   3.856   2.845
  159SOL    HW2 1377   4.768   4.017   2.835
  160SOL     OW 1378   5.240   6.026   0.980
  160SOL    HW1 1379   5.250   6.103   0.916
  160SOL    HW2 1380   5.256   5.940   0.931
  161SOL     OW 1381   1.993   6.037   3.702
  161SOL    HW1 1382   1.897   6.011   3.693
  161SOL    HW2 1383   2.009   6.078   3.792
  162SOL     OW 1384   3.352   6.164   0.295
  162SOL    HW1 1385   3.401   6.178   0.381
  162SOL    HW2 1386   3.360   6.068   0.268
  163SOL     OW 1387   6.267   5.609   1.154
  163SOL    HW1 1388   6.228   5.630   1.064
  163SOL    HW2 1389   6.353   5.560   1.143
  164SOL     OW 1390   6.809   4.244   2.169
  164SOL    HW1 1391   6.790   4.340   2.188
  164SOL    HW2 1392   6.908   4.232   2.153
  165SOL     OW 1393   5.401   3.110   1.299
  165SOL    HW1 1394   5.445   3.024   1.274
  165SOL    HW2 1395   5.455   3.186   1.264
  166SOL     OW 1396   1.250   4.075   2.447
  166SOL    HW1 1397   1.208   4.101   2.360
  166SOL    HW2 1398   1.300   3.989   2.435
  167SOL     OW 1399   5.004   3.114   0.042
  167SOL    HW1 1400   5.032   3.026   0.004
  167SOL    HW2 1401   4.904   3.122   0.038
  168SOL     OW 1402   3.008   3.187   1.307
  168SOL    HW1 1403   3.075   3.253   1.341
  168SOL    HW2 1404   3.020   3.100   1.356
  169SOL     OW 1405   5.589   2.077   1.584
  169SOL    HW1 1406   5.610   1.995   1.530
  169SOL    HW2 1407   5.543   2.050   1.668
  170SOL     OW 1408   0.590   0.283   2.964
  170SOL    HW1 1409   0.555   0.216   3.030
  170SOL    HW2 1410   0.538   0.277   2.879
  171SOL     OW 1411   2.482   4.501   6.682
  171SOL    HW1 1412   2.450   4.407   6.697
  171SOL    HW2 1413   2.566   4.517   6.733
  172SOL     OW 1414   6.556   1.062   2.692
  172SOL    HW1 1415   6.478   1.117   2.660
  172SOL    HW2 1416   6.539   1.032   2.786
  173SOL     OW 1417   6.494   0.955   3.993
  173SOL    HW1 1418   6.526   0.964   3.899
  173SOL    HW2 1419   6.570   0.969   4.056
  174SOL     OW 1420   3.780   5.571   3.625
  174SOL    HW1 1421   3.767   5.665   3.658
  174SOL    HW2 1422   3.821   5.573   3.534
  175SOL     OW 1423   3.342   0.153   1.789
  175SOL    HW1 1424   3.271   0.083   1.794
  175SOL    HW2 1425   3.317   0.231   1.847
  176SOL     OW 1426   6.782   4.060   0.766
  176SOL    HW1 1427   6.725   4.033   0.844
  176SOL    HW2 1428   6.792   4.160   0.766
  177SOL     OW 1429   5.746   2.754   2.421
  177SOL    HW1 1430   5.769   2.700   2.340
  177SOL    HW2 1431   5.820   2.819   2.440
  178SOL     OW 1432   2.263   3.296   6.440
  178SOL    HW1 1433   2.267   3.199   6.415
  178SOL    HW2 1434   2.277   3.351   6.358
  179SOL     OW 1435   4.369   1.643   5.520
  179SOL    HW1 1436   4.322   1.604   5.599
  179SOL    HW2 1437   4.315   1.627   5.438
  180SOL     OW 1438   2.065   6.832   0.265
  180SOL    HW1 1439   2.047   6.758   0.202
  180SOL    HW2 1440   2.034   6.807   0.357
  181SOL     OW 1441   3.470   3.238   6.061
  181SOL    HW1 1442   3.421   3.319   6.027
  181SOL    HW2 1443   3.413   3.190   6.127
  182SOL     OW 1444   3.596   2.161   5.153
  182SOL    HW1 1445   3.522   2.158   5.220
  182SOL    HW2 1446   3.661   2.086   5.172
  183SOL     OW 1447   3.672   2.063   3.256
  183SOL    HW1 1448   3.705   1.976   3.293
  183SOL    HW2 1449   3.732   2.137   3.287
  184SOL     OW 1450   0.940   6.518   4.572
  184SOL    HW1 1451   0.957   6.553   4.664
  184SOL    HW2 1452   0.851   6.550   4.539
  185SOL     OW 1453   0.997   1.388   6.260
  185SOL    HW1 1454   0.934   1.318   6.226
  185SOL    HW2 1455   1.012   1.374   6.358
  186SOL     OW 1456   5.428   0.699   4.490
  186SOL    HW1 1457   5.488   0.620   4.485
  186SOL    HW2 1458   5.350   0.686   4.429
  187SOL     OW 1459   4.919   0.112   2.333
  187SOL    HW1 1460   4.972   0.041   2.286
  187SOL    HW2 1461   4.950   0.119   2.428
  188SOL     OW 1462   0.978   3.001   3.057
  188SOL    HW1 1463   1.076   3.008   3.039
  188SOL    HW2 1464   0.961   3.009   3.155
  189SOL     OW 1465   2.092   4.899   1.119
  189SOL    HW1 1466   2.061   4.995   1.122
  189SOL    HW2 1467   2.092   4.861   1.211
  190SOL     OW 1468   4.955   2.583   4.591
  190SOL    HW1 1469   4.918   2.512   4.531
  190SOL    HW2 1470   4.916   2.671   4.565
  191SOL     OW 1471   5.775   0.431   6.768
  191SOL    HW1 1472   5.695   0.437   6.708
  191SOL    HW2 1473   5.752   0.375   6.848
  192SOL     OW 1474   0.882   5.569   1.976
  192SOL    HW1 1475   0.861   5.592   1.881
  192SOL    HW2 1476   0.957   5.626   2.009
  193SOL     OW 1477   4.283   3.746   5.393
  193SOL    HW1 1478   4.249   3.741   5.299
  193SOL    HW2 1479   4.268   3.659   5.439
  194SOL     OW 1480   4.079   1.186   3.156
  194SOL    HW1 1481   4.177   1.209   3.158
  194SOL    HW2 1482   4.037   1.232   3.077
  195SOL     OW 1483   1.547   0.100   4.549
  195SOL    HW1 1484   1.520   0.135   4.639
  195SOL    HW2 1485   1.642   0.126   4.531
  196SOL     OW 1486   2.634   0.919   0.985
  196SOL    HW1 1487   2.719   0.953   1.027
  196SOL    HW2 1488   2.626   0.821   1.002
  197SOL     OW 1489   2.519   6.914   1.607
  197SOL    HW1 1490   2.435   6.884   1.562
  197SOL    HW2 1491   2.591   6.926   1.538
  198SOL     OW 1492   5.228   0.074   1.425
  198SOL    HW1 1493   5.159   0.131   1.469
  198SOL    HW2 1494   5.197   0.050   1.333
  199SOL     OW 1495   0.461   1.630   3.782
  199SOL    HW1 1496   0.549   1.583   3.773
  199SOL    HW2 1497   0.411   1.592   3.859
  200SOL     OW 1498   0.582   4.276   1.829
  200SOL    HW1 1499   0.682   4.275   1.817
  200SOL    HW2 1500   0.538   4.277   1.740
  201SOL     OW 1501   6.620   6.834   5.854
  201SOL    HW1 1502   6.675   6.894   5.913
  201SOL    HW2 1503   6.556   6.890   5.802
  202SOL     OW 1504   4.669   1.001   6.394
  202SOL    HW1 1505   4.635   1.041   6.479
  202SOL    HW2 1506   4.746   0.940   6.415
  203SOL     OW 1507   4.972   2.446   4.326
  203SOL    HW1 1508   5.047   2.508   4.303
  203SOL    HW2 1509   4.975   2.366   4.266
  204SOL     OW 1510   0.791   0.901   6.055
  204SOL    HW1 1511   0.817   0.812   6.018
  204SOL    HW2 1512   0.697   0.923   6.027
  205SOL     OW 1513   0.793   1.369   2.795
  205SOL    HW1 1514   0.879   1.319   2.790
  205SOL    HW2 1515   0.760   1.388   2.702
  206SOL     OW 1516   6.924   4.641   1.071
  206SOL    HW1 1517   6.851   4.575   1.089
  206SOL    HW2 1518   7.001   4.594   1.027
  207SOL     OW 1519   5.730   1.463   3.285
  207SOL    HW1 1520   5.697   1.372   3.309
  207SOL    HW2 1521   5.673   1.532   3.328
  208SOL     OW 1522   5.610   2.584   4.850
  208SOL    HW1 1523   5.661   2.539   4.776
  208SOL    HW2 1524   5.631   2.682   4.850
  209SOL     OW 1525   0.370   4.672   3.601
  209SOL    HW1 1526   0.455   4.660   3.550
  209SOL    HW2 1527   0.309   4.595   3.583
  210SOL     OW 1528   4.128   2.114   0.935
  210SOL    HW1 1529   4.195   2.101   1.008
  210SOL    HW2 1530   4.092   2.207   0.939
  211SOL     OW 1531   2.338   5.872   2.890
  211SOL    HW1 1532   2.401   5.949   2.891
  211SOL    HW2 1533   2.246   5.905   2.870
  212SOL     OW 1534   1.097   4.671   1.558
  212SOL    HW1 1535   1.136   4.719   1.637
  212SOL    HW2 1536   1.171   4.628   1.506
  213SOL     OW 1537   3.220   0.544   0.491
  213SOL    HW1 1538   3.141   0.559   0.550
  213SOL    HW2 1539   3.198   0.571   0.398
  214SOL     OW 1540   4.773   5.251   1.286
  214SOL    HW1 1541   4.731   5.188   1.221
  214SOL    HW2 1542   4.744   5.345   1.264
  215SOL     OW 1543   2.185   3.856   0.845
  215SOL    HW1 1544   2.124   3.778   0.853
  215SOL    HW2 1545   2.242   3.846   0.764
  216SOL     OW 1546   2.450   5.902   3.899
  216SOL    HW1 1547   2.486   5.844   3.826
  216SOL    HW2 1548   2.465   5.859   3.987
  217SOL     OW 1549   1.324   2.431   3.925
  217SOL    HW1 1550   1.371   2.351   3.962
  217SOL    HW2 1551   1.231   2.405   3.897
  218SOL     OW 1552   0.523   4.126   4.303
  218SOL    HW1 1553   0.447   4.112   4.240
  218SOL    HW2 1554   0.603   4.158   4.252
  219SOL     OW 1555   4.592   6.863   6.427
  219SOL    HW1 1556   4.539   6.798   6.373
  219SOL    HW2 1557   4.604   6.948   6.375
  220SOL     OW 1558   3.066   0.155   1.091
  220SOL    HW1 1559   2.987   0.196   1.138
  220SOL    HW2 1560   3.035   0.115   1.005
  221SOL     OW 1561   6.579   2.951   1.440
  221SOL    HW1 1562   6.495   2.993   1.406
  221SOL    HW2 1563   6.650   3.021   1.447
  222SOL     OW 1564   2.524   4.966   5.555
  222SOL    HW1 1565   2.511   4.957   5.457
  222SOL    HW2 1566   2.591   5.038   5.573
  223SOL     OW 1567   5.922   2.789   6.933
  223SOL    HW1 1568   5.898   2.803   6.837
  223SOL    HW2 1569   5.984   2.710   6.940
  224SOL     OW 1570   1.860   1.728   4.623
  224SOL    HW1 1571   1.762   1.739   4.610
  224SOL    HW2 1572   1.879   1.707   4.719
  225SOL     OW 1573   4.589   3.381   6.090
  225SOL    HW1 1574   4.588   3.301   6.149
  225SOL    HW2 1575   4.519   3.446   6.120
  226SOL     OW 1576   1.201   0.771   5.797
  226SOL    HW1 1577   1.175   0.793   5.891
  226SOL    HW2 1578   1.215   0.855   5.745
  227SOL     OW 1579   1.842   3.578   2.651
  227SOL    HW1 1580   1.820   3.649   2.585
  227SOL    HW2 1581   1.914   3.519   2.613
  228SOL     OW 1582   2.944   6.166   4.142
  228SOL    HW1 1583   3.029   6.193   4.097
  228SOL    HW2 1584   2.892   6.248   4.167
  229SOL     OW 1585   5.351   6.202   6.742
  229SOL    HW1 1586   5.306   6.270   6.684
  229SOL    HW2 1587   5.284   6.163   6.805
  230SOL     OW 1588   3.194   4.906   3.755
  230SOL    HW1 1589   3.176   5.005   3.753
  230SOL    HW2 1590   3.193   4.875   3.850
  231SOL     OW 1591   6.390   1.959   6.282
  231SOL    HW1 1592   6.363   2.048   6.319
  231SOL    HW2 1593   6.309   1.904   6.264
  232SOL     OW 1594   1.246   3.038   6.391
  232SOL    HW1 1595   1.333   3.053   6.345
  232SOL    HW2 1596   1.173   3.032   6.324
  233SOL     OW 1597   2.750   1.965   3.847
  233SOL    HW1 1598   2.766   1.883   3.792
  233SOL    HW2 1599   2.652   1.983   3.851
  234SOL     OW 1600   5.095   0.259   5.187
  234SOL    HW1 1601   5.086   0.359   5.185
  234SOL    HW2 1602   5.093   0.227   5.282
  235SOL     OW 1603   3.593   2.677   1.700
  235SOL    HW1 1604   3.591   2.751   1.634
  235SOL    HW2 1605   3.649   2.703   1.779
  236SOL     OW 1606   4.855   3.084   6.518
  236SOL    HW1 1607   4.764   3.122   6.504
  236SOL    HW2 1608   4.902   3.078   6.430
  237SOL     OW 1609   5.685   4.266   2.103
  237SOL    HW1 1610   5.659   4.285   2.198
  237SOL    HW2 1611   5.775   4.222   2.102
  238SOL     OW 1612   4.983   2.341   0.520
  238SOL    HW1 1613   4.947   2.257   0.560
  238SOL    HW2 1614   5.074   2.359   0.558
  239SOL     OW 1615   0.748   5.778   6.296
  239SOL    HW1 1616   0.755   5.809   6.201
  239SOL    HW2 1617   0.814   5.705   6.313
  240SOL     OW 1618   0.338   2.739   3.326
  240SOL    HW1 1619   0.325   2.659   3.268
  240SOL    HW2 1620   0.405   2.801   3.284
  241SOL     OW 1621   2.217   0.556   4.654
  241SOL    HW1 1622   2.216   0.648   4.692
  241SOL    HW2 1623   2.312   0.523   4.648
  242SOL     OW 1624   3.534   2.863   5.045
  242SOL    HW1 1625   3.602   2.867   4.971
  242SOL    HW2 1626   3.576   2.895   5.130
  243SOL     OW 1627   4.061   0.389   5.804
  243SOL    HW1 1628   3.997   0.427   5.738
  243SOL    HW2 1629   4.115   0.316   5.761
  244SOL     OW 1630   5.837   2.633   4.629
  244SOL    HW1 1631   5.923   2.602   4.667
  244SOL    HW2 1632   5.825   2.731   4.649
  245SOL     OW 1633   6.396   3.993   3.967
  245SOL    HW1 1634   6.492   3.987   3.939
  245SOL    HW2 1635   6.378   3.928   4.040
  246SOL     OW 1636   4.978   2.780   3.541
  246SOL    HW1 1637   4.922   2.699   3.559
  246SOL    HW2 1638   5.070   2.766   3.575
  247SOL     OW 1639   3.069   1.920   1.392
  247SOL    HW1 1640   3.079   1.856   1.315
  247SOL    HW2 1641   3.043   1.869   1.474
  248SOL     OW 1642   3.730   1.884   2.706
  248SOL    HW1 1643   3.739   1.983   2.717
  248SOL    HW2 1644   3.634   1.858   2.719
  249SOL     OW 1645   4.160   0.042   5.131
  249SOL    HW1 1646   4.071   0.066   5.093
  249SOL    HW2 1647   4.170   0.085   5.221
  250SOL     OW 1648   5.398   2.617   0.940
  250SOL    HW1 1649   5.448   2.685   0.886
  250SOL    HW2 1650   5.445   2.529   0.933
  251SOL     OW 1651   4.685   4.372   5.722
  251SOL    HW1 1652   4.629   4.288   5.728
  251SOL    HW2 1653   4.744   4.378   5.802
  252SOL     OW 1654   6.032   6.264   0.047
  252SOL    HW1 1655   6.107   6.283   0.109
  252SOL    HW2 1656   6.042   6.171   0.010
  253SOL     OW 1657   3.137   4.987   0.424
  253SOL    HW1 1658   3.089   5.065   0.384
  253SOL    HW2 1659   3.098   4.966   0.513
  254SOL     OW 1660   5.310   3.004   3.472
  254SOL    HW1 1661   5.401   3.028   3.506
  254SOL    HW2 1662   5.291   2.909   3.494
  255SOL     OW 1663   1.674   3.412   4.658
  255SOL    HW1 1664   1.661   3.320   4.622
  255SOL    HW2 1665   1.677   3.477   4.582
  256SOL     OW 1666   6.543   4.193   6.196
  256SOL    HW1 1667   6.552   4.115   6.135
  256SOL    HW2 1668   6.452   4.232   6.187
  257SOL     OW 1669   5.062   6.522   3.742
  257SOL    HW1 1670   5.158   6.511   3.714
  257SOL    HW2 1671   5.004   6.466   3.684
  258SOL     OW 1672   1.712   5.041   4.462
  258SOL    HW1 1673   1.654   5.062   4.383
  258SOL    HW2 1674   1.688   5.102   4.537
  259SOL     OW 1675   1.193   1.621   1.913
  259SOL    HW1 1676   1.173   1.529   1.944
  259SOL    HW2 1677   1.292   1.637   1.918
  260SOL     OW 1678   4.263   1.096   1.106
  260SOL    HW1 1679   4.237   1.005   1.073
  260SOL    HW2 1680   4.361   1.110   1.090
  261SOL     OW 1681   6.491   3.788   0.237
  261SOL    HW1 1682   6.466   3.702   0.282
  261SOL    HW2 1683   6.413   3.849   0.237
  262SOL     OW 1684   6.740   4.113   0.475
  262SOL    HW1 1685   6.769   4.117   0.571
  262SOL    HW2 1686   6.811   4.156   0.418
  263SOL     OW 1687   0.682   1.062   3.734
  263SOL    HW1 1688   0.625   1.143   3.744
  263SOL    HW2 1689   0.762   1.070   3.793
  264SOL     OW 1690   4.930   3.407   6.644
  264SOL    HW1 1691   4.971   3.316   6.639
  264SOL    HW2 1692   4.959   3.452   6.729
  265SOL     OW 1693   4.710   5.261   2.641
  265SOL    HW1 1694   4.630   5.286   2.586
  265SOL    HW2 1695   4.711   5.163   2.656
  266SOL     OW 1696   2.891   2.927   5.573
  266SOL    HW1 1697   2.830   2.923   5.652
  266SOL    HW2 1698   2.917   3.022   5.554
  267SOL     OW 1699   0.366   1.660   6.637
  267SOL    HW1 1700   0.344   1.673   6.540
  267SOL    HW2 1701   0.439   1.593   6.645
  268SOL     OW 1702   3.740   0.679   5.473
  268SOL    HW1 1703   3.784   0.685   5.383
  268SOL    HW2 1704   3.671   0.751   5.481
  269SOL     OW 1705   1.296   3.385   1.727
  269SOL    HW1 1706   1.248   3.306   1.766
  269SOL    HW2 1707   1.348   3.431   1.799
  270SOL     OW 1708   6.905   0.435   6.962
  270SOL    HW1 1709   6.949   0.362   7.015
  270SOL    HW2 1710   6.808   0.439   6.984
  271SOL     OW 1711   1.437   1.711   0.020
  271SOL    HW1 1712   1.473   1.795   0.061
  271SOL    HW2 1713   1.512   1.646   0.008
  272SOL     OW 1714   3.179   4.874   4.115
  272SOL    HW1 1715   3.258   4.898   4.058
  272SOL    HW2 1716   3.095   4.886   4.062
  273SOL     OW 1717   1.767   4.153   5.004
  273SOL    HW1 1718   1.741   4.068   5.049
  273SOL    HW2 1719   1.849   4.138   4.949
  274SOL     OW 1720   4.733   1.445   2.386
  274SOL    HW1 1721   4.754   1.525   2.442
  274SOL    HW2 1722   4.817   1.396   2.365
  275SOL     OW 1723   5.920   5.038   5.277
  275SOL    HW1 1724   5.904   5.121   5.223
  275SOL    HW2 1725   6.009   5.044   5.322
  276SOL     OW 1726   0.151   5.700   2.544
  276SOL    HW1 1727   0.092   5.683   2.465
  276SOL    HW2 1728   0.194   5.614   2.572
  277SOL     OW 1729   1.562   3.583   0.772
  277SOL    HW1 1730   1.533   3.487   0.771
  277SOL    HW2 1731   1.609   3.603   0.858
  278SOL     OW 1732   6.218   5.328   1.700
  278SOL    HW1 1733   6.136   5.318   1.644
  278SOL    HW2 1734   6.284   5.386   1.653
  279SOL     OW 1735   5.959   2.883   4.717
  279SOL    HW1 1736   6.020   2.951   4.756
  279SOL    HW2 1737   5.937   2.908   4.622
  280SOL     OW 1738   2.963   0.045   3.035
  280SOL    HW1 1739   3.054   0.039   2.994
  280SOL    HW2 1740   2.968   0.023   3.132
  281SOL     OW 1741   3.350   4.905   2.331
  281SOL    HW1 1742   3.403   4.987   2.312
  281SOL    HW2 1743   3.300   4.878   2.248
  282SOL     OW 1744   3.571   1.672   5.447
  282SOL    HW1 1745   3.496   1.723   5.405
  282SOL    HW2 1746   3.612   1.726   5.520
  283SOL     OW 1747   6.543   1.480   5.782
  283SOL    HW1 1748   6.505   1.391   5.810
  283SOL    HW2 1749   6.476   1.528   5.724
  284SOL     OW 1750   1.174   4.158   4.671
  284SOL    HW1 1751   1.103   4.122   4.611
  284SOL    HW2 1752   1.140   4.160   4.765
  285SOL     OW 1753   5.997   4.869   5.551
  285SOL    HW1 1754   6.091   4.846   5.529
  285SOL    HW2 1755   5.935   4.799   5.514
  286SOL     OW 1756   3.056   5.801   5.317
  286SOL    HW1 1757   3.047   5.712   5.363
  286SOL    HW2 1758   2.968   5.829   5.279
  287SOL     OW 1759   0.212   4.292   6.841
  287SOL    HW1 1760   0.200   4.282   6.742
  287SOL    HW2 1761   0.244   4.205   6.879
  288SOL     OW 1762   3.641   2.114   5.712
  288SOL    HW1 1763   3.567   2.146   5.654
  288SOL    HW2 1764   3.704   2.057   5.659
  289SOL     OW 1765   0.281   4.832   4.870
  289SOL    HW1 1766   0.248   4.926   4.879
  289SOL    HW2 1767   0.353   4.815   4.937
  290SOL     OW 1768   5.389   1.822   4.176
  290SOL    HW1 1769   5.357   1.783   4.090
  290SOL    HW2 1770   5.328   1.795   4.250
  291SOL     OW 1771   1.638   2.024   4.719
  291SOL    HW1 1772   1.569   2.094   4.706
  291SOL    HW2 1773   1.601   1.950   4.775
  292SOL     OW 1774   1.540   1.849   3.019
  292SOL    HW1 1775   1.498   1.937   2.995
  292SOL    HW2 1776   1.639   1.860   3.020
  293SOL     OW 1777   4.531   4.692   1.672
  293SOL    HW1 1778   4.518   4.601   1.633
  293SOL    HW2 1779   4.483   4.698   1.760
  294SOL     OW 1780   6.137   5.405   6.466
  294SOL    HW1 1781   6.050   5.411   6.514
  294SOL    HW2 1782   6.212   5.400   6.532
  295SOL     OW 1783   3.112   2.008   4.180
  295SOL    HW1 1784   3.015   1.995   4.161
  295SOL    HW2 1785   3.123   2.075   4.253
  296SOL     OW 1786   5.251   1.744   2.489
  296SOL    HW1 1787   5.167   1.701   2.458
  296SOL    HW2 1788   5.329   1.703   2.441
  297SOL     OW 1789   2.244   4.371   2.910
  297SOL    HW1 1790   2.203   4.462   2.900
  297SOL    HW2 1791   2.331   4.379   2.958
  298SOL     OW 1792   3.531   6.161   0.504
  298SOL    HW1 1793   3.597   6.087   0.497
  298SOL    HW2 1794   3.505   6.173   0.600
  299SOL     OW 1795   3.980   3.542   6.301
  299SOL    HW1 1796   3.958   3.554   6.398
  299SOL    HW2 1797   3.936   3.459   6.266
  300SOL     OW 1798   5.652   0.742   1.530
  300SOL    HW1 1799   5.655   0.643   1.543
  300SOL    HW2 1800   5.744   0.775   1.508
  301SOL     OW 1801   5.311   2.915   0.920
  301SOL    HW1 1802   5.325   2.869   1.008
  301SOL    HW2 1803   5.308   3.014   0.935
  302SOL     OW 1804   0.489   0.874   3.745
  302SOL    HW1 1805   0.543   0.957   3.734
  302SOL    HW2 1806   0.449   0.848   3.657
  303SOL     OW 1807   6.320   6.996   1.243
  303SOL    HW1 1808   6.374   0.014   1.173
  303SOL    HW2 1809   6.366   6.912   1.273
  304SOL     OW 1810   2.249   0.174   4.624
  304SOL    HW1 1811   2.223   0.126   4.708
  304SOL    HW2 1812   2.340   0.212   4.634
  305SOL     OW 1813   0.442   3.122   0.455
  305SOL    HW1 1814   0.370   3.107   0.523
  305SOL    HW2 1815   0.432   3.214   0.416
  306SOL     OW 1816   2.144   0.314   3.716
  306SOL    HW1 1817   2.085   0.336   3.794
  306SOL    HW2 1818   2.112   0.229   3.673
  307SOL     OW 1819   4.875   6.536   0.301
  307SOL    HW1 1820   4.813   6.607   0.268
  307SOL    HW2 1821   4.860   6.452   0.249
  308SOL     OW 1822   6.184   3.379   5.200
  308SOL    HW1 1823   6.213   3.467   5.165
  308SOL    HW2 1824   6.101   3.391   5.255
  309SOL     OW 1825   3.339   5.830   6.681
  309SOL    HW1 1826   3.426   5.863   6.646
  309SOL    HW2 1827   3.266   5.894   6.656
  310SOL     OW 1828   6.453   0.100   5.030
  310SOL    HW1 1829   6.533   0.051   5.066
  310SOL    HW2 1830   6.421   0.055   4.947
  311SOL     OW 1831   4.873   4.804   2.862
  311SOL    HW1 1832   4.861   4.810   2.763
  311SOL    HW2 1833   4.797   4.851   2.908
  312SOL     OW 1834   3.934   0.978   5.472
  312SOL    HW1 1835   3.866   1.035   5.427
  312SOL    HW2 1836   4.009   0.960   5.408
  313SOL     OW 1837   3.222   3.819   2.490
  313SOL    HW1 1838   3.267   3.909   2.495
  313SOL    HW2 1839   3.127   3.828   2.517
  314SOL     OW 1840   3.632   5.407   6.722
  314SOL    HW1 1841   3.620   5.408   6.821
  314SOL    HW2 1842   3.714   5.355   6.699
  315SOL     OW 1843   1.493   2.692   3.689
  315SOL    HW1 1844   1.506   2.601   3.651
  315SOL    HW2 1845   1.529   2.761   3.626
  316SOL     OW 1846   2.996   1.745   4.056
  316SOL    HW1 1847   2.954   1.835   4.049
  316SOL    HW2 1848   3.020   1.712   3.965
  317SOL     OW 1849   0.491   0.761   0.859
  317SOL    HW1 1850   0.581   0.770   0.902
  317SOL    HW2 1851   0.425   0.731   0.927
  318SOL     OW 1852   0.957   5.916   6.683
  318SOL    HW1 1853   1.020   5.839   6.694
  318SOL    HW2 1854   0.988   5.974   6.607
  319SOL     OW 1855   6.664   0.631   3.741
  319SOL    HW1 1856   6.752   0.584   3.732
  319SOL    HW2 1857   6.677   0.729   3.735
  320SOL     OW 1858   6.389   2.369   0.298
  320SOL    HW1 1859   6.357   2.403   0.386
  320SOL    HW2 1860   6.429   2.278   0.311
  321SOL     OW 1861   3.874   1.656   0.345
  321SOL    HW1 1862   3.860   1.580   0.282
  321SOL    HW2 1863   3.881   1.621   0.439
  322SOL     OW 1864   4.166   3.544   4.323
  322SOL    HW1 1865   4.192   3.543   4.419
  322SOL    HW2 1866   4.204   3.462   4.278
  323SOL     OW 1867   0.946   2.825   6.481
  323SOL    HW1 1868   1.002   2.861   6.556
  323SOL    HW2 1869   0.999   2.759   6.428
  324SOL     OW 1870   2.543   1.864   4.828
  324SOL    HW1 1871   2.597   1.781   4.815
  324SOL    HW2 1872   2.598   1.944   4.803
  325SOL     OW 1873   0.832   2.900   1.670
  325SOL    HW1 1874   0.887   2.853   1.738
  325SOL    HW2 1875   0.827   2.997   1.693
  326SOL     OW 1876   0.880   5.013   6.868
  326SOL    HW1 1877   0.958   5.059   6.825
  326SOL    HW2 1878   0.847   5.067   6.945
  327SOL     OW 1879   1.725   5.299   3.728
  327SOL    HW1 1880   1.755   5.384   3.772
  327SOL    HW2 1881   1.775   5.287   3.642
  328SOL     OW 1882   0.875   5.147   1.821
  328SOL    HW1 1883   0.866   5.204   1.903
  328SOL    HW2 1884   0.795   5.087   1.814
  329SOL     OW 1885   4.013   3.771   4.682
  329SOL    HW1 1886   3.933   3.723   4.646
  329SOL    HW2 1887   3.992   3.869   4.689
  330SOL     OW 1888   3.191   0.144   1.507
  330SOL    HW1 1889   3.127   0.207   1.550
  330SOL    HW2 1890   3.283   0.158   1.545
  331SOL     OW 1891   3.788   5.630   0.849
  331SOL    HW1 1892   3.822   5.536   0.853
  331SOL    HW2 1893   3.798   5.665   0.756
  332SOL     OW 1894   3.943   1.758   5.010
  332SOL    HW1 1895   3.855   1.767   4.964
  332SOL    HW2 1896   3.929   1.719   5.101
  333SOL     OW 1897   3.381   0.098   6.173
  333SOL    HW1 1898   3.461   0.072   6.119
  333SOL    HW2 1899   3.391   0.193   6.204
  334SOL     OW 1900   2.363   0.830   1.610
  334SOL    HW1 1901   2.392   0.738   1.635
  334SOL    HW2 1902   2.271   0.826   1.569
  335SOL     OW 1903   4.069   6.488   4.864
  335SOL    HW1 1904   4.108   6.564   4.917
  335SOL    HW2 1905   4.117   6.480   4.777
  336SOL     OW 1906   2.096   0.683   3.845
  336SOL    HW1 1907   2.033   0.760   3.841
  336SOL    HW2 1908   2.050   0.599   3.816
  337SOL     OW 1909   0.431   2.854   0.116
  337SOL    HW1 1910   0.457   2.783   0.050
  337SOL    HW2 1911   0.339   2.837   0.150
  338SOL     OW 1912   2.739   2.590   1.724
  338SOL    HW1 1913   2.766   2.581   1.628
  338SOL    HW2 1914   2.805   2.542   1.782
  339SOL     OW 1915   3.021   6.923   3.966
  339SOL    HW1 1916   2.971   6.864   4.029
  339SOL    HW2 1917   3.066   6.868   3.896
  340SOL     OW 1918   5.021   4.569   5.511
  340SOL    HW1 1919   5.004   4.667   5.500
  340SOL    HW2 1920   5.060   4.532   5.427
  341SOL     OW 1921   6.569   1.470   4.850
  341SOL    HW1 1922   6.522   1.547   4.893
  341SOL    HW2 1923   6.658   1.457   4.893
  342SOL     OW 1924   6.130   4.036   6.862
  342SOL    HW1 1925   6.143   3.936   6.864
  342SOL    HW2 1926   6.197   4.079   6.922
  343SOL     OW 1927   1.906   4.638   0.539
  343SOL    HW1 1928   1.974   4.586   0.487
  343SOL    HW2 1929   1.945   4.725   0.568
  344SOL     OW 1930   0.754   4.949   2.256
  344SOL    HW1 1931   0.714   4.874   2.309
  344SOL    HW2 1932   0.690   4.978   2.185
  345SOL     OW 1933   5.049   1.612   3.625
  345SOL    HW1 1934   5.056   1.698   3.575
  345SOL    HW2 1935   5.122   1.550   3.595
  346SOL     OW 1936   1.838   1.172   2.402
  346SOL    HW1 1937   1.814   1.140   2.494
  346SOL    HW2 1938   1.824   1.271   2.396
  347SOL     OW 1939   3.276   5.590   6.376
  347SOL    HW1 1940   3.250   5.499   6.345
  347SOL    HW2 1941   3.307   5.585   6.471
  348SOL     OW 1942   5.380   4.282   1.525
  348SOL    HW1 1943   5.408   4.196   1.482
  348SOL    HW2 1944   5.419   4.359   1.475
  349SOL     OW 1945   6.630   4.544   0.716
  349SOL    HW1 1946   6.654   4.641   0.729
  349SOL    HW2 1947   6.606   4.528   0.620
  350SOL     OW 1948   3.614   3.089   0.866
  350SOL    HW1 1949   3.633   3.151   0.942
  350SOL    HW2 1950   3.681   3.104   0.794
  351SOL     OW 1951   1.947   2.515   0.127
  351SOL    HW1 1952   1.869   2.546   0.181
  351SOL    HW2 1953   1.918   2.498   0.033
  352SOL     OW 1954   3.139   1.034   4.541
  352SOL    HW1 1955   3.224   1.045   4.592
  352SOL    HW2 1956   3.154   1.056   4.445
  353SOL     OW 1957   2.537   6.132   0.953
  353SOL    HW1 1958   2.589   6.147   0.869
  353SOL    HW2 1959   2.507   6.036   0.957
  354SOL     OW 1960   3.256   2.602   0.310
  354SOL    HW1 1961   3.298   2.605   0.400
  354SOL    HW2 1962   3.163   2.640   0.314
  355SOL     OW 1963   0.370   3.532   2.821
  355SOL    HW1 1964   0.418   3.467   2.762
  355SOL    HW2 1965   0.436   3.597   2.859
  356SOL     OW 1966   3.225   6.596   5.109
  356SOL    HW1 1967   3.188   6.514   5.067
  356SOL    HW2 1968   3.306   6.626   5.058
  357SOL     OW 1969   6.460   6.935   5.649
  357SOL    HW1 1970   6.529   6.880   5.602
  357SOL    HW2 1971   6.466   0.002   5.618
  358SOL     OW 1972   5.010   0.206   1.506
  358SOL    HW1 1973   5.007   0.274   1.580
  358SOL    HW2 1974   4.921   0.202   1.461
  359SOL     OW 1975   1.335   1.969   2.112
  359SOL    HW1 1976   1.269   2.010   2.050
  359SOL    HW2 1977   1.311   1.989   2.206
  360SOL     OW 1978   1.024   5.805   6.383
  360SOL    HW1 1979   0.960   5.881   6.379
  360SOL    HW2 1980   1.049   5.788   6.478
  361SOL     OW 1981   5.946   5.749   3.395
  361SOL    HW1 1982   5.871   5.790   3.446
  361SOL    HW2 1983   5.995   5.820   3.345
  362SOL     OW 1984   3.835   3.525   1.298
  362SOL    HW1 1985   3.847   3.553   1.202
  362SOL    HW2 1986   3.843   3.606   1.356
  363SOL     OW 1987   5.185   4.832   3.661
  363SOL    HW1 1988   5.227   4.742   3.674
  363SOL    HW2 1989   5.176   4.878   3.749
  364SOL     OW 1990   6.402   5.418   5.934
  364SOL    HW1 1991   6.487   5.435   5.983
  364SOL    HW2 1992   6.403   5.468   5.847
  365SOL     OW 1993   5.891   5.748   2.352
  365SOL    HW1 1994   5.970   5.739   2.413
  365SOL    HW2 1995   5.813   5.783   2.403
  366SOL     OW 1996   6.106   0.703   6.501
  366SOL    HW1 1997   6.048   0.634   6.543
  366SOL    HW2 1998   6.128   0.676   6.407
  367SOL     OW 1999   5.126   3.148   1.330
  367SOL    HW1 2000   5.115   3.110   1.422
  367SOL    HW2 2001   5.222   3.141   1.303
  368SOL     OW 2002   0.125   3.616   5.034
  368SOL    HW1 2003   0.171   3.686   4.980
  368SOL    HW2 2004   0.131   3.528   4.987
  369SOL     OW 2005   6.415   5.312   1.366
  369SOL    HW1 2006   6.513   5.331   1.381
  369SOL    HW2 2007   6.362   5.391   1.396
  370SOL     OW 2008   2.565   1.931   5.537
  370SOL    HW1 2009   2.522   1.969   5.618
  370SOL    HW2 2010   2.623   2.000   5.494
  371SOL     OW 2011   2.798   3.517   6.959
  371SOL    HW1 2012   2.777   3.599   7.013
  371SOL    HW2 2013   2.890   3.526   6.920
  372SOL     OW 2014   0.641   6.758   5.802
  372SOL    HW1 2015   0.687   6.754   5.891
  372SOL    HW2 2016   0.546   6.786   5.814
  373SOL     OW 2017   6.257   6.036   4.957
  373SOL    HW1 2018   6.178   5.978   4.976
  373SOL    HW2 2019   6.236   6.097   4.881
  374SOL     OW 2020   3.192   1.680   2.995
  374SOL    HW1 2021   3.150   1.712   2.909
  374SOL    HW2 2022   3.159   1.738   3.070
  375SOL     OW 2023   0.892   4.872   3.836
  375SOL    HW1 2024   0.815   4.927   3.869
  375SOL    HW2 2025   0.890   4.783   3.881
  376SOL     OW 2026   2.118   1.563   4.552
  376SOL    HW1 2027   2.103   1.473   4.511
  376SOL    HW2 2028   2.039   1.622   4.533
  377SOL     OW 2029   0.372   2.341   1.606
  377SOL    HW1 2030   0.434   2.329   1.683
  377SOL    HW2 2031   0.310   2.417   1.625
  378SOL     OW 2032   3.133   2.665   5.577
  378SOL    HW1 2033   3.101   2.701   5.490
  378SOL    HW2 2034   3.173   2.575   5.563
  379SOL     OW 2035   6.052   4.258   0.960
  379SOL    HW1 2036   6.085   4.250   0.866
  379SOL    HW2 2037   6.055   4.354   0.988
  380SOL     OW 2038   3.146   1.325   1.544
  380SOL    HW1 2039   3.054   1.292   1.522
  380SOL    HW2 2040   3.162   1.314   1.642
  381SOL     OW 2041   1.372   4.711   2.830
  381SOL    HW1 2042   1.297   4.645   2.829
  381SOL    HW2 2043   1.345   4.793   2.880
  382SOL     OW 2044   5.255   6.331   5.570
  382SOL    HW1 2045   5.288   6.335   5.475
  382SOL    HW2 2046   5.282   6.243   5.610
  383SOL     OW 2047   4.914   3.233   5.568
  383SOL    HW1 2048   4.835   3.186   5.526
  383SOL    HW2 2049   4.992   3.171   5.569
  384SOL     OW 2050   6.167   5.485   4.561
  384SOL    HW1 2051   6.209   5.394   4.566
  384SOL    HW2 2052   6.172   5.529   4.651
  385SOL     OW 2053   4.312   6.313   5.514
  385SOL    HW1 2054   4.374   6.298   5.592
  385SOL    HW2 2055   4.281   6.225   5.478
  386SOL     OW 2056   2.547   6.184   5.385
  386SOL    HW1 2057   2.596   6.270   5.371
  386SOL    HW2 2058   2.611   6.111   5.408
  387SOL     OW 2059   0.758   6.469   3.496
  387SOL    HW1 2060   0.731   6.557   3.535
  387SOL    HW2 2061   0.834   6.483   3.433
  388SOL     OW 2062   1.706   2.046   3.753
  388SOL    HW1 2063   1.681   1.953   3.782
  388SOL    HW2 2064   1.624   2.100   3.739
  389SOL     OW 2065   4.429   4.152   1.415
  389SOL    HW1 2066   4.397   4.099   1.493
  389SOL    HW2 2067   4.378   4.124   1.333
  390SOL     OW 2068   3.458   1.329   0.024
  390SOL    HW1 2069   3.505   1.340   0.112
  390SOL    HW2 2070   3.520   1.290   6.984
  391SOL     OW 2071   1.914   4.107   5.846
  391SOL    HW1 2072   1.861   4.184   5.883
  391SOL    HW2 2073   1.975   4.139   5.774
  392SOL     OW 2074   1.609   4.214   1.461
  392SOL    HW1 2075   1.566   4.303   1.477
  392SOL    HW2 2076   1.671   4.221   1.382
  393SOL     OW 2077   0.889   4.752   6.974
  393SOL    HW1 2078   0.913   4.706   6.889
  393SOL    HW2 2079   0.888   4.851   6.959
  394SOL     OW 2080   0.272   2.501   6.863
  394SOL    HW1 2081   0.215   2.582   6.855
  394SOL    HW2 2082   0.281   2.476   6.959
  395SOL     OW 2083   4.841   4.656   3.296
  395SOL    HW1 2084   4.829   4.580   3.232
  395SOL    HW2 2085   4.883   4.733   3.248
  396SOL     OW 2086   2.812   3.439   2.080
  396SOL    HW1 2087   2.827   3.464   1.984
  396SOL    HW2 2088   2.721   3.398   2.090
  397SOL     OW 2089   5.403   2.113   5.936
  397SOL    HW1 2090   5.389   2.129   6.034
  397SOL    HW2 2091   5.495   2.142   5.910
  398SOL     OW 2092   1.375   0.235   3.282
  398SOL    HW1 2093   1.459   0.283   3.308
  398SOL    HW2 2094   1.298   0.272   3.335
  399SOL     OW 2095   5.634   6.246   4.302
  399SOL    HW1 2096   5.715   6.196   4.273
  399SOL    HW2 2097   5.649   6.344   4.293
  400SOL     OW 2098   6.048   6.165   5.934
  400SOL    HW1 2099   6.046   6.262   5.959
  400SOL    HW2 2100   6.120   6.119   5.986
  401SOL     OW 2101   4.986   0.017   5.906
  401SOL    HW1 2102   4.996   7.021   5.810
  401SOL    HW2 2103   5.030   0.106   5.923
  402SOL     OW 2104   6.623   0.940   3.117
  402SOL    HW1 2105   6.601   1.036   3.102
  402SOL    HW2 2106   6.567   0.883   3.056
  403SOL     OW 2107   3.778   0.705   5.171
  403SOL    HW1 2108   3.852   0.742   5.114
  403SOL    HW2 2109   3.713   0.656   5.113
  404SOL     OW 2110   1.757   5.092   4.743
  404SOL    HW1 2111   1.677   5.043   4.777
  404SOL    HW2 2112   1.733   5.187   4.725
  405SOL     OW 2113   2.148   3.533   2.847
  405SOL    HW1 2114   2.128   3.517   2.750
  405SOL    HW2 2115   2.087   3.604   2.882
  406SOL     OW 2116   0.265   4.420   5.079
  406SOL    HW1 2117   0.362   4.424   5.105
  406SOL    HW2 2118   0.253   4.465   4.990
  407SOL     OW 2119   1.520   2.286   5.083
  407SOL    HW1 2120   1.422   2.282   5.104
  407SOL    HW2 2121   1.559   2.194   5.088
  408SOL     OW 2122   3.305   1.999   3.014
  408SOL    HW1 2123   3.402   1.986   2.989
  408SOL    HW2 2124   3.279   1.931   3.082
  409SOL     OW 2125   6.729   3.488   1.447
  409SOL    HW1 2126   6.653   3.501   1.383
  409SOL    HW2 2127   6.771   3.576   1.468
  410SOL     OW 2128   1.379   1.732   1.129
  410SOL    HW1 2129   1.364   1.638   1.098
  410SOL    HW2 2130   1.477   1.746   1.146
  411SOL     OW 2131   6.446   0.483   1.426
  411SOL    HW1 2132   6.352   0.514   1.420
  411SOL    HW2 2133   6.493   0.501   1.340
  412SOL     OW 2134   3.507   4.907   3.105
  412SOL    HW1 2135   3.592   4.917   3.055
  412SOL    HW2 2136   3.524   4.916   3.203
  413SOL     OW 2137   4.723   4.226   1.391
  413SOL    HW1 2138   4.625   4.220   1.375
  413SOL    HW2 2139   4.760   4.308   1.347
  414SOL     OW 2140   2.807   6.816   4.213
  414SOL    HW1 2141   2.835   6.912   4.226
  414SOL    HW2 2142   2.709   6.807   4.231
  415SOL     OW 2143   0.741   0.098   6.658
  415SOL    HW1 2144   0.666   0.076   6.720
  415SOL    HW2 2145   0.707   0.103   6.565
  416SOL     OW 2146   4.922   5.281   4.921
  416SOL    HW1 2147   4.987   5.357   4.926
  416SOL    HW2 2148   4.883   5.275   4.829
  417SOL     OW 2149   2.406   0.372   6.054
  417SOL    HW1 2150   2.367   0.462   6.074
  417SOL    HW2 2151   2.505   0.380   6.044
  418SOL     OW 2152   2.784   6.756   6.046
  418SOL    HW1 2153   2.704   6.814   6.061
  418SOL    HW2 2154   2.851   6.771   6.119
  419SOL     OW 2155   0.887   6.907   2.731
  419SOL    HW1 2156   0.981   6.874   2.745
  419SOL    HW2 2157   0.859   6.885   2.638
  420SOL     OW 2158   5.984   1.280   6.663
  420SOL    HW1 2159   5.932   1.241   6.587
  420SOL    HW2 2160   6.033   1.362   6.632
  421SOL     OW 2161   5.875   3.476   4.875
  421SOL    HW1 2162   5.941   3.534   4.827
  421SOL    HW2 2163   5.864   3.508   4.969
  422SOL     OW 2164   4.819   3.199   0.462
  422SOL    HW1 2165   4.789   3.254   0.540
  422SOL    HW2 2166   4.840   3.259   0.385
  423SOL     OW 2167   2.278   1.564   6.861
  423SOL    HW1 2168   2.239   1.525   6.777
  423SOL    HW2 2169   2.372   1.534   6.871
  424SOL     OW 2170   1.603   4.779   2.705
  424SOL    HW1 2171   1.603   4.878   2.721
  424SOL    HW2 2172   1.520   4.739   2.742
  425SOL     OW 2173   4.985   1.771   4.411
  425SOL    HW1 2174   4.903   1.761   4.355
  425SOL    HW2 2175   5.013   1.867   4.412
  426SOL     OW 2176   2.331   2.601   4.554
  426SOL    HW1 2177   2.257   2.535   4.542
  426SOL    HW2 2178   2.326   2.641   4.645
  427SOL     OW 2179   6.121   0.346   4.023
  427SOL    HW1 2180   6.095   0.426   4.076
  427SOL    HW2 2181   6.106   0.364   3.926
  428SOL     OW 2182   3.837   0.932   3.044
  428SOL    HW1 2183   3.887   0.942   3.130
  428SOL    HW2 2184   3.805   1.022   3.014
  429SOL     OW 2185   0.975   5.017   3.571
  429SOL    HW1 2186   0.978   4.949   3.644
  429SOL    HW2 2187   0.954   5.107   3.611
  430SOL     OW 2188   1.070   6.784   4.395
  430SOL    HW1 2189   0.985   6.814   4.353
  430SOL    HW2 2190   1.072   6.812   4.491
  431SOL     OW 2191   2.814   1.863   0.681
  431SOL    HW1 2192   2.910   1.881   0.660
  431SOL    HW2 2193   2.807   1.777   0.732
  432SOL     OW 2194   5.989   2.369   0.760
  432SOL    HW1 2195   5.989   2.407   0.667
  432SOL    HW2 2196   5.901   2.325   0.777
  433SOL     OW 2197   2.365   6.372   6.128
  433SOL    HW1 2198   2.422   6.444   6.088
  433SOL    HW2 2199   2.392   6.357   6.223
  434SOL     OW 2200   4.203   5.924   3.431
  434SOL    HW1 2201   4.104   5.935   3.436
  434SOL    HW2 2202   4.247   5.999   3.478
  435SOL     OW 2203   3.657   2.347   5.320
  435SOL    HW1 2204   3.652   2.282   5.245
  435SOL    HW2 2205   3.752   2.361   5.347
  436SOL     OW 2206   3.311   5.650   2.519
  436SOL    HW1 2207   3.275   5.619   2.431
  436SOL    HW2 2208   3.360   5.736   2.506
  437SOL     OW 2209   0.633   1.334   5.917
  437SOL    HW1 2210   0.551   1.283   5.943
  437SOL    HW2 2211   0.619   1.431   5.935
  438SOL     OW 2212   1.259   3.617   3.659
  438SOL    HW1 2213   1.352   3.604   3.695
  438SOL    HW2 2214   1.245   3.713   3.637
  439SOL     OW 2215   5.809   6.324   2.191
  439SOL    HW1 2216   5.822   6.236   2.236
  439SOL    HW2 2217   5.830   6.398   2.255
  440SOL     OW 2218   3.443   1.621   6.137
  440SOL    HW1 2219   3.408   1.675   6.214
  440SOL    HW2 2220   3.471   1.683   6.063
  441SOL     OW 2221   6.095   4.198   3.668
  441SOL    HW1 2222   6.145   4.112   3.667
  441SOL    HW2 2223   6.002   4.183   3.634
  442SOL     OW 2224   4.615   5.312   5.380
  442SOL    HW1 2225   4.658   5.361   5.456
  442SOL    HW2 2226   4.641   5.356   5.293
  443SOL     OW 2227   5.871   4.149   4.247
  443SOL    HW1 2228   5.893   4.096   4.165
  443SOL    HW2 2229   5.774   4.137   4.269
  444SOL     OW 2230   4.446   0.858   6.234
  444SOL    HW1 2231   4.503   0.863   6.316
  444SOL    HW2 2232   4.362   0.807   6.255
  445SOL     OW 2233   2.363   6.173   3.012
  445SOL    HW1 2234   2.459   6.193   3.032
  445SOL    HW2 2235   2.305   6.244   3.053
  446SOL     OW 2236   3.899   5.845   3.000
  446SOL    HW1 2237   3.845   5.928   2.998
  446SOL    HW2 2238   3.880   5.790   2.918
  447SOL     OW 2239   6.364   3.137   4.977
  447SOL    HW1 2240   6.348   3.234   4.995
  447SOL    HW2 2241   6.420   3.098   5.051
  448SOL     OW 2242   2.656   0.931   2.999
  448SOL    HW1 2243   2.576   0.872   3.004
  448SOL    HW2 2244   2.629   1.020   2.961
  449SOL     OW 2245   2.500   1.699   3.816
  449SOL    HW1 2246   2.449   1.638   3.755
  449SOL    HW2 2247   2.495   1.792   3.781
  450SOL     OW 2248   1.787   4.824   3.616
  450SOL    HW1 2249   1.698   4.862   3.641
  450SOL    HW2 2250   1.810   4.749   3.678
  451SOL     OW 2251   1.790   2.599   4.217
  451SOL    HW1 2252   1.759   2.530   4.282
  451SOL    HW2 2253   1.747   2.686   4.238
  452SOL     OW 2254   4.322   6.818   1.789
  452SOL    HW1 2255   4.387   6.773   1.726
  452SOL    HW2 2256   4.236   6.835   1.741
  453SOL     OW 2257   3.467   6.604   6.131
  453SOL    HW1 2258   3.528   6.661   6.076
  453SOL    HW2 2259   3.517   6.566   6.208
  454SOL     OW 2260   6.811   3.856   6.759
  454SOL    HW1 2261   6.781   3.951   6.771
  454SOL    HW2 2262   6.911   3.853   6.760
  455SOL     OW 2263   6.320   2.977   5.258
  455SOL    HW1 2264   6.292   3.041   5.328
  455SOL    HW2 2265   6.241   2.926   5.225
  456SOL     OW 2266   1.779   0.765   4.065
  456SOL    HW1 2267   1.805   0.683   4.116
  456SOL    HW2 2268   1.715   0.742   3.993
  457SOL     OW 2269   1.902   4.473   4.160
  457SOL    HW1 2270   1.854   4.401   4.210
  457SOL    HW2 2271   1.981   4.433   4.113
  458SOL     OW 2272   3.650   0.699   2.684
  458SOL    HW1 2273   3.725   0.763   2.701
  458SOL    HW2 2274   3.597   0.686   2.768
  459SOL     OW 2275   1.788   0.444   5.371
  459SOL    HW1 2276   1.869   0.500   5.386
  459SOL    HW2 2277   1.751   0.464   5.280
  460SOL     OW 2278   1.272   0.716   5.276
  460SOL    HW1 2279   1.368   0.726   5.305
  460SOL    HW2 2280   1.260   0.628   5.231
  461SOL     OW 2281   6.167   5.046   5.941
  461SOL    HW1 2282   6.116   4.979   5.995
  461SOL    HW2 2283   6.256   5.009   5.917
  462SOL     OW 2284   3.911   3.868   5.130
  462SOL    HW1 2285   3.855   3.799   5.084
  462SOL    HW2 2286   3.891   3.958   5.092
  463SOL     OW 2287   0.274   0.439   3.408
  463SOL    HW1 2288   0.339   0.444   3.332
  463SOL    HW2 2289   0.296   0.510   3.476
  464SOL     OW 2290   2.663   0.429   5.990
  464SOL    HW1 2291   2.681   0.456   6.084
  464SOL    HW2 2292   2.747   0.395   5.948
  465SOL     OW 2293   0.604   2.168   0.081
  465SOL    HW1 2294   0.647   2.154   0.170
  465SOL    HW2 2295   0.566   2.260   0.076
  466SOL     OW 2296   2.782   6.372   4.291
  466SOL    HW1 2297   2.702   6.393   4.235
  466SOL    HW2 2298   2.757   6.306   4.362
  467SOL     OW 2299   1.463   1.759   2.660
  467SOL    HW1 2300   1.545   1.723   2.615
  467SOL    HW2 2301   1.429   1.693   2.726
  468SOL     OW 2302   4.239   5.811   5.499
  468SOL    HW1 2303   4.264   5.778   5.590
  468SOL    HW2 2304   4.139   5.809   5.490
  469SOL     OW 2305   3.266   4.331   5.801
  469SOL    HW1 2306   3.200   4.405   5.793
  469SOL    HW2 2307   3.225   4.246   5.769
  470SOL     OW 2308   4.118   5.847   2.307
  470SOL    HW1 2309   4.062   5.893   2.376
  470SOL    HW2 2310   4.062   5.827   2.227
  471SOL     OW 2311   2.822   2.296   4.106
  471SOL    HW1 2312   2.783   2.205   4.117
  471SOL    HW2 2313   2.759   2.364   4.143
  472SOL     OW 2314   5.097   5.048   6.925
  472SOL    HW1 2315   5.125   5.062   6.831
  472SOL    HW2 2316   5.056   5.131   6.961
  473SOL     OW 2317   0.539   2.395   2.429
  473SOL    HW1 2318   0.491   2.465   2.482
  473SOL    HW2 2319   0.502   2.305   2.453
  474SOL     OW 2320   5.902   5.336   6.046
  474SOL    HW1 2321   5.996   5.348   6.078
  474SOL    HW2 2322   5.890   5.241   6.016
  475SOL     OW 2323   6.035   3.462   6.985
  475SOL    HW1 2324   6.024   3.545   6.931
  475SOL    HW2 2325   6.102   3.478   0.030
  476SOL     OW 2326   0.022   3.779   2.004
  476SOL    HW1 2327   6.995   3.699   2.027
  476SOL    HW2 2328   0.043   3.778   1.906
  477SOL     OW 2329   2.388   5.651   3.729
  477SOL    HW1 2330   2.410   5.585   3.657
  477SOL    HW2 2331   2.299   5.630   3.769
  478SOL     OW 2332   4.001   6.275   3.451
  478SOL    HW1 2333   4.031   6.236   3.538
  478SOL    HW2 2334   4.068   6.253   3.380
  479SOL     OW 2335   3.899   3.334   5.196
  479SOL    HW1 2336   3.995   3.347   5.170
  479SOL    HW2 2337   3.867   3.244   5.166
  480SOL     OW 2338   2.507   0.337   1.950
  480SOL    HW1 2339   2.525   0.346   1.852
  480SOL    HW2 2340   2.547   0.415   1.998
  481SOL     OW 2341   0.730   6.992   1.841
  481SOL    HW1 2342   0.739   6.995   1.742
  481SOL    HW2 2343   0.639   6.958   1.866
  482SOL     OW 2344   4.566   5.154   2.873
  482SOL    HW1 2345   4.659   5.147   2.908
  482SOL    HW2 2346   4.559   5.234   2.814
  483SOL     OW 2347   6.823   2.082   2.177
  483SOL    HW1 2348   6.749   2.130   2.130
  483SOL    HW2 2349   6.901   2.073   2.115
  484SOL     OW 2350   1.532   4.531   4.932
  484SOL    HW1 2351   1.476   4.601   4.975
  484SOL    HW2 2352   1.496   4.441   4.955
  485SOL     OW 2353   5.095   4.254   2.506
  485SOL    HW1 2354   5.021   4.187   2.513
  485SOL    HW2 2355   5.179   4.213   2.540
  486SOL     OW 2356   6.119   1.096   6.819
  486SOL    HW1 2357   6.161   1.026   6.762
  486SOL    HW2 2358   6.080   1.168   6.762
  487SOL     OW 2359   0.893   0.214   2.994
  487SOL    HW1 2360   0.807   0.216   2.942
  487SOL    HW2 2361   0.873   0.205   3.092
  488SOL     OW 2362   1.430   6.589   2.696
  488SOL    HW1 2363   1.409   6.492   2.685
  488SOL    HW2 2364   1.484   6.621   2.618
  489SOL     OW 2365   5.882   5.547   5.015
  489SOL    HW1 2366   5.812   5.589   5.074
  489SOL    HW2 2367   5.851   5.550   4.920
  490SOL     OW 2368   1.423   6.175   4.391
  490SOL    HW1 2369   1.359   6.137   4.325
  490SOL    HW2 2370   1.438   6.272   4.373
  491SOL     OW 2371   0.911   3.672   1.407
  491SOL    HW1 2372   1.000   3.716   1.397
  491SOL    HW2 2373   0.850   3.730   1.461
  492SOL     OW 2374   1.497   0.918   5.560
  492SOL    HW1 2375   1.568   0.988   5.551
  492SOL    HW2 2376   1.415   0.960   5.599
  493SOL     OW 2377   2.521   7.024   5.277
  493SOL    HW1 2378   2.583   0.011   5.354
  493SOL    HW2 2379   2.560   6.957   5.214
  494SOL     OW 2380   1.796   1.671   6.082
  494SOL    HW1 2381   1.862   1.602   6.112
  494SOL    HW2 2382   1.812   1.693   5.985
  495SOL     OW 2383   3.570   6.326   5.180
  495SOL    HW1 2384   3.595   6.407   5.233
  495SOL    HW2 2385   3.649   6.266   5.169
  496SOL     OW 2386   6.332   1.624   1.998
  496SOL    HW1 2387   6.245   1.589   1.965
  496SOL    HW2 2388   6.349   1.714   1.957
  497SOL     OW 2389   3.478   1.234   4.546
  497SOL    HW1 2390   3.418   1.190   4.613
  497SOL    HW2 2391   3.424   1.260   4.465
  498SOL     OW 2392   0.307   4.496   2.083
  498SOL    HW1 2393   0.385   4.523   2.026
  498SOL    HW2 2394   0.312   4.398   2.101
  499SOL     OW 2395   1.939   5.538   5.211
  499SOL    HW1 2396   1.893   5.514   5.125
  499SOL    HW2 2397   1.875   5.530   5.287
  500SOL     OW 2398   5.486   3.091   6.013
  500SOL    HW1 2399   5.412   3.034   5.976
  500SOL    HW2 2400   5.568   3.077   5.958
  501SOL     OW 2401   3.476   6.856   1.427
  501SOL    HW1 2402   3.528   6.938   1.403
  501SOL    HW2 2403   3.381   6.867   1.396
  502SOL     OW 2404   0.961   5.012   6.505
  502SOL    HW1 2405   0.907   4.929   6.516
  502SOL    HW2 2406   1.006   5.035   6.592
  503SOL     OW 2407   1.968   5.101   6.435
  503SOL    HW1 2408   1.941   5.194   6.407
  503SOL    HW2 2409   1.887   5.043   6.441
  504SOL     OW 2410   0.473   5.915   1.670
  504SOL    HW1 2411   0.408   5.860   1.723
  504SOL    HW2 2412   0.566   5.890   1.695
  505SOL     OW 2413   4.159   0.408   5.226
  505SOL    HW1 2414   4.114   0.350   5.294
  505SOL    HW2 2415   4.109   0.402   5.139
  506SOL     OW 2416   2.994   5.969   2.081
  506SOL    HW1 2417   2.900   5.994   2.054
  506SOL    HW2 2418   3.056   6.042   2.052
  507SOL     OW 2419   3.739   0.367   2.401
  507SOL    HW1 2420   3.698   0.446   2.357
  507SOL    HW2 2421   3.788   0.396   2.483
  508SOL     OW 2422   6.952   2.361   2.833
  508SOL    HW1 2423   6.994   2.342   2.744
  508SOL    HW2 2424   6.969   2.456   2.858
  509SOL     OW 2425   4.271   1.268   0.423
  509SOL    HW1 2426   4.346   1.202   0.419
  509SOL    HW2 2427   4.230   1.277   0.332
  510SOL     OW 2428   6.899   4.829   5.830
  510SOL    HW1 2429   6.965   4.772   5.879
  510SOL    HW2 2430   6.837   4.872   5.894
  511SOL     OW 2431   1.174   1.966   6.862
  511SOL    HW1 2432   1.228   2.038   6.906
  511SOL    HW2 2433   1.107   1.930   6.927
  512SOL     OW 2434   6.383   2.781   6.711
  512SOL    HW1 2435   6.334   2.696   6.693
  512SOL    HW2 2436   6.332   2.857   6.670
  513SOL     OW 2437   5.261   6.531   2.576
  513SOL    HW1 2438   5.189   6.465   2.596
  513SOL    HW2 2439   5.294   6.571   2.662
  514SOL     OW 2440   0.020   0.283   4.560
  514SOL    HW1 2441   6.978   0.334   4.508
  514SOL    HW2 2442   0.081   0.236   4.496
  515SOL     OW 2443   1.856   0.020   6.982
  515SOL    HW1 2444   1.868   0.015   6.883
  515SOL    HW2 2445   1.885   6.961   7.023
  516SOL     OW 2446   2.608   4.629   2.217
  516SOL    HW1 2447   2.637   4.683   2.296
  516SOL    HW2 2448   2.683   4.624   2.151
  517SOL     OW 2449   3.395   4.880   1.862
  517SOL    HW1 2450   3.381   4.806   1.797
  517SOL    HW2 2451   3.492   4.885   1.887
  518SOL     OW 2452   2.575   2.319   3.887
  518SOL    HW1 2453   2.571   2.224   3.921
  518SOL    HW2 2454   2.601   2.379   3.962
  519SOL     OW 2455   0.238   6.116   3.133
  519SOL    HW1 2456   0.255   6.181   3.058
  519SOL    HW2 2457   0.170   6.049   3.103
  520SOL     OW 2458   0.742   3.880   6.601
  520SOL    HW1 2459   0.742   3.797   6.545
  520SOL    HW2 2460   0.683   3.948   6.558
  521SOL     OW 2461   4.661   5.855   4.613
  521SOL    HW1 2462   4.674   5.868   4.515
  521SOL    HW2 2463   4.654   5.757   4.633
  522SOL     OW 2464   3.997   3.657   2.470
  522SOL    HW1 2465   4.022   3.687   2.562
  522SOL    HW2 2466   3.910   3.608   2.473
  523SOL     OW 2467   6.865   5.966   2.058
  523SOL    HW1 2468   6.778   5.939   2.016
  523SOL    HW2 2469   6.847   6.013   2.145
  524SOL     OW 2470   1.295   2.822   2.343
  524SOL    HW1 2471   1.334   2.837   2.434
  524SOL    HW2 2472   1.359   2.856   2.274
  525SOL     OW 2473   2.106   4.067   6.372
  525SOL    HW1 2474   2.076   3.979   6.410
  525SOL    HW2 2475   2.077   4.074   6.276
  526SOL     OW 2476   2.982   6.535   3.982
  526SOL    HW1 2477   2.894   6.581   3.982
  526SOL    HW2 2478   3.007   6.510   4.075
  527SOL     OW 2479   0.465   1.931   0.105
  527SOL    HW1 2480   0.375   1.933   0.062
  527SOL    HW2 2481   0.523   2.001   0.064
  528SOL     OW 2482   1.385   2.961   3.884
  528SOL    HW1 2483   1.391   2.877   3.939
  528SOL    HW2 2484   1.466   3.018   3.902
  529SOL     OW 2485   1.907   0.059   4.774
  529SOL    HW1 2486   2.007   0.067   4.780
  529SOL    HW2 2487   1.878   6.999   4.813
  530SOL     OW 2488   4.114   3.395   2.455
  530SOL    HW1 2489   4.098   3.493   2.447
  530SOL    HW2 2490   4.119   3.369   2.552
  531SOL     OW 2491   1.105   1.246   2.767
  531SOL    HW1 2492   1.175   1.316   2.751
  531SOL    HW2 2493   1.091   1.234   2.865
  532SOL     OW 2494   1.685   3.372   0.539
  532SOL    HW1 2495   1.727   3.302   0.481
  532SOL    HW2 2496   1.664   3.332   0.629
  533SOL     OW 2497   4.327   6.688   3.794
  533SOL    HW1 2498   4.297   6.631   3.871
  533SOL    HW2 2499   4.286   6.779   3.802
  534SOL     OW 2500   6.124   6.288   2.303
  534SOL    HW1 2501   6.138   6.385   2.283
  534SOL    HW2 2502   6.211   6.245   2.326
  535SOL     OW 2503   6.832   4.389   2.474
  535SOL    HW1 2504   6.862   4.484   2.469
  535SOL    HW2 2505   6.756   4.381   2.538
  536SOL     OW 2506   6.377   4.615   2.765
  536SOL    HW1 2507   6.427   4.661   2.692
  536SOL    HW2 2508   6.434   4.609   2.847
  537SOL     OW 2509   3.488   6.911   4.411
  537SOL    HW1 2510   3.524   6.823   4.379
  537SOL    HW2 2511   3.534   6.985   4.363
  538SOL     OW 2512   0.959   4.476   4.713
  538SOL    HW1 2513   0.943   4.528   4.797
  538SOL    HW2 2514   1.058   4.471   4.695
  539SOL     OW 2515   1.519   5.167   2.198
  539SOL    HW1 2516   1.570   5.097   2.248
  539SOL    HW2 2517   1.572   5.197   2.119
  540SOL     OW 2518   1.880   0.503   3.800
  540SOL    HW1 2519   1.808   0.552   3.850
  540SOL    HW2 2520   1.861   0.405   3.801
  541SOL     OW 2521   4.498   5.625   3.909
  541SOL    HW1 2522   4.451   5.661   3.989
  541SOL    HW2 2523   4.568   5.689   3.878
  542SOL     OW 2524   4.206   6.560   6.287
  542SOL    HW1 2525   4.172   6.643   6.330
  542SOL    HW2 2526   4.145   6.484   6.307
  543SOL     OW 2527   6.126   3.389   3.284
  543SOL    HW1 2528   6.164   3.341   3.363
  543SOL    HW2 2529   6.144   3.336   3.201
  544SOL     OW 2530   0.549   5.371   0.172
  544SOL    HW1 2531   0.475   5.304   0.175
  544SOL    HW2 2532   0.613   5.354   0.247
  545SOL     OW 2533   3.978   1.234   0.833
  545SOL    HW1 2534   3.970   1.136   0.819
  545SOL    HW2 2535   4.019   1.251   0.923
  546SOL     OW 2536   1.815   3.784   1.878
  546SOL    HW1 2537   1.909   3.773   1.911
  546SOL    HW2 2538   1.769   3.695   1.877
  547SOL     OW 2539   3.245   2.558   0.933
  547SOL    HW1 2540   3.299   2.506   0.866
  547SOL    HW2 2541   3.242   2.508   1.019
  548SOL     OW 2542   3.388   3.437   1.641
  548SOL    HW1 2543   3.345   3.422   1.730
  548SOL    HW2 2544   3.321   3.419   1.569
  549SOL     OW 2545   5.310   2.161   1.502
  549SOL    HW1 2546   5.374   2.234   1.524
  549SOL    HW2 2547   5.291   2.107   1.584
  550SOL     OW 2548   0.930   5.658   3.132
  550SOL    HW1 2549   0.978   5.689   3.050
  550SOL    HW2 2550   0.832   5.655   3.114
  551SOL     OW 2551   6.644   0.390   1.944
  551SOL    HW1 2552   6.739   0.360   1.930
  551SOL    HW2 2553   6.639   0.448   2.025
  552SOL     OW 2554   5.991   4.059   5.917
  552SOL    HW1 2555   6.007   4.090   5.823
  552SOL    HW2 2556   5.897   4.026   5.926
  553SOL     OW 2557   2.690   6.805   3.577
  553SOL    HW1 2558   2.615   6.863   3.546
  553SOL    HW2 2559   2.698   6.725   3.517
  554SOL     OW 2560   5.082   6.812   0.440
  554SOL    HW1 2561   5.137   6.732   0.415
  554SOL    HW2 2562   5.011   6.785   0.504
  555SOL     OW 2563   2.909   4.869   5.032
  555SOL    HW1 2564   2.860   4.789   5.067
  555SOL    HW2 2565   2.955   4.845   4.947
  556SOL     OW 2566   4.848   1.641   4.161
  556SOL    HW1 2567   4.900   1.648   4.076
  556SOL    HW2 2568   4.765   1.588   4.144
  557SOL     OW 2569   6.751   4.951   6.406
  557SOL    HW1 2570   6.827   5.012   6.430
  557SOL    HW2 2571   6.672   4.972   6.464
  558SOL     OW 2572   3.133   3.100   4.189
  558SOL    HW1 2573   3.144   3.018   4.246
  558SOL    HW2 2574   3.087   3.171   4.242
  559SOL     OW 2575   0.103   5.329   5.409
  559SOL    HW1 2576   0.075   5.236   5.385
  559SOL    HW2 2577   0.137   5.331   5.503
  560SOL     OW 2578   6.534   3.898   3.433
  560SOL    HW1 2579   6.600   3.952   3.381
  560SOL    HW2 2580   6.499   3.824   3.376
  561SOL     OW 2581   0.106   2.138   0.595
  561SOL    HW1 2582   0.046   2.074   0.547
  561SOL    HW2 2583   0.067   2.159   0.684
  562SOL     OW 2584   3.945   0.606   5.933
  562SOL    HW1 2585   4.009   0.668   5.978
  562SOL    HW2 2586   3.994   0.529   5.894
  563SOL     OW 2587   2.313   1.481   3.907
  563SOL    HW1 2588   2.293   1.561   3.964
  563SOL    HW2 2589   2.235   1.418   3.909
  564SOL     OW 2590   1.099   2.972   0.246
  564SOL    HW1 2591   1.157   2.890   0.240
  564SOL    HW2 2592   1.017   2.950   0.300
  565SOL     OW 2593   3.218   3.732   4.210
  565SOL    HW1 2594   3.279   3.717   4.132
  565SOL    HW2 2595   3.179   3.824   4.205
  566SOL     OW 2596   1.066   3.834   3.884
  566SOL    HW1 2597   1.023   3.917   3.920
  566SOL    HW2 2598   1.117   3.856   3.801
  567SOL     OW 2599   3.160   2.692   1.427
  567SOL    HW1 2600   3.240   2.656   1.380
  567SOL    HW2 2601   3.165   2.669   1.524
  568SOL     OW 2602   4.285   6.711   0.563
  568SOL    HW1 2603   4.220   6.671   0.627
  568SOL    HW2 2604   4.253   6.694   0.469
  569SOL     OW 2605   1.025   3.398   0.741
  569SOL    HW1 2606   0.967   3.452   0.680
  569SOL    HW2 2607   1.001   3.301   0.732
  570SOL     OW 2608   3.461   0.239   6.618
  570SOL    HW1 2609   3.427   0.315   6.563
  570SOL    HW2 2610   3.494   0.167   6.558
  571SOL     OW 2611   3.213   5.193   4.115
  571SOL    HW1 2612   3.166   5.249   4.047
  571SOL    HW2 2613   3.233   5.103   4.076
  572SOL     OW 2614   2.196   5.300   5.365
  572SOL    HW1 2615   2.186   5.398   5.384
  572SOL    HW2 2616   2.176   5.248   5.448
  573SOL     OW 2617   5.925   1.176   6.182
  573SOL    HW1 2618   6.017   1.205   6.210
  573SOL    HW2 2619   5.892   1.237   6.110
  574SOL     OW 2620   3.488   0.827   4.496
  574SOL    HW1 2621   3.475   0.834   4.595
  574SOL    HW2 2622   3.544   0.904   4.465
  575SOL     OW 2623   4.469   2.975   1.646
  575SOL    HW1 2624   4.521   3.003   1.727
  575SOL    HW2 2625   4.521   2.996   1.564
  576SOL     OW 2626   1.427   3.046   3.317
  576SOL    HW1 2627   1.340   3.085   3.287
  576SOL    HW2 2628   1.453   2.972   3.255
  577SOL     OW 2629   1.812   1.033   2.108
  577SOL    HW1 2630   1.805   0.950   2.052
  577SOL    HW2 2631   1.761   1.021   2.193
  578SOL     OW 2632   0.407   5.147   4.461
  578SOL    HW1 2633   0.365   5.056   4.452
  578SOL    HW2 2634   0.347   5.205   4.517
  579SOL     OW 2635   1.538   4.094   3.521
  579SOL    HW1 2636   1.544   4.009   3.469
  579SOL    HW2 2637   1.614   4.154   3.495
  580SOL     OW 2638   4.478   4.962   5.359
  580SOL    HW1 2639   4.426   5.002   5.284
  580SOL    HW2 2640   4.574   4.987   5.350
  581SOL     OW 2641   2.035   2.894   1.882
  581SOL    HW1 2642   2.040   2.905   1.981
  581SOL    HW2 2643   2.072   2.805   1.857
  582SOL     OW 2644   4.391   5.366   2.597
  582SOL    HW1 2645   4.375   5.268   2.595
  582SOL    HW2 2646   4.399   5.396   2.692
  583SOL     OW 2647   2.359   6.259   5.013
  583SOL    HW1 2648   2.385   6.217   4.926
  583SOL    HW2 2649   2.325   6.352   4.996
  584SOL     OW 2650   3.122   6.659   6.449
  584SOL    HW1 2651   3.187   6.586   6.428
  584SOL    HW2 2652   3.167   6.748   6.436
  585SOL     OW 2653   4.239   0.863   0.296
  585SOL    HW1 2654   4.151   0.855   0.249
  585SOL    HW2 2655   4.300   0.922   0.243
  586SOL     OW 2656   3.257   0.335   0.071
  586SOL    HW1 2657   3.342   0.324   0.019
  586SOL    HW2 2658   3.251   0.262   0.139
  587SOL     OW 2659   4.430   2.383   3.595
  587SOL    HW1 2660   4.347   2.340   3.630
  587SOL    HW2 2661   4.428   2.380   3.495
  588SOL     OW 2662   1.916   4.957   1.669
  588SOL    HW1 2663   1.957   4.867   1.655
  588SOL    HW2 2664   1.833   4.948   1.725
  589SOL     OW 2665   3.556   5.587   1.811
  589SOL    HW1 2666   3.496   5.514   1.844
  589SOL    HW2 2667   3.525   5.675   1.847
  590SOL     OW 2668   5.656   1.422   1.424
  590SOL    HW1 2669   5.704   1.342   1.460
  590SOL    HW2 2670   5.659   1.495   1.492
  591SOL     OW 2671   3.452   6.270   3.613
  591SOL    HW1 2672   3.429   6.300   3.520
  591SOL    HW2 2673   3.531   6.208   3.609
  592SOL     OW 2674   4.490   0.570   2.184
  592SOL    HW1 2675   4.533   0.485   2.213
  592SOL    HW2 2676   4.553   0.646   2.199
  593SOL     OW 2677   5.131   2.715   3.792
  593SOL    HW1 2678   5.225   2.747   3.783
  593SOL    HW2 2679   5.130   2.616   3.803
  594SOL     OW 2680   5.919   0.190   0.762
  594SOL    HW1 2681   5.860   0.160   0.687
  594SOL    HW2 2682   6.000   0.132   0.766
  595SOL     OW 2683   5.649   6.770   3.381
  595SOL    HW1 2684   5.580   6.774   3.309
  595SOL    HW2 2685   5.606   6.787   3.470
  596SOL     OW 2686   0.289   4.965   2.892
  596SOL    HW1 2687   0.242   5.025   2.957
  596SOL    HW2 2688   0.369   4.924   2.937
  597SOL     OW 2689   2.522   0.060   6.623
  597SOL    HW1 2690   2.498   0.049   6.527
  597SOL    HW2 2691   2.444   0.096   6.673
  598SOL     OW 2692   3.927   4.061   4.694
  598SOL    HW1 2693   3.911   4.012   4.608
  598SOL    HW2 2694   3.964   4.152   4.673
  599SOL     OW 2695   2.308   5.500   2.685
  599SOL    HW1 2696   2.287   5.430   2.616
  599SOL    HW2 2697   2.231   5.563   2.693
  600SOL     OW 2698   6.125   1.930   6.657
  600SOL    HW1 2699   6.104   1.835   6.637
  600SOL    HW2 2700   6.202   1.960   6.601
  601SOL     OW 2701   1.658   0.644   3.827
  601SOL    HW1 2702   1.645   0.709   3.752
  601SOL    HW2 2703   1.570   0.625   3.871
  602SOL     OW 2704   1.897   0.349   6.365
  602SOL    HW1 2705   1.910   0.444   6.393
  602SOL    HW2 2706   1.956   0.290   6.420
  603SOL     OW 2707   3.000   2.795   5.384
  603SOL    HW1 2708   3.057   2.859   5.332
  603SOL    HW2 2709   2.950   2.845   5.455
  604SOL     OW 2710   0.707   1.487   1.546
  604SOL    HW1 2711   0.709   1.418   1.473
  604SOL    HW2 2712   0.624   1.541   1.539
  605SOL     OW 2713   6.596   4.923   0.444
  605SOL    HW1 2714   6.651   5.000   0.411
  605SOL    HW2 2715   6.499   4.948   0.438
  606SOL     OW 2716   5.108   6.460   5.269
  606SOL    HW1 2717   5.100   6.519   5.349
  606SOL    HW2 2718   5.034   6.394   5.269
  607SOL     OW 2719   6.438   4.452   5.223
  607SOL    HW1 2720   6.376   4.485   5.151
  607SOL    HW2 2721   6.387   4.400   5.291
  608SOL     OW 2722   4.152   6.214   6.732
  608SOL    HW1 2723   4.080   6.166   6.782
  608SOL    HW2 2724   4.224   6.149   6.706
  609SOL     OW 2725   3.881   3.076   2.619
  609SOL    HW1 2726   3.883   3.049   2.716
  609SOL    HW2 2727   3.921   3.167   2.609
  610SOL     OW 2728   5.696   3.116   0.429
  610SOL    HW1 2729   5.754   3.056   0.373
  610SOL    HW2 2730   5.604   3.120   0.390
  611SOL     OW 2731   4.725   6.984   2.028
  611SOL    HW1 2732   4.626   6.979   2.029
  611SOL    HW2 2733   4.763   6.910   2.084
  612SOL     OW 2734   3.952   5.533   4.230
  612SOL    HW1 2735   3.873   5.485   4.192
  612SOL    HW2 2736   4.000   5.582   4.158
  613SOL     OW 2737   4.185   5.162   5.287
  613SOL    HW1 2738   4.097   5.208   5.296
  613SOL    HW2 2739   4.253   5.208   5.343
  614SOL     OW 2740   4.593   5.125   5.867
  614SOL    HW1 2741   4.588   5.222   5.844
  614SOL    HW2 2742   4.501   5.090   5.886
  615SOL     OW 2743   6.753   1.927   1.082
  615SOL    HW1 2744   6.799   1.880   1.007
  615SOL    HW2 2745   6.817   1.990   1.126
  616SOL     OW 2746   0.129   2.430   2.174
  616SOL    HW1 2747   0.154   2.338   2.204
  616SOL    HW2 2748   0.188   2.457   2.098
  617SOL     OW 2749   0.051   4.668   5.947
  617SOL    HW1 2750   0.132   4.720   5.973
  617SOL    HW2 2751   0.076   4.602   5.876
  618SOL     OW 2752   0.753   2.270   0.754
  618SOL    HW1 2753   0.716   2.191   0.803
  618SOL    HW2 2754   0.681   2.313   0.699
  619SOL     OW 2755   3.664   1.294   0.624
  619SOL    HW1 2756   3.710   1.213   0.587
  619SOL    HW2 2757   3.666   1.291   0.724
  620SOL     OW 2758   4.712   2.162   1.177
  620SOL    HW1 2759   4.720   2.097   1.252
  620SOL    HW2 2760   4.783   2.232   1.185
  621SOL     OW 2761   3.194   6.261   6.653
  621SOL    HW1 2762   3.096   6.275   6.670
  621SOL    HW2 2763   3.221   6.311   6.571
  622SOL     OW 2764   1.215   0.927   6.083
  622SOL    HW1 2765   1.260   1.002   6.130
  622SOL    HW2 2766   1.202   0.850   6.146
  623SOL     OW 2767   0.891   5.363   5.853
  623SOL    HW1 2768   0.945   5.415   5.919
  623SOL    HW2 2769   0.805   5.411   5.835
  624SOL     OW 2770   0.156   2.046   0.931
  624SOL    HW1 2771   0.076   2.079   0.880
  624SOL    HW2 2772   0.152   2.079   1.025
  625SOL     OW 2773   2.740   1.602   1.397
  625SOL    HW1 2774   2.697   1.647   1.319
  625SOL    HW2 2775   2.671   1.552   1.449
  626SOL     OW 2776   2.731   5.206   3.910
  626SOL    HW1 2777   2.730   5.112   3.944
  626SOL    HW2 2778   2.665   5.214   3.834
  627SOL     OW 2779   4.932   7.023   0.504
  627SOL    HW1 2780   4.978   6.958   0.444
  627SOL    HW2 2781   4.868   6.975   0.563
  628SOL     OW 2782   5.893   5.483   5.805
  628SOL    HW1 2783   5.804   5.517   5.776
  628SOL    HW2 2784   5.881   5.425   5.886
  629SOL     OW 2785   6.760   6.683   0.131
  629SOL    HW1 2786   6.781   6.665   0.227
  629SOL    HW2 2787   6.694   6.757   0.125
  630SOL     OW 2788   6.848   1.570   2.315
  630SOL    HW1 2789   6.823   1.478   2.286
  630SOL    HW2 2790   6.858   1.629   2.235
  631SOL     OW 2791   3.305   6.435   4.771
  631SOL    HW1 2792   3.246   6.372   4.720
  631SOL    HW2 2793   3.398   6.431   4.734
  632SOL     OW 2794   2.943   1.513   0.407
  632SOL    HW1 2795   2.935   1.588   0.341
  632SOL    HW2 2796   3.000   1.441   0.368
  633SOL     OW 2797   5.111   4.277   0.296
  633SOL    HW1 2798   5.192   4.315   0.340
  633SOL    HW2 2799   5.073   4.343   0.232
  634SOL     OW 2800   4.792   4.200   1.960
  634SOL    HW1 2801   4.695   4.220   1.977
  634SOL    HW2 2802   4.835   4.168   2.044
  635SOL     OW 2803   4.996   5.149   0.930
  635SOL    HW1 2804   4.914   5.193   0.893
  635SOL    HW2 2805   4.975   5.054   0.953
  636SOL     OW 2806   4.490   5.982   6.977
  636SOL    HW1 2807   4.562   5.914   6.966
  636SOL    HW2 2808   4.445   5.998   6.889
  637SOL     OW 2809   6.647   3.560   1.852
  637SOL    HW1 2810   6.588   3.534   1.776
  637SOL    HW2 2811   6.637   3.659   1.869
  638SOL     OW 2812   5.745   2.282   2.269
  638SOL    HW1 2813   5.650   2.282   2.299
  638SOL    HW2 2814   5.785   2.191   2.283
  639SOL     OW 2815   5.349   4.117   2.625
  639SOL    HW1 2816   5.307   4.176   2.695
  639SOL    HW2 2817   5.448   4.115   2.639
  640SOL     OW 2818   0.680   5.213   4.440
  640SOL    HW1 2819   0.721   5.167   4.361
  640SOL    HW2 2820   0.581   5.199   4.439
  641SOL     OW 2821   7.020   5.560   4.476
  641SOL    HW1 2822   6.975   5.648   4.463
  641SOL    HW2 2823   0.035   5.531   4.389
  642SOL     OW 2824   7.023   3.750   4.325
  642SOL    HW1 2825   0.061   3.821   4.352
  642SOL    HW2 2826   6.992   3.767   4.232
  643SOL     OW 2827   5.521   4.889   5.217
  643SOL    HW1 2828   5.566   4.972   5.250
  643SOL    HW2 2829   5.509   4.825   5.293
  644SOL     OW 2830   1.217   6.577   4.216
  644SOL    HW1 2831   1.224   6.632   4.133
  644SOL    HW2 2832   1.126   6.536   4.222
  645SOL     OW 2833   5.371   2.101   4.181
  645SOL    HW1 2834   5.373   2.001   4.188
  645SOL    HW2 2835   5.351   2.140   4.270
  646SOL     OW 2836   2.447   1.292   3.468
  646SOL    HW1 2837   2.485   1.277   3.377
  646SOL    HW2 2838   2.503   1.243   3.535
  647SOL     OW 2839   5.647   2.149   5.600
  647SOL    HW1 2840   5.690   2.114   5.683
  647SOL    HW2 2841   5.627   2.074   5.538
  648SOL     OW 2842   6.640   4.015   3.211
  648SOL    HW1 2843   6.637   4.023   3.111
  648SOL    HW2 2844   6.588   4.089   3.252
  649SOL     OW 2845   4.245   4.056   0.904
  649SOL    HW1 2846   4.221   4.152   0.917
  649SOL    HW2 2847   4.161   4.000   0.903
  650SOL     OW 2848   5.480   4.027   0.987
  650SOL    HW1 2849   5.536   4.083   1.048
  650SOL    HW2 2850   5.530   3.944   0.963
  651SOL     OW 2851   6.676   6.438   6.421
  651SOL    HW1 2852   6.682   6.490   6.506
  651SOL    HW2 2853   6.762   6.448   6.370
  652SOL     OW 2854   5.786   6.121   3.631
  652SOL    HW1 2855   5.857   6.162   3.573
  652SOL    HW2 2856   5.743   6.193   3.686
  653SOL     OW 2857   3.373   6.198   5.013
  653SOL    HW1 2858   3.462   6.237   5.039
  653SOL    HW2 2859   3.374   6.175   4.916
  654SOL     OW 2860   6.972   3.945   5.613
  654SOL    HW1 2861   6.962   3.900   5.524
  654SOL    HW2 2862   6.981   3.876   5.685
  655SOL     OW 2863   0.789   0.144   2.093
  655SOL    HW1 2864   0.880   0.133   2.055
  655SOL    HW2 2865   0.786   0.227   2.148
  656SOL     OW 2866   1.960   5.416   1.675
  656SOL    HW1 2867   1.995   5.386   1.764
  656SOL    HW2 2868   1.887   5.483   1.689
  657SOL     OW 2869   1.877   1.959   1.584
  657SOL    HW1 2870   1.808   1.912   1.639
  657SOL    HW2 2871   1.865   2.058   1.593
  658SOL     OW 2872   2.987   4.021   6.204
  658SOL    HW1 2873   2.997   4.068   6.292
  658SOL    HW2 2874   2.893   4.028   6.172
  659SOL     OW 2875   2.162   6.418   5.913
  659SOL    HW1 2876   2.134   6.334   5.866
  659SOL    HW2 2877   2.215   6.393   5.994
  660SOL     OW 2878   5.225   4.267   1.979
  660SOL    HW1 2879   5.298   4.335   1.973
  660SOL    HW2 2880   5.159   4.296   2.049
  661SOL     OW 2881   4.346   6.508   3.586
  661SOL    HW1 2882   4.343   6.588   3.645
  661SOL    HW2 2883   4.272   6.514   3.518
  662SOL     OW 2884   4.168   0.995   5.654
  662SOL    HW1 2885   4.133   1.016   5.746
  662SOL    HW2 2886   4.114   0.921   5.614
  663SOL     OW 2887   2.574   4.068   6.303
  663SOL    HW1 2888   2.494   4.038   6.355
  663SOL    HW2 2889   2.554   4.061   6.205
  664SOL     OW 2890   0.346   5.967   6.008
  664SOL    HW1 2891   0.282   5.907   5.961
  664SOL    HW2 2892   0.296   6.038   6.057
  665SOL     OW 2893   4.670   5.366   1.832
  665SOL    HW1 2894   4.626   5.401   1.915
  665SOL    HW2 2895   4.653   5.429   1.756
  666SOL     OW 2896   5.380   1.703   2.152
  666SOL    HW1 2897   5.465   1.751   2.129
  666SOL    HW2 2898   5.394   1.649   2.235
  667SOL     OW 2899   0.836   4.819   2.922
  667SOL    HW1 2900   0.794   4.843   2.834
  667SOL    HW2 2901   0.765   4.817   2.992
  668SOL     OW 2902   4.817   6.324   5.829
  668SOL    HW1 2903   4.766   6.379   5.764
  668SOL    HW2 2904   4.909   6.306   5.793
  669SOL     OW 2905   5.212   0.071   2.982
  669SOL    HW1 2906   5.161   0.016   3.048
  669SOL    HW2 2907   5.165   0.158   2.968
  670SOL     OW 2908   3.127   2.628   1.683
  670SOL    HW1 2909   3.216   2.592   1.712
  670SOL    HW2 2910   3.055   2.585   1.737
  671SOL     OW 2911   2.966   6.337   0.908
  671SOL    HW1 2912   2.981   6.368   1.001
  671SOL    HW2 2913   2.874   6.363   0.878
  672SOL     OW 2914   6.994   5.574   1.751
  672SOL    HW1 2915   0.028   5.575   1.829
  672SOL    HW2 2916   6.934   5.494   1.756
  673SOL     OW 2917   6.637   0.666   1.771
  673SOL    HW1 2918   6.615   0.687   1.676
  673SOL    HW2 2919   6.635   0.567   1.784
  674SOL     OW 2920   0.420   1.318   5.016
  674SOL    HW1 2921   0.499   1.258   5.003
  674SOL    HW2 2922   0.448   1.413   5.004
  675SOL     OW 2923   0.233   1.615   2.002
  675SOL    HW1 2924   0.209   1.672   2.081
  675SOL    HW2 2925   0.318   1.566   2.021
  676SOL     OW 2926   3.204   5.256   3.070
  676SOL    HW1 2927   3.155   5.313   3.005
  676SOL    HW2 2928   3.184   5.160   3.052
  677SOL     OW 2929   5.551   1.651   0.684
  677SOL    HW1 2930   5.581   1.670   0.591
  677SOL    HW2 2931   5.536   1.737   0.733
  678SOL     OW 2932   2.358   6.976   4.991
  678SOL    HW1 2933   2.402   6.891   4.962
  678SOL    HW2 2934   2.428   0.014   5.019
  679SOL     OW 2935   4.624   2.428   4.012
  679SOL    HW1 2936   4.563   2.407   4.088
  679SOL    HW2 2937   4.582   2.496   3.953
  680SOL     OW 2938   5.225   5.149   4.916
  680SOL    HW1 2939   5.316   5.184   4.895
  680SOL    HW2 2940   5.209   5.155   5.015
  681SOL     OW 2941   4.440   5.166   1.661
  681SOL    HW1 2942   4.492   5.107   1.598
  681SOL    HW2 2943   4.442   5.260   1.627
  682SOL     OW 2944   6.561   0.477   1.167
  682SOL    HW1 2945   6.642   0.424   1.142
  682SOL    HW2 2946   6.548   0.551   1.101
  683SOL     OW 2947   5.469   2.838   0.704
  683SOL    HW1 2948   5.385   2.843   0.758
  683SOL    HW2 2949   5.465   2.759   0.643
  684SOL     OW 2950   6.390   0.937   0.439
  684SOL    HW1 2951   6.311   0.908   0.494
  684SOL    HW2 2952   6.447   0.999   0.493
  685SOL     OW 2953   4.042   1.885   4.175
  685SOL    HW1 2954   3.998   1.879   4.265
  685SOL    HW2 2955   3.973   1.910   4.106
  686SOL     OW 2956   5.011   2.800   4.237
  686SOL    HW1 2957   5.012   2.790   4.336
  686SOL    HW2 2958   4.949   2.874   4.211
  687SOL     OW 2959   0.796   2.514   4.311
  687SOL    HW1 2960   0.814   2.578   4.236
  687SOL    HW2 2961   0.715   2.460   4.288
  688SOL     OW 2962   0.205   1.947   6.995
  688SOL    HW1 2963   0.175   1.911   0.056
  688SOL    HW2 2964   0.176   1.885   6.922
  689SOL     OW 2965   1.126   4.864   6.752
  689SOL    HW1 2966   1.061   4.800   6.711
  689SOL    HW2 2967   1.080   4.918   6.822
  690SOL     OW 2968   0.181   2.941   3.128
  690SOL    HW1 2969   0.160   2.883   3.206
  690SOL    HW2 2970   0.278   2.967   3.131
  691SOL     OW 2971   2.622   1.011   0.231
  691SOL    HW1 2972   2.711   0.997   0.275
  691SOL    HW2 2973   2.612   1.108   0.206
  692SOL     OW 2974   3.646   1.153   3.796
  692SOL    HW1 2975   3.582   1.076   3.806
  692SOL    HW2 2976   3.596   1.234   3.765
  693SOL     OW 2977   5.898   0.167   4.025
  693SOL    HW1 2978   5.926   0.128   3.937
  693SOL    HW2 2979   5.936   0.259   4.033
  694SOL     OW 2980   4.363   6.988   4.238
  694SOL    HW1 2981   4.369   6.890   4.220
  694SOL    HW2 2982   4.313   7.003   4.323
  695SOL     OW 2983   4.745   6.503   3.773
  695SOL    HW1 2984   4.705   6.499   3.682
  695SOL    HW2 2985   4.779   6.595   3.792
  696SOL     OW 2986   4.936   5.119   3.750
  696SOL    HW1 2987   4.928   5.028   3.709
  696SOL    HW2 2988   4.857   5.174   3.724
  697SOL     OW 2989   1.461   4.150   2.807
  697SOL    HW1 2990   1.427   4.056   2.804
  697SOL    HW2 2991   1.405   4.208   2.748
  698SOL     OW 2992   4.853   6.148   1.092
  698SOL    HW1 2993   4.884   6.075   1.153
  698SOL    HW2 2994   4.860   6.236   1.138
  699SOL     OW 2995   1.707   3.868   6.769
  699SOL    HW1 2996   1.641   3.923   6.821
  699SOL    HW2 2997   1.800   3.895   6.796
  700SOL     OW 2998   3.175   1.138   2.166
  700SOL    HW1 2999   3.212   1.102   2.079
  700SOL    HW2 3000   3.135   1.228   2.151
  701SOL     OW 3001   6.363   3.778   6.901
  701SOL    HW1 3002   6.410   3.802   6.817
  701SOL    HW2 3003   6.368   3.679   6.916
  702SOL     OW 3004   1.627   6.838   5.201
  702SOL    HW1 3005   1.635   6.750   5.156
  702SOL    HW2 3006   1.675   6.908   5.146
  703SOL     OW 3007   3.552   2.878   6.369
  703SOL    HW1 3008   3.504   2.943   6.311
  703SOL    HW2 3009   3.488   2.809   6.403
  704SOL     OW 3010   1.482   2.837   6.858
  704SOL    HW1 3011   1.406   2.902   6.865
  704SOL    HW2 3012   1.538   2.861   6.779
  705SOL     OW 3013   5.717   4.815   3.026
  705SOL    HW1 3014   5.782   4.880   2.986
  705SOL    HW2 3015   5.766   4.739   3.067
  706SOL     OW 3016   4.241   1.692   5.242
  706SOL    HW1 3017   4.142   1.683   5.251
  706SOL    HW2 3018   4.274   1.624   5.176
  707SOL     OW 3019   4.393   4.929   3.230
  707SOL    HW1 3020   4.389   5.020   3.272
  707SOL    HW2 3021   4.301   4.892   3.221
  708SOL     OW 3022   2.964   0.679   2.506
  708SOL    HW1 3023   2.907   0.609   2.548
  708SOL    HW2 3024   2.911   0.763   2.495
  709SOL     OW 3025   0.470   5.939   0.538
  709SOL    HW1 3026   0.406   5.883   0.592
  709SOL    HW2 3027   0.557   5.945   0.585
  710SOL     OW 3028   3.741   2.427   1.226
  710SOL    HW1 3029   3.803   2.462   1.296
  710SOL    HW2 3030   3.647   2.424   1.262
  711SOL     OW 3031   0.017   3.258   5.937
  711SOL    HW1 3032   7.027   3.344   5.983
  711SOL    HW2 3033   0.044   3.189   6.004
  712SOL     OW 3034   4.272   2.056   1.150
  712SOL    HW1 3035   4.176   2.028   1.157
  712SOL    HW2 3036   4.330   1.975   1.152
  713SOL     OW 3037   3.951   3.243   6.243
  713SOL    HW1 3038   3.954   3.238   6.143
  713SOL    HW2 3039   3.875   3.188   6.277
  714SOL     OW 3040   0.542   5.106   3.502
  714SOL    HW1 3041   0.572   5.051   3.425
  714SOL    HW2 3042   0.571   5.201   3.489
  715SOL     OW 3043   5.113   6.437   6.769
  715SOL    HW1 3044   5.045   6.378   6.813
  715SOL    HW2 3045   5.072   6.480   6.689
  716SOL     OW 3046   0.435   1.024   2.092
  716SOL    HW1 3047   0.451   1.013   1.994
  716SOL    HW2 3048   0.402   0.937   2.130
  717SOL     OW 3049   6.721   4.795   3.822
  717SOL    HW1 3050   6.698   4.744   3.905
  717SOL    HW2 3051   6.649   4.783   3.754
  718SOL     OW 3052   4.521   3.665   5.898
  718SOL    HW1 3053   4.521   3.710   5.808
  718SOL    HW2 3054   4.612   3.628   5.916
  719SOL     OW 3055   6.470   0.195   2.816
  719SOL    HW1 3056   6.516   0.284   2.820
  719SOL    HW2 3057   6.474   0.152   2.906
  720SOL     OW 3058   2.336   7.026   6.072
  720SOL    HW1 3059   2.417   7.023   6.013
  720SOL    HW2 3060   2.290   0.087   6.060
  721SOL     OW 3061   2.450   1.629   2.243
  721SOL    HW1 3062   2.489   1.615   2.333
  721SOL    HW2 3063   2.391   1.710   2.244
  722SOL     OW 3064   2.511   0.791   5.396
  722SOL    HW1 3065   2.493   0.864   5.462
  722SOL    HW2 3066   2.566   0.826   5.321
  723SOL     OW 3067   1.828   4.581   3.313
  723SOL    HW1 3068   1.790   4.542   3.396
  723SOL    HW2 3069   1.878   4.665   3.336
  724SOL     OW 3070   0.752   1.339   3.982
  724SOL    HW1 3071   0.796   1.250   3.969
  724SOL    HW2 3072   0.782   1.401   3.910
  725SOL     OW 3073   1.158   5.232   2.094
  725SOL    HW1 3074   1.151   5.154   2.033
  725SOL    HW2 3075   1.243   5.281   2.076
  726SOL     OW 3076   3.293   4.833   1.420
  726SOL    HW1 3077   3.219   4.890   1.456
  726SOL    HW2 3078   3.275   4.812   1.324
  727SOL     OW 3079   6.307   4.715   5.966
  727SOL    HW1 3080   6.221   4.684   5.925
  727SOL    HW2 3081   6.374   4.733   5.894
  728SOL     OW 3082   6.344   2.843   3.607
  728SOL    HW1 3083   6.356   2.933   3.566
  728SOL    HW2 3084   6.249   2.832   3.638
  729SOL     OW 3085   0.350   1.737   1.051
  729SOL    HW1 3086   0.437   1.784   1.064
  729SOL    HW2 3087   0.279   1.782   1.106
  730SOL     OW 3088   6.715   0.194   4.286
  730SOL    HW1 3089   6.769   0.277   4.295
  730SOL    HW2 3090   6.749   0.125   4.350
  731SOL     OW 3091   4.400   5.694   6.357
  731SOL    HW1 3092   4.342   5.653   6.286
  731SOL    HW2 3093   4.384   5.647   6.444
  732SOL     OW 3094   6.050   2.655   1.569
  732SOL    HW1 3095   5.974   2.641   1.506
  732SOL    HW2 3096   6.017   2.697   1.653
  733SOL     OW 3097   5.593   0.500   4.451
  733SOL    HW1 3098   5.644   0.523   4.368
  733SOL    HW2 3099   5.590   0.401   4.462
  734SOL     OW 3100   5.785   4.564   3.138
  734SOL    HW1 3101   5.842   4.580   3.219
  734SOL    HW2 3102   5.724   4.487   3.156
  735SOL     OW 3103   4.306   1.738   0.757
  735SOL    HW1 3104   4.381   1.804   0.757
  735SOL    HW2 3105   4.343   1.646   0.759
  736SOL     OW 3106   0.887   1.923   3.580
  736SOL    HW1 3107   0.921   1.915   3.486
  736SOL    HW2 3108   0.950   1.876   3.642
  737SOL     OW 3109   5.124   2.213   5.875
  737SOL    HW1 3110   5.157   2.296   5.831
  737SOL    HW2 3111   5.202   2.158   5.905
  738SOL     OW 3112   2.955   3.886   1.458
  738SOL    HW1 3113   2.902   3.836   1.389
  738SOL    HW2 3114   2.990   3.970   1.417
  739SOL     OW 3115   4.951   0.595   4.803
  739SOL    HW1 3116   5.029   0.628   4.856
  739SOL    HW2 3117   4.982   0.532   4.732
  740SOL     OW 3118   5.650   1.172   2.397
  740SOL    HW1 3119   5.683   1.079   2.414
  740SOL    HW2 3120   5.618   1.212   2.483
  741SOL     OW 3121   1.658   0.384   3.291
  741SOL    HW1 3122   1.719   0.421   3.361
  741SOL    HW2 3123   1.649   0.449   3.217
  742SOL     OW 3124   2.251   6.982   2.062
  742SOL    HW1 3125   2.338   0.003   2.059
  742SOL    HW2 3126   2.192   7.025   2.131
  743SOL     OW 3127   0.760   5.277   3.031
  743SOL    HW1 3128   0.676   5.248   3.075
  743SOL    HW2 3129   0.829   5.300   3.100
  744SOL     OW 3130   5.770   0.615   1.075
  744SOL    HW1 3131   5.793   0.518   1.067
  744SOL    HW2 3132   5.700   0.627   1.145
  745SOL     OW 3133   1.789   5.788   5.062
  745SOL    HW1 3134   1.811   5.868   5.118
  745SOL    HW2 3135   1.706   5.745   5.098
  746SOL     OW 3136   6.234   4.106   5.992
  746SOL    HW1 3137   6.257   4.012   6.015
  746SOL    HW2 3138   6.141   4.109   5.955
  747SOL     OW 3139   3.582   5.942   4.844
  747SOL    HW1 3140   3.599   5.859   4.791
  747SOL    HW2 3141   3.511   5.996   4.799
  748SOL     OW 3142   4.060   5.516   2.926
  748SOL    HW1 3143   4.146   5.554   2.961
  748SOL    HW2 3144   4.005   5.483   3.003
  749SOL     OW 3145   6.375   4.254   4.274
  749SOL    HW1 3146   6.445   4.184   4.258
  749SOL    HW2 3147   6.417   4.334   4.317
  750SOL     OW 3148   3.033   1.080   1.423
  750SOL    HW1 3149   3.104   1.012   1.441
  750SOL    HW2 3150   2.980   1.097   1.506
  751SOL     OW 3151   4.544   1.731   6.930
  751SOL    HW1 3152   4.559   1.813   6.875
  751SOL    HW2 3153   4.465   1.745   6.989
  752SOL     OW 3154   2.486   2.749   0.893
  752SOL    HW1 3155   2.509   2.760   0.990
  752SOL    HW2 3156   2.555   2.795   0.837
  753SOL     OW 3157   1.003   3.493   6.415
  753SOL    HW1 3158   0.984   3.401   6.380
  753SOL    HW2 3159   0.938   3.558   6.376
  754SOL     OW 3160   4.760   1.218   6.194
  754SOL    HW1 3161   4.672   1.186   6.229
  754SOL    HW2 3162   4.831   1.151   6.218
  755SOL     OW 3163   1.619   4.566   5.381
  755SOL    HW1 3164   1.574   4.653   5.362
  755SOL    HW2 3165   1.717   4.573   5.360
  756SOL     OW 3166   2.566   6.027   0.149
  756SOL    HW1 3167   2.531   6.118   0.128
  756SOL    HW2 3168   2.491   5.969   0.181
  757SOL     OW 3169   0.353   6.437   4.224
  757SOL    HW1 3170   0.395   6.348   4.206
  757SOL    HW2 3171   0.334   6.483   4.137
  758SOL     OW 3172   4.276   0.524   3.670
  758SOL    HW1 3173   4.260   0.545   3.766
  758SOL    HW2 3174   4.197   0.476   3.632
  759SOL     OW 3175   0.670   3.103   2.102
  759SOL    HW1 3176   0.723   3.020   2.082
  759SOL    HW2 3177   0.664   3.159   2.019
  760SOL     OW 3178   6.461   0.048   3.514
  760SOL    HW1 3179   6.553   0.012   3.500
  760SOL    HW2 3180   6.427   0.019   3.603
  761SOL     OW 3181   5.382   4.083   6.465
  761SOL    HW1 3182   5.431   4.110   6.382
  761SOL    HW2 3183   5.419   3.996   6.498
  762SOL     OW 3184   2.925   0.111   5.519
  762SOL    HW1 3185   2.986   0.149   5.588
  762SOL    HW2 3186   2.974   0.101   5.432
  763SOL     OW 3187   3.993   5.708   6.289
  763SOL    HW1 3188   3.912   5.674   6.337
  763SOL    HW2 3189   4.026   5.790   6.334
  764SOL     OW 3190   5.384   0.834   5.529
  764SOL    HW1 3191   5.315   0.864   5.595
  764SOL    HW2 3192   5.472   0.874   5.553
  765SOL     OW 3193   1.289   5.688   0.972
  765SOL    HW1 3194   1.193   5.666   0.985
  765SOL    HW2 3195   1.333   5.616   0.919
  766SOL     OW 3196   2.696   2.132   5.425
  766SOL    HW1 3197   2.634   2.206   5.398
  766SOL    HW2 3198   2.768   2.123   5.357
  767SOL     OW 3199   6.351   6.218   3.382
  767SOL    HW1 3200   6.439   6.263   3.368
  767SOL    HW2 3201   6.308   6.200   3.294
  768SOL     OW 3202   1.880   5.155   2.875
  768SOL    HW1 3203   1.957   5.210   2.907
  768SOL    HW2 3204   1.908   5.060   2.864
  769SOL     OW 3205   2.594   1.271   5.230
  769SOL    HW1 3206   2.671   1.273   5.295
  769SOL    HW2 3207   2.528   1.342   5.254
  770SOL     OW 3208   1.823   5.569   3.865
  770SOL    HW1 3209   1.867   5.651   3.901
  770SOL    HW2 3210   1.763   5.530   3.935
  771SOL     OW 3211   1.084   5.177   2.947
  771SOL    HW1 3212   1.183   5.182   2.933
  771SOL    HW2 3213   1.062   5.099   3.006
  772SOL     OW 3214   5.670   4.478   7.006
  772SOL    HW1 3215   5.652   4.379   7.009
  772SOL    HW2 3216   5.621   4.517   6.928
  773SOL     OW 3217   0.417   4.269   3.590
  773SOL    HW1 3218   0.446   4.175   3.572
  773SOL    HW2 3219   0.497   4.329   3.592
  774SOL     OW 3220   1.820   1.323   1.696
  774SOL    HW1 3221   1.785   1.233   1.721
  774SOL    HW2 3222   1.894   1.313   1.630
  775SOL     OW 3223   2.107   2.172   3.951
  775SOL    HW1 3224   2.101   2.111   3.872
  775SOL    HW2 3225   2.020   2.221   3.961
  776SOL     OW 3226   0.311   0.200   6.440
  776SOL    HW1 3227   0.212   0.207   6.446
  776SOL    HW2 3228   0.338   0.193   6.344
  777SOL     OW 3229   1.970   4.422   1.176
  777SOL    HW1 3230   2.046   4.487   1.188
  777SOL    HW2 3231   1.993   4.356   1.104
  778SOL     OW 3232   2.159   0.541   1.586
  778SOL    HW1 3233   2.140   0.581   1.497
  778SOL    HW2 3234   2.255   0.515   1.592
  779SOL     OW 3235   6.986   2.228   2.409
  779SOL    HW1 3236   0.035   2.190   2.358
  779SOL    HW2 3237   6.900   2.205   2.362
  780SOL     OW 3238   0.682   2.725   4.468
  780SOL    HW1 3239   0.734   2.662   4.411
  780SOL    HW2 3240   0.590   2.688   4.482
  781SOL     OW 3241   5.500   6.350   0.725
  781SOL    HW1 3242   5.451   6.403   0.795
  781SOL    HW2 3243   5.543   6.413   0.661
  782SOL     OW 3244   1.505   3.508   6.453
  782SOL    HW1 3245   1.504   3.593   6.400
  782SOL    HW2 3246   1.413   3.489   6.487
  783SOL     OW 3247   4.954   4.919   1.852
  783SOL    HW1 3248   5.021   4.857   1.810
  783SOL    HW2 3249   4.872   4.923   1.794
  784SOL     OW 3250   4.293   4.758   1.185
  784SOL    HW1 3251   4.225   4.711   1.241
  784SOL    HW2 3252   4.345   4.690   1.133
  785SOL     OW 3253   0.616   1.932   3.711
  785SOL    HW1 3254   0.678   1.915   3.634
  785SOL    HW2 3255   0.559   1.851   3.726
  786SOL     OW 3256   0.334   0.280   2.523
  786SOL    HW1 3257   0.238   0.272   2.498
  786SOL    HW2 3258   0.383   0.199   2.491
  787SOL     OW 3259   1.586   1.298   6.586
  787SOL    HW1 3260   1.560   1.336   6.675
  787SOL    HW2 3261   1.610   1.202   6.597
  788SOL     OW 3262   4.152   1.633   0.959
  788SOL    HW1 3263   4.119   1.545   0.925
  788SOL    HW2 3264   4.227   1.664   0.901
  789SOL     OW 3265   4.280   4.494   1.890
  789SOL    HW1 3266   4.325   4.410   1.862
  789SOL    HW2 3267   4.345   4.551   1.942
  790SOL     OW 3268   2.716   1.750   3.167
  790SOL    HW1 3269   2.755   1.722   3.255
  790SOL    HW2 3270   2.666   1.673   3.127
  791SOL     OW 3271   1.596   6.538   4.512
  791SOL    HW1 3272   1.585   6.636   4.496
  791SOL    HW2 3273   1.507   6.497   4.532
  792SOL     OW 3274   0.956   0.913   2.004
  792SOL    HW1 3275   0.879   0.974   2.024
  792SOL    HW2 3276   0.995   0.939   1.915
  793SOL     OW 3277   4.972   5.570   4.500
  793SOL    HW1 3278   4.964   5.648   4.562
  793SOL    HW2 3279   4.987   5.487   4.554
  794SOL     OW 3280   2.850   3.941   5.853
  794SOL    HW1 3281   2.779   3.902   5.912
  794SOL    HW2 3282   2.893   4.018   5.900
  795SOL     OW 3283   4.033   0.223   5.421
  795SOL    HW1 3284   3.975   0.202   5.500
  795SOL    HW2 3285   4.116   0.168   5.425
  796SOL     OW 3286   0.947   2.715   6.993
  796SOL    HW1 3287   0.994   2.637   0.007
  796SOL    HW2 3288   0.878   2.749   0.029
  797SOL     OW 3289   4.785   0.394   0.901
  797SOL    HW1 3290   4.777   0.349   0.813
  797SOL    HW2 3291   4.718   0.355   0.965
  798SOL     OW 3292   3.681   6.603   2.082
  798SOL    HW1 3293   3.699   6.696   2.049
  798SOL    HW2 3294   3.590   6.599   2.123
  799SOL     OW 3295   0.326   6.941   6.579
  799SOL    HW1 3296   0.247   6.880   6.585
  799SOL    HW2 3297   0.296   0.006   6.555
  800SOL     OW 3298   6.065   0.669   2.247
  800SOL    HW1 3299   6.062   0.716   2.159
  800SOL    HW2 3300   5.972   0.639   2.272
  801SOL     OW 3301   2.185   4.535   5.222
  801SOL    HW1 3302   2.277   4.499   5.240
  801SOL    HW2 3303   2.154   4.505   5.132
  802SOL     OW 3304   2.983   2.652   0.316
  802SOL    HW1 3305   2.965   2.566   0.364
  802SOL    HW2 3306   2.957   2.643   0.220
  803SOL     OW 3307   1.579   0.470   6.011
  803SOL    HW1 3308   1.499   0.415   6.035
  803SOL    HW2 3309   1.662   0.421   6.037
  804SOL     OW 3310   6.063   6.455   1.130
  804SOL    HW1 3311   6.003   6.377   1.110
  804SOL    HW2 3312   6.119   6.476   1.050
  805SOL     OW 3313   1.893   1.200   4.680
  805SOL    HW1 3314   1.961   1.185   4.608
  805SOL    HW2 3315   1.939   1.203   4.769
  806SOL     OW 3316   5.353   0.337   5.321
  806SOL    HW1 3317   5.359   0.436   5.332
  806SOL    HW2 3318   5.435   0.294   5.358
  807SOL     OW 3319   0.304   0.845   5.040
  807SOL    HW1 3320   0.342   0.759   5.074
  807SOL    HW2 3321   0.209   0.831   5.012
  808SOL     OW 3322   4.455   3.844   0.022
  808SOL    HW1 3323   4.473   3.748   0.040
  808SOL    HW2 3324   4.399   3.854   6.968
  809SOL     OW 3325   0.518   4.900   0.836
  809SOL    HW1 3326   0.513   4.809   0.794
  809SOL    HW2 3327   0.486   4.968   0.771
  810SOL     OW 3328   3.337   4.502   0.445
  810SOL    HW1 3329   3.284   4.505   0.530
  810SOL    HW2 3330   3.315   4.582   0.389
  811SOL     OW 3331   5.335   5.685   4.660
  811SOL    HW1 3332   5.272   5.662   4.734
  811SOL    HW2 3333   5.367   5.779   4.672
  812SOL     OW 3334   0.003   1.101   2.720
  812SOL    HW1 3335   0.094   1.142   2.711
  812SOL    HW2 3336   6.962   1.166   2.689
  813SOL     OW 3337   3.933   7.007   4.324
  813SOL    HW1 3338   3.956   0.022   4.412
  813SOL    HW2 3339   3.834   7.000   4.315
  814SOL     OW 3340   6.535   5.603   2.383
  814SOL    HW1 3341   6.632   5.615   2.402
  814SOL    HW2 3342   6.523   5.550   2.299
  815SOL     OW 3343   6.636   3.013   3.284
  815SOL    HW1 3344   6.713   2.997   3.222
  815SOL    HW2 3345   6.651   3.099   3.334
  816SOL     OW 3346   5.743   5.371   0.519
  816SOL    HW1 3347   5.746   5.283   0.565
  816SOL    HW2 3348   5.649   5.405   0.517
  817SOL     OW 3349   1.061   5.294   1.316
  817SOL    HW1 3350   1.057   5.364   1.388
  817SOL    HW2 3351   1.155   5.260   1.307
  818SOL     OW 3352   6.162   3.339   3.584
  818SOL    HW1 3353   6.153   3.248   3.624
  818SOL    HW2 3354   6.257   3.353   3.554
  819SOL     OW 3355   6.286   3.304   1.505
  819SOL    HW1 3356   6.213   3.309   1.574
  819SOL    HW2 3357   6.281   3.216   1.458
  820SOL     OW 3358   2.663   2.263   5.123
  820SOL    HW1 3359   2.682   2.361   5.125
  820SOL    HW2 3360   2.592   2.242   5.191
  821SOL     OW 3361   6.328   4.734   6.572
  821SOL    HW1 3362   6.249   4.736   6.511
  821SOL    HW2 3363   6.366   4.642   6.576
  822SOL     OW 3364   0.278   3.048   3.379
  822SOL    HW1 3365   0.271   3.130   3.434
  822SOL    HW2 3366   0.207   2.983   3.405
  823SOL     OW 3367   6.318   4.502   6.168
  823SOL    HW1 3368   6.318   4.523   6.266
  823SOL    HW2 3369   6.336   4.585   6.116
  824SOL     OW 3370   3.901   0.828   6.188
  824SOL    HW1 3371   3.985   0.819   6.135
  824SOL    HW2 3372   3.830   0.870   6.131
  825SOL     OW 3373   6.787   5.661   1.120
  825SOL    HW1 3374   6.779   5.755   1.086
  825SOL    HW2 3375   6.835   5.662   1.208
  826SOL     OW 3376   3.960   2.377   5.610
  826SOL    HW1 3377   3.982   2.315   5.685
  826SOL    HW2 3378   3.919   2.460   5.646
  827SOL     OW 3379   2.443   4.410   5.293
  827SOL    HW1 3380   2.413   4.325   5.335
  827SOL    HW2 3381   2.422   4.487   5.354
  828SOL     OW 3382   5.537   6.772   6.845
  828SOL    HW1 3383   5.457   6.779   6.904
  828SOL    HW2 3384   5.524   6.830   6.764
  829SOL     OW 3385   4.044   3.555   2.180
  829SOL    HW1 3386   4.104   3.476   2.171
  829SOL    HW2 3387   4.048   3.590   2.274
  830SOL     OW 3388   5.382   4.875   6.442
  830SOL    HW1 3389   5.433   4.880   6.528
  830SOL    HW2 3390   5.331   4.789   6.438
  831SOL     OW 3391   5.786   6.890   0.371
  831SOL    HW1 3392   5.768   6.875   0.274
  831SOL    HW2 3393   5.860   6.829   0.401
  832SOL     OW 3394   4.294   2.072   3.801
  832SOL    HW1 3395   4.270   1.989   3.750
  832SOL    HW2 3396   4.374   2.053   3.858
  833SOL     OW 3397   2.025   3.793   6.481
  833SOL    HW1 3398   2.034   3.788   6.581
  833SOL    HW2 3399   2.086   3.726   6.439
  834SOL     OW 3400   5.039   3.560   1.109
  834SOL    HW1 3401   5.018   3.465   1.129
  834SOL    HW2 3402   5.037   3.613   1.194
  835SOL     OW 3403   3.189   6.893   5.203
  835SOL    HW1 3404   3.199   6.794   5.208
  835SOL    HW2 3405   3.112   6.922   5.259
  836SOL     OW 3406   4.110   6.755   4.956
  836SOL    HW1 3407   4.147   6.805   4.878
  836SOL    HW2 3408   4.052   6.816   5.010
  837SOL     OW 3409   6.820   0.626   1.323
  837SOL    HW1 3410   6.829   0.726   1.320
  837SOL    HW2 3411   6.905   0.586   1.358
  838SOL     OW 3412   2.381   6.765   4.493
  838SOL    HW1 3413   2.416   6.757   4.399
  838SOL    HW2 3414   2.305   6.829   4.495
  839SOL     OW 3415   2.111   1.395   1.932
  839SOL    HW1 3416   2.177   1.345   1.875
  839SOL    HW2 3417   2.022   1.350   1.927
  840SOL     OW 3418   6.203   5.976   6.799
  840SOL    HW1 3419   6.130   6.026   6.845
  840SOL    HW2 3420   6.180   5.966   6.702
  841SOL     OW 3421   3.584   5.443   6.263
  841SOL    HW1 3422   3.606   5.417   6.357
  841SOL    HW2 3423   3.657   5.413   6.202
  842SOL     OW 3424   3.863   0.458   5.640
  842SOL    HW1 3425   3.789   0.447   5.706
  842SOL    HW2 3426   3.846   0.539   5.585
  843SOL     OW 3427   1.052   1.896   1.440
  843SOL    HW1 3428   1.128   1.908   1.376
  843SOL    HW2 3429   1.088   1.899   1.534
  844SOL     OW 3430   6.655   0.096   0.150
  844SOL    HW1 3431   6.686   0.182   0.109
  844SOL    HW2 3432   6.609   0.115   0.237
  845SOL     OW 3433   5.032   4.217   3.490
  845SOL    HW1 3434   5.034   4.295   3.428
  845SOL    HW2 3435   4.949   4.164   3.475
  846SOL     OW 3436   2.232   0.957   5.958
  846SOL    HW1 3437   2.242   1.049   5.996
  846SOL    HW2 3438   2.322   0.916   5.942
  847SOL     OW 3439   1.253   3.491   1.258
  847SOL    HW1 3440   1.268   3.588   1.239
  847SOL    HW2 3441   1.191   3.452   1.190
  848SOL     OW 3442   6.791   0.089   5.965
  848SOL    HW1 3443   6.732   0.144   5.906
  848SOL    HW2 3444   6.883   0.085   5.925
  849SOL     OW 3445   6.051   4.265   6.706
  849SOL    HW1 3446   6.049   4.275   6.607
  849SOL    HW2 3447   6.084   4.173   6.730
  850SOL     OW 3448   5.916   0.892   4.654
  850SOL    HW1 3449   5.818   0.878   4.637
  850SOL    HW2 3450   5.936   0.873   4.750
  851SOL     OW 3451   6.783   2.760   0.871
  851SOL    HW1 3452   6.859   2.825   0.876
  851SOL    HW2 3453   6.808   2.685   0.810
  852SOL     OW 3454   0.759   4.225   0.685
  852SOL    HW1 3455   0.761   4.323   0.708
  852SOL    HW2 3456   0.851   4.196   0.657
  853SOL     OW 3457   0.853   4.570   0.641
  853SOL    HW1 3458   0.948   4.561   0.612
  853SOL    HW2 3459   0.837   4.513   0.721
  854SOL     OW 3460   5.205   5.715   0.935
  854SOL    HW1 3461   5.157   5.638   0.978
  854SOL    HW2 3462   5.273   5.679   0.871
  855SOL     OW 3463   6.654   6.814   1.238
  855SOL    HW1 3464   6.570   6.833   1.289
  855SOL    HW2 3465   6.634   6.750   1.164
  856SOL     OW 3466   1.492   1.766   6.429
  856SOL    HW1 3467   1.540   1.851   6.450
  856SOL    HW2 3468   1.442   1.735   6.510
  857SOL     OW 3469   6.201   5.145   2.140
  857SOL    HW1 3470   6.130   5.117   2.076
  857SOL    HW2 3471   6.172   5.123   2.234
  858SOL     OW 3472   3.040   4.030   1.097
  858SOL    HW1 3473   3.059   3.936   1.072
  858SOL    HW2 3474   3.120   4.069   1.145
  859SOL     OW 3475   5.755   6.885   5.137
  859SOL    HW1 3476   5.795   6.794   5.148
  859SOL    HW2 3477   5.656   6.877   5.129
  860SOL     OW 3478   6.566   3.013   6.886
  860SOL    HW1 3479   6.539   2.921   6.859
  860SOL    HW2 3480   6.524   3.036   6.974
  861SOL     OW 3481   2.399   4.915   4.011
  861SOL    HW1 3482   2.369   4.947   4.101
  861SOL    HW2 3483   2.360   4.975   3.940
  862SOL     OW 3484   1.580   4.248   3.039
  862SOL    HW1 3485   1.547   4.210   2.953
  862SOL    HW2 3486   1.581   4.176   3.109
  863SOL     OW 3487   5.708   0.932   6.636
  863SOL    HW1 3488   5.620   0.932   6.684
  863SOL    HW2 3489   5.696   0.892   6.545
  864SOL     OW 3490   3.776   5.818   3.733
  864SOL    HW1 3491   3.684   5.850   3.757
  864SOL    HW2 3492   3.844   5.872   3.782
  865SOL     OW 3493   1.587   0.150   6.111
  865SOL    HW1 3494   1.524   0.111   6.044
  865SOL    HW2 3495   1.677   0.161   6.070
  866SOL     OW 3496   2.731   0.769   0.751
  866SOL    HW1 3497   2.690   0.834   0.816
  866SOL    HW2 3498   2.830   0.783   0.748
  867SOL     OW 3499   5.228   3.722   0.197
  867SOL    HW1 3500   5.303   3.684   0.144
  867SOL    HW2 3501   5.264   3.777   0.272
  868SOL     OW 3502   6.393   0.854   1.404
  868SOL    HW1 3503   6.480   0.806   1.396
  868SOL    HW2 3504   6.374   0.903   1.319
  869SOL     OW 3505   0.165   4.320   2.763
  869SOL    HW1 3506   0.248   4.274   2.794
  869SOL    HW2 3507   0.157   4.311   2.663
  870SOL     OW 3508   3.947   3.964   0.926
  870SOL    HW1 3509   3.923   4.042   0.868
  870SOL    HW2 3510   3.872   3.898   0.926
  871SOL     OW 3511   5.296   2.379   3.217
  871SOL    HW1 3512   5.385   2.343   3.245
  871SOL    HW2 3513   5.232   2.375   3.294
  872SOL     OW 3514   6.022   3.571   3.917
  872SOL    HW1 3515   6.063   3.657   3.887
  872SOL    HW2 3516   5.993   3.517   3.838
  873SOL     OW 3517   5.310   5.673   5.039
  873SOL    HW1 3518   5.409   5.660   5.039
  873SOL    HW2 3519   5.288   5.769   5.056
  874SOL     OW 3520   6.692   3.818   6.244
  874SOL    HW1 3521   6.732   3.811   6.335
  874SOL    HW2 3522   6.615   3.754   6.236
  875SOL     OW 3523   5.266   5.188   0.869
  875SOL    HW1 3524   5.173   5.170   0.900
  875SOL    HW2 3525   5.275   5.160   0.773
  876SOL     OW 3526   0.084   4.889   2.651
  876SOL    HW1 3527   0.134   4.930   2.727
  876SOL    HW2 3528   0.037   4.961   2.600
  877SOL     OW 3529   3.750   4.831   5.663
  877SOL    HW1 3530   3.797   4.911   5.626
  877SOL    HW2 3531   3.682   4.799   5.597
  878SOL     OW 3532   4.600   6.585   4.602
  878SOL    HW1 3533   4.524   6.521   4.613
  878SOL    HW2 3534   4.565   6.679   4.611
  879SOL     OW 3535   4.275   1.105   1.539
  879SOL    HW1 3536   4.351   1.135   1.596
  879SOL    HW2 3537   4.246   1.180   1.480
  880SOL     OW 3538   3.091   3.968   4.225
  880SOL    HW1 3539   3.053   3.920   4.304
  880SOL    HW2 3540   3.163   4.031   4.255
  881SOL     OW 3541   5.607   3.763   5.421
  881SOL    HW1 3542   5.643   3.839   5.368
  881SOL    HW2 3543   5.574   3.797   5.510
  882SOL     OW 3544   1.210   2.274   3.659
  882SOL    HW1 3545   1.142   2.342   3.688
  882SOL    HW2 3546   1.186   2.240   3.568
  883SOL     OW 3547   3.443   0.371   0.476
  883SOL    HW1 3548   3.486   0.405   0.392
  883SOL    HW2 3549   3.370   0.433   0.503
  884SOL     OW 3550   0.002   4.147   6.992
  884SOL    HW1 3551   7.012   4.144   6.893
  884SOL    HW2 3552   0.096   4.118   7.009
  885SOL     OW 3553   4.703   0.183   4.950
  885SOL    HW1 3554   4.614   0.162   4.989
  885SOL    HW2 3555   4.737   0.270   4.986
  886SOL     OW 3556   3.620   0.413   0.272
  886SOL    HW1 3557   3.720   0.413   0.263
  886SOL    HW2 3558   3.581   0.357   0.199
  887SOL     OW 3559   3.862   6.234   3.959
  887SOL    HW1 3560   3.878   6.218   4.056
  887SOL    HW2 3561   3.864   6.146   3.910
  888SOL     OW 3562   0.198   6.120   3.641
  888SOL    HW1 3563   0.242   6.194   3.691
  888SOL    HW2 3564   0.180   6.150   3.547
  889SOL     OW 3565   7.011   1.268   6.608
  889SOL    HW1 3566   0.022   1.188   6.653
  889SOL    HW2 3567   0.047   1.345   6.617
  890SOL     OW 3568   2.481   4.841   2.529
  890SOL    HW1 3569   2.539   4.767   2.494
  890SOL    HW2 3570   2.538   4.916   2.561
  891SOL     OW 3571   6.600   3.757   0.879
  891SOL    HW1 3572   6.600   3.836   0.941
  891SOL    HW2 3573   6.616   3.788   0.785
  892SOL     OW 3574   3.139   3.663   4.862
  892SOL    HW1 3575   3.141   3.669   4.962
  892SOL    HW2 3576   3.080   3.736   4.826
  893SOL     OW 3577   2.325   6.932   3.302
  893SOL    HW1 3578   2.359   6.862   3.365
  893SOL    HW2 3579   2.346   6.907   3.208
  894SOL     OW 3580   1.414   2.828   2.596
  894SOL    HW1 3581   1.492   2.766   2.586
  894SOL    HW2 3582   1.445   2.915   2.633
  895SOL     OW 3583   1.287   5.449   4.292
  895SOL    HW1 3584   1.362   5.386   4.275
  895SOL    HW2 3585   1.301   5.533   4.240
  896SOL     OW 3586   5.656   5.064   1.680
  896SOL    HW1 3587   5.696   5.110   1.760
  896SOL    HW2 3588   5.728   5.022   1.627
  897SOL     OW 3589   4.083   0.994   6.616
  897SOL    HW1 3590   4.062   0.897   6.628
  897SOL    HW2 3591   4.147   1.023   6.687
  898SOL     OW 3592   4.143   6.691   2.750
  898SOL    HW1 3593   4.224   6.645   2.785
  898SOL    HW2 3594   4.167   6.783   2.718
  899SOL     OW 3595   0.348   6.011   0.134
  899SOL    HW1 3596   0.428   5.973   0.179
  899SOL    HW2 3597   0.369   6.030   0.038
  900SOL     OW 3598   5.081   0.022   6.990
  900SOL    HW1 3599   5.051   6.986   0.033
  900SOL    HW2 3600   5.057   0.116   7.017
  901SOL     OW 3601   1.209   0.871   3.912
  901SOL    HW1 3602   1.220   0.796   3.847
  901SOL    HW2 3603   1.271   0.946   3.886
  902SOL     OW 3604   1.242   2.995   1.624
  902SOL    HW1 3605   1.205   2.970   1.535
  902SOL    HW2 3606   1.263   2.912   1.676
  903SOL     OW 3607   0.699   3.406   6.932
  903SOL    HW1 3608   0.678   3.329   6.992
  903SOL    HW2 3609   0.769   3.464   6.976
  904SOL     OW 3610   2.048   2.728   2.475
  904SOL    HW1 3611   1.980   2.655   2.471
  904SOL    HW2 3612   2.103   2.717   2.559
  905SOL     OW 3613   4.833   3.866   6.647
  905SOL    HW1 3614   4.773   3.911   6.581
  905SOL    HW2 3615   4.780   3.798   6.699
  906SOL     OW 3616   0.667   1.890   6.532
  906SOL    HW1 3617   0.637   1.911   6.625
  906SOL    HW2 3618   0.601   1.828   6.489
  907SOL     OW 3619   4.971   2.590   1.062
  907SOL    HW1 3620   4.948   2.596   0.965
  907SOL    HW2 3621   5.067   2.566   1.073
  908SOL     OW 3622   2.501   4.468   3.287
  908SOL    HW1 3623   2.533   4.452   3.380
  908SOL    HW2 3624   2.475   4.564   3.277
  909SOL     OW 3625   3.920   6.234   2.117
  909SOL    HW1 3626   3.836   6.214   2.167
  909SOL    HW2 3627   3.941   6.332   2.125
  910SOL     OW 3628   3.305   1.668   1.442
  910SOL    HW1 3629   3.206   1.660   1.444
  910SOL    HW2 3630   3.336   1.717   1.524
  911SOL     OW 3631   1.419   6.294   6.625
  911SOL    HW1 3632   1.442   6.222   6.691
  911SOL    HW2 3633   1.482   6.289   6.547
  912SOL     OW 3634   5.731   1.172   3.019
  912SOL    HW1 3635   5.731   1.266   2.988
  912SOL    HW2 3636   5.743   1.110   2.941
  913SOL     OW 3637   2.815   0.843   4.094
  913SOL    HW1 3638   2.718   0.849   4.071
  913SOL    HW2 3639   2.828   0.870   4.190
  914SOL     OW 3640   2.092   6.847   5.612
  914SOL    HW1 3641   2.129   6.930   5.570
  914SOL    HW2 3642   2.011   6.870   5.666
  915SOL     OW 3643   0.134   2.796   0.477
  915SOL    HW1 3644   0.187   2.765   0.556
  915SOL    HW2 3645   0.040   2.813   0.504
  916SOL     OW 3646   1.820   3.123   2.594
  916SOL    HW1 3647   1.831   3.115   2.693
  916SOL    HW2 3648   1.896   3.175   2.556
  917SOL     OW 3649   0.572   6.722   1.900
  917SOL    HW1 3650   0.647   6.700   1.839
  917SOL    HW2 3651   0.578   6.666   1.983
  918SOL     OW 3652   3.602   0.239   0.702
  918SOL    HW1 3653   3.564   0.215   0.791
  918SOL    HW2 3654   3.534   0.290   0.649
  919SOL     OW 3655   6.982   6.550   2.974
  919SOL    HW1 3656   0.013   6.536   3.053
  919SOL    HW2 3657   6.886   6.546   3.002
  920SOL     OW 3658   2.373   4.387   2.553
  920SOL    HW1 3659   2.431   4.433   2.621
  920SOL    HW2 3660   2.408   4.295   2.537
  921SOL     OW 3661   3.874   5.273   3.791
  921SOL    HW1 3662   3.781   5.304   3.812
  921SOL    HW2 3663   3.909   5.219   3.868
  922SOL     OW 3664   3.057   4.027   4.636
  922SOL    HW1 3665   2.991   4.047   4.563
  922SOL    HW2 3666   3.016   3.963   4.701
  923SOL     OW 3667   2.689   3.819   6.314
  923SOL    HW1 3668   2.643   3.781   6.394
  923SOL    HW2 3669   2.671   3.917   6.308
  924SOL     OW 3670   6.404   3.428   2.187
  924SOL    HW1 3671   6.327   3.369   2.165
  924SOL    HW2 3672   6.402   3.450   2.285
  925SOL     OW 3673   0.151   2.217   6.990
  925SOL    HW1 3674   0.195   2.265   6.914
  925SOL    HW2 3675   0.168   2.119   6.982
  926SOL     OW 3676   6.266   0.379   1.181
  926SOL    HW1 3677   6.362   0.357   1.193
  926SOL    HW2 3678   6.243   0.460   1.236
  927SOL     OW 3679   5.576   4.097   3.275
  927SOL    HW1 3680   5.524   4.151   3.341
  927SOL    HW2 3681   5.560   4.000   3.291
  928SOL     OW 3682   1.523   6.250   0.080
  928SOL    HW1 3683   1.563   6.259   7.016
  928SOL    HW2 3684   1.553   6.327   0.137
  929SOL     OW 3685   1.096   0.489   6.784
  929SOL    HW1 3686   1.011   0.446   6.753
  929SOL    HW2 3687   1.077   0.548   6.862
  930SOL     OW 3688   5.279   5.801   5.449
  930SOL    HW1 3689   5.346   5.861   5.405
  930SOL    HW2 3690   5.231   5.853   5.521
  931SOL     OW 3691   5.974   1.494   4.982
  931SOL    HW1 3692   6.025   1.461   4.903
  931SOL    HW2 3693   6.026   1.567   5.027
  932SOL     OW 3694   3.330   0.635   3.461
  932SOL    HW1 3695   3.241   0.680   3.462
  932SOL    HW2 3696   3.328   0.558   3.397
  933SOL     OW 3697   1.881   6.567   3.478
  933SOL    HW1 3698   1.861   6.489   3.538
  933SOL    HW2 3699   1.837   6.553   3.389
  934SOL     OW 3700   2.322   6.412   7.020
  934SOL    HW1 3701   2.347   6.509   7.026
  934SOL    HW2 3702   2.241   6.402   6.962
  935SOL     OW 3703   5.139   4.016   4.444
  935SOL    HW1 3704   5.150   3.925   4.482
  935SOL    HW2 3705   5.193   4.082   4.497
  936SOL     OW 3706   7.000   0.477   6.223
  936SOL    HW1 3707   7.017   0.511   6.316
  936SOL    HW2 3708   7.018   0.378   6.220
  937SOL     OW 3709   5.291   2.032   6.313
  937SOL    HW1 3710   5.329   2.054   6.402
  937SOL    HW2 3711   5.342   1.956   6.273
  938SOL     OW 3712   5.523   4.736   6.650
  938SOL    HW1 3713   5.571   4.668   6.595
  938SOL    HW2 3714   5.586   4.776   6.717
  939SOL     OW 3715   0.073   6.976   4.332
  939SOL    HW1 3716   0.120   0.037   4.335
  939SOL    HW2 3717   0.017   6.972   4.249
  940SOL     OW 3718   0.532   3.959   1.837
  940SOL    HW1 3719   0.616   3.905   1.841
  940SOL    HW2 3720   0.553   4.055   1.853
  941SOL     OW 3721   5.834   1.789   6.994
  941SOL    HW1 3722   5.934   1.782   6.987
  941SOL    HW2 3723   5.802   1.737   0.046
  942SOL     OW 3724   5.585   6.579   2.673
  942SOL    HW1 3725   5.600   6.540   2.582
  942SOL    HW2 3726   5.533   6.664   2.665
  943SOL     OW 3727   1.607   4.019   3.210
  943SOL    HW1 3728   1.695   3.973   3.198
  943SOL    HW2 3729   1.541   3.955   3.248
  944SOL     OW 3730   6.966   4.931   5.587
  944SOL    HW1 3731   0.017   4.988   5.610
  944SOL    HW2 3732   6.923   4.897   5.671
  945SOL     OW 3733   0.428   3.926   6.276
  945SOL    HW1 3734   0.471   3.968   6.356
  945SOL    HW2 3735   0.389   3.837   6.301
  946SOL     OW 3736   5.018   4.169   5.292
  946SOL    HW1 3737   4.920   4.152   5.291
  946SOL    HW2 3738   5.068   4.083   5.279
  947SOL     OW 3739   3.814   2.950   3.573
  947SOL    HW1 3740   3.850   2.981   3.662
  947SOL    HW2 3741   3.882   2.965   3.502
  948SOL     OW 3742   5.118   0.940   2.857
  948SOL    HW1 3743   5.148   1.016   2.799
  948SOL    HW2 3744   5.106   0.972   2.951
  949SOL     OW 3745   1.851   5.893   0.528
  949SOL    HW1 3746   1.871   5.945   0.612
  949SOL    HW2 3747   1.850   5.795   0.549
  950SOL     OW 3748   5.182   5.967   2.655
  950SOL    HW1 3749   5.217   5.933   2.742
  950SOL    HW2 3750   5.258   5.985   2.593
  951SOL     OW 3751   1.412   0.581   3.930
  951SOL    HW1 3752   1.430   0.567   4.027
  951SOL    HW2 3753   1.319   0.551   3.909
  952SOL     OW 3754   4.180   2.306   3.686
  952SOL    HW1 3755   4.206   2.227   3.742
  952SOL    HW2 3756   4.096   2.284   3.637
  953SOL     OW 3757   5.486   5.497   4.295
  953SOL    HW1 3758   5.472   5.595   4.280
  953SOL    HW2 3759   5.495   5.479   4.393
  954SOL     OW 3760   4.185   5.650   1.898
  954SOL    HW1 3761   4.143   5.721   1.842
  954SOL    HW2 3762   4.115   5.587   1.932
  955SOL     OW 3763   0.373   3.791   1.155
  955SOL    HW1 3764   0.426   3.739   1.089
  955SOL    HW2 3765   0.424   3.873   1.182
  956SOL     OW 3766   6.289   0.654   1.764
  956SOL    HW1 3767   6.244   0.571   1.732
  956SOL    HW2 3768   6.341   0.633   1.847
  957SOL     OW 3769   5.953   2.981   3.232
  957SOL    HW1 3770   5.968   3.015   3.140
  957SOL    HW2 3771   5.857   2.996   3.258
  958SOL     OW 3772   4.291   0.849   1.459
  958SOL    HW1 3773   4.288   0.949   1.460
  958SOL    HW2 3774   4.374   0.817   1.505
  959SOL     OW 3775   3.436   6.250   4.546
  959SOL    HW1 3776   3.468   6.187   4.474
  959SOL    HW2 3777   3.429   6.342   4.508
  960SOL     OW 3778   0.579   0.548   2.246
  960SOL    HW1 3779   0.654   0.558   2.181
  960SOL    HW2 3780   0.575   0.454   2.279
  961SOL     OW 3781   4.213   6.538   3.321
  961SOL    HW1 3782   4.120   6.560   3.292
  961SOL    HW2 3783   4.227   6.439   3.316
  962SOL     OW 3784   0.175   1.191   5.114
  962SOL    HW1 3785   0.250   1.256   5.121
  962SOL    HW2 3786   0.177   1.147   5.024
  963SOL     OW 3787   5.370   1.304   5.941
  963SOL    HW1 3788   5.427   1.384   5.958
  963SOL    HW2 3789   5.278   1.334   5.914
  964SOL     OW 3790   5.514   5.196   0.143
  964SOL    HW1 3791   5.599   5.145   0.162
  964SOL    HW2 3792   5.437   5.132   0.144
  965SOL     OW 3793   5.772   1.631   2.064
  965SOL    HW1 3794   5.743   1.544   2.025
  965SOL    HW2 3795   5.827   1.681   1.996
  966SOL     OW 3796   5.901   3.112   2.236
  966SOL    HW1 3797   5.890   3.044   2.309
  966SOL    HW2 3798   5.987   3.162   2.251
  967SOL     OW 3799   2.868   4.142   1.281
  967SOL    HW1 3800   2.928   4.125   1.203
  967SOL    HW2 3801   2.778   4.100   1.263
  968SOL     OW 3802   3.815   0.794   2.141
  968SOL    HW1 3803   3.900   0.829   2.101
  968SOL    HW2 3804   3.765   0.869   2.185
  969SOL     OW 3805   2.708   4.516   5.517
  969SOL    HW1 3806   2.660   4.486   5.600
  969SOL    HW2 3807   2.723   4.438   5.456
  970SOL     OW 3808   5.427   0.928   6.763
  970SOL    HW1 3809   5.431   0.895   6.857
  970SOL    HW2 3810   5.379   0.862   6.706
  971SOL     OW 3811   0.314   2.690   2.108
  971SOL    HW1 3812   0.397   2.683   2.165
  971SOL    HW2 3813   0.253   2.758   2.148
  972SOL     OW 3814   5.893   1.906   1.252
  972SOL    HW1 3815   5.959   1.831   1.250
  972SOL    HW2 3816   5.941   1.992   1.271
  973SOL     OW 3817   0.792   5.403   6.648
  973SOL    HW1 3818   0.787   5.334   6.576
  973SOL    HW2 3819   0.717   5.388   6.712
  974SOL     OW 3820   5.526   6.315   2.139
  974SOL    HW1 3821   5.594   6.336   2.069
  974SOL    HW2 3822   5.569   6.263   2.213
  975SOL     OW 3823   1.893   0.430   6.914
  975SOL    HW1 3824   1.967   0.484   6.873
  975SOL    HW2 3825   1.811   0.487   6.921
  976SOL     OW 3826   0.057   3.778   1.732
  976SOL    HW1 3827   0.053   3.706   1.663
  976SOL    HW2 3828   0.092   3.862   1.690
  977SOL     OW 3829   0.469   0.337   1.960
  977SOL    HW1 3830   0.493   0.250   2.004
  977SOL    HW2 3831   0.550   0.396   1.959
  978SOL     OW 3832   5.380   2.587   6.381
  978SOL    HW1 3833   5.346   2.652   6.449
  978SOL    HW2 3834   5.396   2.634   6.294
  979SOL     OW 3835   0.616   2.657   7.025
  979SOL    HW1 3836   0.672   2.704   0.066
  979SOL    HW2 3837   0.645   2.686   6.934
  980SOL     OW 3838   5.341   2.166   3.684
  980SOL    HW1 3839   5.347   2.139   3.588
  980SOL    HW2 3840   5.304   2.091   3.738
  981SOL     OW 3841   0.097   1.767   4.970
  981SOL    HW1 3842   0.130   1.852   4.930
  981SOL    HW2 3843   7.027   1.756   4.949
  982SOL     OW 3844   1.071   1.236   4.650
  982SOL    HW1 3845   1.122   1.191   4.577
  982SOL    HW2 3846   1.115   1.217   4.738
  983SOL     OW 3847   6.339   2.727   3.143
  983SOL    HW1 3848   6.395   2.764   3.217
  983SOL    HW2 3849   6.364   2.632   3.126
  984SOL     OW 3850   2.676   2.305   4.603
  984SOL    HW1 3851   2.609   2.302   4.529
  984SOL    HW2 3852   2.637   2.353   4.681
  985SOL     OW 3853   6.572   3.091   5.198
  985SOL    HW1 3854   6.480   3.059   5.220
  985SOL    HW2 3855   6.603   3.154   5.269
  986SOL     OW 3856   4.926   4.895   0.957
  986SOL    HW1 3857   4.865   4.912   0.879
  986SOL    HW2 3858   5.010   4.851   0.925
  987SOL     OW 3859   4.758   6.773   2.566
  987SOL    HW1 3860   4.808   6.688   2.583
  987SOL    HW2 3861   4.815   6.851   2.593
  988SOL     OW 3862   3.388   4.084   1.632
  988SOL    HW1 3863   3.472   4.120   1.673
  988SOL    HW2 3864   3.326   4.054   1.704
  989SOL     OW 3865   6.666   2.138   7.000
  989SOL    HW1 3866   6.579   2.170   6.965
  989SOL    HW2 3867   6.726   2.113   6.924
  990SOL     OW 3868   3.472   1.159   2.252
  990SOL    HW1 3869   3.473   1.240   2.194
  990SOL    HW2 3870   3.409   1.091   2.214
  991SOL     OW 3871   0.966   3.492   4.196
  991SOL    HW1 3872   0.878   3.464   4.158
  991SOL    HW2 3873   0.993   3.428   4.268
  992SOL     OW 3874   0.834   3.445   1.500
  992SOL    HW1 3875   0.891   3.510   1.450
  992SOL    HW2 3876   0.761   3.494   1.548
  993SOL     OW 3877   6.664   4.833   0.691
  993SOL    HW1 3878   6.677   4.841   0.592
  993SOL    HW2 3879   6.566   4.835   0.712
  994SOL     OW 3880   4.140   5.200   1.779
  994SOL    HW1 3881   4.125   5.126   1.845
  994SOL    HW2 3882   4.218   5.255   1.808
  995SOL     OW 3883   3.985   2.995   5.818
  995SOL    HW1 3884   3.968   2.918   5.880
  995SOL    HW2 3885   4.046   2.966   5.745
  996SOL     OW 3886   3.278   5.397   4.846
  996SOL    HW1 3887   3.299   5.315   4.899
  996SOL    HW2 3888   3.207   5.450   4.893
  997SOL     OW 3889   0.775   6.942   3.000
  997SOL    HW1 3890   0.801   6.957   2.904
  997SOL    HW2 3891   0.747   0.002   3.041
  998SOL     OW 3892   5.480   0.519   5.506
  998SOL    HW1 3893   5.418   0.471   5.568
  998SOL    HW2 3894   5.452   0.615   5.498
  999SOL     OW 3895   5.384   4.505   2.209
  999SOL    HW1 3896   5.327   4.518   2.128
  999SOL    HW2 3897   5.379   4.410   2.239
 1000SOL     OW 3898   3.695   1.870   1.728
 1000SOL    HW1 3899   3.609   1.885   1.679
 1000SOL    HW2 3900   3.746   1.956   1.733
 1001SOL     OW 3901   4.640   5.741   1.136
 1001SOL    HW1 3902   4.667   5.740   1.040
 1001SOL    HW2 3903   4.620   5.835   1.165
 1002SOL     OW 3904   5.719   1.752   1.103
 1002SOL    HW1 3905   5.760   1.828   1.154
 1002SOL    HW2 3906   5.790   1.701   1.056
 1003SOL     OW 3907   1.916   6.204   2.879
 1003SOL    HW1 3908   1.918   6.304   2.877
 1003SOL    HW2 3909   1.859   6.170   2.804
 1004SOL     OW 3910   0.375   0.800   1.578
 1004SOL    HW1 3911   0.359   0.731   1.508
 1004SOL    HW2 3912   0.298   0.802   1.642
 1005SOL     OW 3913   1.857   2.637   3.759
 1005SOL    HW1 3914   1.956   2.643   3.770
 1005SOL    HW2 3915   1.821   2.725   3.730
 1006SOL     OW 3916   0.811   4.230   0.178
 1006SOL    HW1 3917   0.906   4.222   0.147
 1006SOL    HW2 3918   0.800   4.178   0.263
 1007SOL     OW 3919   4.612   0.975   5.420
 1007SOL    HW1 3920   4.556   0.914   5.364
 1007SOL    HW2 3921   4.557   1.053   5.451
 1008SOL     OW 3922   0.575   2.268   6.223
 1008SOL    HW1 3923   0.668   2.291   6.254
 1008SOL    HW2 3924   0.579   2.235   6.129
 1009SOL     OW 3925   0.512   4.942   5.376
 1009SOL    HW1 3926   0.470   4.977   5.293
 1009SOL    HW2 3927   0.446   4.887   5.427
 1010SOL     OW 3928   2.528   2.340   0.668
 1010SOL    HW1 3929   2.617   2.382   0.686
 1010SOL    HW2 3930   2.514   2.262   0.729
 1011SOL     OW 3931   1.145   5.434   3.176
 1011SOL    HW1 3932   1.197   5.471   3.253
 1011SOL    HW2 3933   1.073   5.499   3.150
 1012SOL     OW 3934   0.357   6.794   2.384
 1012SOL    HW1 3935   0.287   6.784   2.313
 1012SOL    HW2 3936   0.390   6.888   2.385
 1013SOL     OW 3937   1.078   1.667   6.290
 1013SOL    HW1 3938   1.175   1.692   6.289
 1013SOL    HW2 3939   1.069   1.568   6.283
 1014SOL     OW 3940   0.556   4.288   6.073
 1014SOL    HW1 3941   0.482   4.274   6.139
 1014SOL    HW2 3942   0.525   4.261   5.982
 1015SOL     OW 3943   2.749   6.864   5.758
 1015SOL    HW1 3944   2.849   6.872   5.760
 1015SOL    HW2 3945   2.723   6.775   5.796
 1016SOL     OW 3946   4.323   3.869   0.377
 1016SOL    HW1 3947   4.295   3.928   0.453
 1016SOL    HW2 3948   4.408   3.902   0.338
 1017SOL     OW 3949   4.450   2.266   1.124
 1017SOL    HW1 3950   4.405   2.180   1.150
 1017SOL    HW2 3951   4.548   2.251   1.116
 1018SOL     OW 3952   0.993   4.310   3.944
 1018SOL    HW1 3953   0.940   4.390   3.973
 1018SOL    HW2 3954   0.972   4.290   3.848
 1019SOL     OW 3955   0.289   6.077   0.944
 1019SOL    HW1 3956   0.190   6.066   0.947
 1019SOL    HW2 3957   0.332   6.015   1.009
 1020SOL     OW 3958   6.198   0.901   1.207
 1020SOL    HW1 3959   6.161   0.809   1.198
 1020SOL    HW2 3960   6.123   0.967   1.212
 1021SOL     OW 3961   5.611   0.014   1.825
 1021SOL    HW1 3962   5.523   0.042   1.864
 1021SOL    HW2 3963   5.655   0.093   1.782
 1022SOL     OW 3964   2.943   4.622   5.405
 1022SOL    HW1 3965   2.948   4.563   5.325
 1022SOL    HW2 3966   2.865   4.595   5.462
 1023SOL     OW 3967   0.645   0.608   2.831
 1023SOL    HW1 3968   0.561   0.593   2.883
 1023SOL    HW2 3969   0.648   0.546   2.753
 1024SOL     OW 3970   0.580   2.851   3.970
 1024SOL    HW1 3971   0.499   2.870   3.915
 1024SOL    HW2 3972   0.564   2.771   4.028
 1025SOL     OW 3973   3.534   3.198   1.238
 1025SOL    HW1 3974   3.513   3.100   1.241
 1025SOL    HW2 3975   3.626   3.214   1.274
 1026SOL     OW 3976   2.566   2.818   1.765
 1026SOL    HW1 3977   2.585   2.915   1.745
 1026SOL    HW2 3978   2.643   2.763   1.731
 1027SOL     OW 3979   3.489   0.352   2.068
 1027SOL    HW1 3980   3.483   0.313   2.160
 1027SOL    HW2 3981   3.397   0.372   2.034
 1028SOL     OW 3982   1.852   0.063   2.405
 1028SOL    HW1 3983   1.920   0.046   2.477
 1028SOL    HW2 3984   1.792   7.011   2.397
 1029SOL     OW 3985   1.224   1.259   6.136
 1029SOL    HW1 3986   1.300   1.322   6.152
 1029SOL    HW2 3987   1.141   1.297   6.176
 1030SOL     OW 3988   3.637   3.422   2.042
 1030SOL    HW1 3989   3.736   3.407   2.042
 1030SOL    HW2 3990   3.603   3.420   2.136
 1031SOL     OW 3991   4.729   3.687   1.757
 1031SOL    HW1 3992   4.642   3.705   1.711
 1031SOL    HW2 3993   4.804   3.712   1.697
 1032SOL     OW 3994   0.683   1.358   5.583
 1032SOL    HW1 3995   0.732   1.342   5.497
 1032SOL    HW2 3996   0.682   1.274   5.637
 1033SOL     OW 3997   1.029   5.591   1.018
 1033SOL    HW1 3998   0.950   5.652   1.007
 1033SOL    HW2 3999   0.997   5.497   1.032
 1034SOL     OW 4000   1.622   5.321   4.625
 1034SOL    HW1 4001   1.640   5.402   4.569
 1034SOL    HW2 4002   1.574   5.348   4.708
 1035SOL     OW 4003   0.037   1.359   6.233
 1035SOL    HW1 4004   0.040   1.429   6.161
 1035SOL    HW2 4005   7.001   1.388   6.305
 1036SOL     OW 4006   4.228   0.930   2.061
 1036SOL    HW1 4007   4.287   0.863   2.016
 1036SOL    HW2 4008   4.279   0.979   2.130
 1037SOL     OW 4009   1.472   1.436   2.547
 1037SOL    HW1 4010   1.414   1.514   2.569
 1037SOL    HW2 4011   1.512   1.400   2.632
 1038SOL     OW 4012   1.736   1.056   5.494
 1038SOL    HW1 4013   1.727   1.010   5.406
 1038SOL    HW2 4014   1.828   1.042   5.530
 1039SOL     OW 4015   3.781   3.706   4.578
 1039SOL    HW1 4016   3.689   3.723   4.613
 1039SOL    HW2 4017   3.777   3.635   4.508
 1040SOL     OW 4018   4.630   0.830   2.734
 1040SOL    HW1 4019   4.703   0.883   2.776
 1040SOL    HW2 4020   4.549   0.833   2.792
 1041SOL     OW 4021   0.014   6.443   3.251
 1041SOL    HW1 4022   6.993   6.471   3.334
 1041SOL    HW2 4023   6.982   6.385   3.196
 1042SOL     OW 4024   4.008   5.365   2.640
 1042SOL    HW1 4025   3.924   5.315   2.618
 1042SOL    HW2 4026   4.021   5.367   2.739
 1043SOL     OW 4027   3.482   2.033   3.745
 1043SOL    HW1 4028   3.435   2.109   3.790
 1043SOL    HW2 4029   3.574   2.062   3.719
 1044SOL     OW 4030   5.917   5.080   2.397
 1044SOL    HW1 4031   5.880   5.150   2.337
 1044SOL    HW2 4032   5.975   5.124   2.467
 1045SOL     OW 4033   4.254   0.754   2.407
 1045SOL    HW1 4034   4.208   0.741   2.495
 1045SOL    HW2 4035   4.352   0.763   2.422
 1046SOL     OW 4036   1.774   1.220   0.394
 1046SOL    HW1 4037   1.760   1.273   0.478
 1046SOL    HW2 4038   1.851   1.257   0.343
 1047SOL     OW 4039   2.495   7.006   3.548
 1047SOL    HW1 4040   2.503   0.039   3.628
 1047SOL    HW2 4041   2.542   0.020   3.470
 1048SOL     OW 4042   3.285   6.368   2.980
 1048SOL    HW1 4043   3.248   6.445   3.033
 1048SOL    HW2 4044   3.223   6.290   2.988
 1049SOL     OW 4045   6.522   6.753   3.996
 1049SOL    HW1 4046   6.435   6.797   3.975
 1049SOL    HW2 4047   6.507   6.657   4.017
 1050SOL     OW 4048   3.478   5.242   2.533
 1050SOL    HW1 4049   3.508   5.186   2.456
 1050SOL    HW2 4050   3.494   5.192   2.618
 1051SOL     OW 4051   0.396   5.030   0.618
 1051SOL    HW1 4052   0.320   4.992   0.567
 1051SOL    HW2 4053   0.380   5.128   0.635
 1052SOL     OW 4054   4.377   1.129   5.540
 1052SOL    HW1 4055   4.309   1.088   5.600
 1052SOL    HW2 4056   4.331   1.186   5.471
 1053SOL     OW 4057   5.947   3.873   3.242
 1053SOL    HW1 4058   6.032   3.884   3.293
 1053SOL    HW2 4059   5.917   3.962   3.208
 1054SOL     OW 4060   3.225   3.252   0.828
 1054SOL    HW1 4061   3.170   3.327   0.865
 1054SOL    HW2 4062   3.309   3.243   0.881
 1055SOL     OW 4063   4.140   6.804   5.258
 1055SOL    HW1 4064   4.176   6.883   5.208
 1055SOL    HW2 4065   4.102   6.835   5.345
 1056SOL     OW 4066   2.135   3.595   0.115
 1056SOL    HW1 4067   2.200   3.584   0.190
 1056SOL    HW2 4068   2.085   3.509   0.101
 1057SOL     OW 4069   3.279   3.237   1.447
 1057SOL    HW1 4070   3.288   3.159   1.509
 1057SOL    HW2 4071   3.324   3.216   1.360
 1058SOL     OW 4072   5.715   2.682   3.438
 1058SOL    HW1 4073   5.736   2.772   3.399
 1058SOL    HW2 4074   5.684   2.693   3.532
 1059SOL     OW 4075   2.019   0.736   2.207
 1059SOL    HW1 4076   2.030   0.662   2.273
 1059SOL    HW2 4077   2.101   0.744   2.150
 1060SOL     OW 4078   0.192   4.846   4.124
 1060SOL    HW1 4079   0.129   4.783   4.169
 1060SOL    HW2 4080   0.170   4.852   4.027
 1061SOL     OW 4081   6.632   3.514   6.471
 1061SOL    HW1 4082   6.563   3.470   6.529
 1061SOL    HW2 4083   6.587   3.552   6.390
 1062SOL     OW 4084   5.559   5.159   5.900
 1062SOL    HW1 4085   5.553   5.108   5.815
 1062SOL    HW2 4086   5.499   5.117   5.968
 1063SOL     OW 4087   1.097   5.716   0.582
 1063SOL    HW1 4088   1.182   5.717   0.530
 1063SOL    HW2 4089   1.019   5.728   0.520
 1064SOL     OW 4090   1.358   4.791   3.431
 1064SOL    HW1 4091   1.411   4.792   3.346
 1064SOL    HW2 4092   1.357   4.883   3.470
 1065SOL     OW 4093   4.769   0.843   3.157
 1065SOL    HW1 4094   4.684   0.799   3.127
 1065SOL    HW2 4095   4.780   0.832   3.255
 1066SOL     OW 4096   5.003   6.831   2.746
 1066SOL    HW1 4097   5.012   6.750   2.805
 1066SOL    HW2 4098   4.997   6.913   2.803
 1067SOL     OW 4099   0.791   2.808   0.198
 1067SOL    HW1 4100   0.848   2.779   0.275
 1067SOL    HW2 4101   0.705   2.845   0.233
 1068SOL     OW 4102   6.453   4.945   2.115
 1068SOL    HW1 4103   6.548   4.966   2.090
 1068SOL    HW2 4104   6.432   4.987   2.204
 1069SOL     OW 4105   4.956   5.646   0.572
 1069SOL    HW1 4106   4.876   5.698   0.543
 1069SOL    HW2 4107   5.039   5.698   0.551
 1070SOL     OW 4108   0.946   0.398   1.474
 1070SOL    HW1 4109   1.019   0.451   1.431
 1070SOL    HW2 4110   0.982   0.350   1.554
 1071SOL     OW 4111   1.341   1.094   3.904
 1071SOL    HW1 4112   1.268   1.160   3.925
 1071SOL    HW2 4113   1.423   1.143   3.877
 1072SOL     OW 4114   2.287   0.956   1.216
 1072SOL    HW1 4115   2.188   0.961   1.204
 1072SOL    HW2 4116   2.332   0.999   1.138
 1073SOL     OW 4117   5.196   0.562   3.682
 1073SOL    HW1 4118   5.216   0.558   3.584
 1073SOL    HW2 4119   5.279   0.543   3.734
 1074SOL     OW 4120   2.311   5.228   1.570
 1074SOL    HW1 4121   2.266   5.193   1.652
 1074SOL    HW2 4122   2.404   5.192   1.565
 1075SOL     OW 4123   5.435   6.991   3.090
 1075SOL    HW1 4124   5.354   7.019   3.039
 1075SOL    HW2 4125   5.414   6.990   3.188
 1076SOL     OW 4126   0.886   2.508   5.912
 1076SOL    HW1 4127   0.981   2.509   5.881
 1076SOL    HW2 4128   0.870   2.584   5.975
 1077SOL     OW 4129   6.289   6.945   0.338
 1077SOL    HW1 4130   6.381   6.983   0.346
 1077SOL    HW2 4131   6.294   6.845   0.340
 1078SOL     OW 4132   6.727   0.763   2.489
 1078SOL    HW1 4133   6.657   0.832   2.469
 1078SOL    HW2 4134   6.812   0.808   2.515
 1079SOL     OW 4135   1.509   6.245   2.101
 1079SOL    HW1 4136   1.604   6.246   2.131
 1079SOL    HW2 4137   1.503   6.208   2.009
 1080SOL     OW 4138   2.120   5.346   3.610
 1080SOL    HW1 4139   2.131   5.407   3.689
 1080SOL    HW2 4140   2.023   5.325   3.598
 1081SOL     OW 4141   6.652   5.206   5.094
 1081SOL    HW1 4142   6.726   5.148   5.061
 1081SOL    HW2 4143   6.689   5.290   5.134
 1082SOL     OW 4144   5.519   2.410   5.643
 1082SOL    HW1 4145   5.555   2.324   5.608
 1082SOL    HW2 4146   5.434   2.394   5.693
 1083SOL     OW 4147   4.621   4.298   0.158
 1083SOL    HW1 4148   4.602   4.232   0.231
 1083SOL    HW2 4149   4.692   4.361   0.187
 1084SOL     OW 4150   6.240   6.511   6.463
 1084SOL    HW1 4151   6.227   6.504   6.365
 1084SOL    HW2 4152   6.179   6.446   6.509
 1085SOL     OW 4153   1.445   3.814   4.914
 1085SOL    HW1 4154   1.500   3.761   4.978
 1085SOL    HW2 4155   1.401   3.753   4.848
 1086SOL     OW 4156   6.953   4.663   0.230
 1086SOL    HW1 4157   6.953   4.565   0.207
 1086SOL    HW2 4158   6.933   4.716   0.147
 1087SOL     OW 4159   0.234   2.287   4.859
 1087SOL    HW1 4160   0.173   2.366   4.859
 1087SOL    HW2 4161   0.295   2.291   4.780
 1088SOL     OW 4162   0.598   3.380   2.701
 1088SOL    HW1 4163   0.694   3.378   2.673
 1088SOL    HW2 4164   0.542   3.334   2.632
 1089SOL     OW 4165   6.851   5.782   4.510
 1089SOL    HW1 4166   6.862   5.842   4.589
 1089SOL    HW2 4167   6.892   5.825   4.430
 1090SOL     OW 4168   3.148   1.602   3.430
 1090SOL    HW1 4169   3.220   1.651   3.381
 1090SOL    HW2 4170   3.115   1.658   3.506
 1091SOL     OW 4171   2.504   2.168   4.899
 1091SOL    HW1 4172   2.559   2.228   4.841
 1091SOL    HW2 4173   2.537   2.172   4.993
 1092SOL     OW 4174   0.801   4.545   0.378
 1092SOL    HW1 4175   0.796   4.573   0.474
 1092SOL    HW2 4176   0.711   4.514   0.348
 1093SOL     OW 4177   2.250   0.047   1.541
 1093SOL    HW1 4178   2.177   0.088   1.595
 1093SOL    HW2 4179   2.260   0.098   1.455
 1094SOL     OW 4180   1.244   7.003   3.282
 1094SOL    HW1 4181   1.282   6.931   3.341
 1094SOL    HW2 4182   1.302   0.057   3.288
 1095SOL     OW 4183   1.024   2.738   6.094
 1095SOL    HW1 4184   1.053   2.681   6.171
 1095SOL    HW2 4185   1.105   2.772   6.045
 1096SOL     OW 4186   3.291   4.358   1.540
 1096SOL    HW1 4187   3.243   4.271   1.529
 1096SOL    HW2 4188   3.386   4.340   1.567
 1097SOL     OW 4189   2.544   4.579   4.174
 1097SOL    HW1 4190   2.460   4.534   4.204
 1097SOL    HW2 4191   2.544   4.587   4.074
 1098SOL     OW 4192   4.306   3.422   6.953
 1098SOL    HW1 4193   4.280   3.505   7.003
 1098SOL    HW2 4194   4.322   3.444   6.857
 1099SOL     OW 4195   3.746   0.725   5.791
 1099SOL    HW1 4196   3.786   0.673   5.866
 1099SOL    HW2 4197   3.647   0.714   5.791
 1100SOL     OW 4198   4.152   1.689   4.859
 1100SOL    HW1 4199   4.059   1.714   4.889
 1100SOL    HW2 4200   4.154   1.684   4.760
 1101SOL     OW 4201   5.579   2.838   5.763
 1101SOL    HW1 4202   5.619   2.921   5.803
 1101SOL    HW2 4203   5.519   2.863   5.687
 1102SOL     OW 4204   0.981   0.608   4.771
 1102SOL    HW1 4205   0.933   0.524   4.746
 1102SOL    HW2 4206   0.980   0.619   4.870
 1103SOL     OW 4207   3.893   1.352   0.317
 1103SOL    HW1 4208   3.930   1.370   0.408
 1103SOL    HW2 4209   3.967   1.335   0.253
 1104SOL     OW 4210   2.146   3.521   4.967
 1104SOL    HW1 4211   2.242   3.511   4.993
 1104SOL    HW2 4212   2.108   3.431   4.946
 1105SOL     OW 4213   6.046   3.309   4.725
 1105SOL    HW1 4214   6.129   3.351   4.761
 1105SOL    HW2 4215   5.966   3.353   4.766
 1106SOL     OW 4216   0.107   2.521   0.706
 1106SOL    HW1 4217   0.135   2.473   0.789
 1106SOL    HW2 4218   0.146   2.475   0.626
 1107SOL     OW 4219   1.256   0.311   6.913
 1107SOL    HW1 4220   1.341   0.343   6.954
 1107SOL    HW2 4221   1.217   0.383   6.856
 1108SOL     OW 4222   3.492   6.796   5.621
 1108SOL    HW1 4223   3.447   6.729   5.561
 1108SOL    HW2 4224   3.579   6.758   5.653
 1109SOL     OW 4225   5.730   0.695   3.950
 1109SOL    HW1 4226   5.772   0.610   3.919
 1109SOL    HW2 4227   5.786   0.773   3.919
 1110SOL     OW 4228   4.145   2.258   3.303
 1110SOL    HW1 4229   4.152   2.231   3.207
 1110SOL    HW2 4230   4.229   2.231   3.351
 1111SOL     OW 4231   5.196   5.882   6.656
 1111SOL    HW1 4232   5.270   5.838   6.706
 1111SOL    HW2 4233   5.226   5.901   6.562
 1112SOL     OW 4234   5.695   0.909   2.471
 1112SOL    HW1 4235   5.601   0.878   2.486
 1112SOL    HW2 4236   5.734   0.942   2.557
 1113SOL     OW 4237   5.954   4.463   1.571
 1113SOL    HW1 4238   5.902   4.516   1.505
 1113SOL    HW2 4239   5.998   4.386   1.525
 1114SOL     OW 4240   2.929   1.344   5.900
 1114SOL    HW1 4241   3.008   1.287   5.877
 1114SOL    HW2 4242   2.906   1.401   5.821
 1115SOL     OW 4243   3.754   3.645   5.908
 1115SOL    HW1 4244   3.728   3.548   5.898
 1115SOL    HW2 4245   3.761   3.668   6.005
 1116SOL     OW 4246   4.456   6.416   5.951
 1116SOL    HW1 4247   4.500   6.462   6.028
 1116SOL    HW2 4248   4.456   6.476   5.871
 1117SOL     OW 4249   1.823   2.089   1.873
 1117SOL    HW1 4250   1.809   2.130   1.783
 1117SOL    HW2 4251   1.738   2.043   1.902
 1118SOL     OW 4252   2.301   4.615   0.910
 1118SOL    HW1 4253   2.385   4.667   0.896
 1118SOL    HW2 4254   2.224   4.665   0.869
 1119SOL     OW 4255   4.110   4.553   1.682
 1119SOL    HW1 4256   4.030   4.612   1.685
 1119SOL    HW2 4257   4.155   4.553   1.771
 1120SOL     OW 4258   5.891   5.798   0.961
 1120SOL    HW1 4259   5.874   5.871   0.895
 1120SOL    HW2 4260   5.982   5.761   0.947
 1121SOL     OW 4261   6.811   4.608   4.741
 1121SOL    HW1 4262   6.732   4.630   4.799
 1121SOL    HW2 4263   6.858   4.693   4.716
 1122SOL     OW 4264   5.138   2.524   1.633
 1122SOL    HW1 4265   5.109   2.440   1.587
 1122SOL    HW2 4266   5.215   2.564   1.584
 1123SOL     OW 4267   4.869   2.368   2.957
 1123SOL    HW1 4268   4.870   2.463   2.925
 1123SOL    HW2 4269   4.940   2.317   2.910
 1124SOL     OW 4270   0.009   3.467   5.391
 1124SOL    HW1 4271   6.975   3.468   5.312
 1124SOL    HW2 4272   0.103   3.473   5.360
 1125SOL     OW 4273   2.381   1.508   3.636
 1125SOL    HW1 4274   2.400   1.438   3.567
 1125SOL    HW2 4275   2.327   1.467   3.710
 1126SOL     OW 4276   5.521   6.053   6.382
 1126SOL    HW1 4277   5.524   6.117   6.305
 1126SOL    HW2 4278   5.443   5.992   6.371
 1127SOL     OW 4279   5.412   6.464   4.436
 1127SOL    HW1 4280   5.432   6.377   4.481
 1127SOL    HW2 4281   5.449   6.462   4.343
 1128SOL     OW 4282   6.158   1.550   3.872
 1128SOL    HW1 4283   6.214   1.477   3.835
 1128SOL    HW2 4284   6.069   1.514   3.899
 1129SOL     OW 4285   1.871   0.027   0.492
 1129SOL    HW1 4286   1.786   0.017   0.544
 1129SOL    HW2 4287   1.869   0.112   0.441
 1130SOL     OW 4288   2.363   5.078   0.867
 1130SOL    HW1 4289   2.330   5.156   0.814
 1130SOL    HW2 4290   2.341   5.092   0.964
 1131SOL     OW 4291   1.196   6.530   5.710
 1131SOL    HW1 4292   1.284   6.545   5.755
 1131SOL    HW2 4293   1.142   6.465   5.763
 1132SOL     OW 4294   5.291   7.027   2.739
 1132SOL    HW1 4295   5.343   0.072   2.694
 1132SOL    HW2 4296   5.262   0.031   2.830
 1133SOL     OW 4297   1.193   0.960   0.417
 1133SOL    HW1 4298   1.199   0.975   0.319
 1133SOL    HW2 4299   1.183   0.862   0.436
 1134SOL     OW 4300   5.082   6.872   2.469
 1134SOL    HW1 4301   5.069   6.786   2.420
 1134SOL    HW2 4302   5.060   6.859   2.566
 1135SOL     OW 4303   2.801   6.681   3.810
 1135SOL    HW1 4304   2.733   6.650   3.876
 1135SOL    HW2 4305   2.755   6.731   3.736
 1136SOL     OW 4306   4.340   4.728   3.461
 1136SOL    HW1 4307   4.387   4.762   3.379
 1136SOL    HW2 4308   4.388   4.648   3.496
 1137SOL     OW 4309   1.559   6.758   0.198
 1137SOL    HW1 4310   1.546   6.748   0.099
 1137SOL    HW2 4311   1.611   6.842   0.216
 1138SOL     OW 4312   0.410   0.909   6.270
 1138SOL    HW1 4313   0.397   0.917   6.369
 1138SOL    HW2 4314   0.395   0.999   6.228
 1139SOL     OW 4315   2.962   4.824   2.715
 1139SOL    HW1 4316   2.942   4.844   2.620
 1139SOL    HW2 4317   3.059   4.839   2.733
 1140SOL     OW 4318   2.609   1.294   2.528
 1140SOL    HW1 4319   2.511   1.297   2.547
 1140SOL    HW2 4320   2.625   1.295   2.430
 1141SOL     OW 4321   0.695   6.133   0.164
 1141SOL    HW1 4322   0.639   6.097   0.239
 1141SOL    HW2 4323   0.749   6.058   0.124
 1142SOL     OW 4324   3.532   0.217   3.683
 1142SOL    HW1 4325   3.494   0.140   3.734
 1142SOL    HW2 4326   3.469   0.294   3.687
 1143SOL     OW 4327   2.385   2.775   3.477
 1143SOL    HW1 4328   2.465   2.818   3.519
 1143SOL    HW2 4329   2.313   2.842   3.464
 1144SOL     OW 4330   6.334   4.249   3.842
 1144SOL    HW1 4331   6.238   4.251   3.817
 1144SOL    HW2 4332   6.361   4.156   3.868
 1145SOL     OW 4333   6.442   3.362   1.082
 1145SOL    HW1 4334   6.435   3.398   1.175
 1145SOL    HW2 4335   6.484   3.429   1.022
 1146SOL     OW 4336   7.007   0.704   2.022
 1146SOL    HW1 4337   6.963   0.634   2.079
 1146SOL    HW2 4338   0.079   0.690   2.024
 1147SOL     OW 4339   3.217   5.771   2.088
 1147SOL    HW1 4340   3.281   5.823   2.146
 1147SOL    HW2 4341   3.134   5.824   2.076
 1148SOL     OW 4342   4.628   6.110   0.393
 1148SOL    HW1 4343   4.611   6.164   0.311
 1148SOL    HW2 4344   4.622   6.169   0.474
 1149SOL     OW 4345   6.039   2.558   2.668
 1149SOL    HW1 4346   6.024   2.656   2.678
 1149SOL    HW2 4347   5.971   2.520   2.605
 1150SOL     OW 4348   0.644   3.971   0.039
 1150SOL    HW1 4349   0.616   4.066   0.028
 1150SOL    HW2 4350   0.632   3.923   6.979
 1151SOL     OW 4351   5.793   4.639   5.557
 1151SOL    HW1 4352   5.853   4.588   5.618
 1151SOL    HW2 4353   5.727   4.577   5.514
 1152SOL     OW 4354   4.496   5.929   6.516
 1152SOL    HW1 4355   4.466   5.848   6.466
 1152SOL    HW2 4356   4.593   5.946   6.496
 1153SOL     OW 4357   0.101   6.971   2.264
 1153SOL    HW1 4358   0.166   0.019   2.252
 1153SOL    HW2 4359   0.098   6.916   2.181
 1154SOL     OW 4360   0.042   4.383   1.260
 1154SOL    HW1 4361   7.008   4.460   1.274
 1154SOL    HW2 4362   0.081   4.356   1.348
 1155SOL     OW 4363   2.573   5.014   6.280
 1155SOL    HW1 4364   2.540   4.947   6.347
 1155SOL    HW2 4365   2.660   5.052   6.311
 1156SOL     OW 4366   4.394   1.804   4.897
 1156SOL    HW1 4367   4.309   1.752   4.892
 1156SOL    HW2 4368   4.384   1.888   4.844
 1157SOL     OW 4369   5.293   1.136   6.277
 1157SOL    HW1 4370   5.285   1.208   6.345
 1157SOL    HW2 4371   5.386   1.134   6.240
 1158SOL     OW 4372   6.839   5.006   5.119
 1158SOL    HW1 4373   6.823   4.907   5.119
 1158SOL    HW2 4374   6.918   5.027   5.176
 1159SOL     OW 4375   6.665   0.073   3.800
 1159SOL    HW1 4376   6.723   7.022   3.775
 1159SOL    HW2 4377   6.640   0.066   3.896
 1160SOL     OW 4378   5.355   4.485   0.913
 1160SOL    HW1 4379   5.428   4.447   0.970
 1160SOL    HW2 4380   5.325   4.416   0.847
 1161SOL     OW 4381   6.695   5.255   5.823
 1161SOL    HW1 4382   6.729   5.225   5.912
 1161SOL    HW2 4383   6.742   5.339   5.796
 1162SOL     OW 4384   2.377   1.798   6.365
 1162SOL    HW1 4385   2.409   1.711   6.327
 1162SOL    HW2 4386   2.361   1.787   6.464
 1163SOL     OW 4387   6.456   4.327   1.622
 1163SOL    HW1 4388   6.406   4.343   1.537
 1163SOL    HW2 4389   6.506   4.410   1.648
 1164SOL     OW 4390   5.391   2.823   3.805
 1164SOL    HW1 4391   5.447   2.764   3.747
 1164SOL    HW2 4392   5.444   2.850   3.886
 1165SOL     OW 4393   4.029   5.509   3.846
 1165SOL    HW1 4394   3.988   5.429   3.800
 1165SOL    HW2 4395   3.974   5.590   3.826
 1166SOL     OW 4396   3.192   6.330   0.730
 1166SOL    HW1 4397   3.124   6.365   0.795
 1166SOL    HW2 4398   3.222   6.404   0.670
 1167SOL     OW 4399   3.822   6.812   0.782
 1167SOL    HW1 4400   3.825   6.864   0.868
 1167SOL    HW2 4401   3.766   6.861   0.716
 1168SOL     OW 4402   5.398   2.649   1.680
 1168SOL    HW1 4403   5.451   2.574   1.720
 1168SOL    HW2 4404   5.416   2.733   1.731
 1169SOL     OW 4405   4.593   2.311   6.128
 1169SOL    HW1 4406   4.567   2.276   6.038
 1169SOL    HW2 4407   4.583   2.410   6.130
 1170SOL     OW 4408   5.352   6.881   2.407
 1170SOL    HW1 4409   5.399   6.862   2.494
 1170SOL    HW2 4410   5.262   6.920   2.426
 1171SOL     OW 4411   3.111   6.627   6.741
 1171SOL    HW1 4412   3.063   6.539   6.731
 1171SOL    HW2 4413   3.123   6.669   6.651
 1172SOL     OW 4414   3.565   4.074   0.887
 1172SOL    HW1 4415   3.490   4.053   0.951
 1172SOL    HW2 4416   3.632   4.001   0.888
 1173SOL     OW 4417   3.609   0.844   0.925
 1173SOL    HW1 4418   3.643   0.904   0.997
 1173SOL    HW2 4419   3.603   0.896   0.839
 1174SOL     OW 4420   2.442   4.480   1.587
 1174SOL    HW1 4421   2.526   4.442   1.625
 1174SOL    HW2 4422   2.427   4.440   1.496
 1175SOL     OW 4423   3.899   4.681   6.365
 1175SOL    HW1 4424   3.880   4.772   6.329
 1175SOL    HW2 4425   3.852   4.613   6.309
 1176SOL     OW 4426   5.592   3.726   6.900
 1176SOL    HW1 4427   5.535   3.684   6.970
 1176SOL    HW2 4428   5.667   3.665   6.877
 1177SOL     OW 4429   0.039   3.924   4.673
 1177SOL    HW1 4430   7.024   3.996   4.728
 1177SOL    HW2 4431   0.136   3.918   4.695
 1178SOL     OW 4432   3.633   4.307   1.038
 1178SOL    HW1 4433   3.622   4.221   0.989
 1178SOL    HW2 4434   3.549   4.328   1.089
 1179SOL     OW 4435   2.812   5.574   1.115
 1179SOL    HW1 4436   2.857   5.559   1.203
 1179SOL    HW2 4437   2.715   5.551   1.123
 1180SOL     OW 4438   2.499   5.255   4.291
 1180SOL    HW1 4439   2.490   5.293   4.383
 1180SOL    HW2 4440   2.422   5.285   4.235
 1181SOL     OW 4441   0.249   5.117   4.916
 1181SOL    HW1 4442   0.323   5.176   4.883
 1181SOL    HW2 4443   0.226   5.143   5.010
 1182SOL     OW 4444   4.382   5.926   3.808
 1182SOL    HW1 4445   4.465   5.874   3.825
 1182SOL    HW2 4446   4.316   5.868   3.760
 1183SOL     OW 4447   3.108   4.348   0.927
 1183SOL    HW1 4448   3.119   4.370   1.023
 1183SOL    HW2 4449   3.011   4.336   0.906
 1184SOL     OW 4450   0.008   1.310   5.309
 1184SOL    HW1 4451   0.034   1.250   5.233
 1184SOL    HW2 4452   6.946   1.349   5.291
 1185SOL     OW 4453   1.232   0.964   0.930
 1185SOL    HW1 4454   1.237   1.041   0.868
 1185SOL    HW2 4455   1.162   0.900   0.898
 1186SOL     OW 4456   4.607   6.348   5.447
 1186SOL    HW1 4457   4.511   6.324   5.438
 1186SOL    HW2 4458   4.661   6.266   5.468
 1187SOL     OW 4459   4.844   0.382   5.663
 1187SOL    HW1 4460   4.786   0.302   5.673
 1187SOL    HW2 4461   4.894   0.398   5.747
 1188SOL     OW 4462   3.400   6.039   6.329
 1188SOL    HW1 4463   3.401   5.996   6.239
 1188SOL    HW2 4464   3.327   6.107   6.333
 1189SOL     OW 4465   6.174   1.680   1.549
 1189SOL    HW1 4466   6.228   1.763   1.565
 1189SOL    HW2 4467   6.215   1.628   1.475
 1190SOL     OW 4468   3.346   6.026   3.752
 1190SOL    HW1 4469   3.372   6.120   3.728
 1190SOL    HW2 4470   3.313   5.979   3.670
 1191SOL     OW 4471   4.271   5.460   5.021
 1191SOL    HW1 4472   4.280   5.361   5.009
 1191SOL    HW2 4473   4.251   5.502   4.933
 1192SOL     OW 4474   5.305   4.778   3.016
 1192SOL    HW1 4475   5.259   4.748   2.932
 1192SOL    HW2 4476   5.319   4.699   3.076
 1193SOL     OW 4477   0.136   2.309   5.241
 1193SOL    HW1 4478   0.053   2.261   5.270
 1193SOL    HW2 4479   0.215   2.268   5.288
 1194SOL     OW 4480   6.099   0.079   1.163
 1194SOL    HW1 4481   6.179   0.033   1.202
 1194SOL    HW2 4482   6.126   0.125   1.078
 1195SOL     OW 4483   6.996   4.291   0.944
 1195SOL    HW1 4484   0.025   4.368   0.973
 1195SOL    HW2 4485   0.027   4.214   0.919
 1196SOL     OW 4486   6.611   4.999   3.377
 1196SOL    HW1 4487   6.559   5.072   3.422
 1196SOL    HW2 4488   6.629   5.023   3.282
 1197SOL     OW 4489   4.882   6.851   4.792
 1197SOL    HW1 4490   4.865   6.762   4.748
 1197SOL    HW2 4491   4.947   6.839   4.867
 1198SOL     OW 4492   1.579   3.298   2.883
 1198SOL    HW1 4493   1.609   3.380   2.835
 1198SOL    HW2 4494   1.480   3.299   2.894
 1199SOL     OW 4495   3.706   3.726   1.433
 1199SOL    HW1 4496   3.638   3.658   1.406
 1199SOL    HW2 4497   3.711   3.730   1.532
 1200SOL     OW 4498   3.530   4.057   4.553
 1200SOL    HW1 4499   3.528   3.965   4.591
 1200SOL    HW2 4500   3.502   4.123   4.623
 1201SOL     OW 4501   1.296   1.640   3.960
 1201SOL    HW1 4502   1.380   1.604   4.000
 1201SOL    HW2 4503   1.318   1.687   3.874
 1202SOL     OW 4504   0.504   5.463   5.083
 1202SOL    HW1 4505   0.593   5.420   5.098
 1202SOL    HW2 4506   0.494   5.541   5.145
 1203SOL     OW 4507   0.282   5.764   7.012
 1203SOL    HW1 4508   0.303   5.667   7.026
 1203SOL    HW2 4509   0.290   5.813   0.071
 1204SOL     OW 4510   4.612   1.286   1.404
 1204SOL    HW1 4511   4.636   1.234   1.486
 1204SOL    HW2 4512   4.689   1.343   1.378
 1205SOL     OW 4513   3.903   3.416   0.922
 1205SOL    HW1 4514   3.811   3.394   0.952
 1205SOL    HW2 4515   3.969   3.377   0.987
 1206SOL     OW 4516   2.679   2.521   5.122
 1206SOL    HW1 4517   2.722   2.579   5.191
 1206SOL    HW2 4518   2.610   2.573   5.072
 1207SOL     OW 4519   1.998   6.432   1.168
 1207SOL    HW1 4520   1.967   6.338   1.182
 1207SOL    HW2 4521   2.097   6.437   1.177
 1208SOL     OW 4522   3.767   3.260   1.387
 1208SOL    HW1 4523   3.783   3.353   1.353
 1208SOL    HW2 4524   3.728   3.264   1.479
 1209SOL     OW 4525   4.569   0.459   3.712
 1209SOL    HW1 4526   4.472   0.476   3.691
 1209SOL    HW2 4527   4.626   0.512   3.649
 1210SOL     OW 4528   3.847   6.785   3.359
 1210SOL    HW1 4529   3.883   6.877   3.345
 1210SOL    HW2 4530   3.768   6.789   3.420
 1211SOL     OW 4531   0.956   3.607   2.899
 1211SOL    HW1 4532   0.946   3.529   2.838
 1211SOL    HW2 4533   0.895   3.681   2.868
 1212SOL     OW 4534   6.005   0.511   6.677
 1212SOL    HW1 4535   6.072   0.542   6.744
 1212SOL    HW2 4536   5.916   0.501   6.721
 1213SOL     OW 4537   5.987   2.672   1.129
 1213SOL    HW1 4538   6.023   2.643   1.040
 1213SOL    HW2 4539   6.043   2.746   1.165
 1214SOL     OW 4540   0.935   4.003   6.968
 1214SOL    HW1 4541   0.837   3.989   6.981
 1214SOL    HW2 4542   0.953   4.017   6.870
 1215SOL     OW 4543   1.123   4.516   3.372
 1215SOL    HW1 4544   1.171   4.472   3.296
 1215SOL    HW2 4545   1.186   4.576   3.420
 1216SOL     OW 4546   4.950   0.026   0.838
 1216SOL    HW1 4547   5.000   0.097   0.788
 1216SOL    HW2 4548   4.896   7.000   0.774
 1217SOL     OW 4549   2.344   4.396   1.347
 1217SOL    HW1 4550   2.292   4.310   1.343
 1217SOL    HW2 4551   2.319   4.453   1.269
 1218SOL     OW 4552   1.353   3.291   4.784
 1218SOL    HW1 4553   1.347   3.215   4.848
 1218SOL    HW2 4554   1.264   3.334   4.775
 1219SOL     OW 4555   5.126   6.178   1.988
 1219SOL    HW1 4556   5.149   6.189   1.891
 1219SOL    HW2 4557   5.210   6.162   2.040
 1220SOL     OW 4558   1.067   4.932   3.088
 1220SOL    HW1 4559   1.038   4.944   3.183
 1220SOL    HW2 4560   0.990   4.898   3.034
 1221SOL     OW 4561   4.135   4.361   6.021
 1221SOL    HW1 4562   4.159   4.278   6.071
 1221SOL    HW2 4563   4.039   4.357   5.993
 1222SOL     OW 4564   6.510   0.868   0.211
 1222SOL    HW1 4565   6.484   0.955   0.168
 1222SOL    HW2 4566   6.494   0.874   0.309
 1223SOL     OW 4567   4.413   2.086   0.096
 1223SOL    HW1 4568   4.349   2.160   0.117
 1223SOL    HW2 4569   4.370   1.998   0.115
 1224SOL     OW 4570   3.657   5.247   0.815
 1224SOL    HW1 4571   3.733   5.198   0.858
 1224SOL    HW2 4572   3.691   5.301   0.738
 1225SOL     OW 4573   3.384   3.438   6.287
 1225SOL    HW1 4574   3.439   3.513   6.249
 1225SOL    HW2 4575   3.292   3.472   6.307
 1226SOL     OW 4576   2.076   6.093   1.977
 1226SOL    HW1 4577   1.999   6.057   1.924
 1226SOL    HW2 4578   2.102   6.027   2.048
 1227SOL     OW 4579   6.482   4.644   5.732
 1227SOL    HW1 4580   6.509   4.622   5.826
 1227SOL    HW2 4581   6.556   4.693   5.687
 1228SOL     OW 4582   3.127   2.214   6.171
 1228SOL    HW1 4583   3.205   2.189   6.113
 1228SOL    HW2 4584   3.095   2.133   6.220
 1229SOL     OW 4585   3.632   5.281   5.801
 1229SOL    HW1 4586   3.694   5.358   5.814
 1229SOL    HW2 4587   3.672   5.216   5.737
 1230SOL     OW 4588   4.481   6.771   2.608
 1230SOL    HW1 4589   4.579   6.767   2.589
 1230SOL    HW2 4590   4.434   6.817   2.533
 1231SOL     OW 4591   1.657   2.436   4.548
 1231SOL    HW1 4592   1.569   2.394   4.527
 1231SOL    HW2 4593   1.718   2.368   4.589
 1232SOL     OW 4594   0.383   1.714   5.882
 1232SOL    HW1 4595   0.347   1.714   5.789
 1232SOL    HW2 4596   0.371   1.804   5.923
 1233SOL     OW 4597   0.898   4.949   5.024
 1233SOL    HW1 4598   0.855   4.957   5.114
 1233SOL    HW2 4599   0.997   4.942   5.036
 1234SOL     OW 4600   6.182   3.324   6.004
 1234SOL    HW1 4601   6.170   3.418   5.972
 1234SOL    HW2 4602   6.278   3.298   5.996
 1235SOL     OW 4603   6.676   5.783   2.655
 1235SOL    HW1 4604   6.732   5.782   2.738
 1235SOL    HW2 4605   6.707   5.857   2.595
 1236SOL     OW 4606   4.687   1.314   6.887
 1236SOL    HW1 4607   4.706   1.389   6.951
 1236SOL    HW2 4608   4.636   1.350   6.808
 1237SOL     OW 4609   2.409   4.616   6.455
 1237SOL    HW1 4610   2.317   4.651   6.475
 1237SOL    HW2 4611   2.452   4.585   6.540
 1238SOL     OW 4612   2.177   1.001   0.676
 1238SOL    HW1 4613   2.136   1.007   0.585
 1238SOL    HW2 4614   2.270   0.965   0.668
 1239SOL     OW 4615   6.893   6.941   6.358
 1239SOL    HW1 4616   6.865   0.008   6.374
 1239SOL    HW2 4617   6.864   6.913   6.266
 1240SOL     OW 4618   5.232   6.587   1.425
 1240SOL    HW1 4619   5.170   6.567   1.349
 1240SOL    HW2 4620   5.318   6.537   1.412
 1241SOL     OW 4621   5.148   3.605   4.309
 1241SOL    HW1 4622   5.141   3.674   4.381
 1241SOL    HW2 4623   5.066   3.547   4.311
 1242SOL     OW 4624   0.397   3.601   1.610
 1242SOL    HW1 4625   0.381   3.503   1.597
 1242SOL    HW2 4626   0.493   3.622   1.591
 1243SOL     OW 4627   6.823   6.730   4.522
 1243SOL    HW1 4628   6.891   6.713   4.451
 1243SOL    HW2 4629   6.870   6.753   4.608
 1244SOL     OW 4630   6.436   0.205   4.263
 1244SOL    HW1 4631   6.536   0.212   4.268
 1244SOL    HW2 4632   6.398   0.193   4.355
 1245SOL     OW 4633   5.135   5.162   0.439
 1245SOL    HW1 4634   5.060   5.117   0.489
 1245SOL    HW2 4635   5.118   5.260   0.435
 1246SOL     OW 4636   2.345   6.200   1.493
 1246SOL    HW1 4637   2.385   6.192   1.401
 1246SOL    HW2 4638   2.356   6.294   1.525
 1247SOL     OW 4639   1.851   0.026   6.696
 1247SOL    HW1 4640   1.824   0.122   6.701
 1247SOL    HW2 4641   1.770   6.996   6.686
 1248SOL     OW 4642   2.255   6.932   5.224
 1248SOL    HW1 4643   2.327   6.976   5.277
 1248SOL    HW2 4644   2.268   6.952   5.127
 1249SOL     OW 4645   6.496   1.892   2.695
 1249SOL    HW1 4646   6.574   1.830   2.687
 1249SOL    HW2 4647   6.525   1.978   2.736
 1250SOL     OW 4648   6.075   5.320   4.311
 1250SOL    HW1 4649   6.103   5.278   4.225
 1250SOL    HW2 4650   6.154   5.326   4.373
 1251SOL     OW 4651   3.107   0.716   4.070
 1251SOL    HW1 4652   3.157   0.800   4.048
 1251SOL    HW2 4653   3.009   0.734   4.066
 1252SOL     OW 4654   4.197   3.802   5.731
 1252SOL    HW1 4655   4.276   3.744   5.709
 1252SOL    HW2 4656   4.228   3.886   5.775
 1253SOL     OW 4657   2.817   5.857   2.515
 1253SOL    HW1 4658   2.725   5.830   2.486
 1253SOL    HW2 4659   2.814   5.893   2.608
 1254SOL     OW 4660   1.227   2.257   2.491
 1254SOL    HW1 4661   1.129   2.237   2.484
 1254SOL    HW2 4662   1.244   2.351   2.463
 1255SOL     OW 4663   6.437   2.045   5.110
 1255SOL    HW1 4664   6.470   1.993   5.031
 1255SOL    HW2 4665   6.514   2.091   5.154
 1256SOL     OW 4666   6.598   6.338   3.325
 1256SOL    HW1 4667   6.555   6.405   3.265
 1256SOL    HW2 4668   6.631   6.383   3.408
 1257SOL     OW 4669   0.250   6.341   5.193
 1257SOL    HW1 4670   0.246   6.290   5.108
 1257SOL    HW2 4671   0.158   6.371   5.219
 1258SOL     OW 4672   1.608   5.381   3.413
 1258SOL    HW1 4673   1.590   5.282   3.407
 1258SOL    HW2 4674   1.581   5.424   3.327
 1259SOL     OW 4675   4.267   1.005   4.333
 1259SOL    HW1 4676   4.353   1.019   4.284
 1259SOL    HW2 4677   4.215   1.090   4.333
 1260SOL     OW 4678   1.830   1.708   0.365
 1260SOL    HW1 4679   1.830   1.770   0.443
 1260SOL    HW2 4680   1.922   1.672   0.350
 1261SOL     OW 4681   0.138   5.656   6.516
 1261SOL    HW1 4682   0.186   5.629   6.599
 1261SOL    HW2 4683   0.204   5.673   6.443
 1262SOL     OW 4684   5.034   4.397   1.465
 1262SOL    HW1 4685   5.054   4.364   1.557
 1262SOL    HW2 4686   4.959   4.463   1.470
 1263SOL     OW 4687   0.449   2.135   2.464
 1263SOL    HW1 4688   0.480   2.091   2.379
 1263SOL    HW2 4689   0.372   2.084   2.502
 1264SOL     OW 4690   6.145   4.387   0.427
 1264SOL    HW1 4691   6.152   4.288   0.430
 1264SOL    HW2 4692   6.231   4.428   0.456
 1265SOL     OW 4693   5.698   5.075   4.925
 1265SOL    HW1 4694   5.746   5.054   4.840
 1265SOL    HW2 4695   5.609   5.116   4.904
 1266SOL     OW 4696   0.537   1.078   4.367
 1266SOL    HW1 4697   0.518   1.122   4.454
 1266SOL    HW2 4698   0.547   1.147   4.296
 1267SOL     OW 4699   5.484   0.928   1.130
 1267SOL    HW1 4700   5.559   0.994   1.132
 1267SOL    HW2 4701   5.519   0.838   1.156
 1268SOL     OW 4702   3.033   2.989   6.774
 1268SOL    HW1 4703   3.130   3.015   6.780
 1268SOL    HW2 4704   3.025   2.891   6.791
 1269SOL     OW 4705   6.077   3.979   4.371
 1269SOL    HW1 4706   6.011   4.047   4.338
 1269SOL    HW2 4707   6.123   3.937   4.292
 1270SOL     OW 4708   1.741   3.968   2.866
 1270SOL    HW1 4709   1.750   4.062   2.833
 1270SOL    HW2 4710   1.649   3.955   2.905
 1271SOL     OW 4711   3.874   1.920   2.164
 1271SOL    HW1 4712   3.799   1.946   2.225
 1271SOL    HW2 4713   3.936   1.998   2.152
 1272SOL     OW 4714   5.634   4.204   6.942
 1272SOL    HW1 4715   5.634   4.113   6.983
 1272SOL    HW2 4716   5.575   4.205   6.862
 1273SOL     OW 4717   0.663   3.556   6.694
 1273SOL    HW1 4718   0.679   3.485   6.762
 1273SOL    HW2 4719   0.645   3.514   6.605
 1274SOL     OW 4720   6.610   4.506   1.385
 1274SOL    HW1 4721   6.634   4.469   1.474
 1274SOL    HW2 4722   6.678   4.477   1.317
 1275SOL     OW 4723   4.147   1.652   3.770
 1275SOL    HW1 4724   4.187   1.710   3.841
 1275SOL    HW2 4725   4.049   1.642   3.788
 1276SOL     OW 4726   6.222   5.078   4.965
 1276SOL    HW1 4727   6.222   5.164   5.016
 1276SOL    HW2 4728   6.308   5.069   4.915
 1277SOL     OW 4729   1.834   5.589   6.470
 1277SOL    HW1 4730   1.875   5.677   6.494
 1277SOL    HW2 4731   1.893   5.541   6.404
 1278SOL     OW 4732   1.235   6.839   4.911
 1278SOL    HW1 4733   1.288   6.919   4.941
 1278SOL    HW2 4734   1.292   6.783   4.851
 1279SOL     OW 4735   1.605   5.120   0.016
 1279SOL    HW1 4736   1.693   5.133   0.061
 1279SOL    HW2 4737   1.564   5.035   0.049
 1280SOL     OW 4738   4.284   0.247   4.402
 1280SOL    HW1 4739   4.223   0.230   4.325
 1280SOL    HW2 4740   4.378   0.252   4.368
 1281SOL     OW 4741   2.619   5.986   3.049
 1281SOL    HW1 4742   2.642   5.889   3.055
 1281SOL    HW2 4743   2.574   6.015   3.133
 1282SOL     OW 4744   6.611   2.290   6.670
 1282SOL    HW1 4745   6.616   2.382   6.708
 1282SOL    HW2 4746   6.547   2.235   6.724
 1283SOL     OW 4747   6.551   3.422   5.005
 1283SOL    HW1 4748   6.645   3.388   4.993
 1283SOL    HW2 4749   6.527   3.418   5.101
 1284SOL     OW 4750   4.723   1.741   1.651
 1284SOL    HW1 4751   4.805   1.761   1.597
 1284SOL    HW2 4752   4.748   1.686   1.731
 1285SOL     OW 4753   4.583   1.899   5.912
 1285SOL    HW1 4754   4.650   1.871   5.843
 1285SOL    HW2 4755   4.596   1.845   5.995
 1286SOL     OW 4756   4.171   3.641   1.224
 1286SOL    HW1 4757   4.086   3.632   1.173
 1286SOL    HW2 4758   4.184   3.561   1.283
 1287SOL     OW 4759   5.540   4.345   5.065
 1287SOL    HW1 4760   5.530   4.248   5.085
 1287SOL    HW2 4761   5.631   4.362   5.027
 1288SOL     OW 4762   3.772   3.673   6.189
 1288SOL    HW1 4763   3.851   3.629   6.231
 1288SOL    HW2 4764   3.702   3.605   6.169
 1289SOL     OW 4765   0.469   6.817   1.239
 1289SOL    HW1 4766   0.479   6.917   1.243
 1289SOL    HW2 4767   0.555   6.778   1.205
 1290SOL     OW 4768   0.990   6.716   0.537
 1290SOL    HW1 4769   0.991   6.799   0.594
 1290SOL    HW2 4770   1.012   6.740   0.442
 1291SOL     OW 4771   0.824   4.546   3.939
 1291SOL    HW1 4772   0.761   4.488   3.887
 1291SOL    HW2 4773   0.778   4.631   3.965
 1292SOL     OW 4774   0.720   5.743   2.498
 1292SOL    HW1 4775   0.747   5.766   2.591
 1292SOL    HW2 4776   0.656   5.666   2.500
 1293SOL     OW 4777   2.025   2.192   6.896
 1293SOL    HW1 4778   2.030   2.134   6.977
 1293SOL    HW2 4779   2.035   2.136   6.814
 1294SOL     OW 4780   0.308   3.532   5.662
 1294SOL    HW1 4781   0.365   3.450   5.659
 1294SOL    HW2 4782   0.287   3.555   5.757
 1295SOL     OW 4783   0.161   3.705   1.288
 1295SOL    HW1 4784   0.085   3.765   1.262
 1295SOL    HW2 4785   0.245   3.734   1.241
 1296SOL     OW 4786   3.807   6.187   5.170
 1296SOL    HW1 4787   3.870   6.239   5.112
 1296SOL    HW2 4788   3.827   6.207   5.266
 1297SOL     OW 4789   0.719   6.991   1.181
 1297SOL    HW1 4790   0.767   6.906   1.204
 1297SOL    HW2 4791   0.697   0.012   1.265
 1298SOL     OW 4792   5.158   5.461   3.533
 1298SOL    HW1 4793   5.075   5.494   3.580
 1298SOL    HW2 4794   5.211   5.404   3.595
 1299SOL     OW 4795   2.646   2.304   3.624
 1299SOL    HW1 4796   2.610   2.385   3.579
 1299SOL    HW2 4797   2.637   2.313   3.723
 1300SOL     OW 4798   1.891   2.899   0.302
 1300SOL    HW1 4799   1.793   2.901   0.320
 1300SOL    HW2 4800   1.907   2.864   0.210
 1301SOL     OW 4801   0.395   6.458   1.798
 1301SOL    HW1 4802   0.313   6.489   1.845
 1301SOL    HW2 4803   0.419   6.524   1.727
 1302SOL     OW 4804   4.898   6.643   5.131
 1302SOL    HW1 4805   4.823   6.700   5.162
 1302SOL    HW2 4806   4.892   6.553   5.175
 1303SOL     OW 4807   3.807   1.667   1.568
 1303SOL    HW1 4808   3.740   1.736   1.595
 1303SOL    HW2 4809   3.895   1.710   1.550
 1304SOL     OW 4810   1.455   0.090   0.236
 1304SOL    HW1 4811   1.549   0.082   0.203
 1304SOL    HW2 4812   1.391   0.067   0.162
 1305SOL     OW 4813   5.667   3.639   0.514
 1305SOL    HW1 4814   5.686   3.549   0.553
 1305SOL    HW2 4815   5.739   3.703   0.541
 1306SOL     OW 4816   1.310   6.039   3.788
 1306SOL    HW1 4817   1.220   6.003   3.812
 1306SOL    HW2 4818   1.332   6.117   3.847
 1307SOL     OW 4819   2.275   4.206   4.083
 1307SOL    HW1 4820   2.269   4.166   4.174
 1307SOL    HW2 4821   2.183   4.230   4.051
 1308SOL     OW 4822   6.345   0.337   5.876
 1308SOL    HW1 4823   6.308   0.245   5.863
 1308SOL    HW2 4824   6.404   0.361   5.799
 1309SOL     OW 4825   5.813   5.135   5.682
 1309SOL    HW1 4826   5.899   5.167   5.723
 1309SOL    HW2 4827   5.820   5.038   5.663
 1310SOL     OW 4828   0.161   3.649   3.707
 1310SOL    HW1 4829   0.253   3.631   3.671
 1310SOL    HW2 4830   0.147   3.595   3.790
 1311SOL     OW 4831   6.554   5.750   5.998
 1311SOL    HW1 4832   6.595   5.660   5.986
 1311SOL    HW2 4833   6.605   5.817   5.944
 1312SOL     OW 4834   1.542   6.643   6.966
 1312SOL    HW1 4835   1.557   6.545   6.959
 1312SOL    HW2 4836   1.444   6.662   6.972
 1313SOL     OW 4837   6.980   4.508   2.816
 1313SOL    HW1 4838   0.012   4.432   2.790
 1313SOL    HW2 4839   6.923   4.481   2.893
 1314SOL     OW 4840   4.141   1.639   4.589
 1314SOL    HW1 4841   4.188   1.583   4.521
 1314SOL    HW2 4842   4.051   1.666   4.555
 1315SOL     OW 4843   0.094   1.825   2.664
 1315SOL    HW1 4844   0.147   1.879   2.729
 1315SOL    HW2 4845   0.062   1.742   2.708
 1316SOL     OW 4846   3.280   6.907   5.836
 1316SOL    HW1 4847   3.284   7.000   5.872
 1316SOL    HW2 4848   3.356   6.893   5.772
 1317SOL     OW 4849   2.314   4.273   6.110
 1317SOL    HW1 4850   2.315   4.268   6.010
 1317SOL    HW2 4851   2.338   4.184   6.148
 1318SOL     OW 4852   0.835   2.487   0.904
 1318SOL    HW1 4853   0.918   2.464   0.954
 1318SOL    HW2 4854   0.808   2.409   0.848
 1319SOL     OW 4855   0.082   5.839   1.283
 1319SOL    HW1 4856   0.159   5.844   1.347
 1319SOL    HW2 4857   0.073   5.926   1.235
 1320SOL     OW 4858   3.979   4.199   6.468
 1320SOL    HW1 4859   3.898   4.258   6.464
 1320SOL    HW2 4860   4.043   4.226   6.396
 1321SOL     OW 4861   5.194   2.915   6.824
 1321SOL    HW1 4862   5.132   2.866   6.885
 1321SOL    HW2 4863   5.284   2.923   6.867
 1322SOL     OW 4864   4.209   1.820   3.960
 1322SOL    HW1 4865   4.303   1.854   3.962
 1322SOL    HW2 4866   4.169   1.825   4.051
 1323SOL     OW 4867   3.850   6.617   6.299
 1323SOL    HW1 4868   3.863   6.522   6.327
 1323SOL    HW2 4869   3.856   6.624   6.200
 1324SOL     OW 4870   0.429   3.459   6.866
 1324SOL    HW1 4871   0.516   3.444   6.912
 1324SOL    HW2 4872   0.414   3.387   6.799
 1325SOL     OW 4873   2.928   6.289   4.840
 1325SOL    HW1 4874   2.854   6.251   4.895
 1325SOL    HW2 4875   3.008   6.302   4.898
 1326SOL     OW 4876   5.238   3.457   4.924
 1326SOL    HW1 4877   5.174   3.514   4.976
 1326SOL    HW2 4878   5.317   3.436   4.980
 1327SOL     OW 4879   1.021   6.252   1.275
 1327SOL    HW1 4880   1.082   6.310   1.328
 1327SOL    HW2 4881   1.036   6.268   1.178
 1328SOL     OW 4882   2.919   3.128   0.551
 1328SOL    HW1 4883   2.976   3.078   0.616
 1328SOL    HW2 4884   2.875   3.064   0.489
 1329SOL     OW 4885   0.907   2.296   2.127
 1329SOL    HW1 4886   0.947   2.214   2.167
 1329SOL    HW2 4887   0.852   2.271   2.047
 1330SOL     OW 4888   1.526   1.185   1.197
 1330SOL    HW1 4889   1.439   1.225   1.226
 1330SOL    HW2 4890   1.550   1.220   1.106
 1331SOL     OW 4891   4.731   2.720   2.940
 1331SOL    HW1 4892   4.667   2.650   2.908
 1331SOL    HW2 4893   4.733   2.796   2.875
 1332SOL     OW 4894   2.387   0.248   0.583
 1332SOL    HW1 4895   2.335   0.163   0.591
 1332SOL    HW2 4896   2.330   0.325   0.613
 1333SOL     OW 4897   3.036   3.606   3.606
 1333SOL    HW1 4898   2.969   3.628   3.676
 1333SOL    HW2 4899   3.022   3.664   3.526
 1334SOL     OW 4900   6.600   1.624   3.548
 1334SOL    HW1 4901   6.660   1.696   3.512
 1334SOL    HW2 4902   6.637   1.589   3.634
 1335SOL     OW 4903   2.858   1.938   2.062
 1335SOL    HW1 4904   2.873   2.036   2.047
 1335SOL    HW2 4905   2.775   1.910   2.014
 1336SOL     OW 4906   2.302   2.030   5.056
 1336SOL    HW1 4907   2.269   1.938   5.035
 1336SOL    HW2 4908   2.370   2.058   4.988
 1337SOL     OW 4909   1.170   1.786   3.058
 1337SOL    HW1 4910   1.216   1.729   3.126
 1337SOL    HW2 4911   1.152   1.876   3.097
 1338SOL     OW 4912   7.003   2.985   4.597
 1338SOL    HW1 4913   6.970   2.891   4.606
 1338SOL    HW2 4914   6.926   3.049   4.605
 1339SOL     OW 4915   6.675   1.772   0.110
 1339SOL    HW1 4916   6.756   1.767   0.052
 1339SOL    HW2 4917   6.703   1.776   0.206
 1340SOL     OW 4918   5.540   1.956   2.565
 1340SOL    HW1 4919   5.592   2.041   2.564
 1340SOL    HW2 4920   5.467   1.960   2.498
 1341SOL     OW 4921   4.033   6.751   6.720
 1341SOL    HW1 4922   3.996   6.786   6.634
 1341SOL    HW2 4923   4.105   6.684   6.701
 1342SOL     OW 4924   3.356   5.923   6.080
 1342SOL    HW1 4925   3.342   5.958   5.987
 1342SOL    HW2 4926   3.269   5.890   6.116
 1343SOL     OW 4927   4.865   5.411   2.816
 1343SOL    HW1 4928   4.806   5.356   2.756
 1343SOL    HW2 4929   4.808   5.474   2.870
 1344SOL     OW 4930   0.197   6.025   4.430
 1344SOL    HW1 4931   0.235   5.991   4.516
 1344SOL    HW2 4932   0.215   5.958   4.357
 1345SOL     OW 4933   1.078   5.999   2.756
 1345SOL    HW1 4934   0.988   5.971   2.724
 1345SOL    HW2 4935   1.120   6.060   2.689
 1346SOL     OW 4936   1.711   6.199   4.359
 1346SOL    HW1 4937   1.727   6.285   4.309
 1346SOL    HW2 4938   1.613   6.177   4.356
 1347SOL     OW 4939   0.033   0.067   5.846
 1347SOL    HW1 4940   7.023   0.085   5.755
 1347SOL    HW2 4941   0.077   7.005   5.846
 1348SOL     OW 4942   5.979   6.706   4.155
 1348SOL    HW1 4943   6.025   6.787   4.193
 1348SOL    HW2 4944   6.026   6.677   4.072
 1349SOL     OW 4945   5.285   3.388   5.273
 1349SOL    HW1 4946   5.242   3.302   5.302
 1349SOL    HW2 4947   5.357   3.368   5.207
 1350SOL     OW 4948   5.138   5.167   5.328
 1350SOL    HW1 4949   5.127   5.076   5.370
 1350SOL    HW2 4950   5.142   5.236   5.400
 1351SOL     OW 4951   6.316   1.887   2.920
 1351SOL    HW1 4952   6.359   1.855   3.005
 1351SOL    HW2 4953   6.369   1.854   2.842
 1352SOL     OW 4954   6.540   5.654   4.236
 1352SOL    HW1 4955   6.592   5.709   4.171
 1352SOL    HW2 4956   6.453   5.626   4.195
 1353SOL     OW 4957   0.634   2.640   0.478
 1353SOL    HW1 4958   0.616   2.737   0.465
 1353SOL    HW2 4959   0.690   2.606   0.402
 1354SOL     OW 4960   0.135   4.286   1.541
 1354SOL    HW1 4961   0.224   4.327   1.561
 1354SOL    HW2 4962   0.104   4.233   1.621
 1355SOL     OW 4963   5.786   3.366   4.285
 1355SOL    HW1 4964   5.744   3.292   4.337
 1355SOL    HW2 4965   5.757   3.454   4.323
 1356SOL     OW 4966   3.084   3.387   2.083
 1356SOL    HW1 4967   2.985   3.370   2.079
 1356SOL    HW2 4968   3.110   3.405   2.177
 1357SOL     OW 4969   0.165   4.524   6.318
 1357SOL    HW1 4970   0.160   4.464   6.398
 1357SOL    HW2 4971   0.109   4.487   6.244
 1358SOL     OW 4972   5.205   6.777   6.343
 1358SOL    HW1 4973   5.232   6.751   6.436
 1358SOL    HW2 4974   5.221   6.700   6.282
 1359SOL     OW 4975   5.541   4.946   2.782
 1359SOL    HW1 4976   5.601   5.017   2.746
 1359SOL    HW2 4977   5.580   4.910   2.867
 1360SOL     OW 4978   2.699   3.945   0.402
 1360SOL    HW1 4979   2.712   3.965   0.499
 1360SOL    HW2 4980   2.639   3.865   0.392
 1361SOL     OW 4981   6.325   4.877   5.135
 1361SOL    HW1 4982   6.407   4.913   5.180
 1361SOL    HW2 4983   6.291   4.945   5.069
 1362SOL     OW 4984   3.938   3.943   3.717
 1362SOL    HW1 4985   3.997   3.862   3.719
 1362SOL    HW2 4986   3.926   3.977   3.810
 1363SOL     OW 4987   6.692   5.253   3.670
 1363SOL    HW1 4988   6.741   5.191   3.731
 1363SOL    HW2 4989   6.733   5.345   3.675
 1364SOL     OW 4990   5.451   4.351   1.171
 1364SOL    HW1 4991   5.467   4.408   1.251
 1364SOL    HW2 4992   5.497   4.263   1.182
 1365SOL     OW 4993   0.382   4.287   6.502
 1365SOL    HW1 4994   0.459   4.341   6.536
 1365SOL    HW2 4995   0.297   4.323   6.541
 1366SOL     OW 4996   1.516   5.598   0.489
 1366SOL    HW1 4997   1.575   5.631   0.562
 1366SOL    HW2 4998   1.450   5.669   0.464
 1367SOL     OW 4999   2.551   0.343   3.019
 1367SOL    HW1 5000   2.494   0.361   3.100
 1367SOL    HW2 5001   2.645   0.328   3.048
 1368SOL     OW 5002   5.831   0.434   3.875
 1368SOL    HW1 5003   5.810   0.338   3.857
 1368SOL    HW2 5004   5.916   0.459   3.830
 1369SOL     OW 5005   1.763   6.219   2.199
 1369SOL    HW1 5006   1.803   6.273   2.273
 1369SOL    HW2 5007   1.807   6.243   2.112
 1370SOL     OW 5008   3.600   0.895   0.638
 1370SOL    HW1 5009   3.669   0.887   0.566
 1370SOL    HW2 5010   3.538   0.817   0.634
 1371SOL     OW 5011   5.572   1.353   4.001
 1371SOL    HW1 5012   5.649   1.416   4.014
 1371SOL    HW2 5013   5.588   1.270   4.056
 1372SOL     OW 5014   1.125   2.922   0.952
 1372SOL    HW1 5015   1.033   2.951   0.979
 1372SOL    HW2 5016   1.177   3.001   0.919
 1373SOL     OW 5017   5.850   3.946   6.897
 1373SOL    HW1 5018   5.897   4.028   6.930
 1373SOL    HW2 5019   5.772   3.926   6.957
 1374SOL     OW 5020   4.415   2.570   0.711
 1374SOL    HW1 5021   4.399   2.492   0.771
 1374SOL    HW2 5022   4.399   2.543   0.616
 1375SOL     OW 5023   6.757   4.243   6.354
 1375SOL    HW1 5024   6.701   4.217   6.275
 1375SOL    HW2 5025   6.781   4.340   6.346
 1376SOL     OW 5026   5.102   3.592   3.614
 1376SOL    HW1 5027   5.163   3.537   3.671
 1376SOL    HW2 5028   5.128   3.582   3.518
 1377SOL     OW 5029   6.925   3.884   5.351
 1377SOL    HW1 5030   6.967   3.954   5.294
 1377SOL    HW2 5031   6.902   3.804   5.294
 1378SOL     OW 5032   6.417   1.259   5.013
 1378SOL    HW1 5033   6.435   1.329   4.943
 1378SOL    HW2 5034   6.378   1.178   4.969
 1379SOL     OW 5035   3.283   0.387   2.449
 1379SOL    HW1 5036   3.368   0.432   2.474
 1379SOL    HW2 5037   3.268   0.308   2.509
 1380SOL     OW 5038   0.496   0.032   2.419
 1380SOL    HW1 5039   0.536   0.007   2.507
 1380SOL    HW2 5040   0.560   0.010   2.345
 1381SOL     OW 5041   5.484   2.938   6.842
 1381SOL    HW1 5042   5.496   2.865   6.775
 1381SOL    HW2 5043   5.548   2.927   6.917
 1382SOL     OW 5044   5.030   4.474   0.105
 1382SOL    HW1 5045   5.060   4.555   0.156
 1382SOL    HW2 5046   4.949   4.496   0.052
 1383SOL     OW 5047   0.552   0.531   0.470
 1383SOL    HW1 5048   0.628   0.542   0.533
 1383SOL    HW2 5049   0.586   0.505   0.379
 1384SOL     OW 5050   3.571   1.119   2.727
 1384SOL    HW1 5051   3.491   1.091   2.780
 1384SOL    HW2 5052   3.627   1.038   2.707
 1385SOL     OW 5053   0.764   2.976   2.866
 1385SOL    HW1 5054   0.710   3.059   2.876
 1385SOL    HW2 5055   0.834   2.973   2.938
 1386SOL     OW 5056   2.387   1.472   4.727
 1386SOL    HW1 5057   2.344   1.443   4.812
 1386SOL    HW2 5058   2.371   1.570   4.713
 1387SOL     OW 5059   3.760   0.049   3.633
 1387SOL    HW1 5060   3.691   0.098   3.686
 1387SOL    HW2 5061   3.732   6.981   3.623
 1388SOL     OW 5062   0.195   6.696   4.199
 1388SOL    HW1 5063   0.184   6.775   4.259
 1388SOL    HW2 5064   0.261   6.632   4.238
 1389SOL     OW 5065   0.472   1.210   3.661
 1389SOL    HW1 5066   0.515   1.277   3.601
 1389SOL    HW2 5067   0.373   1.207   3.644
 1390SOL     OW 5068   4.702   1.537   6.498
 1390SOL    HW1 5069   4.682   1.627   6.459
 1390SOL    HW2 5070   4.786   1.542   6.551
 1391SOL     OW 5071   6.488   1.608   5.535
 1391SOL    HW1 5072   6.394   1.594   5.503
 1391SOL    HW2 5073   6.544   1.529   5.510
 1392SOL     OW 5074   5.367   5.299   5.175
 1392SOL    HW1 5075   5.302   5.352   5.120
 1392SOL    HW2 5076   5.319   5.230   5.228
 1393SOL     OW 5077   5.969   3.069   6.610
 1393SOL    HW1 5078   5.997   3.135   6.679
 1393SOL    HW2 5079   5.900   3.008   6.648
 1394SOL     OW 5080   4.110   6.883   3.590
 1394SOL    HW1 5081   4.186   6.886   3.525
 1394SOL    HW2 5082   4.046   6.811   3.562
 1395SOL     OW 5083   0.912   4.094   2.832
 1395SOL    HW1 5084   0.995   4.062   2.788
 1395SOL    HW2 5085   0.935   4.152   2.910
 1396SOL     OW 5086   1.413   0.102   3.688
 1396SOL    HW1 5087   1.437   0.198   3.698
 1396SOL    HW2 5088   1.483   0.054   3.636
 1397SOL     OW 5089   0.403   6.577   5.128
 1397SOL    HW1 5090   0.341   6.507   5.164
 1397SOL    HW2 5091   0.452   6.539   5.049
 1398SOL     OW 5092   1.434   1.449   0.817
 1398SOL    HW1 5093   1.416   1.545   0.795
 1398SOL    HW2 5094   1.521   1.422   0.775
 1399SOL     OW 5095   4.245   0.508   0.617
 1399SOL    HW1 5096   4.311   0.568   0.572
 1399SOL    HW2 5097   4.179   0.474   0.550
 1400SOL     OW 5098   6.460   0.831   4.245
 1400SOL    HW1 5099   6.457   0.733   4.265
 1400SOL    HW2 5100   6.455   0.846   4.147
 1401SOL     OW 5101   6.052   6.957   4.294
 1401SOL    HW1 5102   6.025   0.007   4.351
 1401SOL    HW2 5103   6.110   6.990   4.219
 1402SOL     OW 5104   5.988   4.445   0.150
 1402SOL    HW1 5105   6.043   4.440   0.067
 1402SOL    HW2 5106   6.038   4.401   0.225
 1403SOL     OW 5107   2.031   3.112   0.078
 1403SOL    HW1 5108   1.986   3.023   0.077
 1403SOL    HW2 5109   2.111   3.109   0.138
 1404SOL     OW 5110   4.443   6.856   1.065
 1404SOL    HW1 5111   4.500   6.916   1.121
 1404SOL    HW2 5112   4.350   6.854   1.102
 1405SOL     OW 5113   2.045   3.330   0.821
 1405SOL    HW1 5114   2.065   3.259   0.753
 1405SOL    HW2 5115   2.012   3.412   0.774
 1406SOL     OW 5116   1.809   4.467   1.657
 1406SOL    HW1 5117   1.843   4.429   1.571
 1406SOL    HW2 5118   1.875   4.449   1.730
 1407SOL     OW 5119   1.598   3.530   2.736
 1407SOL    HW1 5120   1.690   3.562   2.714
 1407SOL    HW2 5121   1.534   3.558   2.665
 1408SOL     OW 5122   5.672   6.579   6.698
 1408SOL    HW1 5123   5.630   6.655   6.747
 1408SOL    HW2 5124   5.771   6.581   6.711
 1409SOL     OW 5125   0.228   0.416   6.020
 1409SOL    HW1 5126   0.316   0.464   6.014
 1409SOL    HW2 5127   0.162   0.473   6.069
 1410SOL     OW 5128   2.536   3.643   6.514
 1410SOL    HW1 5129   2.577   3.576   6.452
 1410SOL    HW2 5130   2.561   3.621   6.608
 1411SOL     OW 5131   3.497   6.431   6.698
 1411SOL    HW1 5132   3.443   6.383   6.767
 1411SOL    HW2 5133   3.436   6.471   6.629
 1412SOL     OW 5134   0.590   3.667   1.014
 1412SOL    HW1 5135   0.677   3.666   1.062
 1412SOL    HW2 5136   0.604   3.696   0.919
 1413SOL     OW 5137   1.544   1.771   4.499
 1413SOL    HW1 5138   1.559   1.772   4.598
 1413SOL    HW2 5139   1.614   1.827   4.454
 1414SOL     OW 5140   1.368   2.749   1.658
 1414SOL    HW1 5141   1.452   2.747   1.604
 1414SOL    HW2 5142   1.330   2.656   1.662
 1415SOL     OW 5143   2.620   2.430   4.833
 1415SOL    HW1 5144   2.567   2.496   4.887
 1415SOL    HW2 5145   2.713   2.425   4.868
 1416SOL     OW 5146   4.499   0.933   4.749
 1416SOL    HW1 5147   4.524   1.029   4.735
 1416SOL    HW2 5148   4.580   0.881   4.776
 1417SOL     OW 5149   3.678   3.071   6.028
 1417SOL    HW1 5150   3.748   3.139   6.005
 1417SOL    HW2 5151   3.587   3.112   6.016
 1418SOL     OW 5152   3.287   3.897   0.690
 1418SOL    HW1 5153   3.240   3.914   0.603
 1418SOL    HW2 5154   3.315   3.984   0.730
 1419SOL     OW 5155   1.821   5.339   4.272
 1419SOL    HW1 5156   1.809   5.422   4.326
 1419SOL    HW2 5157   1.775   5.263   4.319
 1420SOL     OW 5158   4.141   5.072   3.132
 1420SOL    HW1 5159   4.211   5.091   3.200
 1420SOL    HW2 5160   4.093   4.988   3.155
 1421SOL     OW 5161   0.935   4.386   4.237
 1421SOL    HW1 5162   0.932   4.387   4.337
 1421SOL    HW2 5163   0.970   4.474   4.205
 1422SOL     OW 5164   2.453   5.064   6.047
 1422SOL    HW1 5165   2.524   5.050   6.117
 1422SOL    HW2 5166   2.363   5.053   6.088
 1423SOL     OW 5167   4.095   1.976   4.657
 1423SOL    HW1 5168   4.029   2.012   4.592
 1423SOL    HW2 5169   4.118   1.881   4.633
 1424SOL     OW 5170   6.132   3.814   6.551
 1424SOL    HW1 5171   6.212   3.868   6.578
 1424SOL    HW2 5172   6.050   3.871   6.555
 1425SOL     OW 5173   2.399   6.123   4.753
 1425SOL    HW1 5174   2.433   6.210   4.718
 1425SOL    HW2 5175   2.469   6.053   4.742
 1426SOL     OW 5176   1.798   1.949   6.177
 1426SOL    HW1 5177   1.711   1.993   6.198
 1426SOL    HW2 5178   1.782   1.855   6.148
 1427SOL     OW 5179   0.474   0.447   3.684
 1427SOL    HW1 5180   0.517   0.466   3.772
 1427SOL    HW2 5181   0.388   0.498   3.677
 1428SOL     OW 5182   0.255   2.184   1.196
 1428SOL    HW1 5183   0.340   2.201   1.146
 1428SOL    HW2 5184   0.239   2.258   1.262
 1429SOL     OW 5185   6.151   1.488   6.635
 1429SOL    HW1 5186   6.236   1.539   6.616
 1429SOL    HW2 5187   6.145   1.469   6.733
 1430SOL     OW 5188   2.192   4.328   4.706
 1430SOL    HW1 5189   2.130   4.344   4.783
 1430SOL    HW2 5190   2.187   4.232   4.678
 1431SOL     OW 5191   2.565   2.450   5.724
 1431SOL    HW1 5192   2.534   2.375   5.665
 1431SOL    HW2 5193   2.636   2.503   5.677
 1432SOL     OW 5194   2.132   1.486   0.748
 1432SOL    HW1 5195   2.136   1.577   0.706
 1432SOL    HW2 5196   2.158   1.493   0.844
 1433SOL     OW 5197   4.007   0.126   3.550
 1433SOL    HW1 5198   3.918   0.104   3.589
 1433SOL    HW2 5199   4.066   0.046   3.554
 1434SOL     OW 5200   7.025   1.642   6.543
 1434SOL    HW1 5201   6.942   1.697   6.535
 1434SOL    HW2 5202   0.050   1.671   6.623
 1435SOL     OW 5203   0.139   0.618   4.212
 1435SOL    HW1 5204   0.201   0.687   4.177
 1435SOL    HW2 5205   0.178   0.527   4.196
 1436SOL     OW 5206   6.085   3.675   0.452
 1436SOL    HW1 5207   6.125   3.590   0.486
 1436SOL    HW2 5208   6.058   3.663   0.356
 1437SOL     OW 5209   3.299   1.001   5.369
 1437SOL    HW1 5210   3.383   1.010   5.423
 1437SOL    HW2 5211   3.243   0.927   5.407
 1438SOL     OW 5212   3.449   1.272   1.863
 1438SOL    HW1 5213   3.378   1.328   1.821
 1438SOL    HW2 5214   3.418   1.177   1.868
 1439SOL     OW 5215   0.907   5.752   0.377
 1439SOL    HW1 5216   0.895   5.847   0.407
 1439SOL    HW2 5217   0.819   5.716   0.345
 1440SOL     OW 5218   3.532   3.282   4.491
 1440SOL    HW1 5219   3.478   3.252   4.412
 1440SOL    HW2 5220   3.484   3.258   4.575
 1441SOL     OW 5221   6.759   3.626   3.382
 1441SOL    HW1 5222   6.730   3.531   3.380
 1441SOL    HW2 5223   6.706   3.679   3.316
 1442SOL     OW 5224   5.390   5.129   0.514
 1442SOL    HW1 5225   5.437   5.051   0.473
 1442SOL    HW2 5226   5.295   5.130   0.484
 1443SOL     OW 5227   0.904   0.677   3.808
 1443SOL    HW1 5228   0.926   0.774   3.796
 1443SOL    HW2 5229   0.847   0.646   3.731
 1444SOL     OW 5230   3.856   5.672   3.235
 1444SOL    HW1 5231   3.901   5.746   3.185
 1444SOL    HW2 5232   3.761   5.664   3.207
 1445SOL     OW 5233   0.541   2.815   1.895
 1445SOL    HW1 5234   0.502   2.906   1.878
 1445SOL    HW2 5235   0.485   2.767   1.962
 1446SOL     OW 5236   5.682   2.829   0.044
 1446SOL    HW1 5237   5.669   2.760   0.115
 1446SOL    HW2 5238   5.759   2.803   7.013
 1447SOL     OW 5239   6.663   0.676   5.147
 1447SOL    HW1 5240   6.663   0.600   5.082
 1447SOL    HW2 5241   6.569   0.708   5.161
 1448SOL     OW 5242   5.907   1.697   0.428
 1448SOL    HW1 5243   5.873   1.773   0.484
 1448SOL    HW2 5244   5.829   1.646   0.392
 1449SOL     OW 5245   5.780   6.884   0.054
 1449SOL    HW1 5246   5.732   6.798   0.038
 1449SOL    HW2 5247   5.847   6.899   7.009
 1450SOL     OW 5248   0.102   1.824   2.177
 1450SOL    HW1 5249   0.018   1.866   2.143
 1450SOL    HW2 5250   0.180   1.883   2.154
 1451SOL     OW 5251   3.067   0.969   3.021
 1451SOL    HW1 5252   3.131   1.029   3.068
 1451SOL    HW2 5253   2.996   1.025   2.977
 1452SOL     OW 5254   4.885   1.947   4.689
 1452SOL    HW1 5255   4.944   2.024   4.665
 1452SOL    HW2 5256   4.885   1.880   4.615
 1453SOL     OW 5257   5.980   3.655   4.705
 1453SOL    HW1 5258   6.043   3.725   4.670
 1453SOL    HW2 5259   5.887   3.689   4.699
 1454SOL     OW 5260   5.978   2.921   2.412
 1454SOL    HW1 5261   6.006   2.850   2.347
 1454SOL    HW2 5262   6.008   2.896   2.504
 1455SOL     OW 5263   0.997   0.535   1.793
 1455SOL    HW1 5264   1.044   0.453   1.759
 1455SOL    HW2 5265   1.058   0.614   1.787
 1456SOL     OW 5266   6.963   6.645   5.175
 1456SOL    HW1 5267   0.012   6.692   5.131
 1456SOL    HW2 5268   6.953   6.679   5.268
 1457SOL     OW 5269   1.466   0.358   2.129
 1457SOL    HW1 5270   1.413   0.350   2.213
 1457SOL    HW2 5271   1.480   0.455   2.107
 1458SOL     OW 5272   5.513   6.647   4.599
 1458SOL    HW1 5273   5.551   6.596   4.676
 1458SOL    HW2 5274   5.491   6.585   4.524
 1459SOL     OW 5275   2.582   4.197   6.739
 1459SOL    HW1 5276   2.671   4.182   6.696
 1459SOL    HW2 5277   2.523   4.117   6.724
 1460SOL     OW 5278   6.850   5.573   5.943
 1460SOL    HW1 5279   6.930   5.513   5.941
 1460SOL    HW2 5280   6.779   5.533   6.001
 1461SOL     OW 5281   6.674   4.668   3.220
 1461SOL    HW1 5282   6.716   4.758   3.210
 1461SOL    HW2 5283   6.715   4.620   3.297
 1462SOL     OW 5284   6.485   1.947   0.072
 1462SOL    HW1 5285   6.535   1.863   0.095
 1462SOL    HW2 5286   6.549   2.016   0.039
 1463SOL     OW 5287   0.053   6.531   5.749
 1463SOL    HW1 5288   6.998   6.567   5.794
 1463SOL    HW2 5289   0.076   6.588   5.671
 1464SOL     OW 5290   0.075   6.953   0.845
 1464SOL    HW1 5291   0.054   6.855   0.850
 1464SOL    HW2 5292   0.116   6.974   0.756
 1465SOL     OW 5293   1.321   1.188   3.173
 1465SOL    HW1 5294   1.412   1.213   3.140
 1465SOL    HW2 5295   1.309   1.223   3.266
 1466SOL     OW 5296   0.276   6.760   3.116
 1466SOL    HW1 5297   0.211   6.771   3.041
 1466SOL    HW2 5298   0.369   6.762   3.079
 1467SOL     OW 5299   1.924   0.123   2.143
 1467SOL    HW1 5300   1.902   0.114   2.240
 1467SOL    HW2 5301   1.841   0.143   2.091
 1468SOL     OW 5302   5.709   6.059   2.979
 1468SOL    HW1 5303   5.807   6.049   2.964
 1468SOL    HW2 5304   5.676   5.983   3.036
 1469SOL     OW 5305   0.526   0.946   2.998
 1469SOL    HW1 5306   0.443   0.920   2.948
 1469SOL    HW2 5307   0.606   0.909   2.952
 1470SOL     OW 5308   0.843   0.679   2.099
 1470SOL    HW1 5309   0.904   0.752   2.068
 1470SOL    HW2 5310   0.856   0.663   2.197
 1471SOL     OW 5311   1.005   0.671   6.990
 1471SOL    HW1 5312   1.019   0.619   0.047
 1471SOL    HW2 5313   0.921   0.725   6.998
 1472SOL     OW 5314   4.370   5.723   4.493
 1472SOL    HW1 5315   4.354   5.743   4.590
 1472SOL    HW2 5316   4.377   5.809   4.442
 1473SOL     OW 5317   6.066   6.179   3.891
 1473SOL    HW1 5318   6.006   6.106   3.858
 1473SOL    HW2 5319   6.151   6.178   3.837
 1474SOL     OW 5320   6.575   6.067   3.627
 1474SOL    HW1 5321   6.536   6.011   3.554
 1474SOL    HW2 5322   6.502   6.117   3.673
 1475SOL     OW 5323   0.296   0.363   1.728
 1475SOL    HW1 5324   0.337   0.360   1.819
 1475SOL    HW2 5325   0.238   0.444   1.721
 1476SOL     OW 5326   1.663   0.822   1.063
 1476SOL    HW1 5327   1.608   0.887   1.011
 1476SOL    HW2 5328   1.731   0.780   1.003
 1477SOL     OW 5329   2.850   0.197   6.769
 1477SOL    HW1 5330   2.943   0.185   6.804
 1477SOL    HW2 5331   2.796   0.251   6.833
 1478SOL     OW 5332   5.662   4.390   0.439
 1478SOL    HW1 5333   5.742   4.434   0.478
 1478SOL    HW2 5334   5.690   4.332   0.362
 1479SOL     OW 5335   1.285   4.397   0.273
 1479SOL    HW1 5336   1.334   4.342   0.205
 1479SOL    HW2 5337   1.349   4.457   0.321
 1480SOL     OW 5338   2.366   0.884   0.337
 1480SOL    HW1 5339   2.360   0.839   0.426
 1480SOL    HW2 5340   2.423   0.828   0.276
 1481SOL     OW 5341   5.853   1.965   4.791
 1481SOL    HW1 5342   5.919   1.987   4.863
 1481SOL    HW2 5343   5.889   1.996   4.703
 1482SOL     OW 5344   5.608   1.501   0.912
 1482SOL    HW1 5345   5.587   1.563   0.988
 1482SOL    HW2 5346   5.581   1.543   0.826
 1483SOL     OW 5347   0.635   3.128   6.226
 1483SOL    HW1 5348   0.724   3.100   6.192
 1483SOL    HW2 5349   0.572   3.143   6.150
 1484SOL     OW 5350   6.717   4.227   3.505
 1484SOL    HW1 5351   6.665   4.221   3.419
 1484SOL    HW2 5352   6.657   4.259   3.578
 1485SOL     OW 5353   4.453   2.242   2.527
 1485SOL    HW1 5354   4.429   2.235   2.431
 1485SOL    HW2 5355   4.534   2.300   2.538
 1486SOL     OW 5356   4.563   2.510   3.364
 1486SOL    HW1 5357   4.591   2.593   3.315
 1486SOL    HW2 5358   4.571   2.524   3.462
 1487SOL     OW 5359   6.542   1.804   6.440
 1487SOL    HW1 5360   6.488   1.868   6.386
 1487SOL    HW2 5361   6.481   1.741   6.488
 1488SOL     OW 5362   6.027   2.145   2.816
 1488SOL    HW1 5363   5.955   2.168   2.750
 1488SOL    HW2 5364   6.115   2.177   2.781
 1489SOL     OW 5365   3.749   4.954   4.535
 1489SOL    HW1 5366   3.758   4.960   4.635
 1489SOL    HW2 5367   3.689   5.028   4.503
 1490SOL     OW 5368   1.570   2.801   1.157
 1490SOL    HW1 5369   1.550   2.705   1.137
 1490SOL    HW2 5370   1.581   2.850   1.070
 1491SOL     OW 5371   0.037   3.795   2.976
 1491SOL    HW1 5372   7.000   3.869   2.993
 1491SOL    HW2 5373   7.016   3.713   2.947
 1492SOL     OW 5374   5.989   1.884   1.638
 1492SOL    HW1 5375   6.062   1.926   1.692
 1492SOL    HW2 5376   6.028   1.841   1.557
 1493SOL     OW 5377   4.904   0.932   5.111
 1493SOL    HW1 5378   4.895   0.967   5.204
 1493SOL    HW2 5379   5.001   0.930   5.086
 1494SOL     OW 5380   4.166   2.543   5.845
 1494SOL    HW1 5381   4.166   2.596   5.760
 1494SOL    HW2 5382   4.188   2.604   5.921
 1495SOL     OW 5383   0.946   3.431   3.547
 1495SOL    HW1 5384   0.976   3.461   3.637
 1495SOL    HW2 5385   0.982   3.493   3.477
 1496SOL     OW 5386   0.498   0.623   1.833
 1496SOL    HW1 5387   0.523   0.589   1.742
 1496SOL    HW2 5388   0.570   0.601   1.898
 1497SOL     OW 5389   0.162   4.051   3.452
 1497SOL    HW1 5390   0.259   4.026   3.453
 1497SOL    HW2 5391   0.116   4.008   3.530
 1498SOL     OW 5392   1.608   5.105   6.762
 1498SOL    HW1 5393   1.632   5.159   6.843
 1498SOL    HW2 5394   1.676   5.032   6.750
 1499SOL     OW 5395   1.232   3.514   5.006
 1499SOL    HW1 5396   1.282   3.551   5.084
 1499SOL    HW2 5397   1.171   3.442   5.037
 1500SOL     OW 5398   5.526   7.000   0.050
 1500SOL    HW1 5399   5.621   6.973   0.062
 1500SOL    HW2 5400   5.466   6.930   0.089
 1501SOL     OW 5401   4.554   0.966   5.976
 1501SOL    HW1 5402   4.508   0.926   6.056
 1501SOL    HW2 5403   4.610   1.044   6.005
 1502SOL     OW 5404   6.144   6.578   0.854
 1502SOL    HW1 5405   6.209   6.537   0.790
 1502SOL    HW2 5406   6.078   6.634   0.803
 1503SOL     OW 5407   2.528   2.767   1.172
 1503SOL    HW1 5408   2.464   2.691   1.187
 1503SOL    HW2 5409   2.506   2.842   1.234
 1504SOL     OW 5410   2.490   0.262   4.678
 1504SOL    HW1 5411   2.481   0.357   4.646
 1504SOL    HW2 5412   2.585   0.233   4.671
 1505SOL     OW 5413   5.183   0.467   6.911
 1505SOL    HW1 5414   5.208   0.389   6.853
 1505SOL    HW2 5415   5.178   0.438   7.006
 1506SOL     OW 5416   1.335   5.237   3.063
 1506SOL    HW1 5417   1.414   5.267   3.009
 1506SOL    HW2 5418   1.271   5.313   3.072
 1507SOL     OW 5419   1.577   1.744   4.770
 1507SOL    HW1 5420   1.502   1.696   4.816
 1507SOL    HW2 5421   1.655   1.751   4.832
 1508SOL     OW 5422   4.713   6.967   0.665
 1508SOL    HW1 5423   4.666   6.972   0.754
 1508SOL    HW2 5424   4.659   6.911   0.603
 1509SOL     OW 5425   3.881   2.783   6.054
 1509SOL    HW1 5426   3.828   2.741   5.980
 1509SOL    HW2 5427   3.821   2.800   6.133
 1510SOL     OW 5428   5.738   1.781   3.928
 1510SOL    HW1 5429   5.752   1.695   3.977
 1510SOL    HW2 5430   5.776   1.857   3.980
 1511SOL     OW 5431   2.386   2.034   6.615
 1511SOL    HW1 5432   2.376   2.045   6.714
 1511SOL    HW2 5433   2.423   1.943   6.596
 1512SOL     OW 5434   6.838   6.254   1.795
 1512SOL    HW1 5435   6.899   6.233   1.871
 1512SOL    HW2 5436   6.892   6.285   1.716
 1513SOL     OW 5437   4.461   0.768   3.811
 1513SOL    HW1 5438   4.361   0.764   3.810
 1513SOL    HW2 5439   4.494   0.755   3.905
 1514SOL     OW 5440   5.362   2.185   4.460
 1514SOL    HW1 5441   5.322   2.133   4.535
 1514SOL    HW2 5442   5.461   2.166   4.456
 1515SOL     OW 5443   6.926   2.893   5.927
 1515SOL    HW1 5444   6.910   2.957   6.002
 1515SOL    HW2 5445   7.005   2.924   5.873
 1516SOL     OW 5446   0.740   0.492   0.673
 1516SOL    HW1 5447   0.801   0.488   0.752
 1516SOL    HW2 5448   0.719   0.400   0.642
 1517SOL     OW 5449   5.001   5.692   3.910
 1517SOL    HW1 5450   5.076   5.629   3.928
 1517SOL    HW2 5451   5.000   5.765   3.978
 1518SOL     OW 5452   0.100   2.699   6.822
 1518SOL    HW1 5453   0.144   2.782   6.856
 1518SOL    HW2 5454   0.029   2.670   6.886
 1519SOL     OW 5455   6.961   4.607   1.890
 1519SOL    HW1 5456   0.012   4.614   1.951
 1519SOL    HW2 5457   6.921   4.698   1.878
 1520SOL     OW 5458   1.819   3.376   2.283
 1520SOL    HW1 5459   1.730   3.412   2.308
 1520SOL    HW2 5460   1.811   3.278   2.262
 1521SOL     OW 5461   2.170   3.259   6.787
 1521SOL    HW1 5462   2.109   3.267   6.709
 1521SOL    HW2 5463   2.248   3.321   6.776
 1522SOL     OW 5464   6.897   1.498   5.595
 1522SOL    HW1 5465   6.838   1.438   5.542
 1522SOL    HW2 5466   6.877   1.487   5.693
 1523SOL     OW 5467   5.101   3.970   6.673
 1523SOL    HW1 5468   5.162   3.919   6.734
 1523SOL    HW2 5469   5.020   3.914   6.653
 1524SOL     OW 5470   0.993   2.197   1.559
 1524SOL    HW1 5471   1.031   2.110   1.528
 1524SOL    HW2 5472   0.899   2.205   1.527
 1525SOL     OW 5473   4.943   2.679   5.961
 1525SOL    HW1 5474   5.016   2.727   5.914
 1525SOL    HW2 5475   4.935   2.714   6.055
 1526SOL     OW 5476   0.916   1.237   0.992
 1526SOL    HW1 5477   1.005   1.258   1.033
 1526SOL    HW2 5478   0.862   1.321   0.985
 1527SOL     OW 5479   3.865   1.204   4.604
 1527SOL    HW1 5480   3.944   1.247   4.560
 1527SOL    HW2 5481   3.807   1.274   4.644
 1528SOL     OW 5482   4.856   6.005   2.936
 1528SOL    HW1 5483   4.900   5.998   3.026
 1528SOL    HW2 5484   4.785   5.936   2.928
 1529SOL     OW 5485   4.279   1.238   6.079
 1529SOL    HW1 5486   4.334   1.214   6.159
 1529SOL    HW2 5487   4.337   1.249   5.999
 1530SOL     OW 5488   3.263   0.363   1.094
 1530SOL    HW1 5489   3.180   0.308   1.095
 1530SOL    HW2 5490   3.330   0.324   1.157
 1531SOL     OW 5491   6.086   1.409   4.748
 1531SOL    HW1 5492   6.146   1.330   4.753
 1531SOL    HW2 5493   6.123   1.475   4.682
 1532SOL     OW 5494   2.416   2.482   4.327
 1532SOL    HW1 5495   2.415   2.549   4.401
 1532SOL    HW2 5496   2.425   2.390   4.366
 1533SOL     OW 5497   6.990   3.516   6.627
 1533SOL    HW1 5498   0.024   3.457   6.680
 1533SOL    HW2 5499   6.905   3.528   6.678
 1534SOL     OW 5500   1.287   5.024   0.092
 1534SOL    HW1 5501   1.317   4.995   0.002
 1534SOL    HW2 5502   1.295   4.947   0.157
 1535SOL     OW 5503   5.861   6.065   4.440
 1535SOL    HW1 5504   5.945   6.107   4.475
 1535SOL    HW2 5505   5.884   5.996   4.372
 1536SOL     OW 5506   3.603   5.172   4.483
 1536SOL    HW1 5507   3.673   5.241   4.464
 1536SOL    HW2 5508   3.531   5.177   4.414
 1537SOL     OW 5509   3.588   5.649   3.163
 1537SOL    HW1 5510   3.518   5.579   3.181
 1537SOL    HW2 5511   3.594   5.664   3.064
 1538SOL     OW 5512   3.707   5.502   5.395
 1538SOL    HW1 5513   3.709   5.571   5.468
 1538SOL    HW2 5514   3.672   5.416   5.433
 1539SOL     OW 5515   4.191   4.355   1.317
 1539SOL    HW1 5516   4.132   4.395   1.247
 1539SOL    HW2 5517   4.226   4.267   1.285
 1540SOL     OW 5518   0.659   6.665   5.241
 1540SOL    HW1 5519   0.629   6.707   5.155
 1540SOL    HW2 5520   0.593   6.596   5.269
 1541SOL     OW 5521   4.014   2.562   1.123
 1541SOL    HW1 5522   4.069   2.566   1.206
 1541SOL    HW2 5523   4.003   2.466   1.096
 1542SOL     OW 5524   6.609   5.888   2.015
 1542SOL    HW1 5525   6.614   5.789   2.003
 1542SOL    HW2 5526   6.518   5.912   2.048
 1543SOL     OW 5527   2.874   3.604   3.833
 1543SOL    HW1 5528   2.857   3.507   3.819
 1543SOL    HW2 5529   2.875   3.624   3.931
 1544SOL     OW 5530   3.260   4.126   2.226
 1544SOL    HW1 5531   3.223   4.161   2.312
 1544SOL    HW2 5532   3.360   4.133   2.228
 1545SOL     OW 5533   5.698   1.030   5.431
 1545SOL    HW1 5534   5.630   1.058   5.364
 1545SOL    HW2 5535   5.654   0.980   5.505
 1546SOL     OW 5536   4.724   6.938   5.875
 1546SOL    HW1 5537   4.803   6.944   5.936
 1546SOL    HW2 5538   4.657   6.875   5.913
 1547SOL     OW 5539   1.745   3.761   2.476
 1547SOL    HW1 5540   1.664   3.820   2.481
 1547SOL    HW2 5541   1.746   3.712   2.389
 1548SOL     OW 5542   4.525   3.925   5.326
 1548SOL    HW1 5543   4.594   3.925   5.254
 1548SOL    HW2 5544   4.505   3.831   5.353
 1549SOL     OW 5545   6.207   1.094   2.222
 1549SOL    HW1 5546   6.235   1.188   2.239
 1549SOL    HW2 5547   6.247   1.062   2.136
 1550SOL     OW 5548   3.023   6.482   5.671
 1550SOL    HW1 5549   3.024   6.529   5.760
 1550SOL    HW2 5550   2.933   6.444   5.655
 1551SOL     OW 5551   1.583   3.181   1.074
 1551SOL    HW1 5552   1.637   3.260   1.103
 1551SOL    HW2 5553   1.632   3.097   1.095
 1552SOL     OW 5554   0.909   7.012   1.454
 1552SOL    HW1 5555   0.927   6.929   1.400
 1552SOL    HW2 5556   0.876   0.057   1.393
 1553SOL     OW 5557   6.287   2.173   6.386
 1553SOL    HW1 5558   6.333   2.232   6.320
 1553SOL    HW2 5559   6.265   2.225   6.469
 1554SOL     OW 5560   3.558   2.068   2.974
 1554SOL    HW1 5561   3.645   2.068   2.924
 1554SOL    HW2 5562   3.576   2.064   3.072
 1555SOL     OW 5563   4.376   2.660   5.709
 1555SOL    HW1 5564   4.433   2.733   5.746
 1555SOL    HW2 5565   4.345   2.601   5.783
 1556SOL     OW 5566   4.025   0.545   0.420
 1556SOL    HW1 5567   3.964   0.541   0.499
 1556SOL    HW2 5568   3.970   0.544   0.336
 1557SOL     OW 5569   2.886   2.608   0.930
 1557SOL    HW1 5570   2.800   2.569   0.896
 1557SOL    HW2 5571   2.963   2.563   0.884
 1558SOL     OW 5572   5.716   2.391   4.546
 1558SOL    HW1 5573   5.764   2.478   4.536
 1558SOL    HW2 5574   5.738   2.350   4.634
 1559SOL     OW 5575   0.485   2.751   1.245
 1559SOL    HW1 5576   0.479   2.673   1.308
 1559SOL    HW2 5577   0.560   2.810   1.272
 1560SOL     OW 5578   3.190   1.434   6.748
 1560SOL    HW1 5579   3.275   1.479   6.776
 1560SOL    HW2 5580   3.126   1.433   6.825
 1561SOL     OW 5581   4.713   5.178   3.533
 1561SOL    HW1 5582   4.656   5.220   3.603
 1561SOL    HW2 5583   4.690   5.081   3.524
 1562SOL     OW 5584   3.582   6.190   2.600
 1562SOL    HW1 5585   3.524   6.246   2.659
 1562SOL    HW2 5586   3.531   6.108   2.572
 1563SOL     OW 5587   2.360   1.845   5.368
 1563SOL    HW1 5588   2.444   1.868   5.417
 1563SOL    HW2 5589   2.382   1.819   5.274
 1564SOL     OW 5590   1.398   1.739   2.236
 1564SOL    HW1 5591   1.385   1.820   2.179
 1564SOL    HW2 5592   1.340   1.665   2.202
 1565SOL     OW 5593   4.511   5.393   4.677
 1565SOL    HW1 5594   4.477   5.389   4.771
 1565SOL    HW2 5595   4.502   5.303   4.634
 1566SOL     OW 5596   6.382   4.994   4.235
 1566SOL    HW1 5597   6.372   5.071   4.172
 1566SOL    HW2 5598   6.465   5.006   4.289
 1567SOL     OW 5599   5.883   5.583   0.124
 1567SOL    HW1 5600   5.899   5.494   0.168
 1567SOL    HW2 5601   5.811   5.632   0.173
 1568SOL     OW 5602   2.554   6.346   3.156
 1568SOL    HW1 5603   2.526   6.440   3.174
 1568SOL    HW2 5604   2.624   6.319   3.222
 1569SOL     OW 5605   3.763   0.020   3.000
 1569SOL    HW1 5606   3.708   0.050   2.922
 1569SOL    HW2 5607   3.707   0.024   3.083
 1570SOL     OW 5608   2.418   6.580   6.481
 1570SOL    HW1 5609   2.324   6.552   6.463
 1570SOL    HW2 5610   2.479   6.542   6.412
 1571SOL     OW 5611   1.192   2.590   2.953
 1571SOL    HW1 5612   1.111   2.599   3.011
 1571SOL    HW2 5613   1.197   2.668   2.891
 1572SOL     OW 5614   1.691   5.406   2.336
 1572SOL    HW1 5615   1.786   5.380   2.320
 1572SOL    HW2 5616   1.631   5.330   2.308
 1573SOL     OW 5617   5.427   5.079   2.421
 1573SOL    HW1 5618   5.339   5.048   2.457
 1573SOL    HW2 5619   5.496   5.008   2.439
 1574SOL     OW 5620   6.529   3.062   2.140
 1574SOL    HW1 5621   6.585   3.140   2.114
 1574SOL    HW2 5622   6.439   3.093   2.171
 1575SOL     OW 5623   2.521   0.371   1.377
 1575SOL    HW1 5624   2.489   0.369   1.283
 1575SOL    HW2 5625   2.620   0.387   1.379
 1576SOL     OW 5626   0.695   6.386   3.183
 1576SOL    HW1 5627   0.722   6.460   3.244
 1576SOL    HW2 5628   0.614   6.340   3.219
 1577SOL     OW 5629   2.519   0.287   6.355
 1577SOL    HW1 5630   2.553   0.378   6.332
 1577SOL    HW2 5631   2.440   0.294   6.416
 1578SOL     OW 5632   4.990   1.181   6.494
 1578SOL    HW1 5633   4.981   1.101   6.552
 1578SOL    HW2 5634   5.085   1.191   6.464
 1579SOL     OW 5635   6.864   2.448   1.268
 1579SOL    HW1 5636   6.918   2.487   1.194
 1579SOL    HW2 5637   6.900   2.358   1.293
 1580SOL     OW 5638   3.178   4.087   3.296
 1580SOL    HW1 5639   3.146   4.171   3.339
 1580SOL    HW2 5640   3.220   4.028   3.365
 1581SOL     OW 5641   6.969   4.175   5.871
 1581SOL    HW1 5642   7.023   4.203   5.792
 1581SOL    HW2 5643   7.020   4.196   5.955
 1582SOL     OW 5644   3.271   5.833   4.694
 1582SOL    HW1 5645   3.199   5.830   4.763
 1582SOL    HW2 5646   3.314   5.743   4.687
 1583SOL     OW 5647   0.858   5.753   4.507
 1583SOL    HW1 5648   0.788   5.702   4.457
 1583SOL    HW2 5649   0.946   5.742   4.463
 1584SOL     OW 5650   1.778   4.911   6.694
 1584SOL    HW1 5651   1.742   4.819   6.677
 1584SOL    HW2 5652   1.871   4.905   6.730
 1585SOL     OW 5653   4.324   1.653   2.907
 1585SOL    HW1 5654   4.246   1.673   2.847
 1585SOL    HW2 5655   4.301   1.678   3.001
 1586SOL     OW 5656   2.849   4.764   2.957
 1586SOL    HW1 5657   2.915   4.766   2.882
 1586SOL    HW2 5658   2.864   4.844   3.017
 1587SOL     OW 5659   2.068   4.952   5.512
 1587SOL    HW1 5660   2.082   4.960   5.414
 1587SOL    HW2 5661   2.076   5.042   5.555
 1588SOL     OW 5662   4.947   0.725   2.502
 1588SOL    HW1 5663   4.884   0.667   2.451
 1588SOL    HW2 5664   5.014   0.765   2.439
 1589SOL     OW 5665   0.147   3.200   2.557
 1589SOL    HW1 5666   0.057   3.159   2.544
 1589SOL    HW2 5667   0.139   3.300   2.559
 1590SOL     OW 5668   4.773   0.772   3.709
 1590SOL    HW1 5669   4.831   0.709   3.761
 1590SOL    HW2 5670   4.677   0.757   3.732
 1591SOL     OW 5671   0.321   6.208   1.330
 1591SOL    HW1 5672   0.410   6.180   1.367
 1591SOL    HW2 5673   0.325   6.305   1.306
 1592SOL     OW 5674   1.975   3.987   0.020
 1592SOL    HW1 5675   1.953   3.896   7.012
 1592SOL    HW2 5676   1.904   4.016   0.084
 1593SOL     OW 5677   0.519   6.963   6.151
 1593SOL    HW1 5678   0.619   6.971   6.146
 1593SOL    HW2 5679   0.490   6.972   6.246
 1594SOL     OW 5680   6.989   5.741   2.302
 1594SOL    HW1 5681   6.964   5.837   2.317
 1594SOL    HW2 5682   6.953   5.710   2.214
 1595SOL     OW 5683   0.602   4.204   0.446
 1595SOL    HW1 5684   0.606   4.286   0.388
 1595SOL    HW2 5685   0.654   4.221   0.530
 1596SOL     OW 5686   6.663   3.337   2.162
 1596SOL    HW1 5687   6.568   3.367   2.158
 1596SOL    HW2 5688   6.718   3.409   2.205
 1597SOL     OW 5689   2.449   5.890   1.342
 1597SOL    HW1 5690   2.504   5.831   1.401
 1597SOL    HW2 5691   2.353   5.886   1.369
 1598SOL     OW 5692   1.380   5.215   6.444
 1598SOL    HW1 5693   1.369   5.270   6.526
 1598SOL    HW2 5694   1.476   5.189   6.434
 1599SOL     OW 5695   5.087   4.922   5.489
 1599SOL    HW1 5696   5.139   4.858   5.433
 1599SOL    HW2 5697   4.994   4.930   5.453
 1600SOL     OW 5698   2.865   1.458   2.351
 1600SOL    HW1 5699   2.835   1.540   2.303
 1600SOL    HW2 5700   2.806   1.381   2.325
 1601SOL     OW 5701   0.588   6.588   4.492
 1601SOL    HW1 5702   0.605   6.494   4.524
 1601SOL    HW2 5703   0.489   6.605   4.490
 1602SOL     OW 5704   4.654   5.397   4.385
 1602SOL    HW1 5705   4.667   5.305   4.423
 1602SOL    HW2 5706   4.715   5.461   4.431
 1603SOL     OW 5707   2.763   5.097   3.507
 1603SOL    HW1 5708   2.779   5.021   3.570
 1603SOL    HW2 5709   2.688   5.073   3.445
 1604SOL     OW 5710   3.853   5.082   1.330
 1604SOL    HW1 5711   3.773   5.114   1.381
 1604SOL    HW2 5712   3.872   4.987   1.355
 1605SOL     OW 5713   6.579   5.596   1.704
 1605SOL    HW1 5714   6.630   5.563   1.624
 1605SOL    HW2 5715   6.482   5.578   1.690
 1606SOL     OW 5716   3.982   5.391   5.380
 1606SOL    HW1 5717   3.898   5.434   5.345
 1606SOL    HW2 5718   4.061   5.440   5.342
 1607SOL     OW 5719   4.130   0.296   0.758
 1607SOL    HW1 5720   4.034   0.280   0.734
 1607SOL    HW2 5721   4.158   0.386   0.724
 1608SOL     OW 5722   6.719   0.703   2.876
 1608SOL    HW1 5723   6.794   0.769   2.873
 1608SOL    HW2 5724   6.654   0.724   2.802
 1609SOL     OW 5725   3.324   0.008   0.979
 1609SOL    HW1 5726   3.349   6.939   0.989
 1609SOL    HW2 5727   3.270   0.037   1.057
 1610SOL     OW 5728   4.687   6.103   0.876
 1610SOL    HW1 5729   4.611   6.043   0.897
 1610SOL    HW2 5730   4.753   6.103   0.952
 1611SOL     OW 5731   1.650   3.236   0.779
 1611SOL    HW1 5732   1.609   3.229   0.870
 1611SOL    HW2 5733   1.727   3.174   0.772
 1612SOL     OW 5734   3.443   6.709   1.870
 1612SOL    HW1 5735   3.416   6.613   1.868
 1612SOL    HW2 5736   3.447   6.740   1.965
 1613SOL     OW 5737   0.612   5.484   1.982
 1613SOL    HW1 5738   0.686   5.550   1.997
 1613SOL    HW2 5739   0.524   5.527   2.006
 1614SOL     OW 5740   5.602   1.871   6.220
 1614SOL    HW1 5741   5.673   1.854   6.289
 1614SOL    HW2 5742   5.605   1.967   6.192
 1615SOL     OW 5743   6.657   5.731   6.446
 1615SOL    HW1 5744   6.619   5.785   6.370
 1615SOL    HW2 5745   6.729   5.671   6.412
 1616SOL     OW 5746   4.304   0.142   3.360
 1616SOL    HW1 5747   4.357   0.226   3.366
 1616SOL    HW2 5748   4.219   0.160   3.311
 1617SOL     OW 5749   4.692   6.455   2.940
 1617SOL    HW1 5750   4.630   6.399   2.994
 1617SOL    HW2 5751   4.659   6.460   2.846
 1618SOL     OW 5752   1.107   6.287   3.116
 1618SOL    HW1 5753   1.142   6.305   3.208
 1618SOL    HW2 5754   1.095   6.374   3.068
 1619SOL     OW 5755   0.161   5.350   0.007
 1619SOL    HW1 5756   0.072   5.324   0.044
 1619SOL    HW2 5757   0.157   5.351   6.935
 1620SOL     OW 5758   3.363   4.668   1.666
 1620SOL    HW1 5759   3.448   4.656   1.719
 1620SOL    HW2 5760   3.385   4.709   1.578
 1621SOL     OW 5761   6.124   0.010   0.736
 1621SOL    HW1 5762   6.069   6.960   0.767
 1621SOL    HW2 5763   6.130   0.008   0.636
 1622SOL     OW 5764   0.554   3.316   5.411
 1622SOL    HW1 5765   0.493   3.269   5.348
 1622SOL    HW2 5766   0.644   3.326   5.369
 1623SOL     OW 5767   0.510   2.468   4.792
 1623SOL    HW1 5768   0.453   2.407   4.738
 1623SOL    HW2 5769   0.452   2.525   4.850
 1624SOL     OW 5770   4.442   1.339   5.884
 1624SOL    HW1 5771   4.496   1.290   5.815
 1624SOL    HW2 5772   4.483   1.429   5.900
 1625SOL     OW 5773   1.418   5.286   6.944
 1625SOL    HW1 5774   1.474   5.218   6.993
 1625SOL    HW2 5775   1.328   5.293   6.988
 1626SOL     OW 5776   3.335   1.401   1.348
 1626SOL    HW1 5777   3.371   1.487   1.384
 1626SOL    HW2 5778   3.267   1.364   1.411
 1627SOL     OW 5779   5.796   2.985   3.607
 1627SOL    HW1 5780   5.790   2.923   3.528
 1627SOL    HW2 5781   5.807   2.931   3.690
 1628SOL     OW 5782   4.520   5.721   6.730
 1628SOL    HW1 5783   4.548   5.809   6.693
 1628SOL    HW2 5784   4.597   5.657   6.725
 1629SOL     OW 5785   2.501   1.386   4.092
 1629SOL    HW1 5786   2.591   1.345   4.078
 1629SOL    HW2 5787   2.450   1.382   4.006
 1630SOL     OW 5788   6.718   4.364   5.387
 1630SOL    HW1 5789   6.657   4.297   5.431
 1630SOL    HW2 5790   6.664   4.432   5.338
 1631SOL     OW 5791   0.573   2.918   0.338
 1631SOL    HW1 5792   0.525   2.886   0.257
 1631SOL    HW2 5793   0.523   2.993   0.380
 1632SOL     OW 5794   4.887   3.297   2.662
 1632SOL    HW1 5795   4.842   3.372   2.614
 1632SOL    HW2 5796   4.863   3.210   2.617
 1633SOL     OW 5797   5.102   4.278   4.735
 1633SOL    HW1 5798   5.118   4.195   4.789
 1633SOL    HW2 5799   5.009   4.276   4.698
 1634SOL     OW 5800   4.774   0.707   4.188
 1634SOL    HW1 5801   4.740   0.764   4.263
 1634SOL    HW2 5802   4.833   0.761   4.128
 1635SOL     OW 5803   0.620   5.086   6.765
 1635SOL    HW1 5804   0.694   5.022   6.784
 1635SOL    HW2 5805   0.618   5.157   6.836
 1636SOL     OW 5806   3.214   5.107   1.740
 1636SOL    HW1 5807   3.208   5.185   1.803
 1636SOL    HW2 5808   3.305   5.066   1.747
 1637SOL     OW 5809   6.899   6.705   3.765
 1637SOL    HW1 5810   6.981   6.735   3.715
 1637SOL    HW2 5811   6.895   6.606   3.764
 1638SOL     OW 5812   0.904   3.051   2.366
 1638SOL    HW1 5813   0.962   2.988   2.315
 1638SOL    HW2 5814   0.892   3.135   2.313
 1639SOL     OW 5815   5.822   5.232   2.181
 1639SOL    HW1 5816   5.781   5.167   2.117
 1639SOL    HW2 5817   5.857   5.311   2.131
 1640SOL     OW 5818   5.974   6.892   6.856
 1640SOL    HW1 5819   5.950   6.936   6.770
 1640SOL    HW2 5820   6.072   6.901   6.873
 1641SOL     OW 5821   6.789   2.340   3.135
 1641SOL    HW1 5822   6.875   2.291   3.122
 1641SOL    HW2 5823   6.744   2.353   3.047
 1642SOL     OW 5824   6.765   3.300   6.550
 1642SOL    HW1 5825   6.702   3.224   6.564
 1642SOL    HW2 5826   6.720   3.372   6.497
 1643SOL     OW 5827   2.591   4.686   2.941
 1643SOL    HW1 5828   2.542   4.765   2.980
 1643SOL    HW2 5829   2.677   4.717   2.900
 1644SOL     OW 5830   5.537   3.368   6.588
 1644SOL    HW1 5831   5.471   3.401   6.521
 1644SOL    HW2 5832   5.534   3.269   6.592
 1645SOL     OW 5833   3.199   6.369   6.035
 1645SOL    HW1 5834   3.113   6.360   5.985
 1645SOL    HW2 5835   3.228   6.465   6.035
 1646SOL     OW 5836   2.362   6.897   0.321
 1646SOL    HW1 5837   2.424   6.820   0.305
 1646SOL    HW2 5838   2.269   6.870   0.295
 1647SOL     OW 5839   6.378   2.248   4.250
 1647SOL    HW1 5840   6.304   2.315   4.251
 1647SOL    HW2 5841   6.420   2.247   4.159
 1648SOL     OW 5842   5.638   6.555   0.564
 1648SOL    HW1 5843   5.618   6.634   0.622
 1648SOL    HW2 5844   5.653   6.585   0.470
 1649SOL     OW 5845   3.614   1.307   4.781
 1649SOL    HW1 5846   3.565   1.286   4.866
 1649SOL    HW2 5847   3.552   1.293   4.703
 1650SOL     OW 5848   1.050   5.753   4.997
 1650SOL    HW1 5849   1.048   5.776   4.899
 1650SOL    HW2 5850   1.109   5.674   5.011
 1651SOL     OW 5851   0.813   2.377   2.435
 1651SOL    HW1 5852   0.824   2.291   2.386
 1651SOL    HW2 5853   0.715   2.395   2.449
 1652SOL     OW 5854   1.211   3.619   2.209
 1652SOL    HW1 5855   1.191   3.546   2.143
 1652SOL    HW2 5856   1.188   3.588   2.301
 1653SOL     OW 5857   0.285   6.470   1.139
 1653SOL    HW1 5858   0.322   6.526   1.214
 1653SOL    HW2 5859   0.319   6.504   1.052
 1654SOL     OW 5860   6.745   3.365   1.053
 1654SOL    HW1 5861   6.686   3.417   0.992
 1654SOL    HW2 5862   6.828   3.418   1.072
 1655SOL     OW 5863   6.873   1.606   4.338
 1655SOL    HW1 5864   6.858   1.536   4.407
 1655SOL    HW2 5865   6.955   1.585   4.285
 1656SOL     OW 5866   1.781   5.419   3.079
 1656SOL    HW1 5867   1.825   5.478   3.147
 1656SOL    HW2 5868   1.762   5.330   3.121
 1657SOL     OW 5869   5.732   0.266   4.240
 1657SOL    HW1 5870   5.709   0.361   4.217
 1657SOL    HW2 5871   5.769   0.221   4.159
 1658SOL     OW 5872   6.481   0.130   1.096
 1658SOL    HW1 5873   6.496   0.180   1.181
 1658SOL    HW2 5874   6.398   0.165   1.051
 1659SOL     OW 5875   3.537   0.242   0.066
 1659SOL    HW1 5876   3.518   0.279   7.002
 1659SOL    HW2 5877   3.483   0.159   0.081
 1660SOL     OW 5878   2.059   6.451   2.437
 1660SOL    HW1 5879   2.111   6.537   2.433
 1660SOL    HW2 5880   2.121   6.374   2.422
 1661SOL     OW 5881   1.817   5.794   1.623
 1661SOL    HW1 5882   1.788   5.770   1.715
 1661SOL    HW2 5883   1.916   5.784   1.615
 1662SOL     OW 5884   0.143   1.012   4.218
 1662SOL    HW1 5885   0.184   1.069   4.147
 1662SOL    HW2 5886   0.068   1.061   4.261
 1663SOL     OW 5887   4.909   5.324   3.402
 1663SOL    HW1 5888   4.831   5.275   3.439
 1663SOL    HW2 5889   4.914   5.416   3.442
 1664SOL     OW 5890   1.973   6.054   5.565
 1664SOL    HW1 5891   1.889   5.999   5.570
 1664SOL    HW2 5892   1.981   6.095   5.475
 1665SOL     OW 5893   6.417   3.697   1.608
 1665SOL    HW1 5894   6.335   3.699   1.665
 1665SOL    HW2 5895   6.456   3.605   1.608
 1666SOL     OW 5896   5.467   0.378   0.272
 1666SOL    HW1 5897   5.558   0.367   0.313
 1666SOL    HW2 5898   5.470   0.350   0.176
 1667SOL     OW 5899   6.837   5.822   1.744
 1667SOL    HW1 5900   6.752   5.794   1.788
 1667SOL    HW2 5901   6.895   5.742   1.730
 1668SOL     OW 5902   5.162   4.942   3.890
 1668SOL    HW1 5903   5.144   4.940   3.989
 1668SOL    HW2 5904   5.188   5.035   3.863
 1669SOL     OW 5905   6.808   4.920   6.131
 1669SOL    HW1 5906   6.736   4.856   6.105
 1669SOL    HW2 5907   6.801   4.940   6.229
 1670SOL     OW 5908   0.526   4.708   5.174
 1670SOL    HW1 5909   0.539   4.618   5.131
 1670SOL    HW2 5910   0.560   4.705   5.268
 1671SOL     OW 5911   5.652   1.164   3.282
 1671SOL    HW1 5912   5.712   1.139   3.357
 1671SOL    HW2 5913   5.705   1.172   3.198
 1672SOL     OW 5914   2.567   3.716   0.427
 1672SOL    HW1 5915   2.602   3.630   0.392
 1672SOL    HW2 5916   2.467   3.710   0.438
 1673SOL     OW 5917   1.012   1.526   4.632
 1673SOL    HW1 5918   1.074   1.567   4.698
 1673SOL    HW2 5919   1.042   1.434   4.609
 1674SOL     OW 5920   0.408   3.382   2.110
 1674SOL    HW1 5921   0.336   3.444   2.140
 1674SOL    HW2 5922   0.396   3.293   2.152
 1675SOL     OW 5923   4.645   0.428   0.052
 1675SOL    HW1 5924   4.699   0.400   0.132
 1675SOL    HW2 5925   4.643   0.528   0.046
 1676SOL     OW 5926   2.067   2.733   2.214
 1676SOL    HW1 5927   2.158   2.749   2.174
 1676SOL    HW2 5928   2.076   2.725   2.314
 1677SOL     OW 5929   4.035   3.680   3.794
 1677SOL    HW1 5930   4.044   3.727   3.882
 1677SOL    HW2 5931   4.055   3.583   3.806
 1678SOL     OW 5932   6.878   5.221   1.995
 1678SOL    HW1 5933   6.951   5.289   1.987
 1678SOL    HW2 5934   6.843   5.199   1.904
 1679SOL     OW 5935   1.518   1.423   4.521
 1679SOL    HW1 5936   1.453   1.415   4.445
 1679SOL    HW2 5937   1.608   1.392   4.491
 1680SOL     OW 5938   6.395   4.359   5.722
 1680SOL    HW1 5939   6.451   4.441   5.730
 1680SOL    HW2 5940   6.398   4.309   5.809
 1681SOL     OW 5941   1.226   6.082   6.088
 1681SOL    HW1 5942   1.267   6.017   6.023
 1681SOL    HW2 5943   1.159   6.139   6.039
 1682SOL     OW 5944   1.773   0.672   5.572
 1682SOL    HW1 5945   1.795   0.738   5.501
 1682SOL    HW2 5946   1.736   0.721   5.652
 1683SOL     OW 5947   6.263   5.517   2.499
 1683SOL    HW1 5948   6.330   5.553   2.433
 1683SOL    HW2 5949   6.284   5.421   2.518
 1684SOL     OW 5950   0.269   5.507   2.218
 1684SOL    HW1 5951   0.317   5.585   2.179
 1684SOL    HW2 5952   0.334   5.447   2.264
 1685SOL     OW 5953   2.114   1.355   5.943
 1685SOL    HW1 5954   2.045   1.377   5.875
 1685SOL    HW2 5955   2.202   1.338   5.898
 1686SOL     OW 5956   3.072   6.138   4.420
 1686SOL    HW1 5957   3.109   6.045   4.418
 1686SOL    HW2 5958   3.046   6.166   4.327
 1687SOL     OW 5959   1.139   2.521   1.790
 1687SOL    HW1 5960   1.066   2.456   1.808
 1687SOL    HW2 5961   1.192   2.536   1.873
 1688SOL     OW 5962   1.577   1.218   3.770
 1688SOL    HW1 5963   1.596   1.297   3.711
 1688SOL    HW2 5964   1.662   1.185   3.809
 1689SOL     OW 5965   6.132   0.609   2.644
 1689SOL    HW1 5966   6.095   0.523   2.609
 1689SOL    HW2 5967   6.066   0.650   2.708
 1690SOL     OW 5968   1.605   3.156   4.561
 1690SOL    HW1 5969   1.508   3.174   4.543
 1690SOL    HW2 5970   1.613   3.081   4.627
 1691SOL     OW 5971   6.205   3.379   4.019
 1691SOL    HW1 5972   6.137   3.450   3.999
 1691SOL    HW2 5973   6.178   3.294   3.973
 1692SOL     OW 5974   4.936   6.233   1.564
 1692SOL    HW1 5975   4.862   6.284   1.607
 1692SOL    HW2 5976   5.021   6.247   1.616
 1693SOL     OW 5977   6.867   2.536   3.315
 1693SOL    HW1 5978   6.953   2.495   3.284
 1693SOL    HW2 5979   6.791   2.496   3.264
 1694SOL     OW 5980   6.556   1.617   3.857
 1694SOL    HW1 5981   6.584   1.639   3.950
 1694SOL    HW2 5982   6.537   1.701   3.807
 1695SOL     OW 5983   2.959   0.598   6.477
 1695SOL    HW1 5984   2.973   0.640   6.388
 1695SOL    HW2 5985   2.862   0.603   6.501
 1696SOL     OW 5986   3.172   5.884   0.997
 1696SOL    HW1 5987   3.251   5.877   0.936
 1696SOL    HW2 5988   3.121   5.968   0.976
 1697SOL     OW 5989   6.619   1.458   0.780
 1697SOL    HW1 5990   6.570   1.383   0.736
 1697SOL    HW2 5991   6.674   1.423   0.855
 1698SOL     OW 5992   4.005   0.161   1.387
 1698SOL    HW1 5993   3.976   0.193   1.478
 1698SOL    HW2 5994   3.978   0.066   1.376
 1699SOL     OW 5995   1.768   1.721   5.774
 1699SOL    HW1 5996   1.787   1.817   5.755
 1699SOL    HW2 5997   1.795   1.665   5.696
 1700SOL     OW 5998   6.597   3.974   2.926
 1700SOL    HW1 5999   6.614   4.009   2.834
 1700SOL    HW2 6000   6.503   3.940   2.931
 1701SOL     OW 6001   5.816   6.137   5.515
 1701SOL    HW1 6002   5.725   6.097   5.518
 1701SOL    HW2 6003   5.882   6.069   5.483
 1702SOL     OW 6004   0.050   1.215   1.294
 1702SOL    HW1 6005   0.132   1.170   1.331
 1702SOL    HW2 6006   0.049   1.205   1.194
 1703SOL     OW 6007   3.684   1.250   6.887
 1703SOL    HW1 6008   3.673   1.239   6.788
 1703SOL    HW2 6009   3.767   1.201   6.917
 1704SOL     OW 6010   1.372   2.643   0.378
 1704SOL    HW1 6011   1.336   2.592   0.300
 1704SOL    HW2 6012   1.312   2.630   0.457
 1705SOL     OW 6013   3.606   2.244   1.587
 1705SOL    HW1 6014   3.556   2.158   1.599
 1705SOL    HW2 6015   3.614   2.291   1.675
 1706SOL     OW 6016   4.178   1.960   2.050
 1706SOL    HW1 6017   4.211   1.899   2.123
 1706SOL    HW2 6018   4.190   2.055   2.078
 1707SOL     OW 6019   4.801   2.559   2.678
 1707SOL    HW1 6020   4.799   2.652   2.641
 1707SOL    HW2 6021   4.731   2.550   2.749
 1708SOL     OW 6022   4.273   5.360   1.464
 1708SOL    HW1 6023   4.296   5.430   1.531
 1708SOL    HW2 6024   4.185   5.319   1.487
 1709SOL     OW 6025   3.422   6.603   2.139
 1709SOL    HW1 6026   3.413   6.702   2.128
 1709SOL    HW2 6027   3.334   6.564   2.165
 1710SOL     OW 6028   4.284   4.903   3.679
 1710SOL    HW1 6029   4.335   4.839   3.621
 1710SOL    HW2 6030   4.342   4.982   3.699
 1711SOL     OW 6031   1.982   5.476   4.691
 1711SOL    HW1 6032   2.070   5.506   4.653
 1711SOL    HW2 6033   1.917   5.461   4.616
 1712SOL     OW 6034   0.084   2.064   4.914
 1712SOL    HW1 6035   0.079   2.048   5.013
 1712SOL    HW2 6036   0.137   2.147   4.896
 1713SOL     OW 6037   4.249   1.338   2.567
 1713SOL    HW1 6038   4.257   1.299   2.475
 1713SOL    HW2 6039   4.329   1.396   2.586
 1714SOL     OW 6040   4.143   1.583   5.715
 1714SOL    HW1 6041   4.141   1.494   5.760
 1714SOL    HW2 6042   4.196   1.647   5.771
 1715SOL     OW 6043   1.934   6.307   3.150
 1715SOL    HW1 6044   1.906   6.286   3.057
 1715SOL    HW2 6045   2.027   6.344   3.149
 1716SOL     OW 6046   4.372   0.327   3.993
 1716SOL    HW1 6047   4.327   0.404   4.039
 1716SOL    HW2 6048   4.470   0.345   3.986
 1717SOL     OW 6049   3.160   5.858   4.407
 1717SOL    HW1 6050   3.217   5.840   4.487
 1717SOL    HW2 6051   3.208   5.828   4.324
 1718SOL     OW 6052   2.516   1.352   2.238
 1718SOL    HW1 6053   2.485   1.447   2.229
 1718SOL    HW2 6054   2.458   1.303   2.302
 1719SOL     OW 6055   1.981   3.509   1.038
 1719SOL    HW1 6056   2.016   3.473   0.951
 1719SOL    HW2 6057   2.057   3.530   1.099
 1720SOL     OW 6058   0.120   3.073   6.116
 1720SOL    HW1 6059   0.165   2.996   6.071
 1720SOL    HW2 6060   0.092   3.046   6.208
 1721SOL     OW 6061   1.522   0.032   1.358
 1721SOL    HW1 6062   1.580   6.979   1.342
 1721SOL    HW2 6063   1.550   0.076   1.443
 1722SOL     OW 6064   4.457   1.395   3.489
 1722SOL    HW1 6065   4.462   1.439   3.579
 1722SOL    HW2 6066   4.457   1.295   3.501
 1723SOL     OW 6067   4.800   2.705   0.176
 1723SOL    HW1 6068   4.807   2.652   0.260
 1723SOL    HW2 6069   4.788   2.643   0.098
 1724SOL     OW 6070   6.911   2.556   1.850
 1724SOL    HW1 6071   6.847   2.488   1.815
 1724SOL    HW2 6072   6.915   2.633   1.787
 1725SOL     OW 6073   1.890   5.152   0.106
 1725SOL    HW1 6074   1.910   5.233   0.161
 1725SOL    HW2 6075   1.957   5.081   0.127
 1726SOL     OW 6076   5.185   3.763   4.540
 1726SOL    HW1 6077   5.266   3.747   4.596
 1726SOL    HW2 6078   5.105   3.723   4.585
 1727SOL     OW 6079   4.074   3.697   3.521
 1727SOL    HW1 6080   4.032   3.661   3.605
 1727SOL    HW2 6081   4.164   3.654   3.508
 1728SOL     OW 6082   5.453   4.684   5.391
 1728SOL    HW1 6083   5.522   4.613   5.410
 1728SOL    HW2 6084   5.447   4.746   5.468
 1729SOL     OW 6085   1.701   3.362   3.110
 1729SOL    HW1 6086   1.699   3.292   3.182
 1729SOL    HW2 6087   1.654   3.328   3.029
 1730SOL     OW 6088   2.838   0.070   4.903
 1730SOL    HW1 6089   2.775   7.021   4.893
 1730SOL    HW2 6090   2.932   0.036   4.908
 1731SOL     OW 6091   6.436   4.547   3.361
 1731SOL    HW1 6092   6.529   4.561   3.328
 1731SOL    HW2 6093   6.439   4.495   3.447
 1732SOL     OW 6094   2.167   4.762   6.524
 1732SOL    HW1 6095   2.082   4.723   6.487
 1732SOL    HW2 6096   2.174   4.740   6.621
 1733SOL     OW 6097   1.967   4.127   1.876
 1733SOL    HW1 6098   1.961   4.226   1.866
 1733SOL    HW2 6099   1.928   4.083   1.794
 1734SOL     OW 6100   5.907   2.716   1.845
 1734SOL    HW1 6101   5.890   2.779   1.921
 1734SOL    HW2 6102   5.939   2.628   1.881
 1735SOL     OW 6103   4.873   5.562   6.055
 1735SOL    HW1 6104   4.923   5.499   5.997
 1735SOL    HW2 6105   4.889   5.656   6.024
 1736SOL     OW 6106   3.900   3.481   0.658
 1736SOL    HW1 6107   3.817   3.429   0.636
 1736SOL    HW2 6108   3.931   3.456   0.750
 1737SOL     OW 6109   5.092   6.647   4.736
 1737SOL    HW1 6110   5.135   6.726   4.692
 1737SOL    HW2 6111   5.130   6.636   4.828
 1738SOL     OW 6112   2.277   2.996   3.665
 1738SOL    HW1 6113   2.259   2.919   3.726
 1738SOL    HW2 6114   2.274   3.081   3.717
 1739SOL     OW 6115   6.512   1.315   4.637
 1739SOL    HW1 6116   6.525   1.364   4.723
 1739SOL    HW2 6117   6.418   1.283   4.631
 1740SOL     OW 6118   6.866   1.791   4.958
 1740SOL    HW1 6119   6.811   1.781   4.876
 1740SOL    HW2 6120   6.821   1.855   5.021
 1741SOL     OW 6121   2.576   1.094   4.710
 1741SOL    HW1 6122   2.572   1.078   4.611
 1741SOL    HW2 6123   2.577   1.192   4.728
 1742SOL     OW 6124   5.376   0.615   5.860
 1742SOL    HW1 6125   5.401   0.541   5.923
 1742SOL    HW2 6126   5.447   0.686   5.864
 1743SOL     OW 6127   0.564   0.988   2.590
 1743SOL    HW1 6128   0.474   1.009   2.627
 1743SOL    HW2 6129   0.556   0.952   2.497
 1744SOL     OW 6130   5.752   3.190   2.887
 1744SOL    HW1 6131   5.742   3.277   2.839
 1744SOL    HW2 6132   5.708   3.195   2.976
 1745SOL     OW 6133   5.595   6.199   2.424
 1745SOL    HW1 6134   5.662   6.238   2.487
 1745SOL    HW2 6135   5.569   6.107   2.454
 1746SOL     OW 6136   1.567   4.418   4.050
 1746SOL    HW1 6137   1.636   4.378   4.110
 1746SOL    HW2 6138   1.478   4.413   4.094
 1747SOL     OW 6139   3.494   1.478   2.838
 1747SOL    HW1 6140   3.433   1.454   2.763
 1747SOL    HW2 6141   3.447   1.463   2.925
 1748SOL     OW 6142   6.589   2.076   4.194
 1748SOL    HW1 6143   6.511   2.120   4.238
 1748SOL    HW2 6144   6.645   2.146   4.149
 1749SOL     OW 6145   2.114   6.957   6.383
 1749SOL    HW1 6146   2.197   6.921   6.424
 1749SOL    HW2 6147   2.042   6.889   6.388
 1750SOL     OW 6148   5.482   0.603   3.601
 1750SOL    HW1 6149   5.412   0.625   3.534
 1750SOL    HW2 6150   5.478   0.668   3.677
 1751SOL     OW 6151   5.539   1.372   4.929
 1751SOL    HW1 6152   5.562   1.386   4.833
 1751SOL    HW2 6153   5.562   1.455   4.981
 1752SOL     OW 6154   5.898   0.505   1.395
 1752SOL    HW1 6155   5.884   0.602   1.375
 1752SOL    HW2 6156   5.815   0.465   1.432
 1753SOL     OW 6157   6.780   0.835   1.946
 1753SOL    HW1 6158   6.725   0.761   1.908
 1753SOL    HW2 6159   6.873   0.802   1.962
 1754SOL     OW 6160   1.684   5.397   6.639
 1754SOL    HW1 6161   1.741   5.319   6.666
 1754SOL    HW2 6162   1.741   5.465   6.592
 1755SOL     OW 6163   0.179   6.173   6.818
 1755SOL    HW1 6164   0.139   6.127   6.739
 1755SOL    HW2 6165   0.127   6.256   6.838
 1756SOL     OW 6166   4.395   5.930   6.225
 1756SOL    HW1 6167   4.425   6.003   6.286
 1756SOL    HW2 6168   4.392   5.844   6.275
 1757SOL     OW 6169   3.606   5.670   5.179
 1757SOL    HW1 6170   3.507   5.656   5.180
 1757SOL    HW2 6171   3.650   5.606   5.241
 1758SOL     OW 6172   1.808   0.663   4.509
 1758SOL    HW1 6173   1.785   0.705   4.421
 1758SOL    HW2 6174   1.726   0.658   4.566
 1759SOL     OW 6175   1.814   6.550   5.616
 1759SOL    HW1 6176   1.837   6.564   5.712
 1759SOL    HW2 6177   1.897   6.554   5.561
 1760SOL     OW 6178   5.905   0.874   3.858
 1760SOL    HW1 6179   5.970   0.853   3.785
 1760SOL    HW2 6180   5.868   0.966   3.845
 1761SOL     OW 6181   6.637   0.663   1.495
 1761SOL    HW1 6182   6.581   0.582   1.479
 1761SOL    HW2 6183   6.712   0.665   1.430
 1762SOL     OW 6184   0.171   1.917   4.286
 1762SOL    HW1 6185   0.198   1.884   4.195
 1762SOL    HW2 6186   0.130   1.842   4.338
 1763SOL     OW 6187   1.273   4.822   4.509
 1763SOL    HW1 6188   1.291   4.809   4.411
 1763SOL    HW2 6189   1.354   4.794   4.562
 1764SOL     OW 6190   0.926   3.600   2.258
 1764SOL    HW1 6191   0.957   3.537   2.187
 1764SOL    HW2 6192   0.909   3.550   2.342
 1765SOL     OW 6193   3.616   1.545   1.423
 1765SOL    HW1 6194   3.584   1.598   1.344
 1765SOL    HW2 6195   3.671   1.604   1.482
 1766SOL     OW 6196   5.354   4.479   4.027
 1766SOL    HW1 6197   5.375   4.409   4.095
 1766SOL    HW2 6198   5.378   4.569   4.063
 1767SOL     OW 6199   0.872   4.833   3.376
 1767SOL    HW1 6200   0.810   4.900   3.334
 1767SOL    HW2 6201   0.935   4.881   3.436
 1768SOL     OW 6202   3.524   0.910   6.702
 1768SOL    HW1 6203   3.424   0.916   6.712
 1768SOL    HW2 6204   3.557   0.990   6.653
 1769SOL     OW 6205   5.675   0.915   0.073
 1769SOL    HW1 6206   5.607   0.850   0.039
 1769SOL    HW2 6207   5.639   1.008   0.064
 1770SOL     OW 6208   0.533   4.416   5.135
 1770SOL    HW1 6209   0.549   4.407   5.233
 1770SOL    HW2 6210   0.615   4.387   5.085
 1771SOL     OW 6211   1.491   5.055   0.647
 1771SOL    HW1 6212   1.406   5.106   0.639
 1771SOL    HW2 6213   1.568   5.118   0.642
 1772SOL     OW 6214   3.513   5.489   4.010
 1772SOL    HW1 6215   3.581   5.474   3.939
 1772SOL    HW2 6216   3.424   5.453   3.979
 1773SOL     OW 6217   1.982   2.175   5.689
 1773SOL    HW1 6218   1.958   2.203   5.596
 1773SOL    HW2 6219   1.963   2.251   5.752
 1774SOL     OW 6220   5.293   6.192   2.238
 1774SOL    HW1 6221   5.358   6.257   2.198
 1774SOL    HW2 6222   5.337   6.145   2.315
 1775SOL     OW 6223   2.368   5.963   6.320
 1775SOL    HW1 6224   2.326   5.873   6.336
 1775SOL    HW2 6225   2.392   5.971   6.223
 1776SOL     OW 6226   5.135   0.704   6.016
 1776SOL    HW1 6227   5.187   0.676   5.936
 1776SOL    HW2 6228   5.150   0.802   6.033
 1777SOL     OW 6229   3.701   6.857   6.315
 1777SOL    HW1 6230   3.764   6.914   6.262
 1777SOL    HW2 6231   3.748   6.772   6.341
 1778SOL     OW 6232   4.682   1.518   4.538
 1778SOL    HW1 6233   4.742   1.442   4.562
 1778SOL    HW2 6234   4.643   1.557   4.622
 1779SOL     OW 6235   4.706   0.114   5.704
 1779SOL    HW1 6236   4.752   0.074   5.625
 1779SOL    HW2 6237   4.709   0.051   5.781
 1780SOL     OW 6238   1.662   3.939   5.156
 1780SOL    HW1 6239   1.720   3.958   5.235
 1780SOL    HW2 6240   1.567   3.936   5.185
 1781SOL     OW 6241   5.228   6.918   5.224
 1781SOL    HW1 6242   5.235   7.014   5.196
 1781SOL    HW2 6243   5.320   6.883   5.244
 1782SOL     OW 6244   2.376   1.350   2.808
 1782SOL    HW1 6245   2.326   1.265   2.789
 1782SOL    HW2 6246   2.346   1.421   2.745
 1783SOL     OW 6247   2.374   3.420   6.202
 1783SOL    HW1 6248   2.461   3.454   6.239
 1783SOL    HW2 6249   2.393   3.343   6.141
 1784SOL     OW 6250   2.325   1.286   1.743
 1784SOL    HW1 6251   2.411   1.311   1.788
 1784SOL    HW2 6252   2.341   1.210   1.680
 1785SOL     OW 6253   0.118   6.508   4.451
 1785SOL    HW1 6254   0.172   6.441   4.400
 1785SOL    HW2 6255   0.022   6.479   4.451
 1786SOL     OW 6256   2.103   5.320   0.797
 1786SOL    HW1 6257   2.108   5.349   0.701
 1786SOL    HW2 6258   2.009   5.296   0.819
 1787SOL     OW 6259   1.653   1.992   5.534
 1787SOL    HW1 6260   1.590   2.023   5.463
 1787SOL    HW2 6261   1.747   2.015   5.509
 1788SOL     OW 6262   4.715   3.986   6.435
 1788SOL    HW1 6263   4.782   4.061   6.432
 1788SOL    HW2 6264   4.689   3.961   6.342
 1789SOL     OW 6265   6.256   2.824   1.782
 1789SOL    HW1 6266   6.306   2.909   1.799
 1789SOL    HW2 6267   6.280   2.789   1.692
 1790SOL     OW 6268   2.779   1.380   4.024
 1790SOL    HW1 6269   2.849   1.361   4.093
 1790SOL    HW2 6270   2.751   1.476   4.031
 1791SOL     OW 6271   6.614   1.248   3.130
 1791SOL    HW1 6272   6.602   1.229   3.227
 1791SOL    HW2 6273   6.625   1.346   3.116
 1792SOL     OW 6274   0.135   2.264   4.270
 1792SOL    HW1 6275   0.222   2.219   4.290
 1792SOL    HW2 6276   0.060   2.208   4.305
 1793SOL     OW 6277   6.354   1.491   4.410
 1793SOL    HW1 6278   6.434   1.530   4.364
 1793SOL    HW2 6279   6.304   1.432   4.347
 1794SOL     OW 6280   5.651   0.052   5.716
 1794SOL    HW1 6281   5.734   7.024   5.715
 1794SOL    HW2 6282   5.672   0.142   5.753
 1795SOL     OW 6283   5.982   5.144   1.344
 1795SOL    HW1 6284   6.023   5.226   1.302
 1795SOL    HW2 6285   6.009   5.139   1.440
 1796SOL     OW 6286   2.153   1.298   5.608
 1796SOL    HW1 6287   2.092   1.377   5.605
 1796SOL    HW2 6288   2.219   1.304   5.532
 1797SOL     OW 6289   0.971   0.310   5.501
 1797SOL    HW1 6290   0.954   0.282   5.595
 1797SOL    HW2 6291   1.021   0.397   5.500
 1798SOL     OW 6292   3.714   2.904   4.834
 1798SOL    HW1 6293   3.726   2.828   4.770
 1798SOL    HW2 6294   3.803   2.940   4.861
 1799SOL     OW 6295   3.851   2.749   6.538
 1799SOL    HW1 6296   3.903   2.738   6.623
 1799SOL    HW2 6297   3.913   2.775   6.464
 1800SOL     OW 6298   5.226   4.582   3.692
 1800SOL    HW1 6299   5.276   4.497   3.675
 1800SOL    HW2 6300   5.140   4.581   3.640
 1801SOL     OW 6301   0.748   2.161   1.946
 1801SOL    HW1 6302   0.770   2.109   1.863
 1801SOL    HW2 6303   0.678   2.112   1.998
 1802SOL     OW 6304   6.196   5.562   3.045
 1802SOL    HW1 6305   6.170   5.567   2.949
 1802SOL    HW2 6306   6.148   5.485   3.088
 1803SOL     OW 6307   0.151   6.648   2.625
 1803SOL    HW1 6308   0.095   6.680   2.549
 1803SOL    HW2 6309   0.244   6.683   2.616
 1804SOL     OW 6310   3.528   3.135   5.690
 1804SOL    HW1 6311   3.450   3.159   5.632
 1804SOL    HW2 6312   3.575   3.218   5.718
 1805SOL     OW 6313   1.062   5.517   6.256
 1805SOL    HW1 6314   1.092   5.595   6.310
 1805SOL    HW2 6315   1.017   5.549   6.173
 1806SOL     OW 6316   0.382   2.821   2.363
 1806SOL    HW1 6317   0.353   2.890   2.429
 1806SOL    HW2 6318   0.475   2.841   2.333
 1807SOL     OW 6319   6.017   3.736   6.894
 1807SOL    HW1 6320   6.013   3.692   6.804
 1807SOL    HW2 6321   5.935   3.792   6.907
 1808SOL     OW 6322   6.096   3.458   4.503
 1808SOL    HW1 6323   6.125   3.373   4.548
 1808SOL    HW2 6324   6.066   3.524   4.572
 1809SOL     OW 6325   3.203   1.277   5.366
 1809SOL    HW1 6326   3.204   1.181   5.337
 1809SOL    HW2 6327   3.116   1.296   5.412
 1810SOL     OW 6328   0.134   1.102   4.853
 1810SOL    HW1 6329   0.217   1.054   4.826
 1810SOL    HW2 6330   0.059   1.037   4.863
 1811SOL     OW 6331   4.775   4.888   1.640
 1811SOL    HW1 6332   4.845   4.878   1.569
 1811SOL    HW2 6333   4.687   4.907   1.598
 1812SOL     OW 6334   4.240   6.661   6.038
 1812SOL    HW1 6335   4.239   6.600   6.118
 1812SOL    HW2 6336   4.335   6.675   6.008
 1813SOL     OW 6337   4.657   4.384   2.283
 1813SOL    HW1 6338   4.604   4.300   2.290
 1813SOL    HW2 6339   4.606   4.451   2.229
 1814SOL     OW 6340   6.248   6.680   0.372
 1814SOL    HW1 6341   6.251   6.580   0.370
 1814SOL    HW2 6342   6.329   6.715   0.419
 1815SOL     OW 6343   5.614   6.507   2.929
 1815SOL    HW1 6344   5.591   6.536   2.836
 1815SOL    HW2 6345   5.588   6.412   2.942
 1816SOL     OW 6346   3.874   5.494   6.460
 1816SOL    HW1 6347   3.843   5.427   6.392
 1816SOL    HW2 6348   3.815   5.575   6.457
 1817SOL     OW 6349   3.419   1.352   3.277
 1817SOL    HW1 6350   3.408   1.368   3.375
 1817SOL    HW2 6351   3.517   1.354   3.254
 1818SOL     OW 6352   1.935   6.665   0.485
 1818SOL    HW1 6353   1.986   6.686   0.568
 1818SOL    HW2 6354   1.944   6.567   0.464
 1819SOL     OW 6355   1.377   4.880   2.143
 1819SOL    HW1 6356   1.351   4.959   2.088
 1819SOL    HW2 6357   1.413   4.911   2.231
 1820SOL     OW 6358   3.918   0.604   3.191
 1820SOL    HW1 6359   3.833   0.644   3.158
 1820SOL    HW2 6360   3.992   0.670   3.180
 1821SOL     OW 6361   3.644   1.395   1.660
 1821SOL    HW1 6362   3.633   1.457   1.583
 1821SOL    HW2 6363   3.586   1.314   1.647
 1822SOL     OW 6364   1.254   3.209   2.026
 1822SOL    HW1 6365   1.350   3.211   1.999
 1822SOL    HW2 6366   1.197   3.200   1.945
 1823SOL     OW 6367   2.891   6.443   3.666
 1823SOL    HW1 6368   2.820   6.382   3.701
 1823SOL    HW2 6369   2.883   6.532   3.710
 1824SOL     OW 6370   3.712   4.011   0.427
 1824SOL    HW1 6371   3.808   3.983   0.417
 1824SOL    HW2 6372   3.662   3.987   0.344
 1825SOL     OW 6373   0.211   3.041   5.103
 1825SOL    HW1 6374   0.139   3.104   5.132
 1825SOL    HW2 6375   0.291   3.053   5.162
 1826SOL     OW 6376   3.881   1.521   0.591
 1826SOL    HW1 6377   3.795   1.523   0.641
 1826SOL    HW2 6378   3.917   1.427   0.591
 1827SOL     OW 6379   5.117   5.437   0.821
 1827SOL    HW1 6380   5.157   5.515   0.772
 1827SOL    HW2 6381   5.181   5.406   0.891
 1828SOL     OW 6382   1.949   3.483   6.800
 1828SOL    HW1 6383   1.883   3.426   6.751
 1828SOL    HW2 6384   1.979   3.434   6.882
 1829SOL     OW 6385   3.583   0.248   3.416
 1829SOL    HW1 6386   3.589   0.249   3.516
 1829SOL    HW2 6387   3.666   0.289   3.378
 1830SOL     OW 6388   6.111   6.799   4.886
 1830SOL    HW1 6389   6.064   6.758   4.808
 1830SOL    HW2 6390   6.067   6.886   4.910
 1831SOL     OW 6391   4.619   6.024   2.633
 1831SOL    HW1 6392   4.652   5.940   2.676
 1831SOL    HW2 6393   4.691   6.063   2.577
 1832SOL     OW 6394   2.917   3.240   0.193
 1832SOL    HW1 6395   2.930   3.158   0.248
 1832SOL    HW2 6396   3.005   3.287   0.181
 1833SOL     OW 6397   4.915   0.083   1.104
 1833SOL    HW1 6398   4.924   0.071   1.005
 1833SOL    HW2 6399   4.998   0.125   1.140
 1834SOL     OW 6400   3.026   2.828   1.221
 1834SOL    HW1 6401   2.948   2.765   1.213
 1834SOL    HW2 6402   3.092   2.790   1.286
 1835SOL     OW 6403   0.267   5.140   1.542
 1835SOL    HW1 6404   0.277   5.079   1.463
 1835SOL    HW2 6405   0.241   5.231   1.510
 1836SOL     OW 6406   5.807   2.020   2.097
 1836SOL    HW1 6407   5.779   2.014   2.193
 1836SOL    HW2 6408   5.777   2.108   2.059
 1837SOL     OW 6409   2.070   0.641   5.670
 1837SOL    HW1 6410   2.154   0.694   5.662
 1837SOL    HW2 6411   2.054   0.590   5.586
 1838SOL     OW 6412   6.481   0.433   6.574
 1838SOL    HW1 6413   6.419   0.429   6.652
 1838SOL    HW2 6414   6.545   0.509   6.587
 1839SOL     OW 6415   6.772   1.710   6.548
 1839SOL    HW1 6416   6.690   1.745   6.503
 1839SOL    HW2 6417   6.781   1.753   6.638
 1840SOL     OW 6418   3.932   0.835   2.809
 1840SOL    HW1 6419   3.885   0.902   2.752
 1840SOL    HW2 6420   3.910   0.851   2.905
 1841SOL     OW 6421   2.461   0.916   2.353
 1841SOL    HW1 6422   2.531   0.942   2.285
 1841SOL    HW2 6423   2.371   0.946   2.321
 1842SOL     OW 6424   1.445   4.895   0.345
 1842SOL    HW1 6425   1.489   4.981   0.368
 1842SOL    HW2 6426   1.470   4.868   0.252
 1843SOL     OW 6427   4.667   0.859   4.422
 1843SOL    HW1 6428   4.622   0.948   4.422
 1843SOL    HW2 6429   4.599   0.787   4.413
 1844SOL     OW 6430   5.166   1.926   5.053
 1844SOL    HW1 6431   5.227   1.947   5.130
 1844SOL    HW2 6432   5.147   2.009   5.002
 1845SOL     OW 6433   2.906   0.689   3.146
 1845SOL    HW1 6434   2.877   0.726   3.058
 1845SOL    HW2 6435   2.976   0.620   3.132
 1846SOL     OW 6436   5.472   0.896   2.753
 1846SOL    HW1 6437   5.447   0.823   2.817
 1846SOL    HW2 6438   5.415   0.976   2.769
 1847SOL     OW 6439   1.725   0.598   5.156
 1847SOL    HW1 6440   1.686   0.674   5.208
 1847SOL    HW2 6441   1.825   0.602   5.159
 1848SOL     OW 6442   2.016   6.251   4.185
 1848SOL    HW1 6443   1.918   6.269   4.187
 1848SOL    HW2 6444   2.043   6.206   4.270
 1849SOL     OW 6445   4.981   3.078   1.945
 1849SOL    HW1 6446   4.959   3.150   1.879
 1849SOL    HW2 6447   4.899   3.026   1.967
 1850SOL     OW 6448   5.443   1.482   2.347
 1850SOL    HW1 6449   5.375   1.415   2.317
 1850SOL    HW2 6450   5.496   1.444   2.423
 1851SOL     OW 6451   0.679   3.242   6.565
 1851SOL    HW1 6452   0.715   3.154   6.535
 1851SOL    HW2 6453   0.580   3.235   6.577
 1852SOL     OW 6454   6.712   4.984   1.186
 1852SOL    HW1 6455   6.641   4.924   1.224
 1852SOL    HW2 6456   6.738   4.952   1.095
 1853SOL     OW 6457   0.100   2.669   3.901
 1853SOL    HW1 6458   0.044   2.617   3.837
 1853SOL    HW2 6459   0.196   2.641   3.892
 1854SOL     OW 6460   1.444   5.477   3.641
 1854SOL    HW1 6461   1.505   5.529   3.700
 1854SOL    HW2 6462   1.498   5.433   3.568
 1855SOL     OW 6463   5.486   3.196   4.682
 1855SOL    HW1 6464   5.535   3.229   4.763
 1855SOL    HW2 6465   5.451   3.104   4.700
 1856SOL     OW 6466   4.377   3.283   6.404
 1856SOL    HW1 6467   4.374   3.358   6.338
 1856SOL    HW2 6468   4.306   3.217   6.383
 1857SOL     OW 6469   5.208   1.200   0.526
 1857SOL    HW1 6470   5.157   1.167   0.606
 1857SOL    HW2 6471   5.305   1.179   0.537
 1858SOL     OW 6472   5.283   2.726   3.429
 1858SOL    HW1 6473   5.355   2.692   3.368
 1858SOL    HW2 6474   5.227   2.649   3.460
 1859SOL     OW 6475   5.223   1.902   3.719
 1859SOL    HW1 6476   5.176   1.928   3.634
 1859SOL    HW2 6477   5.268   1.813   3.705
 1860SOL     OW 6478   0.611   2.113   5.201
 1860SOL    HW1 6479   0.543   2.107   5.127
 1860SOL    HW2 6480   0.662   2.199   5.193
 1861SOL     OW 6481   5.614   0.468   2.929
 1861SOL    HW1 6482   5.641   0.558   2.961
 1861SOL    HW2 6483   5.514   0.460   2.931
 1862SOL     OW 6484   1.330   6.999   0.028
 1862SOL    HW1 6485   1.231   6.992   0.039
 1862SOL    HW2 6486   1.359   6.941   6.979
 1863SOL     OW 6487   0.039   2.796   1.147
 1863SOL    HW1 6488   6.999   2.793   1.221
 1863SOL    HW2 6489   0.009   2.861   1.078
 1864SOL     OW 6490   2.860   5.385   4.297
 1864SOL    HW1 6491   2.777   5.397   4.350
 1864SOL    HW2 6492   2.878   5.287   4.284
 1865SOL     OW 6493   3.934   1.086   1.484
 1865SOL    HW1 6494   3.920   1.144   1.403
 1865SOL    HW2 6495   3.953   1.143   1.563
 1866SOL     OW 6496   6.476   4.481   4.354
 1866SOL    HW1 6497   6.565   4.518   4.332
 1866SOL    HW2 6498   6.436   4.532   4.431
 1867SOL     OW 6499   2.384   3.265   0.920
 1867SOL    HW1 6500   2.371   3.364   0.924
 1867SOL    HW2 6501   2.315   3.220   0.978
 1868SOL     OW 6502   4.904   3.694   5.337
 1868SOL    HW1 6503   4.846   3.648   5.270
 1868SOL    HW2 6504   4.876   3.789   5.346
 1869SOL     OW 6505   5.295   2.870   4.306
 1869SOL    HW1 6506   5.314   2.893   4.211
 1869SOL    HW2 6507   5.320   2.775   4.324
 1870SOL     OW 6508   0.753   3.182   4.532
 1870SOL    HW1 6509   0.723   3.207   4.624
 1870SOL    HW2 6510   0.701   3.235   4.465
 1871SOL     OW 6511   6.625   6.391   0.182
 1871SOL    HW1 6512   6.638   6.483   0.145
 1871SOL    HW2 6513   6.540   6.352   0.146
 1872SOL     OW 6514   3.365   2.606   0.559
 1872SOL    HW1 6515   3.412   2.692   0.579
 1872SOL    HW2 6516   3.392   2.537   0.626
 1873SOL     OW 6517   6.284   0.999   6.610
 1873SOL    HW1 6518   6.311   1.028   6.518
 1873SOL    HW2 6519   6.237   0.910   6.604
 1874SOL     OW 6520   1.229   0.799   6.794
 1874SOL    HW1 6521   1.154   0.768   6.852
 1874SOL    HW2 6522   1.235   0.899   6.799
 1875SOL     OW 6523   6.346   5.991   0.552
 1875SOL    HW1 6524   6.341   5.997   0.452
 1875SOL    HW2 6525   6.362   6.082   0.589
 1876SOL     OW 6526   5.390   6.634   5.930
 1876SOL    HW1 6527   5.449   6.682   5.865
 1876SOL    HW2 6528   5.311   6.596   5.881
 1877SOL     OW 6529   6.970   1.344   2.609
 1877SOL    HW1 6530   6.992   1.310   2.517
 1877SOL    HW2 6531   6.908   1.422   2.601
 1878SOL     OW 6532   0.049   4.413   3.278
 1878SOL    HW1 6533   7.021   4.463   3.212
 1878SOL    HW2 6534   7.018   4.351   3.330
 1879SOL     OW 6535   2.687   4.949   4.001
 1879SOL    HW1 6536   2.716   4.951   4.096
 1879SOL    HW2 6537   2.593   4.915   3.995
 1880SOL     OW 6538   0.641   2.447   2.980
 1880SOL    HW1 6539   0.617   2.535   2.940
 1880SOL    HW2 6540   0.597   2.374   2.928
 1881SOL     OW 6541   0.821   2.280   3.396
 1881SOL    HW1 6542   0.809   2.357   3.333
 1881SOL    HW2 6543   0.742   2.218   3.389
 1882SOL     OW 6544   1.120   6.243   6.546
 1882SOL    HW1 6545   1.065   6.194   6.478
 1882SOL    HW2 6546   1.169   6.177   6.603
 1883SOL     OW 6547   1.408   3.831   3.075
 1883SOL    HW1 6548   1.440   3.814   2.981
 1883SOL    HW2 6549   1.400   3.744   3.123
 1884SOL     OW 6550   5.120   0.619   1.645
 1884SOL    HW1 6551   5.154   0.629   1.739
 1884SOL    HW2 6552   5.023   0.595   1.648
 1885SOL     OW 6553   6.893   1.897   0.589
 1885SOL    HW1 6554   6.894   1.899   0.490
 1885SOL    HW2 6555   6.849   1.813   0.620
 1886SOL     OW 6556   1.989   2.043   0.110
 1886SOL    HW1 6557   2.059   1.979   0.142
 1886SOL    HW2 6558   1.900   1.999   0.111
 1887SOL     OW 6559   0.076   4.243   6.104
 1887SOL    HW1 6560   0.013   4.319   6.119
 1887SOL    HW2 6561   0.134   4.231   6.184
 1888SOL     OW 6562   2.265   1.186   6.118
 1888SOL    HW1 6563   2.258   1.160   6.214
 1888SOL    HW2 6564   2.184   1.239   6.091
 1889SOL     OW 6565   4.506   3.863   6.673
 1889SOL    HW1 6566   4.513   3.866   6.573
 1889SOL    HW2 6567   4.597   3.873   6.713
 1890SOL     OW 6568   1.642   5.766   6.542
 1890SOL    HW1 6569   1.552   5.766   6.500
 1890SOL    HW2 6570   1.689   5.680   6.520
 1891SOL     OW 6571   5.161   2.336   5.259
 1891SOL    HW1 6572   5.077   2.303   5.301
 1891SOL    HW2 6573   5.140   2.387   5.176
 1892SOL     OW 6574   3.887   6.113   1.142
 1892SOL    HW1 6575   3.921   6.020   1.123
 1892SOL    HW2 6576   3.824   6.141   1.070
 1893SOL     OW 6577   3.575   2.130   4.680
 1893SOL    HW1 6578   3.632   2.185   4.741
 1893SOL    HW2 6579   3.535   2.054   4.733
 1894SOL     OW 6580   4.312   3.580   1.729
 1894SOL    HW1 6581   4.246   3.528   1.674
 1894SOL    HW2 6582   4.274   3.670   1.750
 1895SOL     OW 6583   6.416   0.464   2.583
 1895SOL    HW1 6584   6.324   0.469   2.545
 1895SOL    HW2 6585   6.449   0.556   2.603
 1896SOL     OW 6586   6.634   0.960   3.393
 1896SOL    HW1 6587   6.635   1.060   3.393
 1896SOL    HW2 6588   6.607   0.928   3.302
 1897SOL     OW 6589   6.517   5.231   3.456
 1897SOL    HW1 6590   6.526   5.291   3.377
 1897SOL    HW2 6591   6.568   5.268   3.533
 1898SOL     OW 6592   3.521   6.351   1.686
 1898SOL    HW1 6593   3.546   6.279   1.621
 1898SOL    HW2 6594   3.603   6.395   1.721
 1899SOL     OW 6595   1.040   3.728   2.561
 1899SOL    HW1 6596   0.958   3.785   2.573
 1899SOL    HW2 6597   1.100   3.740   2.640
 1900SOL     OW 6598   0.846   6.992   6.075
 1900SOL    HW1 6599   0.912   7.009   6.003
 1900SOL    HW2 6600   0.807   0.052   6.105
 1901SOL     OW 6601   2.242   1.400   0.483
 1901SOL    HW1 6602   2.195   1.382   0.570
 1901SOL    HW2 6603   2.175   1.405   0.409
 1902SOL     OW 6604   1.694   2.700   4.552
 1902SOL    HW1 6605   1.646   2.725   4.467
 1902SOL    HW2 6606   1.710   2.601   4.553
 1903SOL     OW 6607   0.190   3.722   3.210
 1903SOL    HW1 6608   0.147   3.740   3.122
 1903SOL    HW2 6609   0.120   3.718   3.282
 1904SOL     OW 6610   6.723   6.992   4.586
 1904SOL    HW1 6611   6.643   6.938   4.559
 1904SOL    HW2 6612   6.782   6.937   4.645
 1905SOL     OW 6613   0.337   2.895   3.830
 1905SOL    HW1 6614   0.305   2.806   3.799
 1905SOL    HW2 6615   0.281   2.967   3.787
 1906SOL     OW 6616   2.674   0.129   5.627
 1906SOL    HW1 6617   2.767   0.135   5.591
 1906SOL    HW2 6618   2.634   0.040   5.605
 1907SOL     OW 6619   3.190   0.072   3.610
 1907SOL    HW1 6620   3.237   0.094   3.525
 1907SOL    HW2 6621   3.227   7.014   3.648
 1908SOL     OW 6622   4.599   1.287   5.671
 1908SOL    HW1 6623   4.564   1.238   5.590
 1908SOL    HW2 6624   4.608   1.384   5.650
 1909SOL     OW 6625   2.081   4.131   4.364
 1909SOL    HW1 6626   2.023   4.052   4.346
 1909SOL    HW2 6627   2.105   4.133   4.461
 1910SOL     OW 6628   5.539   2.972   6.383
 1910SOL    HW1 6629   5.446   2.985   6.346
 1910SOL    HW2 6630   5.555   3.038   6.455
 1911SOL     OW 6631   6.697   1.992   5.412
 1911SOL    HW1 6632   6.737   1.913   5.459
 1911SOL    HW2 6633   6.682   2.066   5.478
 1912SOL     OW 6634   3.820   6.083   2.721
 1912SOL    HW1 6635   3.884   6.084   2.644
 1912SOL    HW2 6636   3.733   6.124   2.692
 1913SOL     OW 6637   1.637   6.567   5.143
 1913SOL    HW1 6638   1.577   6.565   5.063
 1913SOL    HW2 6639   1.730   6.541   5.117
 1914SOL     OW 6640   2.581   2.203   6.394
 1914SOL    HW1 6641   2.492   2.247   6.409
 1914SOL    HW2 6642   2.637   2.212   6.476
 1915SOL     OW 6643   3.855   1.341   5.887
 1915SOL    HW1 6644   3.955   1.340   5.884
 1915SOL    HW2 6645   3.825   1.409   5.955
 1916SOL     OW 6646   3.668   5.769   1.052
 1916SOL    HW1 6647   3.661   5.862   1.016
 1916SOL    HW2 6648   3.703   5.708   0.981
 1917SOL     OW 6649   3.652   3.270   4.857
 1917SOL    HW1 6650   3.567   3.242   4.812
 1917SOL    HW2 6651   3.713   3.191   4.863
 1918SOL     OW 6652   6.199   6.631   5.998
 1918SOL    HW1 6653   6.284   6.617   5.947
 1918SOL    HW2 6654   6.200   6.575   6.081
 1919SOL     OW 6655   1.338   6.849   1.610
 1919SOL    HW1 6656   1.333   6.793   1.527
 1919SOL    HW2 6657   1.282   6.809   1.682
 1920SOL     OW 6658   0.584   4.666   3.389
 1920SOL    HW1 6659   0.672   4.619   3.399
 1920SOL    HW2 6660   0.524   4.612   3.330
 1921SOL     OW 6661   0.366   5.095   6.982
 1921SOL    HW1 6662   0.348   5.165   6.913
 1921SOL    HW2 6663   0.421   5.022   6.942
 1922SOL     OW 6664   4.075   3.321   1.101
 1922SOL    HW1 6665   4.037   3.233   1.131
 1922SOL    HW2 6666   4.139   3.354   1.170
 1923SOL     OW 6667   2.967   1.225   0.018
 1923SOL    HW1 6668   3.032   1.291   0.056
 1923SOL    HW2 6669   3.012   1.136   0.008
 1924SOL     OW 6670   5.681   4.988   2.074
 1924SOL    HW1 6671   5.695   4.943   2.162
 1924SOL    HW2 6672   5.584   4.982   2.049
 1925SOL     OW 6673   2.963   3.769   1.916
 1925SOL    HW1 6674   2.944   3.802   1.823
 1925SOL    HW2 6675   2.958   3.846   1.980
 1926SOL     OW 6676   1.158   0.085   4.122
 1926SOL    HW1 6677   1.203   0.113   4.207
 1926SOL    HW2 6678   1.073   0.037   4.144
 1927SOL     OW 6679   3.878   5.103   6.260
 1927SOL    HW1 6680   3.820   5.033   6.302
 1927SOL    HW2 6681   3.967   5.105   6.307
 1928SOL     OW 6682   0.052   3.753   6.246
 1928SOL    HW1 6683   0.147   3.744   6.274
 1928SOL    HW2 6684   0.038   3.841   6.201
 1929SOL     OW 6685   0.745   5.644   1.449
 1929SOL    HW1 6686   0.835   5.609   1.477
 1929SOL    HW2 6687   0.712   5.591   1.371
 1930SOL     OW 6688   5.323   4.312   0.043
 1930SOL    HW1 6689   5.238   4.363   0.027
 1930SOL    HW2 6690   5.326   4.232   7.010
 1931SOL     OW 6691   0.266   3.438   3.161
 1931SOL    HW1 6692   0.332   3.501   3.201
 1931SOL    HW2 6693   0.175   3.458   3.196
 1932SOL     OW 6694   5.471   3.473   3.093
 1932SOL    HW1 6695   5.441   3.498   3.185
 1932SOL    HW2 6696   5.518   3.385   3.096
 1933SOL     OW 6697   2.110   4.807   1.372
 1933SOL    HW1 6698   2.070   4.891   1.408
 1933SOL    HW2 6699   2.172   4.768   1.440
 1934SOL     OW 6700   0.382   0.250   5.872
 1934SOL    HW1 6701   0.308   0.291   5.925
 1934SOL    HW2 6702   0.447   0.320   5.845
 1935SOL     OW 6703   3.206   0.689   4.984
 1935SOL    HW1 6704   3.180   0.758   4.916
 1935SOL    HW2 6705   3.254   0.614   4.938
 1936SOL     OW 6706   5.785   4.633   4.071
 1936SOL    HW1 6707   5.842   4.551   4.071
 1936SOL    HW2 6708   5.823   4.700   4.135
 1937SOL     OW 6709   4.127   6.595   1.960
 1937SOL    HW1 6710   4.125   6.694   1.977
 1937SOL    HW2 6711   4.078   6.548   2.033
 1938SOL     OW 6712   4.824   1.683   2.917
 1938SOL    HW1 6713   4.895   1.748   2.944
 1938SOL    HW2 6714   4.742   1.733   2.889
 1939SOL     OW 6715   0.832   6.750   4.121
 1939SOL    HW1 6716   0.859   6.654   4.123
 1939SOL    HW2 6717   0.741   6.760   4.162
 1940SOL     OW 6718   4.800   5.176   5.673
 1940SOL    HW1 6719   4.733   5.126   5.728
 1940SOL    HW2 6720   4.752   5.229   5.603
 1941SOL     OW 6721   0.005   3.714   3.405
 1941SOL    HW1 6722   0.042   3.731   3.496
 1941SOL    HW2 6723   6.935   3.691   3.413
 1942SOL     OW 6724   6.812   0.076   2.596
 1942SOL    HW1 6725   6.854   0.149   2.650
 1942SOL    HW2 6726   6.857   7.017   2.617
 1943SOL     OW 6727   2.961   6.181   2.472
 1943SOL    HW1 6728   3.011   6.200   2.388
 1943SOL    HW2 6729   2.867   6.156   2.450
 1944SOL     OW 6730   5.063   2.338   6.235
 1944SOL    HW1 6731   5.000   2.289   6.173
 1944SOL    HW2 6732   5.023   2.341   6.326
 1945SOL     OW 6733   3.886   5.656   2.771
 1945SOL    HW1 6734   3.901   5.650   2.673
 1945SOL    HW2 6735   3.956   5.603   2.819
 1946SOL     OW 6736   0.041   0.685   0.067
 1946SOL    HW1 6737   0.136   0.665   0.091
 1946SOL    HW2 6738   7.016   0.600   0.066
 1947SOL     OW 6739   5.241   6.481   3.360
 1947SOL    HW1 6740   5.313   6.420   3.392
 1947SOL    HW2 6741   5.169   6.487   3.429
 1948SOL     OW 6742   6.656   5.599   3.706
 1948SOL    HW1 6743   6.694   5.655   3.633
 1948SOL    HW2 6744   6.685   5.634   3.795
 1949SOL     OW 6745   4.591   4.677   5.845
 1949SOL    HW1 6746   4.508   4.734   5.843
 1949SOL    HW2 6747   4.577   4.596   5.787
 1950SOL     OW 6748   4.005   4.022   1.178
 1950SOL    HW1 6749   3.970   4.111   1.206
 1950SOL    HW2 6750   3.973   4.001   1.086
 1951SOL     OW 6751   6.925   3.555   0.677
 1951SOL    HW1 6752   7.009   3.600   0.705
 1951SOL    HW2 6753   6.925   3.542   0.578
 1952SOL     OW 6754   3.478   2.151   6.563
 1952SOL    HW1 6755   3.445   2.203   6.485
 1952SOL    HW2 6756   3.475   2.208   6.645
 1953SOL     OW 6757   6.245   2.489   6.815
 1953SOL    HW1 6758   6.182   2.507   6.891
 1953SOL    HW2 6759   6.337   2.516   6.842
 1954SOL     OW 6760   5.827   1.147   3.863
 1954SOL    HW1 6761   5.760   1.146   3.938
 1954SOL    HW2 6762   5.782   1.177   3.779
 1955SOL     OW 6763   1.422   6.939   2.058
 1955SOL    HW1 6764   1.447   6.842   2.051
 1955SOL    HW2 6765   1.381   6.956   2.148
 1956SOL     OW 6766   5.977   6.926   2.466
 1956SOL    HW1 6767   6.031   7.009   2.481
 1956SOL    HW2 6768   5.962   6.881   2.554
 1957SOL     OW 6769   6.439   4.906   4.730
 1957SOL    HW1 6770   6.513   4.879   4.669
 1957SOL    HW2 6771   6.464   4.992   4.775
 1958SOL     OW 6772   6.126   2.783   4.201
 1958SOL    HW1 6773   6.030   2.801   4.181
 1958SOL    HW2 6774   6.135   2.748   4.295
 1959SOL     OW 6775   0.004   2.155   6.111
 1959SOL    HW1 6776   0.045   2.215   6.042
 1959SOL    HW2 6777   0.024   2.060   6.088
 1960SOL     OW 6778   6.332   4.978   0.667
 1960SOL    HW1 6779   6.245   5.009   0.629
 1960SOL    HW2 6780   6.318   4.893   0.719
 1961SOL     OW 6781   6.034   4.663   4.673
 1961SOL    HW1 6782   5.986   4.591   4.724
 1961SOL    HW2 6783   6.010   4.752   4.711
 1962SOL     OW 6784   2.818   6.165   3.119
 1962SOL    HW1 6785   2.748   6.113   3.071
 1962SOL    HW2 6786   2.788   6.181   3.213
 1963SOL     OW 6787   0.822   0.996   1.055
 1963SOL    HW1 6788   0.848   1.084   1.014
 1963SOL    HW2 6789   0.867   0.987   1.144
 1964SOL     OW 6790   4.546   2.582   1.688
 1964SOL    HW1 6791   4.600   2.501   1.712
 1964SOL    HW2 6792   4.449   2.560   1.692
 1965SOL     OW 6793   1.355   3.360   3.097
 1965SOL    HW1 6794   1.338   3.429   3.027
 1965SOL    HW2 6795   1.271   3.308   3.113
 1966SOL     OW 6796   6.983   5.649   4.937
 1966SOL    HW1 6797   6.885   5.629   4.943
 1966SOL    HW2 6798   7.008   5.716   5.007
 1967SOL     OW 6799   4.739   2.054   5.373
 1967SOL    HW1 6800   4.692   2.065   5.285
 1967SOL    HW2 6801   4.674   2.073   5.447
 1968SOL     OW 6802   2.835   5.900   0.701
 1968SOL    HW1 6803   2.873   5.831   0.763
 1968SOL    HW2 6804   2.774   5.856   0.635
 1969SOL     OW 6805   0.381   1.524   1.211
 1969SOL    HW1 6806   0.377   1.590   1.136
 1969SOL    HW2 6807   0.289   1.510   1.248
 1970SOL     OW 6808   2.574   0.359   6.723
 1970SOL    HW1 6809   2.525   0.283   6.679
 1970SOL    HW2 6810   2.609   0.329   6.812
 1971SOL     OW 6811   5.973   6.819   6.183
 1971SOL    HW1 6812   6.032   6.738   6.176
 1971SOL    HW2 6813   6.019   6.890   6.235
 1972SOL     OW 6814   0.001   2.899   2.867
 1972SOL    HW1 6815   0.024   2.834   2.795
 1972SOL    HW2 6816   0.068   2.892   2.941
 1973SOL     OW 6817   2.992   3.589   1.166
 1973SOL    HW1 6818   2.921   3.522   1.148
 1973SOL    HW2 6819   3.030   3.574   1.257
 1974SOL     OW 6820   6.318   5.792   4.000
 1974SOL    HW1 6821   6.290   5.704   4.040
 1974SOL    HW2 6822   6.264   5.866   4.041
 1975SOL     OW 6823   2.278   1.384   3.058
 1975SOL    HW1 6824   2.337   1.371   2.978
 1975SOL    HW2 6825   2.207   1.314   3.059
 1976SOL     OW 6826   0.568   5.618   6.568
 1976SOL    HW1 6827   0.579   5.697   6.628
 1976SOL    HW2 6828   0.647   5.557   6.578
 1977SOL     OW 6829   1.863   2.737   3.436
 1977SOL    HW1 6830   1.915   2.737   3.351
 1977SOL    HW2 6831   1.871   2.647   3.479
 1978SOL     OW 6832   0.909   0.519   4.029
 1978SOL    HW1 6833   0.911   0.598   3.968
 1978SOL    HW2 6834   1.002   0.481   4.038
 1979SOL     OW 6835   6.916   3.966   4.970
 1979SOL    HW1 6836   6.929   4.038   4.902
 1979SOL    HW2 6837   6.971   3.987   5.051
 1980SOL     OW 6838   3.050   1.037   6.290
 1980SOL    HW1 6839   3.137   1.023   6.339
 1980SOL    HW2 6840   3.029   1.134   6.288
 1981SOL     OW 6841   6.239   1.826   2.615
 1981SOL    HW1 6842   6.329   1.849   2.650
 1981SOL    HW2 6843   6.214   1.733   2.642
 1982SOL     OW 6844   0.086   4.179   5.570
 1982SOL    HW1 6845   0.019   4.110   5.596
 1982SOL    HW2 6846   0.040   4.263   5.543
 1983SOL     OW 6847   0.963   2.241   2.618
 1983SOL    HW1 6848   1.036   2.289   2.667
 1983SOL    HW2 6849   0.896   2.307   2.584
 1984SOL     OW 6850   5.643   0.815   4.593
 1984SOL    HW1 6851   5.566   0.776   4.542
 1984SOL    HW2 6852   5.615   0.831   4.688
 1985SOL     OW 6853   0.869   0.705   2.406
 1985SOL    HW1 6854   0.814   0.786   2.386
 1985SOL    HW2 6855   0.819   0.646   2.469
 1986SOL     OW 6856   1.382   0.253   0.705
 1986SOL    HW1 6857   1.406   0.221   0.613
 1986SOL    HW2 6858   1.465   0.284   0.752
 1987SOL     OW 6859   1.648   3.249   1.756
 1987SOL    HW1 6860   1.573   3.225   1.695
 1987SOL    HW2 6861   1.731   3.201   1.727
 1988SOL     OW 6862   4.774   4.448   1.179
 1988SOL    HW1 6863   4.866   4.489   1.182
 1988SOL    HW2 6864   4.707   4.515   1.210
 1989SOL     OW 6865   2.541   6.565   5.188
 1989SOL    HW1 6866   2.470   6.584   5.256
 1989SOL    HW2 6867   2.571   6.470   5.197
 1990SOL     OW 6868   3.371   6.749   0.978
 1990SOL    HW1 6869   3.331   6.691   1.049
 1990SOL    HW2 6870   3.415   6.692   0.909
 1991SOL     OW 6871   4.164   4.862   6.187
 1991SOL    HW1 6872   4.122   4.786   6.137
 1991SOL    HW2 6873   4.122   4.870   6.277
 1992SOL     OW 6874   1.301   0.064   6.674
 1992SOL    HW1 6875   1.303   7.010   6.732
 1992SOL    HW2 6876   1.291   0.145   6.732
 1993SOL     OW 6877   4.125   3.685   5.173
 1993SOL    HW1 6878   4.056   3.758   5.167
 1993SOL    HW2 6879   4.156   3.661   5.081
 1994SOL     OW 6880   1.672   1.748   1.189
 1994SOL    HW1 6881   1.733   1.682   1.146
 1994SOL    HW2 6882   1.679   1.836   1.142
 1995SOL     OW 6883   6.250   2.253   1.471
 1995SOL    HW1 6884   6.261   2.278   1.375
 1995SOL    HW2 6885   6.267   2.332   1.529
 1996SOL     OW 6886   3.248   3.653   0.793
 1996SOL    HW1 6887   3.199   3.609   0.717
 1996SOL    HW2 6888   3.280   3.743   0.763
 1997SOL     OW 6889   5.077   0.230   5.511
 1997SOL    HW1 6890   4.995   0.282   5.485
 1997SOL    HW2 6891   5.149   0.293   5.540
 1998SOL     OW 6892   3.155   3.577   6.297
 1998SOL    HW1 6893   3.077   3.514   6.297
 1998SOL    HW2 6894   3.155   3.630   6.212
 1999SOL     OW 6895   2.848   6.499   1.887
 1999SOL    HW1 6896   2.944   6.516   1.862
 1999SOL    HW2 6897   2.791   6.500   1.804
 2000SOL     OW 6898   3.916   2.128   5.481
 2000SOL    HW1 6899   3.918   2.215   5.530
 2000SOL    HW2 6900   4.008   2.090   5.477
 2001SOL     OW 6901   3.543   2.074   1.900
 2001SOL    HW1 6902   3.580   2.059   1.992
 2001SOL    HW2 6903   3.590   2.152   1.858
 2002SOL     OW 6904   1.253   5.554   5.941
 2002SOL    HW1 6905   1.166   5.576   5.985
 2002SOL    HW2 6906   1.279   5.460   5.965
 2003SOL     OW 6907   5.844   6.992   3.557
 2003SOL    HW1 6908   5.801   0.027   3.492
 2003SOL    HW2 6909   5.932   6.962   3.521
 2004SOL     OW 6910   5.363   1.381   5.184
 2004SOL    HW1 6911   5.360   1.469   5.231
 2004SOL    HW2 6912   5.418   1.388   5.101
 2005SOL     OW 6913   1.011   5.534   6.623
 2005SOL    HW1 6914   0.924   5.485   6.623
 2005SOL    HW2 6915   1.026   5.575   6.713
 2006SOL     OW 6916   5.054   4.253   4.033
 2006SOL    HW1 6917   5.092   4.164   4.056
 2006SOL    HW2 6918   4.959   4.258   4.063
 2007SOL     OW 6919   4.241   5.303   0.699
 2007SOL    HW1 6920   4.160   5.255   0.732
 2007SOL    HW2 6921   4.218   5.398   0.678
 2008SOL     OW 6922   1.156   6.047   3.415
 2008SOL    HW1 6923   1.143   6.046   3.316
 2008SOL    HW2 6924   1.229   5.983   3.439
 2009SOL     OW 6925   6.787   6.955   1.413
 2009SOL    HW1 6926   6.759   6.934   1.506
 2009SOL    HW2 6927   6.736   6.898   1.348
 2010SOL     OW 6928   1.500   0.962   0.914
 2010SOL    HW1 6929   1.517   1.056   0.884
 2010SOL    HW2 6930   1.402   0.942   0.910
 2011SOL     OW 6931   0.371   2.110   5.357
 2011SOL    HW1 6932   0.461   2.126   5.316
 2011SOL    HW2 6933   0.332   2.026   5.318
 2012SOL     OW 6934   0.867   3.185   1.683
 2012SOL    HW1 6935   0.802   3.209   1.756
 2012SOL    HW2 6936   0.871   3.260   1.617
 2013SOL     OW 6937   5.612   0.364   3.187
 2013SOL    HW1 6938   5.598   0.394   3.092
 2013SOL    HW2 6939   5.699   0.400   3.221
 2014SOL     OW 6940   1.711   5.531   2.554
 2014SOL    HW1 6941   1.755   5.469   2.619
 2014SOL    HW2 6942   1.698   5.484   2.467
 2015SOL     OW 6943   2.468   1.189   6.442
 2015SOL    HW1 6944   2.521   1.168   6.524
 2015SOL    HW2 6945   2.483   1.285   6.417
 2016SOL     OW 6946   1.329   5.556   5.276
 2016SOL    HW1 6947   1.292   5.569   5.184
 2016SOL    HW2 6948   1.312   5.462   5.305
 2017SOL     OW 6949   2.782   6.487   4.635
 2017SOL    HW1 6950   2.786   6.398   4.590
 2017SOL    HW2 6951   2.859   6.543   4.605
 2018SOL     OW 6952   5.829   6.828   5.940
 2018SOL    HW1 6953   5.876   6.844   6.027
 2018SOL    HW2 6954   5.897   6.810   5.868
 2019SOL     OW 6955   4.558   1.865   2.144
 2019SOL    HW1 6956   4.468   1.885   2.183
 2019SOL    HW2 6957   4.615   1.947   2.147
 2020SOL     OW 6958   1.393   5.549   5.695
 2020SOL    HW1 6959   1.356   5.512   5.610
 2020SOL    HW2 6960   1.330   5.532   5.771
 2021SOL     OW 6961   2.128   5.845   3.900
 2021SOL    HW1 6962   2.158   5.932   3.940
 2021SOL    HW2 6963   2.097   5.861   3.806
 2022SOL     OW 6964   2.130   3.535   2.358
 2022SOL    HW1 6965   2.090   3.466   2.298
 2022SOL    HW2 6966   2.163   3.612   2.303
 2023SOL     OW 6967   6.807   1.543   6.797
 2023SOL    HW1 6968   6.804   1.631   6.845
 2023SOL    HW2 6969   6.835   1.557   6.702
 2024SOL     OW 6970   0.130   0.688   2.900
 2024SOL    HW1 6971   0.061   0.740   2.849
 2024SOL    HW2 6972   0.089   0.604   2.935
 2025SOL     OW 6973   2.073   3.028   2.152
 2025SOL    HW1 6974   1.975   3.047   2.165
 2025SOL    HW2 6975   2.091   2.932   2.174
 2026SOL     OW 6976   1.251   2.452   6.597
 2026SOL    HW1 6977   1.259   2.428   6.694
 2026SOL    HW2 6978   1.157   2.434   6.567
 2027SOL     OW 6979   0.760   1.234   1.388
 2027SOL    HW1 6980   0.702   1.295   1.334
 2027SOL    HW2 6981   0.841   1.209   1.334
 2028SOL     OW 6982   3.386   1.433   6.342
 2028SOL    HW1 6983   3.427   1.497   6.277
 2028SOL    HW2 6984   3.290   1.417   6.318
 2029SOL     OW 6985   6.838   0.242   0.491
 2029SOL    HW1 6986   6.841   0.298   0.574
 2029SOL    HW2 6987   6.888   0.289   0.418
 2030SOL     OW 6988   2.728   0.749   3.781
 2030SOL    HW1 6989   2.811   0.694   3.775
 2030SOL    HW2 6990   2.721   0.808   3.700
 2031SOL     OW 6991   5.022   6.362   2.600
 2031SOL    HW1 6992   4.980   6.282   2.643
 2031SOL    HW2 6993   5.032   6.345   2.502
 2032SOL     OW 6994   3.774   6.852   2.004
 2032SOL    HW1 6995   3.725   6.919   1.948
 2032SOL    HW2 6996   3.816   6.898   2.082
 2033SOL     OW 6997   3.722   4.563   6.946
 2033SOL    HW1 6998   3.688   4.575   0.011
 2033SOL    HW2 6999   3.690   4.638   6.888
 2034SOL     OW 7000   3.347   6.850   4.631
 2034SOL    HW1 7001   3.387   6.878   4.544
 2034SOL    HW2 7002   3.252   6.822   4.617
 2035SOL     OW 7003   0.374   0.771   2.163
 2035SOL    HW1 7004   0.456   0.734   2.207
 2035SOL    HW2 7005   0.351   0.715   2.084
 2036SOL     OW 7006   0.659   5.677   3.110
 2036SOL    HW1 7007   0.564   5.674   3.081
 2036SOL    HW2 7008   0.694   5.771   3.102
 2037SOL     OW 7009   0.377   2.100   6.224
 2037SOL    HW1 7010   0.441   2.175   6.244
 2037SOL    HW2 7011   0.292   2.138   6.189
 2038SOL     OW 7012   1.582   2.009   6.546
 2038SOL    HW1 7013   1.559   2.072   6.471
 2038SOL    HW2 7014   1.669   2.037   6.587
 2039SOL     OW 7015   0.242   4.970   2.167
 2039SOL    HW1 7016   0.282   5.030   2.236
 2039SOL    HW2 7017   0.234   5.019   2.080
 2040SOL     OW 7018   3.140   3.259   5.323
 2040SOL    HW1 7019   3.170   3.346   5.361
 2040SOL    HW2 7020   3.195   3.237   5.242
 2041SOL     OW 7021   6.980   5.726   5.604
 2041SOL    HW1 7022   6.898   5.771   5.569
 2041SOL    HW2 7023   6.993   5.752   5.700
 2042SOL     OW 7024   5.365   5.313   6.728
 2042SOL    HW1 7025   5.324   5.404   6.722
 2042SOL    HW2 7026   5.437   5.314   6.797
 2043SOL     OW 7027   6.287   4.161   2.638
 2043SOL    HW1 7028   6.351   4.110   2.580
 2043SOL    HW2 7029   6.211   4.194   2.581
 2044SOL     OW 7030   4.860   0.356   2.154
 2044SOL    HW1 7031   4.873   0.257   2.158
 2044SOL    HW2 7032   4.950   0.401   2.149
 2045SOL     OW 7033   1.901   4.858   4.883
 2045SOL    HW1 7034   1.829   4.879   4.816
 2045SOL    HW2 7035   1.913   4.759   4.889
 2046SOL     OW 7036   0.106   1.255   4.445
 2046SOL    HW1 7037   0.067   1.170   4.409
 2046SOL    HW2 7038   0.173   1.232   4.516
 2047SOL     OW 7039   4.756   2.257   0.346
 2047SOL    HW1 7040   4.747   2.234   0.443
 2047SOL    HW2 7041   4.757   2.356   0.336
 2048SOL     OW 7042   2.115   5.666   0.748
 2048SOL    HW1 7043   2.025   5.645   0.785
 2048SOL    HW2 7044   2.139   5.597   0.679
 2049SOL     OW 7045   4.457   1.380   6.454
 2049SOL    HW1 7046   4.394   1.449   6.419
 2049SOL    HW2 7047   4.541   1.424   6.486
 2050SOL     OW 7048   6.654   2.069   2.871
 2050SOL    HW1 7049   6.656   2.168   2.858
 2050SOL    HW2 7050   6.748   2.034   2.877
 2051SOL     OW 7051   0.301   5.786   0.705
 2051SOL    HW1 7052   0.207   5.793   0.737
 2051SOL    HW2 7053   0.359   5.751   0.779
 2052SOL     OW 7054   0.304   4.386   0.781
 2052SOL    HW1 7055   0.345   4.295   0.772
 2052SOL    HW2 7056   0.213   4.386   0.739
 2053SOL     OW 7057   6.344   0.692   5.814
 2053SOL    HW1 7058   6.431   0.691   5.764
 2053SOL    HW2 7059   6.269   0.712   5.752
 2054SOL     OW 7060   4.623   2.652   1.425
 2054SOL    HW1 7061   4.602   2.636   1.521
 2054SOL    HW2 7062   4.550   2.707   1.384
 2055SOL     OW 7063   6.334   3.292   2.815
 2055SOL    HW1 7064   6.268   3.327   2.749
 2055SOL    HW2 7065   6.421   3.341   2.805
 2056SOL     OW 7066   2.460   0.725   3.065
 2056SOL    HW1 7067   2.396   0.773   3.124
 2056SOL    HW2 7068   2.410   0.681   2.990
 2057SOL     OW 7069   5.704   2.950   3.348
 2057SOL    HW1 7070   5.673   2.956   3.253
 2057SOL    HW2 7071   5.672   3.031   3.398
 2058SOL     OW 7072   1.365   1.682   3.202
 2058SOL    HW1 7073   1.425   1.603   3.216
 2058SOL    HW2 7074   1.413   1.752   3.149
 2059SOL     OW 7075   2.613   6.295   6.622
 2059SOL    HW1 7076   2.610   6.394   6.640
 2059SOL    HW2 7077   2.526   6.266   6.582
 2060SOL     OW 7078   5.889   4.234   0.706
 2060SOL    HW1 7079   5.944   4.293   0.648
 2060SOL    HW2 7080   5.792   4.254   0.691
 2061SOL     OW 7081   1.037   1.585   2.935
 2061SOL    HW1 7082   1.045   1.667   2.991
 2061SOL    HW2 7083   1.072   1.507   2.986
 2062SOL     OW 7084   6.133   0.268   3.238
 2062SOL    HW1 7085   6.103   0.332   3.168
 2062SOL    HW2 7086   6.233   0.269   3.244
 2063SOL     OW 7087   2.041   0.417   5.912
 2063SOL    HW1 7088   2.118   0.399   5.851
 2063SOL    HW2 7089   2.074   0.456   5.997
 2064SOL     OW 7090   1.206   2.097   6.138
 2064SOL    HW1 7091   1.222   2.195   6.144
 2064SOL    HW2 7092   1.233   2.065   6.047
 2065SOL     OW 7093   7.019   3.449   3.278
 2065SOL    HW1 7094   7.010   3.547   3.296
 2065SOL    HW2 7095   6.980   3.428   3.188
 2066SOL     OW 7096   0.336   5.619   3.398
 2066SOL    HW1 7097   0.267   5.682   3.433
 2066SOL    HW2 7098   0.314   5.595   3.304
 2067SOL     OW 7099   6.866   5.685   0.759
 2067SOL    HW1 7100   6.778   5.668   0.802
 2067SOL    HW2 7101   6.858   5.673   0.660
 2068SOL     OW 7102   1.298   1.769   5.261
 2068SOL    HW1 7103   1.293   1.670   5.271
 2068SOL    HW2 7104   1.206   1.808   5.267
 2069SOL     OW 7105   1.167   3.189   3.379
 2069SOL    HW1 7106   1.156   3.108   3.437
 2069SOL    HW2 7107   1.193   3.267   3.436
 2070SOL     OW 7108   1.232   0.608   2.186
 2070SOL    HW1 7109   1.227   0.708   2.187
 2070SOL    HW2 7110   1.301   0.577   2.251
 2071SOL     OW 7111   6.410   6.132   5.140
 2071SOL    HW1 7112   6.362   6.076   5.073
 2071SOL    HW2 7113   6.436   6.219   5.098
 2072SOL     OW 7114   4.468   6.928   2.373
 2072SOL    HW1 7115   4.537   6.998   2.352
 2072SOL    HW2 7116   4.382   6.952   2.329
 2073SOL     OW 7117   3.999   0.135   4.552
 2073SOL    HW1 7118   4.054   0.218   4.566
 2073SOL    HW2 7119   3.913   0.144   4.603
 2074SOL     OW 7120   1.233   3.224   0.399
 2074SOL    HW1 7121   1.172   3.208   0.322
 2074SOL    HW2 7122   1.193   3.184   0.482
 2075SOL     OW 7123   5.664   2.974   1.451
 2075SOL    HW1 7124   5.603   3.050   1.477
 2075SOL    HW2 7125   5.623   2.888   1.480
 2076SOL     OW 7126   4.687   0.191   6.621
 2076SOL    HW1 7127   4.664   0.196   6.719
 2076SOL    HW2 7128   4.604   0.172   6.568
 2077SOL     OW 7129   5.530   2.359   2.664
 2077SOL    HW1 7130   5.482   2.447   2.668
 2077SOL    HW2 7131   5.568   2.338   2.754
 2078SOL     OW 7132   1.580   6.162   6.391
 2078SOL    HW1 7133   1.632   6.085   6.430
 2078SOL    HW2 7134   1.491   6.130   6.360
 2079SOL     OW 7135   5.865   1.717   3.336
 2079SOL    HW1 7136   5.948   1.744   3.289
 2079SOL    HW2 7137   5.839   1.625   3.307
 2080SOL     OW 7138   1.138   0.583   4.525
 2080SOL    HW1 7139   1.197   0.660   4.549
 2080SOL    HW2 7140   1.061   0.579   4.589
 2081SOL     OW 7141   2.072   5.614   4.379
 2081SOL    HW1 7142   2.147   5.572   4.431
 2081SOL    HW2 7143   2.080   5.588   4.283
 2082SOL     OW 7144   0.006   7.014   3.284
 2082SOL    HW1 7145   6.976   7.022   3.365
 2082SOL    HW2 7146   6.989   0.031   3.206
 2083SOL     OW 7147   5.324   4.990   5.966
 2083SOL    HW1 7148   5.242   5.018   5.916
 2083SOL    HW2 7149   5.305   4.990   6.064
 2084SOL     OW 7150   0.300   4.132   4.131
 2084SOL    HW1 7151   0.257   4.044   4.109
 2084SOL    HW2 7152   0.331   4.176   4.046
 2085SOL     OW 7153   4.726   0.499   6.468
 2085SOL    HW1 7154   4.702   0.403   6.483
 2085SOL    HW2 7155   4.710   0.524   6.373
 2086SOL     OW 7156   3.926   0.105   6.107
 2086SOL    HW1 7157   3.869   0.136   6.032
 2086SOL    HW2 7158   3.889   0.140   6.194
 2087SOL     OW 7159   5.314   6.885   1.108
 2087SOL    HW1 7160   5.306   6.952   1.034
 2087SOL    HW2 7161   5.229   6.832   1.114
 2088SOL     OW 7162   2.660   6.040   1.204
 2088SOL    HW1 7163   2.578   5.993   1.237
 2088SOL    HW2 7164   2.661   6.039   1.104
 2089SOL     OW 7165   5.464   2.496   6.639
 2089SOL    HW1 7166   5.508   2.437   6.572
 2089SOL    HW2 7167   5.367   2.506   6.617
 2090SOL     OW 7168   3.490   3.456   5.540
 2090SOL    HW1 7169   3.405   3.469   5.488
 2090SOL    HW2 7170   3.541   3.542   5.542
 2091SOL     OW 7171   7.004   5.617   0.447
 2091SOL    HW1 7172   6.977   5.525   0.420
 2091SOL    HW2 7173   0.060   5.613   0.502
 2092SOL     OW 7174   4.883   4.405   6.776
 2092SOL    HW1 7175   4.975   4.433   6.749
 2092SOL    HW2 7176   4.855   4.457   6.857
 2093SOL     OW 7177   2.584   2.468   1.406
 2093SOL    HW1 7178   2.557   2.467   1.502
 2093SOL    HW2 7179   2.683   2.467   1.399
 2094SOL     OW 7180   5.723   1.096   1.242
 2094SOL    HW1 7181   5.800   1.086   1.305
 2094SOL    HW2 7182   5.756   1.128   1.154
 2095SOL     OW 7183   5.517   0.420   4.900
 2095SOL    HW1 7184   5.612   0.408   4.928
 2095SOL    HW2 7185   5.461   0.349   4.942
 2096SOL     OW 7186   4.935   3.961   3.146
 2096SOL    HW1 7187   4.924   3.874   3.194
 2096SOL    HW2 7188   4.885   3.958   3.059
 2097SOL     OW 7189   2.098   2.960   6.740
 2097SOL    HW1 7190   2.153   2.990   6.818
 2097SOL    HW2 7191   2.156   2.945   6.661
 2098SOL     OW 7192   4.174   5.874   2.968
 2098SOL    HW1 7193   4.222   5.883   3.055
 2098SOL    HW2 7194   4.075   5.871   2.985
 2099SOL     OW 7195   2.632   3.235   5.311
 2099SOL    HW1 7196   2.590   3.283   5.388
 2099SOL    HW2 7197   2.576   3.156   5.287
 2100SOL     OW 7198   4.791   3.365   5.800
 2100SOL    HW1 7199   4.855   3.332   5.731
 2100SOL    HW2 7200   4.710   3.307   5.801
 2101SOL     OW 7201   1.397   6.128   2.340
 2101SOL    HW1 7202   1.439   6.182   2.268
 2101SOL    HW2 7203   1.453   6.047   2.359
 2102SOL     OW 7204   6.064   5.077   1.914
 2102SOL    HW1 7205   6.038   5.107   1.822
 2102SOL    HW2 7206   6.006   5.000   1.941
 2103SOL     OW 7207   3.607   4.023   5.844
 2103SOL    HW1 7208   3.579   4.118   5.850
 2103SOL    HW2 7209   3.706   4.016   5.857
 2104SOL     OW 7210   1.637   2.872   0.904
 2104SOL    HW1 7211   1.574   2.842   0.834
 2104SOL    HW2 7212   1.727   2.831   0.889
 2105SOL     OW 7213   5.409   6.048   4.997
 2105SOL    HW1 7214   5.385   6.045   4.900
 2105SOL    HW2 7215   5.332   6.016   5.052
 2106SOL     OW 7216   4.732   4.371   0.744
 2106SOL    HW1 7217   4.782   4.305   0.688
 2106SOL    HW2 7218   4.794   4.443   0.775
 2107SOL     OW 7219   5.466   2.587   5.298
 2107SOL    HW1 7220   5.374   2.623   5.314
 2107SOL    HW2 7221   5.515   2.581   5.385
 2108SOL     OW 7222   6.546   5.904   5.198
 2108SOL    HW1 7223   6.502   5.989   5.169
 2108SOL    HW2 7224   6.482   5.848   5.250
 2109SOL     OW 7225   3.958   6.340   2.842
 2109SOL    HW1 7226   3.860   6.351   2.859
 2109SOL    HW2 7227   3.979   6.373   2.750
 2110SOL     OW 7228   2.892   1.647   6.678
 2110SOL    HW1 7229   2.871   1.744   6.681
 2110SOL    HW2 7230   2.889   1.609   6.770
 2111SOL     OW 7231   1.017   2.727   0.352
 2111SOL    HW1 7232   1.061   2.727   0.442
 2111SOL    HW2 7233   1.006   2.633   0.320
 2112SOL     OW 7234   5.210   2.841   0.404
 2112SOL    HW1 7235   5.255   2.928   0.425
 2112SOL    HW2 7236   5.127   2.859   0.351
 2113SOL     OW 7237   0.980   1.623   5.038
 2113SOL    HW1 7238   1.038   1.543   5.055
 2113SOL    HW2 7239   0.900   1.595   4.986
 2114SOL     OW 7240   1.321   2.597   0.784
 2114SOL    HW1 7241   1.283   2.525   0.727
 2114SOL    HW2 7242   1.419   2.582   0.795
 2115SOL     OW 7243   2.069   3.406   2.589
 2115SOL    HW1 7244   2.118   3.462   2.523
 2115SOL    HW2 7245   2.059   3.313   2.554
 2116SOL     OW 7246   6.753   4.711   2.844
 2116SOL    HW1 7247   6.676   4.770   2.819
 2116SOL    HW2 7248   6.787   4.666   2.761
 2117SOL     OW 7249   6.441   4.707   1.949
 2117SOL    HW1 7250   6.490   4.663   2.024
 2117SOL    HW2 7251   6.401   4.793   1.982
 2118SOL     OW 7252   6.099   3.466   1.629
 2118SOL    HW1 7253   6.154   3.402   1.684
 2118SOL    HW2 7254   6.099   3.556   1.674
 2119SOL     OW 7255   2.411   5.882   1.027
 2119SOL    HW1 7256   2.395   5.810   0.960
 2119SOL    HW2 7257   2.426   5.840   1.117
 2120SOL     OW 7258   0.151   5.138   4.056
 2120SOL    HW1 7259   0.173   5.061   3.996
 2120SOL    HW2 7260   0.233   5.166   4.106
 2121SOL     OW 7261   0.960   3.591   5.710
 2121SOL    HW1 7262   0.920   3.568   5.799
 2121SOL    HW2 7263   0.904   3.551   5.637
 2122SOL     OW 7264   5.720   4.331   5.835
 2122SOL    HW1 7265   5.811   4.359   5.807
 2122SOL    HW2 7266   5.676   4.280   5.761
 2123SOL     OW 7267   6.370   6.015   2.109
 2123SOL    HW1 7268   6.385   5.986   2.204
 2123SOL    HW2 7269   6.272   6.009   2.087
 2124SOL     OW 7270   3.032   1.625   1.441
 2124SOL    HW1 7271   3.052   1.527   1.427
 2124SOL    HW2 7272   2.939   1.644   1.410
 2125SOL     OW 7273   1.879   0.797   1.622
 2125SOL    HW1 7274   1.860   0.870   1.687
 2125SOL    HW2 7275   1.793   0.753   1.595
 2126SOL     OW 7276   3.624   1.135   6.597
 2126SOL    HW1 7277   3.716   1.128   6.558
 2126SOL    HW2 7278   3.570   1.198   6.542
 2127SOL     OW 7279   6.778   3.410   4.405
 2127SOL    HW1 7280   6.785   3.370   4.497
 2127SOL    HW2 7281   6.867   3.405   4.360
 2128SOL     OW 7282   6.988   3.260   3.469
 2128SOL    HW1 7283   6.983   3.327   3.395
 2128SOL    HW2 7284   6.983   3.168   3.431
 2129SOL     OW 7285   4.264   3.489   5.609
 2129SOL    HW1 7286   4.179   3.496   5.661
 2129SOL    HW2 7287   4.251   3.427   5.532
 2130SOL     OW 7288   3.587   0.972   1.959
 2130SOL    HW1 7289   3.663   1.031   1.986
 2130SOL    HW2 7290   3.613   0.919   1.878
 2131SOL     OW 7291   6.100   0.225   6.963
 2131SOL    HW1 7292   6.058   0.309   6.997
 2131SOL    HW2 7293   6.130   0.169   0.012
 2132SOL     OW 7294   3.445   1.574   1.778
 2132SOL    HW1 7295   3.392   1.542   1.857
 2132SOL    HW2 7296   3.508   1.502   1.750
 2133SOL     OW 7297   3.214   3.330   0.161
 2133SOL    HW1 7298   3.222   3.249   0.219
 2133SOL    HW2 7299   3.265   3.316   0.077
 2134SOL     OW 7300   7.000   2.411   6.779
 2134SOL    HW1 7301   6.992   2.476   6.703
 2134SOL    HW2 7302   6.922   2.423   6.841
 2135SOL     OW 7303   0.556   3.850   4.139
 2135SOL    HW1 7304   0.525   3.881   4.049
 2135SOL    HW2 7305   0.534   3.754   4.151
 2136SOL     OW 7306   1.347   4.285   2.588
 2136SOL    HW1 7307   1.295   4.370   2.585
 2136SOL    HW2 7308   1.298   4.214   2.536
 2137SOL     OW 7309   2.587   5.846   5.617
 2137SOL    HW1 7310   2.514   5.812   5.559
 2137SOL    HW2 7311   2.585   5.798   5.705
 2138SOL     OW 7312   6.771   6.671   2.814
 2138SOL    HW1 7313   6.697   6.616   2.774
 2138SOL    HW2 7314   6.809   6.732   2.745
 2139SOL     OW 7315   4.815   0.823   3.442
 2139SOL    HW1 7316   4.805   0.796   3.538
 2139SOL    HW2 7317   4.885   0.894   3.435
 2140SOL     OW 7318   3.531   7.017   3.868
 2140SOL    HW1 7319   3.486   0.065   3.917
 2140SOL    HW2 7320   3.629   7.019   3.889
 2141SOL     OW 7321   6.644   3.096   1.729
 2141SOL    HW1 7322   6.672   3.126   1.638
 2141SOL    HW2 7323   6.692   3.149   1.799
 2142SOL     OW 7324   1.599   1.586   3.396
 2142SOL    HW1 7325   1.671   1.541   3.343
 2142SOL    HW2 7326   1.582   1.677   3.359
 2143SOL     OW 7327   3.044   4.497   1.374
 2143SOL    HW1 7328   3.040   4.596   1.356
 2143SOL    HW2 7329   2.953   4.463   1.394
 2144SOL     OW 7330   1.313   5.718   4.218
 2144SOL    HW1 7331   1.347   5.728   4.312
 2144SOL    HW2 7332   1.351   5.790   4.161
 2145SOL     OW 7333   3.844   6.528   4.148
 2145SOL    HW1 7334   3.809   6.486   4.064
 2145SOL    HW2 7335   3.816   6.624   4.151
 2146SOL     OW 7336   2.376   3.527   0.953
 2146SOL    HW1 7337   2.397   3.581   1.034
 2146SOL    HW2 7338   2.452   3.533   0.888
 2147SOL     OW 7339   6.467   1.783   5.774
 2147SOL    HW1 7340   6.465   1.741   5.684
 2147SOL    HW2 7341   6.443   1.880   5.767
 2148SOL     OW 7342   5.896   3.352   6.074
 2148SOL    HW1 7343   5.978   3.303   6.045
 2148SOL    HW2 7344   5.852   3.301   6.148
 2149SOL     OW 7345   3.103   1.767   1.157
 2149SOL    HW1 7346   3.148   1.835   1.100
 2149SOL    HW2 7347   3.165   1.690   1.173
 2150SOL     OW 7348   2.292   2.786   2.104
 2150SOL    HW1 7349   2.340   2.716   2.049
 2150SOL    HW2 7350   2.354   2.861   2.123
 2151SOL     OW 7351   1.858   6.993   5.919
 2151SOL    HW1 7352   1.903   0.006   5.999
 2151SOL    HW2 7353   1.863   0.029   5.842
 2152SOL     OW 7354   3.286   5.279   2.347
 2152SOL    HW1 7355   3.293   5.374   2.317
 2152SOL    HW2 7356   3.370   5.253   2.394
 2153SOL     OW 7357   5.047   1.517   2.848
 2153SOL    HW1 7358   4.966   1.575   2.845
 2153SOL    HW2 7359   5.111   1.552   2.916
 2154SOL     OW 7360   5.104   1.013   4.812
 2154SOL    HW1 7361   5.116   1.008   4.911
 2154SOL    HW2 7362   5.039   1.085   4.789
 2155SOL     OW 7363   3.689   6.471   1.197
 2155SOL    HW1 7364   3.769   6.464   1.256
 2155SOL    HW2 7365   3.659   6.566   1.192
 2156SOL     OW 7366   0.926   1.985   5.299
 2156SOL    HW1 7367   0.858   2.004   5.370
 2156SOL    HW2 7368   1.011   2.034   5.320
 2157SOL     OW 7369   5.686   0.010   3.031
 2157SOL    HW1 7370   5.743   6.970   3.078
 2157SOL    HW2 7371   5.590   7.019   3.050
 2158SOL     OW 7372   3.491   5.592   1.182
 2158SOL    HW1 7373   3.454   5.562   1.094
 2158SOL    HW2 7374   3.560   5.663   1.167
 2159SOL     OW 7375   1.512   0.113   5.278
 2159SOL    HW1 7376   1.583   0.074   5.337
 2159SOL    HW2 7377   1.542   0.108   5.183
 2160SOL     OW 7378   4.883   4.211   6.477
 2160SOL    HW1 7379   4.896   4.282   6.409
 2160SOL    HW2 7380   4.971   4.183   6.515
 2161SOL     OW 7381   5.782   4.656   2.384
 2161SOL    HW1 7382   5.773   4.610   2.472
 2161SOL    HW2 7383   5.778   4.588   2.310
 2162SOL     OW 7384   3.659   0.582   2.178
 2162SOL    HW1 7385   3.718   0.661   2.159
 2162SOL    HW2 7386   3.685   0.506   2.119
 2163SOL     OW 7387   1.841   4.356   0.077
 2163SOL    HW1 7388   1.937   4.372   0.101
 2163SOL    HW2 7389   1.816   4.262   0.100
 2164SOL     OW 7390   2.022   2.162   6.400
 2164SOL    HW1 7391   2.105   2.217   6.407
 2164SOL    HW2 7392   2.031   2.095   6.327
 2165SOL     OW 7393   0.059   2.426   3.226
 2165SOL    HW1 7394   0.046   2.343   3.173
 2165SOL    HW2 7395   0.142   2.473   3.195
 2166SOL     OW 7396   1.453   2.694   4.702
 2166SOL    HW1 7397   1.531   2.693   4.639
 2166SOL    HW2 7398   1.476   2.641   4.784
 2167SOL     OW 7399   1.416   2.269   3.234
 2167SOL    HW1 7400   1.415   2.367   3.252
 2167SOL    HW2 7401   1.423   2.253   3.135
 2168SOL     OW 7402   0.732   2.177   3.866
 2168SOL    HW1 7403   0.670   2.242   3.822
 2168SOL    HW2 7404   0.733   2.092   3.812
 2169SOL     OW 7405   5.837   1.947   6.705
 2169SOL    HW1 7406   5.803   1.885   6.775
 2169SOL    HW2 7407   5.935   1.934   6.692
 2170SOL     OW 7408   0.011   4.066   5.207
 2170SOL    HW1 7409   0.110   4.068   5.222
 2170SOL    HW2 7410   6.999   4.155   5.229
 2171SOL     OW 7411   0.000   5.158   1.140
 2171SOL    HW1 7412   6.968   5.238   1.133
 2171SOL    HW2 7413   7.009   5.108   1.224
 2172SOL     OW 7414   1.973   1.672   6.510
 2172SOL    HW1 7415   1.908   1.647   6.581
 2172SOL    HW2 7416   2.044   1.602   6.503
 2173SOL     OW 7417   4.065   0.675   5.216
 2173SOL    HW1 7418   4.113   0.588   5.229
 2173SOL    HW2 7419   3.969   0.658   5.196
 2174SOL     OW 7420   6.722   5.881   4.789
 2174SOL    HW1 7421   6.755   5.865   4.882
 2174SOL    HW2 7422   6.650   5.951   4.790
 2175SOL     OW 7423   1.854   2.291   4.706
 2175SOL    HW1 7424   1.851   2.290   4.805
 2175SOL    HW2 7425   1.876   2.199   4.672
 2176SOL     OW 7426   5.552   2.220   0.159
 2176SOL    HW1 7427   5.618   2.145   0.167
 2176SOL    HW2 7428   5.459   2.183   0.158
 2177SOL     OW 7429   6.963   1.930   3.855
 2177SOL    HW1 7430   6.975   1.945   3.953
 2177SOL    HW2 7431   6.910   2.006   3.816
 2178SOL     OW 7432   2.100   2.013   1.844
 2178SOL    HW1 7433   2.013   2.050   1.878
 2178SOL    HW2 7434   2.119   2.052   1.753
 2179SOL     OW 7435   2.142   5.203   5.615
 2179SOL    HW1 7436   2.148   5.136   5.689
 2179SOL    HW2 7437   2.067   5.267   5.634
 2180SOL     OW 7438   1.943   2.304   2.030
 2180SOL    HW1 7439   1.906   2.218   1.996
 2180SOL    HW2 7440   1.969   2.294   2.126
 2181SOL     OW 7441   4.807   4.966   4.615
 2181SOL    HW1 7442   4.800   4.894   4.545
 2181SOL    HW2 7443   4.901   5.000   4.617
 2182SOL     OW 7444   1.981   4.107   3.482
 2182SOL    HW1 7445   1.989   4.098   3.383
 2182SOL    HW2 7446   2.028   4.190   3.512
 2183SOL     OW 7447   1.954   4.629   6.380
 2183SOL    HW1 7448   2.006   4.574   6.314
 2183SOL    HW2 7449   1.862   4.591   6.389
 2184SOL     OW 7450   4.412   0.850   5.742
 2184SOL    HW1 7451   4.368   0.938   5.724
 2184SOL    HW2 7452   4.460   0.854   5.830
 2185SOL     OW 7453   0.546   0.285   0.912
 2185SOL    HW1 7454   0.493   0.362   0.877
 2185SOL    HW2 7455   0.495   0.200   0.899
 2186SOL     OW 7456   0.025   5.467   0.730
 2186SOL    HW1 7457   0.016   5.370   0.755
 2186SOL    HW2 7458   6.969   5.516   0.755
 2187SOL     OW 7459   6.552   6.063   2.940
 2187SOL    HW1 7460   6.531   6.052   3.037
 2187SOL    HW2 7461   6.497   5.998   2.887
 2188SOL     OW 7462   0.082   5.385   4.942
 2188SOL    HW1 7463   0.010   5.454   4.953
 2188SOL    HW2 7464   0.104   5.346   5.031
 2189SOL     OW 7465   2.255   6.859   0.973
 2189SOL    HW1 7466   2.329   6.870   0.907
 2189SOL    HW2 7467   2.172   6.903   0.937
 2190SOL     OW 7468   0.654   3.239   1.861
 2190SOL    HW1 7469   0.563   3.200   1.855
 2190SOL    HW2 7470   0.647   3.338   1.871
 2191SOL     OW 7471   2.764   1.656   6.094
 2191SOL    HW1 7472   2.665   1.657   6.101
 2191SOL    HW2 7473   2.802   1.721   6.161
 2192SOL     OW 7474   5.105   1.002   2.530
 2192SOL    HW1 7475   5.165   1.016   2.451
 2192SOL    HW2 7476   5.015   1.042   2.510
 2193SOL     OW 7477   5.615   6.333   6.774
 2193SOL    HW1 7478   5.636   6.421   6.731
 2193SOL    HW2 7479   5.521   6.307   6.753
 2194SOL     OW 7480   2.103   4.524   5.921
 2194SOL    HW1 7481   2.108   4.573   6.008
 2194SOL    HW2 7482   2.012   4.534   5.882
 2195SOL     OW 7483   0.300   0.184   5.081
 2195SOL    HW1 7484   0.355   0.266   5.064
 2195SOL    HW2 7485   0.206   0.210   5.101
 2196SOL     OW 7486   4.047   0.406   4.976
 2196SOL    HW1 7487   4.089   0.480   4.924
 2196SOL    HW2 7488   3.950   0.400   4.954
 2197SOL     OW 7489   2.673   3.321   0.086
 2197SOL    HW1 7490   2.703   3.393   0.023
 2197SOL    HW2 7491   2.753   3.280   0.129
 2198SOL     OW 7492   5.549   0.113   0.827
 2198SOL    HW1 7493   5.579   0.190   0.770
 2198SOL    HW2 7494   5.605   0.110   0.910
 2199SOL     OW 7495   5.338   6.975   3.346
 2199SOL    HW1 7496   5.271   6.921   3.399
 2199SOL    HW2 7497   5.333   0.043   3.374
 2200SOL     OW 7498   2.270   2.024   4.139
 2200SOL    HW1 7499   2.252   2.002   4.235
 2200SOL    HW2 7500   2.209   2.097   4.109
 2201SOL     OW 7501   6.479   2.801   3.377
 2201SOL    HW1 7502   6.545   2.867   3.341
 2201SOL    HW2 7503   6.463   2.819   3.474
 2202SOL     OW 7504   3.249   5.528   2.270
 2202SOL    HW1 7505   3.269   5.606   2.211
 2202SOL    HW2 7506   3.151   5.508   2.267
 2203SOL     OW 7507   1.861   2.731   0.828
 2203SOL    HW1 7508   1.955   2.753   0.804
 2203SOL    HW2 7509   1.860   2.667   0.904
 2204SOL     OW 7510   4.637   1.599   1.339
 2204SOL    HW1 7511   4.718   1.556   1.380
 2204SOL    HW2 7512   4.554   1.557   1.376
 2205SOL     OW 7513   0.359   6.640   6.487
 2205SOL    HW1 7514   0.447   6.680   6.515
 2205SOL    HW2 7515   0.354   6.639   6.387
 2206SOL     OW 7516   3.812   5.371   6.128
 2206SOL    HW1 7517   3.852   5.279   6.124
 2206SOL    HW2 7518   3.783   5.398   6.037
 2207SOL     OW 7519   2.745   5.237   6.745
 2207SOL    HW1 7520   2.843   5.254   6.739
 2207SOL    HW2 7521   2.722   5.155   6.693
 2208SOL     OW 7522   1.455   5.577   3.023
 2208SOL    HW1 7523   1.421   5.670   3.043
 2208SOL    HW2 7524   1.465   5.527   3.109
 2209SOL     OW 7525   1.194   0.213   5.703
 2209SOL    HW1 7526   1.287   0.227   5.670
 2209SOL    HW2 7527   1.161   0.124   5.670
 2210SOL     OW 7528   0.193   4.821   4.590
 2210SOL    HW1 7529   0.229   4.804   4.682
 2210SOL    HW2 7530   0.119   4.888   4.595
 2211SOL     OW 7531   6.549   0.101   0.434
 2211SOL    HW1 7532   6.635   0.150   0.444
 2211SOL    HW2 7533   6.484   0.132   0.503
 2212SOL     OW 7534   2.426   5.916   0.572
 2212SOL    HW1 7535   2.345   5.867   0.604
 2212SOL    HW2 7536   2.505   5.855   0.574
 2213SOL     OW 7537   3.163   1.540   4.940
 2213SOL    HW1 7538   3.242   1.554   4.999
 2213SOL    HW2 7539   3.095   1.485   4.988
 2214SOL     OW 7540   3.356   3.701   5.304
 2214SOL    HW1 7541   3.446   3.680   5.268
 2214SOL    HW2 7542   3.357   3.791   5.346
 2215SOL     OW 7543   5.996   1.151   0.057
 2215SOL    HW1 7544   5.914   1.108   0.020
 2215SOL    HW2 7545   6.068   1.151   7.015
 2216SOL     OW 7546   1.543   1.004   6.274
 2216SOL    HW1 7547   1.640   0.988   6.288
 2216SOL    HW2 7548   1.530   1.069   6.199
 2217SOL     OW 7549   3.918   7.000   2.176
 2217SOL    HW1 7550   3.906   7.025   2.272
 2217SOL    HW2 7551   3.935   0.054   2.122
 2218SOL     OW 7552   6.451   5.375   6.525
 2218SOL    HW1 7553   6.465   5.331   6.614
 2218SOL    HW2 7554   6.538   5.384   6.478
 2219SOL     OW 7555   5.283   1.751   0.844
 2219SOL    HW1 7556   5.331   1.740   0.931
 2219SOL    HW2 7557   5.225   1.671   0.829
 2220SOL     OW 7558   2.006   6.827   5.189
 2220SOL    HW1 7559   1.953   6.841   5.273
 2220SOL    HW2 7560   2.101   6.857   5.204
 2221SOL     OW 7561   6.099   1.511   5.672
 2221SOL    HW1 7562   6.102   1.605   5.639
 2221SOL    HW2 7563   6.175   1.459   5.632
 2222SOL     OW 7564   5.227   0.814   0.542
 2222SOL    HW1 7565   5.177   0.784   0.623
 2222SOL    HW2 7566   5.314   0.764   0.535
 2223SOL     OW 7567   5.897   1.234   5.100
 2223SOL    HW1 7568   5.934   1.313   5.050
 2223SOL    HW2 7569   5.851   1.265   5.183
 2224SOL     OW 7570   0.099   3.128   1.105
 2224SOL    HW1 7571   0.101   3.222   1.071
 2224SOL    HW2 7572   0.186   3.083   1.084
 2225SOL     OW 7573   6.695   6.912   3.513
 2225SOL    HW1 7574   6.661   6.847   3.581
 2225SOL    HW2 7575   6.736   6.862   3.437
 2226SOL     OW 7576   3.514   5.299   1.239
 2226SOL    HW1 7577   3.490   5.392   1.215
 2226SOL    HW2 7578   3.528   5.245   1.156
 2227SOL     OW 7579   5.417   3.368   6.945
 2227SOL    HW1 7580   5.429   3.348   6.848
 2227SOL    HW2 7581   5.323   3.346   6.973
 2228SOL     OW 7582   3.986   4.910   1.006
 2228SOL    HW1 7583   3.974   4.881   1.101
 2228SOL    HW2 7584   4.082   4.931   0.989
 2229SOL     OW 7585   4.350   2.629   5.430
 2229SOL    HW1 7586   4.265   2.667   5.394
 2229SOL    HW2 7587   4.363   2.658   5.525
 2230SOL     OW 7588   5.699   6.600   0.298
 2230SOL    HW1 7589   5.714   6.628   0.203
 2230SOL    HW2 7590   5.771   6.537   0.325
 2231SOL     OW 7591   0.806   0.822   1.381
 2231SOL    HW1 7592   0.779   0.741   1.328
 2231SOL    HW2 7593   0.744   0.833   1.459
 2232SOL     OW 7594   1.154   2.541   4.651
 2232SOL    HW1 7595   1.162   2.639   4.636
 2232SOL    HW2 7596   1.077   2.505   4.597
 2233SOL     OW 7597   1.758   3.328   0.164
 2233SOL    HW1 7598   1.784   3.294   0.254
 2233SOL    HW2 7599   1.733   3.251   0.105
 2234SOL     OW 7600   4.167   1.362   1.440
 2234SOL    HW1 7601   4.119   1.433   1.388
 2234SOL    HW2 7602   4.111   1.336   1.519
 2235SOL     OW 7603   3.009   6.971   1.560
 2235SOL    HW1 7604   2.931   6.994   1.502
 2235SOL    HW2 7605   3.078   0.015   1.554
 2236SOL     OW 7606   2.366   4.056   6.645
 2236SOL    HW1 7607   2.340   4.152   6.641
 2236SOL    HW2 7608   2.363   4.017   6.553
 2237SOL     OW 7609   5.919   4.833   4.222
 2237SOL    HW1 7610   5.951   4.884   4.142
 2237SOL    HW2 7611   5.858   4.890   4.276
 2238SOL     OW 7612   4.802   4.626   1.903
 2238SOL    HW1 7613   4.815   4.708   1.847
 2238SOL    HW2 7614   4.813   4.545   1.846
 2239SOL     OW 7615   3.617   4.902   4.194
 2239SOL    HW1 7616   3.520   4.917   4.211
 2239SOL    HW2 7617   3.644   4.812   4.229
 2240SOL     OW 7618   3.951   5.885   3.529
 2240SOL    HW1 7619   3.891   5.920   3.457
 2240SOL    HW2 7620   3.898   5.870   3.613
 2241SOL     OW 7621   0.604   5.501   3.316
 2241SOL    HW1 7622   0.549   5.565   3.369
 2241SOL    HW2 7623   0.625   5.542   3.227
 2242SOL     OW 7624   5.553   3.443   2.693
 2242SOL    HW1 7625   5.529   3.408   2.603
 2242SOL    HW2 7626   5.470   3.470   2.742
 2243SOL     OW 7627   1.591   6.758   6.237
 2243SOL    HW1 7628   1.616   6.838   6.291
 2243SOL    HW2 7629   1.546   6.691   6.296
 2244SOL     OW 7630   1.583   6.245   1.614
 2244SOL    HW1 7631   1.508   6.212   1.556
 2244SOL    HW2 7632   1.667   6.252   1.560
 2245SOL     OW 7633   0.598   1.856   1.090
 2245SOL    HW1 7634   0.694   1.829   1.079
 2245SOL    HW2 7635   0.590   1.921   1.166
 2246SOL     OW 7636   1.469   0.983   4.478
 2246SOL    HW1 7637   1.561   0.985   4.516
 2246SOL    HW2 7638   1.416   1.061   4.511
 2247SOL     OW 7639   3.543   2.859   3.628
 2247SOL    HW1 7640   3.637   2.856   3.595
 2247SOL    HW2 7641   3.534   2.931   3.697
 2248SOL     OW 7642   6.394   3.856   5.405
 2248SOL    HW1 7643   6.476   3.893   5.361
 2248SOL    HW2 7644   6.393   3.885   5.501
 2249SOL     OW 7645   5.650   6.547   3.695
 2249SOL    HW1 7646   5.588   6.618   3.662
 2249SOL    HW2 7647   5.744   6.581   3.691
 2250SOL     OW 7648   3.782   3.358   5.454
 2250SOL    HW1 7649   3.744   3.443   5.491
 2250SOL    HW2 7650   3.841   3.379   5.376
 2251SOL     OW 7651   4.843   0.278   6.235
 2251SOL    HW1 7652   4.889   0.284   6.323
 2251SOL    HW2 7653   4.878   0.349   6.174
 2252SOL     OW 7654   4.712   2.365   2.498
 2252SOL    HW1 7655   4.770   2.289   2.467
 2252SOL    HW2 7656   4.766   2.427   2.554
 2253SOL     OW 7657   0.400   4.004   6.733
 2253SOL    HW1 7658   0.346   3.971   6.809
 2253SOL    HW2 7659   0.372   3.958   6.649
 2254SOL     OW 7660   3.662   2.909   5.281
 2254SOL    HW1 7661   3.572   2.940   5.312
 2254SOL    HW2 7662   3.672   2.812   5.302
 2255SOL     OW 7663   4.596   3.200   5.860
 2255SOL    HW1 7664   4.536   3.251   5.922
 2255SOL    HW2 7665   4.558   3.109   5.844
 2256SOL     OW 7666   4.777   6.055   2.195
 2256SOL    HW1 7667   4.819   5.964   2.197
 2256SOL    HW2 7668   4.714   6.061   2.118
 2257SOL     OW 7669   0.171   2.519   4.326
 2257SOL    HW1 7670   0.181   2.420   4.321
 2257SOL    HW2 7671   0.075   2.544   4.318
 2258SOL     OW 7672   1.601   5.438   4.900
 2258SOL    HW1 7673   1.692   5.477   4.909
 2258SOL    HW2 7674   1.576   5.390   4.984
 2259SOL     OW 7675   5.177   3.677   6.352
 2259SOL    HW1 7676   5.162   3.744   6.280
 2259SOL    HW2 7677   5.089   3.645   6.387
 2260SOL     OW 7678   6.767   4.230   1.823
 2260SOL    HW1 7679   6.758   4.307   1.886
 2260SOL    HW2 7680   6.846   4.174   1.849
 2261SOL     OW 7681   6.095   5.222   7.021
 2261SOL    HW1 7682   6.144   5.309   7.023
 2261SOL    HW2 7683   6.160   5.147   7.021
 2262SOL     OW 7684   6.004   0.927   3.185
 2262SOL    HW1 7685   5.935   0.870   3.229
 2262SOL    HW2 7686   6.000   1.020   3.222
 2263SOL     OW 7687   3.211   6.259   6.288
 2263SOL    HW1 7688   3.118   6.286   6.314
 2263SOL    HW2 7689   3.233   6.300   6.200
 2264SOL     OW 7690   2.506   4.478   0.523
 2264SOL    HW1 7691   2.438   4.436   0.583
 2264SOL    HW2 7692   2.531   4.414   0.450
 2265SOL     OW 7693   1.228   0.623   4.265
 2265SOL    HW1 7694   1.309   0.595   4.212
 2265SOL    HW2 7695   1.243   0.606   4.362
 2266SOL     OW 7696   5.090   1.816   0.075
 2266SOL    HW1 7697   5.162   1.799   0.142
 2266SOL    HW2 7698   5.017   1.870   0.116
 2267SOL     OW 7699   4.615   2.298   4.889
 2267SOL    HW1 7700   4.558   2.369   4.849
 2267SOL    HW2 7701   4.621   2.220   4.827
 2268SOL     OW 7702   6.339   4.058   0.028
 2268SOL    HW1 7703   6.361   3.961   0.012
 2268SOL    HW2 7704   6.417   4.103   0.071
 2269SOL     OW 7705   6.280   4.697   5.555
 2269SOL    HW1 7706   6.366   4.678   5.602
 2269SOL    HW2 7707   6.282   4.790   5.517
 2270SOL     OW 7708   3.299   2.614   6.361
 2270SOL    HW1 7709   3.208   2.571   6.362
 2270SOL    HW2 7710   3.303   2.681   6.287
 2271SOL     OW 7711   5.268   3.921   0.399
 2271SOL    HW1 7712   5.323   3.858   0.454
 2271SOL    HW2 7713   5.286   4.015   0.429
 2272SOL     OW 7714   6.208   2.939   6.583
 2272SOL    HW1 7715   6.121   2.984   6.602
 2272SOL    HW2 7716   6.211   2.911   6.487
 2273SOL     OW 7717   1.677   1.684   2.318
 2273SOL    HW1 7718   1.579   1.705   2.320
 2273SOL    HW2 7719   1.716   1.699   2.409
 2274SOL     OW 7720   6.989   2.494   6.500
 2274SOL    HW1 7721   6.895   2.462   6.486
 2274SOL    HW2 7722   7.001   2.582   6.455
 2275SOL     OW 7723   6.660   0.042   4.070
 2275SOL    HW1 7724   6.643   6.986   4.122
 2275SOL    HW2 7725   6.684   0.116   4.133
 2276SOL     OW 7726   2.286   5.391   1.012
 2276SOL    HW1 7727   2.232   5.361   0.933
 2276SOL    HW2 7728   2.313   5.310   1.065
 2277SOL     OW 7729   3.716   3.800   4.264
 2277SOL    HW1 7730   3.679   3.893   4.253
 2277SOL    HW2 7731   3.645   3.740   4.301
 2278SOL     OW 7732   6.454   4.584   4.796
 2278SOL    HW1 7733   6.433   4.644   4.718
 2278SOL    HW2 7734   6.455   4.489   4.765
 2279SOL     OW 7735   5.428   6.746   5.542
 2279SOL    HW1 7736   5.460   6.793   5.460
 2279SOL    HW2 7737   5.432   6.807   5.621
 2280SOL     OW 7738   6.483   6.800   4.410
 2280SOL    HW1 7739   6.573   6.800   4.366
 2280SOL    HW2 7740   6.449   6.706   4.416
 2281SOL     OW 7741   3.505   1.251   2.502
 2281SOL    HW1 7742   3.532   1.184   2.572
 2281SOL    HW2 7743   3.505   1.208   2.412
 2282SOL     OW 7744   5.749   0.277   5.005
 2282SOL    HW1 7745   5.730   0.277   5.103
 2282SOL    HW2 7746   5.826   0.217   4.986
 2283SOL     OW 7747   0.465   4.998   1.087
 2283SOL    HW1 7748   0.476   4.949   1.000
 2283SOL    HW2 7749   0.529   5.075   1.091
 2284SOL     OW 7750   1.000   2.689   6.735
 2284SOL    HW1 7751   1.070   2.753   6.703
 2284SOL    HW2 7752   0.982   2.705   6.832
 2285SOL     OW 7753   2.208   2.304   1.215
 2285SOL    HW1 7754   2.131   2.313   1.278
 2285SOL    HW2 7755   2.256   2.219   1.232
 2286SOL     OW 7756   6.960   6.999   3.564
 2286SOL    HW1 7757   6.865   6.976   3.547
 2286SOL    HW2 7758   6.968   0.069   3.585
 2287SOL     OW 7759   1.984   0.675   3.144
 2287SOL    HW1 7760   1.948   0.729   3.067
 2287SOL    HW2 7761   1.964   0.578   3.128
 2288SOL     OW 7762   6.140   4.960   4.385
 2288SOL    HW1 7763   6.156   4.917   4.474
 2288SOL    HW2 7764   6.226   4.966   4.335
 2289SOL     OW 7765   0.636   5.003   1.838
 2289SOL    HW1 7766   0.598   4.997   1.930
 2289SOL    HW2 7767   0.566   5.039   1.776
 2290SOL     OW 7768   0.503   3.808   0.789
 2290SOL    HW1 7769   0.589   3.778   0.748
 2290SOL    HW2 7770   0.519   3.887   0.847
 2291SOL     OW 7771   2.693   2.691   5.568
 2291SOL    HW1 7772   2.639   2.742   5.635
 2291SOL    HW2 7773   2.755   2.753   5.521
 2292SOL     OW 7774   6.747   1.947   5.147
 2292SOL    HW1 7775   6.746   1.933   5.246
 2292SOL    HW2 7776   6.729   2.044   5.127
 2293SOL     OW 7777   4.426   6.175   1.142
 2293SOL    HW1 7778   4.452   6.233   1.065
 2293SOL    HW2 7779   4.479   6.202   1.223
 2294SOL     OW 7780   3.098   0.461   6.932
 2294SOL    HW1 7781   3.011   0.475   6.979
 2294SOL    HW2 7782   3.159   0.408   6.991
 2295SOL     OW 7783   0.955   2.087   2.872
 2295SOL    HW1 7784   1.024   2.017   2.851
 2295SOL    HW2 7785   0.971   2.168   2.816
 2296SOL     OW 7786   4.593   5.076   1.119
 2296SOL    HW1 7787   4.506   5.040   1.154
 2296SOL    HW2 7788   4.589   5.082   1.019
 2297SOL     OW 7789   4.130   4.427   5.516
 2297SOL    HW1 7790   4.031   4.442   5.528
 2297SOL    HW2 7791   4.181   4.499   5.562
 2298SOL     OW 7792   3.962   2.894   1.620
 2298SOL    HW1 7793   4.062   2.894   1.621
 2298SOL    HW2 7794   3.930   2.851   1.536
 2299SOL     OW 7795   4.031   5.819   5.001
 2299SOL    HW1 7796   3.964   5.890   4.979
 2299SOL    HW2 7797   3.984   5.731   5.011
 2300SOL     OW 7798   2.385   5.656   1.717
 2300SOL    HW1 7799   2.363   5.742   1.763
 2300SOL    HW2 7800   2.336   5.581   1.762
 2301SOL     OW 7801   3.349   2.917   3.204
 2301SOL    HW1 7802   3.295   3.000   3.192
 2301SOL    HW2 7803   3.291   2.837   3.190
 2302SOL     OW 7804   3.863   0.236   0.667
 2302SOL    HW1 7805   3.773   0.231   0.709
 2302SOL    HW2 7806   3.853   0.248   0.568
 2303SOL     OW 7807   2.613   3.210   6.322
 2303SOL    HW1 7808   2.565   3.187   6.407
 2303SOL    HW2 7809   2.560   3.177   6.244
 2304SOL     OW 7810   4.665   7.004   3.814
 2304SOL    HW1 7811   4.586   7.025   3.872
 2304SOL    HW2 7812   4.679   0.051   3.750
 2305SOL     OW 7813   2.494   6.516   2.844
 2305SOL    HW1 7814   2.535   6.606   2.858
 2305SOL    HW2 7815   2.554   6.446   2.882
 2306SOL     OW 7816   3.061   5.178   2.493
 2306SOL    HW1 7817   3.091   5.085   2.516
 2306SOL    HW2 7818   3.125   5.217   2.427
 2307SOL     OW 7819   6.447   3.493   2.464
 2307SOL    HW1 7820   6.395   3.576   2.484
 2307SOL    HW2 7821   6.543   3.516   2.454
 2308SOL     OW 7822   0.880   5.245   1.125
 2308SOL    HW1 7823   0.915   5.223   1.034
 2308SOL    HW2 7824   0.956   5.260   1.188
 2309SOL     OW 7825   1.650   0.718   6.444
 2309SOL    HW1 7826   1.561   0.698   6.486
 2309SOL    HW2 7827   1.646   0.698   6.346
 2310SOL     OW 7828   5.147   6.463   1.179
 2310SOL    HW1 7829   5.114   6.375   1.215
 2310SOL    HW2 7830   5.233   6.449   1.130
 2311SOL     OW 7831   2.301   6.214   1.873
 2311SOL    HW1 7832   2.287   6.312   1.864
 2311SOL    HW2 7833   2.222   6.173   1.919
 2312SOL     OW 7834   3.542   6.597   3.858
 2312SOL    HW1 7835   3.487   6.660   3.912
 2312SOL    HW2 7836   3.559   6.513   3.910
 2313SOL     OW 7837   5.719   5.424   1.352
 2313SOL    HW1 7838   5.651   5.375   1.406
 2313SOL    HW2 7839   5.676   5.504   1.309
 2314SOL     OW 7840   5.975   0.178   4.368
 2314SOL    HW1 7841   5.987   0.246   4.441
 2314SOL    HW2 7842   5.884   0.188   4.328
 2315SOL     OW 7843   5.030   3.256   5.151
 2315SOL    HW1 7844   5.039   3.355   5.141
 2315SOL    HW2 7845   5.048   3.230   5.246
 2316SOL     OW 7846   3.473   0.542   4.429
 2316SOL    HW1 7847   3.384   0.510   4.399
 2316SOL    HW2 7848   3.466   0.638   4.459
 2317SOL     OW 7849   0.497   5.888   3.713
 2317SOL    HW1 7850   0.473   5.883   3.616
 2317SOL    HW2 7851   0.576   5.948   3.724
 2318SOL     OW 7852   2.065   2.843   4.637
 2318SOL    HW1 7853   2.134   2.822   4.706
 2318SOL    HW2 7854   2.036   2.938   4.647
 2319SOL     OW 7855   1.968   5.026   4.462
 2319SOL    HW1 7856   1.869   5.020   4.471
 2319SOL    HW2 7857   2.010   4.944   4.499
 2320SOL     OW 7858   0.726   2.856   5.156
 2320SOL    HW1 7859   0.721   2.818   5.064
 2320SOL    HW2 7860   0.820   2.848   5.191
 2321SOL     OW 7861   2.579   6.524   6.920
 2321SOL    HW1 7862   2.538   6.447   6.969
 2321SOL    HW2 7863   2.607   6.494   6.829
 2322SOL     OW 7864   2.129   2.586   3.769
 2322SOL    HW1 7865   2.145   2.575   3.671
 2322SOL    HW2 7866   2.131   2.497   3.813
 2323SOL     OW 7867   3.224   4.881   2.077
 2323SOL    HW1 7868   3.282   4.872   1.996
 2323SOL    HW2 7869   3.130   4.855   2.055
 2324SOL     OW 7870   6.636   6.561   0.893
 2324SOL    HW1 7871   6.572   6.635   0.875
 2324SOL    HW2 7872   6.616   6.521   0.982
 2325SOL     OW 7873   0.683   4.856   1.298
 2325SOL    HW1 7874   0.651   4.823   1.386
 2325SOL    HW2 7875   0.621   4.928   1.265
 2326SOL     OW 7876   4.254   5.355   6.001
 2326SOL    HW1 7877   4.218   5.267   6.033
 2326SOL    HW2 7878   4.247   5.359   5.901
 2327SOL     OW 7879   6.817   2.261   3.766
 2327SOL    HW1 7880   6.797   2.357   3.788
 2327SOL    HW2 7881   6.731   2.214   3.746
 2328SOL     OW 7882   2.850   1.688   2.713
 2328SOL    HW1 7883   2.880   1.703   2.619
 2328SOL    HW2 7884   2.831   1.776   2.757
 2329SOL     OW 7885   2.023   4.348   4.914
 2329SOL    HW1 7886   1.991   4.257   4.889
 2329SOL    HW2 7887   2.099   4.341   4.978
 2330SOL     OW 7888   0.812   4.106   1.451
 2330SOL    HW1 7889   0.771   4.076   1.364
 2330SOL    HW2 7890   0.912   4.101   1.443
 2331SOL     OW 7891   4.322   5.391   6.847
 2331SOL    HW1 7892   4.418   5.374   6.865
 2331SOL    HW2 7893   4.267   5.313   6.879
 2332SOL     OW 7894   4.741   1.823   4.919
 2332SOL    HW1 7895   4.661   1.801   4.864
 2332SOL    HW2 7896   4.808   1.872   4.862
 2333SOL     OW 7897   0.561   4.592   2.981
 2333SOL    HW1 7898   0.613   4.599   2.896
 2333SOL    HW2 7899   0.473   4.547   2.963
 2334SOL     OW 7900   1.809   0.514   0.273
 2334SOL    HW1 7901   1.729   0.468   0.234
 2334SOL    HW2 7902   1.874   0.445   0.306
 2335SOL     OW 7903   6.405   0.597   2.879
 2335SOL    HW1 7904   6.488   0.542   2.895
 2335SOL    HW2 7905   6.354   0.559   2.802
 2336SOL     OW 7906   4.457   2.519   4.879
 2336SOL    HW1 7907   4.431   2.508   4.783
 2336SOL    HW2 7908   4.389   2.475   4.938
 2337SOL     OW 7909   4.929   1.243   2.248
 2337SOL    HW1 7910   4.950   1.333   2.211
 2337SOL    HW2 7911   4.957   1.173   2.182
 2338SOL     OW 7912   1.654   2.066   5.118
 2338SOL    HW1 7913   1.668   2.062   5.217
 2338SOL    HW2 7914   1.605   1.983   5.088
 2339SOL     OW 7915   3.696   4.001   4.835
 2339SOL    HW1 7916   3.768   4.033   4.773
 2339SOL    HW2 7917   3.607   4.033   4.802
 2340SOL     OW 7918   5.420   4.779   0.159
 2340SOL    HW1 7919   5.433   4.770   0.061
 2340SOL    HW2 7920   5.367   4.701   0.193
 2341SOL     OW 7921   4.673   4.869   1.311
 2341SOL    HW1 7922   4.769   4.843   1.303
 2341SOL    HW2 7923   4.653   4.944   1.247
 2342SOL     OW 7924   0.331   6.778   5.317
 2342SOL    HW1 7925   0.343   6.713   5.241
 2342SOL    HW2 7926   0.377   6.864   5.294
 2343SOL     OW 7927   2.534   5.573   2.492
 2343SOL    HW1 7928   2.467   5.529   2.553
 2343SOL    HW2 7929   2.498   5.660   2.460
 2344SOL     OW 7930   1.662   6.831   0.562
 2344SOL    HW1 7931   1.691   6.790   0.648
 2344SOL    HW2 7932   1.721   6.799   0.488
 2345SOL     OW 7933   3.009   4.992   4.534
 2345SOL    HW1 7934   3.016   4.934   4.453
 2345SOL    HW2 7935   2.926   5.046   4.529
 2346SOL     OW 7936   4.811   2.390   5.071
 2346SOL    HW1 7937   4.743   2.373   4.999
 2346SOL    HW2 7938   4.903   2.379   5.033
 2347SOL     OW 7939   2.640   3.322   1.804
 2347SOL    HW1 7940   2.712   3.392   1.809
 2347SOL    HW2 7941   2.550   3.366   1.809
 2348SOL     OW 7942   3.611   6.477   3.607
 2348SOL    HW1 7943   3.589   6.534   3.686
 2348SOL    HW2 7944   3.555   6.394   3.609
 2349SOL     OW 7945   1.192   4.839   6.120
 2349SOL    HW1 7946   1.180   4.752   6.168
 2349SOL    HW2 7947   1.169   4.915   6.181
 2350SOL     OW 7948   4.594   6.537   6.160
 2350SOL    HW1 7949   4.694   6.532   6.157
 2350SOL    HW2 7950   4.565   6.580   6.246
 2351SOL     OW 7951   3.038   4.964   3.271
 2351SOL    HW1 7952   3.017   4.918   3.357
 2351SOL    HW2 7953   2.954   4.979   3.219
 2352SOL     OW 7954   0.512   5.139   1.633
 2352SOL    HW1 7955   0.560   5.177   1.555
 2352SOL    HW2 7956   0.416   5.124   1.609
 2353SOL     OW 7957   3.363   4.444   5.304
 2353SOL    HW1 7958   3.268   4.411   5.299
 2353SOL    HW2 7959   3.367   4.537   5.267
 2354SOL     OW 7960   2.481   1.357   6.049
 2354SOL    HW1 7961   2.407   1.293   6.072
 2354SOL    HW2 7962   2.516   1.335   5.958
 2355SOL     OW 7963   1.765   5.958   0.133
 2355SOL    HW1 7964   1.846   5.902   0.118
 2355SOL    HW2 7965   1.793   6.047   0.169
 2356SOL     OW 7966   1.801   4.050   0.239
 2356SOL    HW1 7967   1.775   4.033   0.334
 2356SOL    HW2 7968   1.725   4.026   0.178
 2357SOL     OW 7969   4.415   6.029   4.069
 2357SOL    HW1 7970   4.375   5.970   3.999
 2357SOL    HW2 7971   4.417   6.123   4.035
 2358SOL     OW 7972   3.697   5.161   5.345
 2358SOL    HW1 7973   3.753   5.185   5.265
 2358SOL    HW2 7974   3.603   5.192   5.331
 2359SOL     OW 7975   0.528   0.647   6.322
 2359SOL    HW1 7976   0.511   0.737   6.282
 2359SOL    HW2 7977   0.455   0.625   6.387
 2360SOL     OW 7978   5.614   5.290   6.575
 2360SOL    HW1 7979   5.596   5.192   6.566
 2360SOL    HW2 7980   5.527   5.339   6.572
 2361SOL     OW 7981   2.374   1.125   5.142
 2361SOL    HW1 7982   2.418   1.063   5.077
 2361SOL    HW2 7983   2.442   1.160   5.206
 2362SOL     OW 7984   2.383   0.511   5.340
 2362SOL    HW1 7985   2.424   0.434   5.389
 2362SOL    HW2 7986   2.442   0.591   5.348
 2363SOL     OW 7987   4.312   2.254   5.337
 2363SOL    HW1 7988   4.338   2.180   5.275
 2363SOL    HW2 7989   4.230   2.228   5.387
 2364SOL     OW 7990   0.805   2.002   2.490
 2364SOL    HW1 7991   0.872   2.004   2.416
 2364SOL    HW2 7992   0.839   2.055   2.568
 2365SOL     OW 7993   5.828   2.827   6.685
 2365SOL    HW1 7994   5.739   2.821   6.640
 2365SOL    HW2 7995   5.900   2.799   6.621
 2366SOL     OW 7996   1.343   4.452   6.052
 2366SOL    HW1 7997   1.432   4.487   6.082
 2366SOL    HW2 7998   1.315   4.498   5.968
 2367SOL     OW 7999   3.590   4.211   0.563
 2367SOL    HW1 8000   3.652   4.142   0.526
 2367SOL    HW2 8001   3.505   4.210   0.511
 2368SOL     OW 8002   4.904   0.028   2.907
 2368SOL    HW1 8003   4.940   7.003   2.983
 2368SOL    HW2 8004   4.928   0.125   2.918
 2369SOL     OW 8005   1.457   2.819   5.563
 2369SOL    HW1 8006   1.386   2.786   5.626
 2369SOL    HW2 8007   1.496   2.741   5.514
 2370SOL     OW 8008   4.628   3.986   6.156
 2370SOL    HW1 8009   4.575   4.066   6.184
 2370SOL    HW2 8010   4.567   3.918   6.116
 2371SOL     OW 8011   0.550   6.570   2.157
 2371SOL    HW1 8012   0.556   6.578   2.257
 2371SOL    HW2 8013   0.455   6.554   2.131
 2372SOL     OW 8014   6.791   1.845   1.378
 2372SOL    HW1 8015   6.767   1.752   1.405
 2372SOL    HW2 8016   6.752   1.864   1.288
 2373SOL     OW 8017   0.119   0.336   0.156
 2373SOL    HW1 8018   0.203   0.383   0.128
 2373SOL    HW2 8019   0.079   0.289   0.078
 2374SOL     OW 8020   6.305   0.730   3.975
 2374SOL    HW1 8021   6.356   0.814   3.959
 2374SOL    HW2 8022   6.357   0.652   3.940
 2375SOL     OW 8023   2.286   0.169   3.988
 2375SOL    HW1 8024   2.345   0.178   4.068
 2375SOL    HW2 8025   2.275   0.072   3.965
 2376SOL     OW 8026   6.258   2.413   4.657
 2376SOL    HW1 8027   6.317   2.394   4.579
 2376SOL    HW2 8028   6.271   2.508   4.687
 2377SOL     OW 8029   3.431   4.116   3.181
 2377SOL    HW1 8030   3.345   4.139   3.227
 2377SOL    HW2 8031   3.506   4.118   3.247
 2378SOL     OW 8032   4.966   2.890   0.320
 2378SOL    HW1 8033   4.910   2.839   0.254
 2378SOL    HW2 8034   4.906   2.936   0.385
 2379SOL     OW 8035   5.822   2.471   6.522
 2379SOL    HW1 8036   5.884   2.545   6.496
 2379SOL    HW2 8037   5.869   2.410   6.586
 2380SOL     OW 8038   0.149   0.119   6.085
 2380SOL    HW1 8039   0.178   0.215   6.084
 2380SOL    HW2 8040   0.104   0.096   5.999
 2381SOL     OW 8041   2.232   4.043   4.651
 2381SOL    HW1 8042   2.326   4.017   4.629
 2381SOL    HW2 8043   2.185   3.966   4.694
 2382SOL     OW 8044   2.364   4.700   3.685
 2382SOL    HW1 8045   2.290   4.667   3.626
 2382SOL    HW2 8046   2.364   4.800   3.686
 2383SOL     OW 8047   5.814   6.378   0.798
 2383SOL    HW1 8048   5.746   6.327   0.850
 2383SOL    HW2 8049   5.788   6.380   0.701
 2384SOL     OW 8050   6.592   6.368   2.263
 2384SOL    HW1 8051   6.676   6.372   2.316
 2384SOL    HW2 8052   6.611   6.391   2.168
 2385SOL     OW 8053   6.582   6.483   1.151
 2385SOL    HW1 8054   6.635   6.473   1.235
 2385SOL    HW2 8055   6.486   6.498   1.174
 2386SOL     OW 8056   5.234   5.776   4.374
 2386SOL    HW1 8057   5.264   5.722   4.452
 2386SOL    HW2 8058   5.208   5.868   4.405
 2387SOL     OW 8059   1.045   1.558   3.984
 2387SOL    HW1 8060   0.986   1.634   3.957
 2387SOL    HW2 8061   1.140   1.583   3.968
 2388SOL     OW 8062   1.775   2.135   3.458
 2388SOL    HW1 8063   1.826   2.102   3.379
 2388SOL    HW2 8064   1.830   2.122   3.541
 2389SOL     OW 8065   5.440   3.343   3.483
 2389SOL    HW1 8066   5.423   3.357   3.580
 2389SOL    HW2 8067   5.353   3.326   3.436
 2390SOL     OW 8068   3.667   3.632   3.734
 2390SOL    HW1 8069   3.632   3.726   3.743
 2390SOL    HW2 8070   3.625   3.575   3.805
 2391SOL     OW 8071   5.044   5.095   5.694
 2391SOL    HW1 8072   5.079   5.023   5.632
 2391SOL    HW2 8073   4.947   5.109   5.676
 2392SOL     OW 8074   3.541   0.262   5.268
 2392SOL    HW1 8075   3.471   0.198   5.298
 2392SOL    HW2 8076   3.626   0.212   5.250
 2393SOL     OW 8077   4.216   5.101   6.088
 2393SOL    HW1 8078   4.282   5.067   6.021
 2393SOL    HW2 8079   4.162   5.025   6.124
 2394SOL     OW 8080   1.903   3.491   4.813
 2394SOL    HW1 8081   1.870   3.585   4.824
 2394SOL    HW2 8082   1.836   3.437   4.763
 2395SOL     OW 8083   6.242   2.365   6.571
 2395SOL    HW1 8084   6.258   2.440   6.507
 2395SOL    HW2 8085   6.254   2.398   6.665
 2396SOL     OW 8086   4.083   5.178   1.178
 2396SOL    HW1 8087   4.092   5.268   1.220
 2396SOL    HW2 8088   4.001   5.133   1.212
 2397SOL     OW 8089   0.273   4.092   7.022
 2397SOL    HW1 8090   0.344   4.157   0.021
 2397SOL    HW2 8091   0.285   4.007   0.046
 2398SOL     OW 8092   2.990   3.855   6.468
 2398SOL    HW1 8093   3.052   3.932   6.484
 2398SOL    HW2 8094   2.961   3.855   6.372
 2399SOL     OW 8095   4.880   1.135   2.493
 2399SOL    HW1 8096   4.884   1.203   2.567
 2399SOL    HW2 8097   4.869   1.181   2.405
 2400SOL     OW 8098   3.646   5.390   0.565
 2400SOL    HW1 8099   3.557   5.428   0.540
 2400SOL    HW2 8100   3.652   5.295   0.535
 2401SOL     OW 8101   4.516   6.771   5.971
 2401SOL    HW1 8102   4.552   6.698   6.029
 2401SOL    HW2 8103   4.503   6.854   6.025
 2402SOL     OW 8104   0.826   0.938   4.504
 2402SOL    HW1 8105   0.813   1.033   4.476
 2402SOL    HW2 8106   0.825   0.878   4.424
 2403SOL     OW 8107   2.473   2.421   0.428
 2403SOL    HW1 8108   2.509   2.384   0.514
 2403SOL    HW2 8109   2.373   2.423   0.433
 2404SOL     OW 8110   5.218   0.496   1.400
 2404SOL    HW1 8111   5.196   0.550   1.480
 2404SOL    HW2 8112   5.278   0.420   1.426
 2405SOL     OW 8113   3.643   3.581   3.234
 2405SOL    HW1 8114   3.704   3.520   3.184
 2405SOL    HW2 8115   3.633   3.548   3.328
 2406SOL     OW 8116   2.190   0.434   3.077
 2406SOL    HW1 8117   2.090   0.438   3.079
 2406SOL    HW2 8118   2.222   0.358   3.133
 2407SOL     OW 8119   5.633   2.683   3.009
 2407SOL    HW1 8120   5.716   2.652   3.055
 2407SOL    HW2 8121   5.626   2.639   2.919
 2408SOL     OW 8122   4.271   4.727   3.864
 2408SOL    HW1 8123   4.175   4.704   3.882
 2408SOL    HW2 8124   4.275   4.804   3.800
 2409SOL     OW 8125   1.486   3.099   1.558
 2409SOL    HW1 8126   1.400   3.059   1.589
 2409SOL    HW2 8127   1.468   3.184   1.508
 2410SOL     OW 8128   4.648   2.750   6.720
 2410SOL    HW1 8129   4.618   2.811   6.647
 2410SOL    HW2 8130   4.746   2.733   6.712
 2411SOL     OW 8131   4.712   5.436   5.598
 2411SOL    HW1 8132   4.650   5.434   5.677
 2411SOL    HW2 8133   4.758   5.524   5.594
 2412SOL     OW 8134   4.081   4.650   0.636
 2412SOL    HW1 8135   4.005   4.602   0.680
 2412SOL    HW2 8136   4.143   4.583   0.595
 2413SOL     OW 8137   6.516   2.139   0.385
 2413SOL    HW1 8138   6.603   2.146   0.335
 2413SOL    HW2 8139   6.513   2.052   0.434
 2414SOL     OW 8140   4.924   4.035   2.258
 2414SOL    HW1 8141   4.933   4.007   2.163
 2414SOL    HW2 8142   4.991   3.986   2.314
 2415SOL     OW 8143   0.989   6.958   1.920
 2415SOL    HW1 8144   0.893   6.970   1.895
 2415SOL    HW2 8145   1.016   0.003   1.984
 2416SOL     OW 8146   3.430   2.126   4.951
 2416SOL    HW1 8147   3.482   2.090   5.028
 2416SOL    HW2 8148   3.342   2.161   4.983
 2417SOL     OW 8149   4.065   3.302   5.505
 2417SOL    HW1 8150   4.053   3.394   5.467
 2417SOL    HW2 8151   3.985   3.279   5.561
 2418SOL     OW 8152   3.395   4.169   4.159
 2418SOL    HW1 8153   3.372   4.117   4.076
 2418SOL    HW2 8154   3.334   4.142   4.233
 2419SOL     OW 8155   1.031   6.234   4.022
 2419SOL    HW1 8156   1.061   6.155   3.968
 2419SOL    HW2 8157   1.057   6.221   4.118
 2420SOL     OW 8158   4.002   2.012   1.204
 2420SOL    HW1 8159   4.029   1.950   1.278
 2420SOL    HW2 8160   3.904   2.031   1.211
 2421SOL     OW 8161   2.583   1.196   5.570
 2421SOL    HW1 8162   2.654   1.195   5.499
 2421SOL    HW2 8163   2.600   1.271   5.633
 2422SOL     OW 8164   6.201   6.934   1.583
 2422SOL    HW1 8165   6.272   7.004   1.572
 2422SOL    HW2 8166   6.225   6.874   1.660
 2423SOL     OW 8167   1.549   6.498   3.723
 2423SOL    HW1 8168   1.639   6.540   3.719
 2423SOL    HW2 8169   1.558   6.401   3.741
 2424SOL     OW 8170   6.448   6.054   5.916
 2424SOL    HW1 8171   6.366   6.022   5.963
 2424SOL    HW2 8172   6.432   6.057   5.818
 2425SOL     OW 8173   6.593   0.391   4.094
 2425SOL    HW1 8174   6.574   0.435   4.182
 2425SOL    HW2 8175   6.531   0.314   4.082
 2426SOL     OW 8176   1.195   5.503   5.010
 2426SOL    HW1 8177   1.263   5.522   4.939
 2426SOL    HW2 8178   1.158   5.411   4.997
 2427SOL     OW 8179   5.356   5.638   6.442
 2427SOL    HW1 8180   5.450   5.604   6.437
 2427SOL    HW2 8181   5.297   5.565   6.477
 2428SOL     OW 8182   6.868   0.283   3.350
 2428SOL    HW1 8183   6.807   0.272   3.429
 2428SOL    HW2 8184   6.910   0.373   3.353
 2429SOL     OW 8185   6.252   5.599   4.197
 2429SOL    HW1 8186   6.205   5.656   4.264
 2429SOL    HW2 8187   6.289   5.518   4.241
 2430SOL     OW 8188   6.274   1.577   0.798
 2430SOL    HW1 8189   6.276   1.481   0.768
 2430SOL    HW2 8190   6.345   1.628   0.750
 2431SOL     OW 8191   3.941   0.229   2.027
 2431SOL    HW1 8192   4.019   0.274   2.069
 2431SOL    HW2 8193   3.887   0.296   1.976
 2432SOL     OW 8194   3.496   6.802   2.983
 2432SOL    HW1 8195   3.513   6.878   2.921
 2432SOL    HW2 8196   3.420   6.747   2.949
 2433SOL     OW 8197   3.221   6.920   1.329
 2433SOL    HW1 8198   3.125   6.902   1.307
 2433SOL    HW2 8199   3.226   7.000   1.389
 2434SOL     OW 8200   4.451   1.021   4.113
 2434SOL    HW1 8201   4.425   0.925   4.100
 2434SOL    HW2 8202   4.549   1.031   4.099
 2435SOL     OW 8203   4.303   5.027   5.825
 2435SOL    HW1 8204   4.206   5.010   5.810
 2435SOL    HW2 8205   4.347   5.047   5.737
 2436SOL     OW 8206   1.964   6.473   1.523
 2436SOL    HW1 8207   2.034   6.544   1.523
 2436SOL    HW2 8208   1.893   6.496   1.457
 2437SOL     OW 8209   3.622   5.976   0.816
 2437SOL    HW1 8210   3.644   5.927   0.732
 2437SOL    HW2 8211   3.528   6.010   0.812
 2438SOL     OW 8212   3.709   1.730   5.902
 2438SOL    HW1 8213   3.649   1.772   5.833
 2438SOL    HW2 8214   3.692   1.772   5.991
 2439SOL     OW 8215   0.955   4.031   6.661
 2439SOL    HW1 8216   0.947   4.112   6.603
 2439SOL    HW2 8217   0.906   3.954   6.619
 2440SOL     OW 8218   5.168   6.170   5.100
 2440SOL    HW1 8219   5.237   6.197   5.033
 2440SOL    HW2 8220   5.080   6.157   5.054
 2441SOL     OW 8221   6.657   0.372   0.039
 2441SOL    HW1 8222   6.620   0.451   0.087
 2441SOL    HW2 8223   6.587   0.333   7.007
 2442SOL     OW 8224   6.625   5.243   4.458
 2442SOL    HW1 8225   6.601   5.294   4.540
 2442SOL    HW2 8226   6.674   5.303   4.395
 2443SOL     OW 8227   3.635   6.569   5.274
 2443SOL    HW1 8228   3.689   6.644   5.237
 2443SOL    HW2 8229   3.602   6.593   5.366
 2444SOL     OW 8230   3.364   4.711   5.786
 2444SOL    HW1 8231   3.420   4.794   5.789
 2444SOL    HW2 8232   3.331   4.696   5.693
 2445SOL     OW 8233   0.549   0.320   1.586
 2445SOL    HW1 8234   0.586   0.412   1.573
 2445SOL    HW2 8235   0.511   0.311   1.678
 2446SOL     OW 8236   0.070   3.913   3.686
 2446SOL    HW1 8237   0.056   3.816   3.701
 2446SOL    HW2 8238   7.010   3.956   3.664
 2447SOL     OW 8239   3.063   1.867   0.571
 2447SOL    HW1 8240   3.016   1.945   0.528
 2447SOL    HW2 8241   3.146   1.845   0.519
 2448SOL     OW 8242   0.553   0.746   5.392
 2448SOL    HW1 8243   0.483   0.778   5.457
 2448SOL    HW2 8244   0.640   0.792   5.412
 2449SOL     OW 8245   6.978   4.501   1.647
 2449SOL    HW1 8246   6.984   4.572   1.718
 2449SOL    HW2 8247   0.001   4.420   1.676
 2450SOL     OW 8248   2.750   4.741   4.610
 2450SOL    HW1 8249   2.758   4.838   4.588
 2450SOL    HW2 8250   2.762   4.728   4.709
 2451SOL     OW 8251   0.572   0.253   3.520
 2451SOL    HW1 8252   0.525   0.322   3.575
 2451SOL    HW2 8253   0.508   0.210   3.456
 2452SOL     OW 8254   2.256   2.567   2.897
 2452SOL    HW1 8255   2.231   2.654   2.938
 2452SOL    HW2 8256   2.310   2.514   2.963
 2453SOL     OW 8257   6.375   3.717   1.338
 2453SOL    HW1 8258   6.280   3.730   1.311
 2453SOL    HW2 8259   6.382   3.714   1.438
 2454SOL     OW 8260   3.413   1.025   0.448
 2454SOL    HW1 8261   3.492   1.031   0.510
 2454SOL    HW2 8262   3.439   1.058   0.357
 2455SOL     OW 8263   5.481   6.744   0.686
 2455SOL    HW1 8264   5.388   6.714   0.666
 2455SOL    HW2 8265   5.488   6.769   0.782
 2456SOL     OW 8266   6.198   0.137   0.479
 2456SOL    HW1 8267   6.227   0.064   0.417
 2456SOL    HW2 8268   6.157   0.211   0.425
 2457SOL     OW 8269   6.839   6.206   0.238
 2457SOL    HW1 8270   6.891   6.247   0.313
 2457SOL    HW2 8271   6.745   6.243   0.240
 2458SOL     OW 8272   2.724   5.451   4.023
 2458SOL    HW1 8273   2.705   5.359   3.987
 2458SOL    HW2 8274   2.782   5.443   4.104
 2459SOL     OW 8275   2.571   6.599   0.559
 2459SOL    HW1 8276   2.507   6.635   0.627
 2459SOL    HW2 8277   2.665   6.610   0.591
 2460SOL     OW 8278   2.010   0.232   1.018
 2460SOL    HW1 8279   2.017   0.156   1.083
 2460SOL    HW2 8280   2.090   0.232   0.958
 2461SOL     OW 8281   4.858   0.441   2.708
 2461SOL    HW1 8282   4.840   0.428   2.610
 2461SOL    HW2 8283   4.878   0.537   2.726
 2462SOL     OW 8284   2.388   5.823   0.296
 2462SOL    HW1 8285   2.353   5.850   0.385
 2462SOL    HW2 8286   2.312   5.796   0.236
 2463SOL     OW 8287   6.133   2.166   4.677
 2463SOL    HW1 8288   6.045   2.149   4.632
 2463SOL    HW2 8289   6.175   2.247   4.637
 2464SOL     OW 8290   1.563   4.421   1.745
 2464SOL    HW1 8291   1.652   4.455   1.713
 2464SOL    HW2 8292   1.577   4.351   1.815
 2465SOL     OW 8293   6.760   5.922   1.025
 2465SOL    HW1 8294   6.731   5.923   0.929
 2465SOL    HW2 8295   6.681   5.939   1.084
 2466SOL     OW 8296   3.301   1.028   1.615
 2466SOL    HW1 8297   3.388   0.980   1.609
 2466SOL    HW2 8298   3.258   1.010   1.703
 2467SOL     OW 8299   5.680   1.848   5.689
 2467SOL    HW1 8300   5.709   1.880   5.599
 2467SOL    HW2 8301   5.656   1.927   5.747
 2468SOL     OW 8302   6.272   6.479   2.004
 2468SOL    HW1 8303   6.197   6.541   1.980
 2468SOL    HW2 8304   6.235   6.390   2.030
 2469SOL     OW 8305   3.548   5.115   5.093
 2469SOL    HW1 8306   3.520   5.079   5.182
 2469SOL    HW2 8307   3.555   5.041   5.027
 2470SOL     OW 8308   3.090   4.408   6.275
 2470SOL    HW1 8309   3.032   4.490   6.279
 2470SOL    HW2 8310   3.186   4.434   6.286
 2471SOL     OW 8311   1.887   6.078   1.763
 2471SOL    HW1 8312   1.950   6.130   1.704
 2471SOL    HW2 8313   1.849   6.001   1.712
 2472SOL     OW 8314   5.451   1.471   4.322
 2472SOL    HW1 8315   5.521   1.541   4.325
 2472SOL    HW2 8316   5.362   1.513   4.302
 2473SOL     OW 8317   1.825   4.005   5.408
 2473SOL    HW1 8318   1.897   3.965   5.464
 2473SOL    HW2 8319   1.745   4.025   5.466
 2474SOL     OW 8320   0.359   5.522   0.044
 2474SOL    HW1 8321   0.444   5.471   0.060
 2474SOL    HW2 8322   0.284   5.457   0.031
 2475SOL     OW 8323   4.603   1.101   1.042
 2475SOL    HW1 8324   4.629   1.008   1.068
 2475SOL    HW2 8325   4.543   1.098   0.962
 2476SOL     OW 8326   0.795   2.795   3.203
 2476SOL    HW1 8327   0.842   2.860   3.262
 2476SOL    HW2 8328   0.741   2.732   3.258
 2477SOL     OW 8329   6.168   0.465   2.403
 2477SOL    HW1 8330   6.129   0.540   2.351
 2477SOL    HW2 8331   6.172   0.383   2.346
 2478SOL     OW 8332   5.420   6.633   2.063
 2478SOL    HW1 8333   5.328   6.672   2.072
 2478SOL    HW2 8334   5.425   6.549   2.118
 2479SOL     OW 8335   0.667   3.612   1.624
 2479SOL    HW1 8336   0.636   3.587   1.716
 2479SOL    HW2 8337   0.701   3.706   1.625
 2480SOL     OW 8338   6.187   3.905   0.938
 2480SOL    HW1 8339   6.231   3.881   0.852
 2480SOL    HW2 8340   6.092   3.933   0.920
 2481SOL     OW 8341   2.984   6.554   0.442
 2481SOL    HW1 8342   2.967   6.517   0.533
 2481SOL    HW2 8343   3.064   6.510   0.402
 2482SOL     OW 8344   5.163   3.160   5.371
 2482SOL    HW1 8345   5.183   3.097   5.296
 2482SOL    HW2 8346   5.179   3.114   5.459
 2483SOL     OW 8347   2.699   1.354   0.151
 2483SOL    HW1 8348   2.692   1.447   0.186
 2483SOL    HW2 8349   2.785   1.344   0.101
 2484SOL     OW 8350   2.018   1.008   0.441
 2484SOL    HW1 8351   1.975   1.073   0.378
 2484SOL    HW2 8352   2.008   0.915   0.406
 2485SOL     OW 8353   4.566   5.054   1.946
 2485SOL    HW1 8354   4.573   5.076   1.848
 2485SOL    HW2 8355   4.483   5.096   1.983
 2486SOL     OW 8356   2.929   5.798   3.045
 2486SOL    HW1 8357   2.830   5.802   3.057
 2486SOL    HW2 8358   2.964   5.715   3.088
 2487SOL     OW 8359   3.958   5.282   7.019
 2487SOL    HW1 8360   3.951   5.382   7.021
 2487SOL    HW2 8361   3.876   5.243   6.978
 2488SOL     OW 8362   2.360   4.200   1.997
 2488SOL    HW1 8363   2.366   4.273   2.065
 2488SOL    HW2 8364   2.289   4.135   2.024
 2489SOL     OW 8365   2.274   4.669   4.069
 2489SOL    HW1 8366   2.313   4.608   4.139
 2489SOL    HW2 8367   2.337   4.744   4.052
 2490SOL     OW 8368   6.355   5.524   0.853
 2490SOL    HW1 8369   6.403   5.530   0.940
 2490SOL    HW2 8370   6.418   5.549   0.779
 2491SOL     OW 8371   2.063   5.588   3.080
 2491SOL    HW1 8372   1.994   5.589   3.152
 2491SOL    HW2 8373   2.151   5.616   3.118
 2492SOL     OW 8374   3.760   3.006   6.656
 2492SOL    HW1 8375   3.740   2.994   6.753
 2492SOL    HW2 8376   3.774   2.917   6.614
 2493SOL     OW 8377   6.521   0.124   3.086
 2493SOL    HW1 8378   6.462   0.173   3.149
 2493SOL    HW2 8379   6.520   0.026   3.108
 2494SOL     OW 8380   5.352   3.532   2.343
 2494SOL    HW1 8381   5.428   3.479   2.305
 2494SOL    HW2 8382   5.282   3.470   2.377
 2495SOL     OW 8383   4.861   0.420   5.332
 2495SOL    HW1 8384   4.875   0.514   5.361
 2495SOL    HW2 8385   4.833   0.418   5.236
 2496SOL     OW 8386   0.616   5.338   6.872
 2496SOL    HW1 8387   0.658   5.422   6.907
 2496SOL    HW2 8388   0.518   5.351   6.862
 2497SOL     OW 8389   0.127   1.815   0.202
 2497SOL    HW1 8390   0.177   1.776   0.279
 2497SOL    HW2 8391   0.109   1.743   0.135
 2498SOL     OW 8392   2.651   2.211   3.337
 2498SOL    HW1 8393   2.635   2.237   3.433
 2498SOL    HW2 8394   2.571   2.234   3.282
 2499SOL     OW 8395   5.443   1.082   4.703
 2499SOL    HW1 8396   5.388   1.003   4.732
 2499SOL    HW2 8397   5.456   1.079   4.604
 2500SOL     OW 8398   4.994   3.498   5.519
 2500SOL    HW1 8399   4.984   3.568   5.449
 2500SOL    HW2 8400   4.950   3.413   5.489
 2501SOL     OW 8401   6.449   5.159   6.739
 2501SOL    HW1 8402   6.378   5.129   6.804
 2501SOL    HW2 8403   6.458   5.092   6.666
 2502SOL     OW 8404   2.749   6.175   3.706
 2502SOL    HW1 8405   2.752   6.141   3.800
 2502SOL    HW2 8406   2.826   6.137   3.654
 2503SOL     OW 8407   3.843   5.639   5.614
 2503SOL    HW1 8408   3.875   5.666   5.523
 2503SOL    HW2 8409   3.802   5.719   5.659
 2504SOL     OW 8410   2.582   5.248   5.118
 2504SOL    HW1 8411   2.484   5.238   5.133
 2504SOL    HW2 8412   2.598   5.321   5.051
 2505SOL     OW 8413   2.824   6.215   4.532
 2505SOL    HW1 8414   2.822   6.175   4.624
 2505SOL    HW2 8415   2.899   6.174   4.480
 2506SOL     OW 8416   0.476   3.424   6.209
 2506SOL    HW1 8417   0.507   3.441   6.115
 2506SOL    HW2 8418   0.401   3.358   6.207
 2507SOL     OW 8419   5.837   5.012   6.940
 2507SOL    HW1 8420   5.921   4.958   6.929
 2507SOL    HW2 8421   5.840   5.091   6.880
 2508SOL     OW 8422   2.748   1.740   1.809
 2508SOL    HW1 8423   2.839   1.717   1.775
 2508SOL    HW2 8424   2.703   1.801   1.744
 2509SOL     OW 8425   5.821   2.459   2.550
 2509SOL    HW1 8426   5.793   2.494   2.461
 2509SOL    HW2 8427   5.743   2.463   2.613
 2510SOL     OW 8428   2.706   4.502   0.742
 2510SOL    HW1 8429   2.725   4.593   0.780
 2510SOL    HW2 8430   2.632   4.508   0.676
 2511SOL     OW 8431   1.239   1.649   4.729
 2511SOL    HW1 8432   1.248   1.682   4.635
 2511SOL    HW2 8433   1.299   1.570   4.742
 2512SOL     OW 8434   6.004   4.377   4.772
 2512SOL    HW1 8435   5.989   4.361   4.675
 2512SOL    HW2 8436   6.090   4.333   4.800
 2513SOL     OW 8437   1.401   2.363   6.187
 2513SOL    HW1 8438   1.304   2.376   6.205
 2513SOL    HW2 8439   1.429   2.424   6.113
 2514SOL     OW 8440   0.562   3.105   3.741
 2514SOL    HW1 8441   0.547   3.135   3.646
 2514SOL    HW2 8442   0.509   3.023   3.758
 2515SOL     OW 8443   1.192   6.489   1.184
 2515SOL    HW1 8444   1.186   6.586   1.209
 2515SOL    HW2 8445   1.270   6.447   1.230
 2516SOL     OW 8446   6.388   5.166   2.927
 2516SOL    HW1 8447   6.487   5.150   2.923
 2516SOL    HW2 8448   6.363   5.199   3.018
 2517SOL     OW 8449   2.272   5.687   6.381
 2517SOL    HW1 8450   2.334   5.651   6.310
 2517SOL    HW2 8451   2.183   5.642   6.373
 2518SOL     OW 8452   1.996   3.369   0.027
 2518SOL    HW1 8453   1.913   3.382   0.081
 2518SOL    HW2 8454   2.019   3.272   0.023
 2519SOL     OW 8455   4.972   4.653   4.381
 2519SOL    HW1 8456   5.066   4.620   4.373
 2519SOL    HW2 8457   4.948   4.706   4.300
 2520SOL     OW 8458   1.506   2.511   1.121
 2520SOL    HW1 8459   1.444   2.473   1.189
 2520SOL    HW2 8460   1.585   2.450   1.110
 2521SOL     OW 8461   1.028   0.025   5.882
 2521SOL    HW1 8462   1.057   0.016   5.787
 2521SOL    HW2 8463   1.104   0.056   5.938
 2522SOL     OW 8464   0.739   3.139   5.005
 2522SOL    HW1 8465   0.782   3.158   4.916
 2522SOL    HW2 8466   0.709   3.044   5.007
 2523SOL     OW 8467   6.545   2.906   0.814
 2523SOL    HW1 8468   6.634   2.864   0.833
 2523SOL    HW2 8469   6.549   3.003   0.838
 2524SOL     OW 8470   0.329   6.303   4.683
 2524SOL    HW1 8471   0.303   6.290   4.779
 2524SOL    HW2 8472   0.253   6.275   4.624
 2525SOL     OW 8473   1.937   3.279   3.883
 2525SOL    HW1 8474   2.019   3.291   3.940
 2525SOL    HW2 8475   1.899   3.188   3.899
 2526SOL     OW 8476   0.347   3.245   5.258
 2526SOL    HW1 8477   0.293   3.221   5.339
 2526SOL    HW2 8478   0.302   3.319   5.209
 2527SOL     OW 8479   6.129   0.196   5.341
 2527SOL    HW1 8480   6.054   0.137   5.313
 2527SOL    HW2 8481   6.148   0.181   5.438
 2528SOL     OW 8482   5.803   4.622   1.371
 2528SOL    HW1 8483   5.812   4.552   1.300
 2528SOL    HW2 8484   5.831   4.711   1.335
 2529SOL     OW 8485   5.766   4.625   5.938
 2529SOL    HW1 8486   5.675   4.663   5.950
 2529SOL    HW2 8487   5.760   4.542   5.881
 2530SOL     OW 8488   1.211   6.492   4.506
 2530SOL    HW1 8489   1.113   6.514   4.516
 2530SOL    HW2 8490   1.247   6.537   4.425
 2531SOL     OW 8491   5.793   6.362   4.588
 2531SOL    HW1 8492   5.710   6.365   4.644
 2531SOL    HW2 8493   5.774   6.314   4.502
 2532SOL     OW 8494   0.648   5.425   0.651
 2532SOL    HW1 8495   0.637   5.405   0.553
 2532SOL    HW2 8496   0.663   5.523   0.664
 2533SOL     OW 8497   5.603   6.513   4.834
 2533SOL    HW1 8498   5.690   6.528   4.880
 2533SOL    HW2 8499   5.555   6.437   4.879
 2534SOL     OW 8500   2.247   0.755   3.252
 2534SOL    HW1 8501   2.164   0.713   3.215
 2534SOL    HW2 8502   2.265   0.718   3.343
 2535SOL     OW 8503   1.876   1.921   6.456
 2535SOL    HW1 8504   1.891   1.824   6.471
 2535SOL    HW2 8505   1.842   1.936   6.364
 2536SOL     OW 8506   0.757   1.734   3.292
 2536SOL    HW1 8507   0.678   1.797   3.290
 2536SOL    HW2 8508   0.841   1.787   3.304
 2537SOL     OW 8509   4.645   6.499   0.596
 2537SOL    HW1 8510   4.593   6.419   0.626
 2537SOL    HW2 8511   4.644   6.569   0.668
 2538SOL     OW 8512   1.714   4.234   5.275
 2538SOL    HW1 8513   1.782   4.182   5.327
 2538SOL    HW2 8514   1.715   4.204   5.180
 2539SOL     OW 8515   4.079   6.870   5.529
 2539SOL    HW1 8516   4.074   6.770   5.526
 2539SOL    HW2 8517   4.023   6.904   5.604
 2540SOL     OW 8518   5.299   1.048   1.452
 2540SOL    HW1 8519   5.279   1.059   1.355
 2540SOL    HW2 8520   5.396   1.066   1.468
 2541SOL     OW 8521   1.327   0.512   5.692
 2541SOL    HW1 8522   1.284   0.489   5.605
 2541SOL    HW2 8523   1.304   0.606   5.717
 2542SOL     OW 8524   3.892   2.056   4.462
 2542SOL    HW1 8525   3.965   2.108   4.418
 2542SOL    HW2 8526   3.808   2.110   4.462
 2543SOL     OW 8527   1.999   0.886   2.894
 2543SOL    HW1 8528   1.933   0.950   2.855
 2543SOL    HW2 8529   2.042   0.833   2.821
 2544SOL     OW 8530   0.525   5.007   2.077
 2544SOL    HW1 8531   0.434   4.968   2.095
 2544SOL    HW2 8532   0.525   5.103   2.103
 2545SOL     OW 8533   1.422   1.219   1.498
 2545SOL    HW1 8534   1.505   1.163   1.507
 2545SOL    HW2 8535   1.430   1.276   1.415
 2546SOL     OW 8536   6.785   3.189   0.729
 2546SOL    HW1 8537   6.879   3.207   0.758
 2546SOL    HW2 8538   6.726   3.180   0.809
 2547SOL     OW 8539   5.502   5.902   0.829
 2547SOL    HW1 8540   5.469   5.919   0.736
 2547SOL    HW2 8541   5.489   5.985   0.885
 2548SOL     OW 8542   2.489   0.537   4.649
 2548SOL    HW1 8543   2.489   0.608   4.720
 2548SOL    HW2 8544   2.531   0.572   4.566
 2549SOL     OW 8545   2.316   2.366   1.838
 2549SOL    HW1 8546   2.374   2.406   1.909
 2549SOL    HW2 8547   2.346   2.273   1.819
 2550SOL     OW 8548   5.445   0.790   7.017
 2550SOL    HW1 8549   5.385   0.764   0.065
 2550SOL    HW2 8550   5.477   0.707   6.970
 2551SOL     OW 8551   3.652   5.282   6.999
 2551SOL    HW1 8552   3.649   5.362   0.031
 2551SOL    HW2 8553   3.585   5.214   0.002
 2552SOL     OW 8554   2.338   5.427   6.773
 2552SOL    HW1 8555   2.411   5.386   6.829
 2552SOL    HW2 8556   2.377   5.463   6.689
 2553SOL     OW 8557   3.291   2.784   6.141
 2553SOL    HW1 8558   3.198   2.806   6.111
 2553SOL    HW2 8559   3.355   2.801   6.066
 2554SOL     OW 8560   1.724   5.795   6.789
 2554SOL    HW1 8561   1.685   5.783   6.697
 2554SOL    HW2 8562   1.733   5.706   6.833
 2555SOL     OW 8563   5.848   6.182   6.722
 2555SOL    HW1 8564   5.849   6.120   6.644
 2555SOL    HW2 8565   5.760   6.231   6.724
 2556SOL     OW 8566   3.963   6.931   1.320
 2556SOL    HW1 8567   3.943   6.853   1.379
 2556SOL    HW2 8568   3.992   6.899   1.230
 2557SOL     OW 8569   2.673   0.305   6.986
 2557SOL    HW1 8570   2.690   0.221   0.012
 2557SOL    HW2 8571   2.737   0.376   7.015
 2558SOL     OW 8572   4.380   4.109   5.475
 2558SOL    HW1 8573   4.347   4.180   5.414
 2558SOL    HW2 8574   4.414   4.032   5.421
 2559SOL     OW 8575   6.576   3.319   3.706
 2559SOL    HW1 8576   6.622   3.230   3.711
 2559SOL    HW2 8577   6.561   3.354   3.799
 2560SOL     OW 8578   5.182   3.959   3.540
 2560SOL    HW1 8579   5.083   3.972   3.544
 2560SOL    HW2 8580   5.205   3.898   3.465
 2561SOL     OW 8581   3.981   1.456   3.342
 2561SOL    HW1 8582   3.921   1.428   3.416
 2561SOL    HW2 8583   4.076   1.458   3.374
 2562SOL     OW 8584   3.037   5.753   3.465
 2562SOL    HW1 8585   3.108   5.695   3.427
 2562SOL    HW2 8586   3.066   5.789   3.553
 2563SOL     OW 8587   3.270   1.357   5.941
 2563SOL    HW1 8588   3.256   1.431   5.875
 2563SOL    HW2 8589   3.367   1.352   5.965
 2564SOL     OW 8590   1.922   6.588   0.180
 2564SOL    HW1 8591   1.963   6.501   0.152
 2564SOL    HW2 8592   1.875   6.576   0.268
 2565SOL     OW 8593   0.300   0.700   0.225
 2565SOL    HW1 8594   0.341   0.616   0.188
 2565SOL    HW2 8595   0.371   0.768   0.241
 2566SOL     OW 8596   2.289   6.428   1.634
 2566SOL    HW1 8597   2.261   6.499   1.569
 2566SOL    HW2 8598   2.247   6.446   1.722
 2567SOL     OW 8599   1.641   1.229   0.931
 2567SOL    HW1 8600   1.700   1.274   0.998
 2567SOL    HW2 8601   1.693   1.213   0.846
 2568SOL     OW 8602   2.834   6.715   0.777
 2568SOL    HW1 8603   2.816   6.617   0.776
 2568SOL    HW2 8604   2.881   6.740   0.861
 2569SOL     OW 8605   2.595   1.825   2.008
 2569SOL    HW1 8606   2.513   1.849   1.957
 2569SOL    HW2 8607   2.654   1.766   1.952
 2570SOL     OW 8608   4.512   6.185   6.319
 2570SOL    HW1 8609   4.430   6.214   6.270
 2570SOL    HW2 8610   4.581   6.152   6.254
 2571SOL     OW 8611   3.933   3.102   4.539
 2571SOL    HW1 8612   3.880   3.181   4.510
 2571SOL    HW2 8613   3.979   3.122   4.626
 2572SOL     OW 8614   2.263   6.212   0.931
 2572SOL    HW1 8615   2.235   6.169   0.845
 2572SOL    HW2 8616   2.362   6.206   0.940
 2573SOL     OW 8617   6.593   1.546   3.135
 2573SOL    HW1 8618   6.535   1.525   3.213
 2573SOL    HW2 8619   6.539   1.543   3.051
 2574SOL     OW 8620   6.284   3.561   0.813
 2574SOL    HW1 8621   6.261   3.651   0.776
 2574SOL    HW2 8622   6.284   3.565   0.913
 2575SOL     OW 8623   5.497   3.331   1.724
 2575SOL    HW1 8624   5.588   3.361   1.753
 2575SOL    HW2 8625   5.505   3.261   1.653
 2576SOL     OW 8626   3.793   0.032   3.922
 2576SOL    HW1 8627   3.834   0.003   3.835
 2576SOL    HW2 8628   3.842   0.112   3.957
 2577SOL     OW 8629   5.019   0.238   3.675
 2577SOL    HW1 8630   5.091   0.286   3.725
 2577SOL    HW2 8631   5.048   0.224   3.580
 2578SOL     OW 8632   4.766   2.599   5.282
 2578SOL    HW1 8633   4.784   2.531   5.211
 2578SOL    HW2 8634   4.726   2.680   5.240
 2579SOL     OW 8635   1.288   1.491   5.241
 2579SOL    HW1 8636   1.222   1.456   5.307
 2579SOL    HW2 8637   1.281   1.439   5.156
 2580SOL     OW 8638   1.841   2.536   6.124
 2580SOL    HW1 8639   1.750   2.522   6.162
 2580SOL    HW2 8640   1.903   2.465   6.160
 2581SOL     OW 8641   6.068   4.573   1.807
 2581SOL    HW1 8642   6.015   4.521   1.740
 2581SOL    HW2 8643   6.019   4.574   1.894
 2582SOL     OW 8644   2.178   4.944   3.045
 2582SOL    HW1 8645   2.152   4.861   3.095
 2582SOL    HW2 8646   2.191   5.019   3.110
 2583SOL     OW 8647   1.576   0.755   0.755
 2583SOL    HW1 8648   1.581   0.822   0.829
 2583SOL    HW2 8649   1.639   0.781   0.682
 2584SOL     OW 8650   4.211   5.909   0.508
 2584SOL    HW1 8651   4.218   6.009   0.500
 2584SOL    HW2 8652   4.115   5.884   0.524
 2585SOL     OW 8653   3.038   0.660   0.713
 2585SOL    HW1 8654   3.107   0.634   0.780
 2585SOL    HW2 8655   3.029   0.759   0.709
 2586SOL     OW 8656   5.230   1.665   4.359
 2586SOL    HW1 8657   5.171   1.736   4.398
 2586SOL    HW2 8658   5.177   1.581   4.346
 2587SOL     OW 8659   6.692   0.456   4.989
 2587SOL    HW1 8660   6.788   0.430   4.986
 2587SOL    HW2 8661   6.636   0.384   4.950
 2588SOL     OW 8662   4.403   0.174   0.274
 2588SOL    HW1 8663   4.483   0.117   0.257
 2588SOL    HW2 8664   4.345   0.131   0.343
 2589SOL     OW 8665   0.715   6.615   5.590
 2589SOL    HW1 8666   0.676   6.676   5.660
 2589SOL    HW2 8667   0.814   6.608   5.603
 2590SOL     OW 8668   3.933   6.953   2.735
 2590SOL    HW1 8669   3.958   0.017   2.768
 2590SOL    HW2 8670   3.956   6.885   2.805
 2591SOL     OW 8671   4.939   6.131   2.721
 2591SOL    HW1 8672   4.988   6.060   2.670
 2591SOL    HW2 8673   4.914   6.097   2.811
 2592SOL     OW 8674   2.569   6.364   1.725
 2592SOL    HW1 8675   2.579   6.462   1.709
 2592SOL    HW2 8676   2.475   6.335   1.703
 2593SOL     OW 8677   3.933   6.500   2.148
 2593SOL    HW1 8678   3.966   6.542   2.233
 2593SOL    HW2 8679   3.841   6.535   2.127
 2594SOL     OW 8680   0.171   6.097   5.804
 2594SOL    HW1 8681   0.208   6.008   5.777
 2594SOL    HW2 8682   0.100   6.084   5.873
 2595SOL     OW 8683   6.869   2.260   5.813
 2595SOL    HW1 8684   6.912   2.196   5.749
 2595SOL    HW2 8685   6.932   2.280   5.888
 2596SOL     OW 8686   3.972   2.177   2.166
 2596SOL    HW1 8687   3.890   2.203   2.115
 2596SOL    HW2 8688   4.053   2.192   2.108
 2597SOL     OW 8689   1.956   3.574   0.703
 2597SOL    HW1 8690   1.981   3.659   0.749
 2597SOL    HW2 8691   1.862   3.580   0.670
 2598SOL     OW 8692   5.632   2.162   4.391
 2598SOL    HW1 8693   5.677   2.241   4.432
 2598SOL    HW2 8694   5.648   2.162   4.293
 2599SOL     OW 8695   3.868   5.557   6.960
 2599SOL    HW1 8696   3.895   5.626   6.893
 2599SOL    HW2 8697   3.770   5.565   6.979
 2600SOL     OW 8698   4.873   3.749   4.424
 2600SOL    HW1 8699   4.875   3.742   4.524
 2600SOL    HW2 8700   4.845   3.662   4.384
 2601SOL     OW 8701   3.920   2.043   6.650
 2601SOL    HW1 8702   3.948   2.096   6.730
 2601SOL    HW2 8703   3.995   2.039   6.584
 2602SOL     OW 8704   6.959   4.969   3.735
 2602SOL    HW1 8705   0.022   4.970   3.778
 2602SOL    HW2 8706   6.899   4.908   3.787
 2603SOL     OW 8707   2.960   2.144   1.592
 2603SOL    HW1 8708   2.989   2.101   1.507
 2603SOL    HW2 8709   3.041   2.178   1.641
 2604SOL     OW 8710   4.749   1.160   1.617
 2604SOL    HW1 8711   4.738   1.147   1.716
 2604SOL    HW2 8712   4.846   1.168   1.596
 2605SOL     OW 8713   4.132   5.263   3.491
 2605SOL    HW1 8714   4.066   5.334   3.466
 2605SOL    HW2 8715   4.170   5.284   3.581
 2606SOL     OW 8716   6.532   4.519   0.447
 2606SOL    HW1 8717   6.573   4.515   0.356
 2606SOL    HW2 8718   6.461   4.590   0.448
 2607SOL     OW 8719   0.183   1.960   5.888
 2607SOL    HW1 8720   0.146   1.915   5.806
 2607SOL    HW2 8721   0.142   1.919   5.970
 2608SOL     OW 8722   4.171   6.014   2.685
 2608SOL    HW1 8723   4.172   5.968   2.773
 2608SOL    HW2 8724   4.195   6.110   2.697
 2609SOL     OW 8725   0.629   2.445   1.199
 2609SOL    HW1 8726   0.726   2.419   1.196
 2609SOL    HW2 8727   0.620   2.543   1.187
 2610SOL     OW 8728   6.788   5.432   3.997
 2610SOL    HW1 8729   6.848   5.355   3.973
 2610SOL    HW2 8730   6.695   5.412   3.964
 2611SOL     OW 8731   5.851   6.583   1.021
 2611SOL    HW1 8732   5.841   6.553   0.926
 2611SOL    HW2 8733   5.942   6.560   1.054
 2612SOL     OW 8734   6.666   6.802   5.471
 2612SOL    HW1 8735   6.619   6.752   5.398
 2612SOL    HW2 8736   6.759   6.768   5.480
 2613SOL     OW 8737   2.787   6.173   1.721
 2613SOL    HW1 8738   2.722   6.248   1.716
 2613SOL    HW2 8739   2.754   6.095   1.668
 2614SOL     OW 8740   6.533   6.590   5.717
 2614SOL    HW1 8741   6.573   6.671   5.760
 2614SOL    HW2 8742   6.526   6.516   5.783
 2615SOL     OW 8743   5.597   4.365   3.236
 2615SOL    HW1 8744   5.584   4.265   3.240
 2615SOL    HW2 8745   5.564   4.406   3.320
 2616SOL     OW 8746   3.752   3.601   4.060
 2616SOL    HW1 8747   3.795   3.606   3.970
 2616SOL    HW2 8748   3.778   3.681   4.114
 2617SOL     OW 8749   3.061   6.707   1.612
 2617SOL    HW1 8750   3.058   6.806   1.601
 2617SOL    HW2 8751   3.156   6.675   1.605
 2618SOL     OW 8752   0.394   6.665   3.768
 2618SOL    HW1 8753   0.372   6.643   3.673
 2618SOL    HW2 8754   0.310   6.680   3.819
 2619SOL     OW 8755   3.526   1.673   3.250
 2619SOL    HW1 8756   3.562   1.626   3.331
 2619SOL    HW2 8757   3.562   1.631   3.167
 2620SOL     OW 8758   0.901   5.999   3.518
 2620SOL    HW1 8759   0.983   6.044   3.483
 2620SOL    HW2 8760   0.920   5.901   3.531
 2621SOL     OW 8761   1.797   6.002   3.236
 2621SOL    HW1 8762   1.755   6.015   3.146
 2621SOL    HW2 8763   1.857   6.079   3.256
 2622SOL     OW 8764   2.363   2.096   6.060
 2622SOL    HW1 8765   2.308   2.180   6.064
 2622SOL    HW2 8766   2.460   2.120   6.065
 2623SOL     OW 8767   3.395   1.890   4.797
 2623SOL    HW1 8768   3.401   1.988   4.817
 2623SOL    HW2 8769   3.303   1.857   4.817
 2624SOL     OW 8770   6.582   3.460   4.238
 2624SOL    HW1 8771   6.649   3.454   4.312
 2624SOL    HW2 8772   6.494   3.489   4.276
 2625SOL     OW 8773   2.518   2.951   5.419
 2625SOL    HW1 8774   2.485   2.975   5.328
 2625SOL    HW2 8775   2.604   2.999   5.437
 2626SOL     OW 8776   0.789   6.754   4.425
 2626SOL    HW1 8777   0.770   6.824   4.493
 2626SOL    HW2 8778   0.716   6.686   4.425
 2627SOL     OW 8779   0.354   0.871   4.319
 2627SOL    HW1 8780   0.269   0.914   4.290
 2627SOL    HW2 8781   0.430   0.936   4.311
 2628SOL     OW 8782   3.228   5.591   6.753
 2628SOL    HW1 8783   3.259   5.678   6.717
 2628SOL    HW2 8784   3.245   5.519   6.686
 2629SOL     OW 8785   3.277   4.083   2.562
 2629SOL    HW1 8786   3.227   4.063   2.646
 2629SOL    HW2 8787   3.373   4.101   2.584
 2630SOL     OW 8788   3.651   1.590   3.045
 2630SOL    HW1 8789   3.708   1.668   3.020
 2630SOL    HW2 8790   3.620   1.544   2.962
 2631SOL     OW 8791   4.862   0.163   4.402
 2631SOL    HW1 8792   4.789   0.094   4.406
 2631SOL    HW2 8793   4.845   0.226   4.327
 2632SOL     OW 8794   2.079   1.986   5.862
 2632SOL    HW1 8795   2.034   2.044   5.794
 2632SOL    HW2 8796   2.172   2.018   5.877
 2633SOL     OW 8797   6.022   2.284   6.208
 2633SOL    HW1 8798   6.014   2.185   6.194
 2633SOL    HW2 8799   6.090   2.302   6.279
 2634SOL     OW 8800   2.215   3.937   2.992
 2634SOL    HW1 8801   2.190   4.005   3.061
 2634SOL    HW2 8802   2.183   3.846   3.021
 2635SOL     OW 8803   6.011   5.777   4.598
 2635SOL    HW1 8804   6.003   5.736   4.507
 2635SOL    HW2 8805   5.957   5.862   4.600
 2636SOL     OW 8806   4.911   0.731   6.190
 2636SOL    HW1 8807   5.001   0.716   6.150
 2636SOL    HW2 8808   4.850   0.768   6.120
 2637SOL     OW 8809   6.090   1.081   3.581
 2637SOL    HW1 8810   6.089   0.983   3.602
 2637SOL    HW2 8811   6.099   1.133   3.665
 2638SOL     OW 8812   0.106   6.756   2.874
 2638SOL    HW1 8813   0.128   6.738   2.778
 2638SOL    HW2 8814   0.058   6.677   2.913
 2639SOL     OW 8815   0.296   0.151   2.197
 2639SOL    HW1 8816   0.396   0.151   2.192
 2639SOL    HW2 8817   0.262   0.245   2.184
 2640SOL     OW 8818   6.792   5.868   5.343
 2640SOL    HW1 8819   6.843   5.954   5.340
 2640SOL    HW2 8820   6.705   5.879   5.295
 2641SOL     OW 8821   5.318   2.683   1.953
 2641SOL    HW1 8822   5.299   2.781   1.946
 2641SOL    HW2 8823   5.247   2.632   1.905
 2642SOL     OW 8824   5.466   6.884   4.506
 2642SOL    HW1 8825   5.384   6.927   4.544
 2642SOL    HW2 8826   5.478   6.794   4.547
 2643SOL     OW 8827   1.345   5.025   3.244
 2643SOL    HW1 8828   1.340   5.079   3.160
 2643SOL    HW2 8829   1.273   5.055   3.307
 2644SOL     OW 8830   6.955   4.400   5.513
 2644SOL    HW1 8831   7.018   4.457   5.461
 2644SOL    HW2 8832   6.866   4.400   5.467
 2645SOL     OW 8833   4.525   6.203   4.339
 2645SOL    HW1 8834   4.616   6.161   4.333
 2645SOL    HW2 8835   4.504   6.248   4.253
 2646SOL     OW 8836   5.645   6.774   6.435
 2646SOL    HW1 8837   5.596   6.697   6.475
 2646SOL    HW2 8838   5.686   6.829   6.509
 2647SOL     OW 8839   5.129   0.754   1.174
 2647SOL    HW1 8840   5.201   0.689   1.151
 2647SOL    HW2 8841   5.124   0.765   1.273
 2648SOL     OW 8842   6.849   0.515   4.054
 2648SOL    HW1 8843   6.754   0.484   4.058
 2648SOL    HW2 8844   6.858   0.600   4.107
 2649SOL     OW 8845   4.735   2.103   6.460
 2649SOL    HW1 8846   4.718   2.201   6.457
 2649SOL    HW2 8847   4.831   2.085   6.436
 2650SOL     OW 8848   0.657   4.044   3.760
 2650SOL    HW1 8849   0.582   3.982   3.736
 2650SOL    HW2 8850   0.740   4.016   3.712
 2651SOL     OW 8851   1.223   1.631   0.427
 2651SOL    HW1 8852   1.163   1.576   0.485
 2651SOL    HW2 8853   1.312   1.587   0.421
 2652SOL     OW 8854   3.061   3.842   3.846
 2652SOL    HW1 8855   3.152   3.800   3.846
 2652SOL    HW2 8856   2.993   3.773   3.869
 2653SOL     OW 8857   5.167   0.150   4.935
 2653SOL    HW1 8858   5.089   0.184   4.882
 2653SOL    HW2 8859   5.138   0.135   5.030
 2654SOL     OW 8860   4.630   3.561   0.673
 2654SOL    HW1 8861   4.612   3.654   0.705
 2654SOL    HW2 8862   4.587   3.548   0.583
 2655SOL     OW 8863   5.236   4.593   4.373
 2655SOL    HW1 8864   5.314   4.589   4.310
 2655SOL    HW2 8865   5.258   4.542   4.456
 2656SOL     OW 8866   4.370   4.987   4.472
 2656SOL    HW1 8867   4.325   4.963   4.386
 2656SOL    HW2 8868   4.306   4.975   4.548
 2657SOL     OW 8869   2.674   4.523   6.407
 2657SOL    HW1 8870   2.579   4.550   6.391
 2657SOL    HW2 8871   2.676   4.439   6.462
 2658SOL     OW 8872   5.398   3.730   0.539
 2658SOL    HW1 8873   5.497   3.721   0.553
 2658SOL    HW2 8874   5.350   3.669   0.601
 2659SOL     OW 8875   6.417   2.507   4.396
 2659SOL    HW1 8876   6.392   2.437   4.331
 2659SOL    HW2 8877   6.516   2.520   4.396
 2660SOL     OW 8878   0.455   1.625   1.473
 2660SOL    HW1 8879   0.431   1.608   1.377
 2660SOL    HW2 8880   0.384   1.587   1.532
 2661SOL     OW 8881   2.238   6.255   2.374
 2661SOL    HW1 8882   2.256   6.174   2.319
 2661SOL    HW2 8883   2.318   6.315   2.371
 2662SOL     OW 8884   4.587   6.999   5.315
 2662SOL    HW1 8885   4.590   6.939   5.395
 2662SOL    HW2 8886   4.648   0.049   5.329
 2663SOL     OW 8887   3.076   4.131   1.483
 2663SOL    HW1 8888   3.099   4.149   1.579
 2663SOL    HW2 8889   2.990   4.177   1.461
 2664SOL     OW 8890   3.980   3.951   4.039
 2664SOL    HW1 8891   3.882   3.965   4.034
 2664SOL    HW2 8892   4.026   4.040   4.044
 2665SOL     OW 8893   2.755   1.696   4.796
 2665SOL    HW1 8894   2.758   1.674   4.698
 2665SOL    HW2 8895   2.804   1.781   4.813
 2666SOL     OW 8896   4.227   3.835   1.729
 2666SOL    HW1 8897   4.298   3.904   1.719
 2666SOL    HW2 8898   4.137   3.877   1.714
 2667SOL     OW 8899   1.980   6.196   4.465
 2667SOL    HW1 8900   1.880   6.200   4.455
 2667SOL    HW2 8901   2.004   6.130   4.536
 2668SOL     OW 8902   6.943   2.992   3.378
 2668SOL    HW1 8903   6.875   2.957   3.443
 2668SOL    HW2 8904   7.002   2.916   3.348
 2669SOL     OW 8905   3.119   4.800   5.237
 2669SOL    HW1 8906   3.132   4.898   5.256
 2669SOL    HW2 8907   3.025   4.785   5.208
 2670SOL     OW 8908   5.756   1.637   6.577
 2670SOL    HW1 8909   5.758   1.549   6.530
 2670SOL    HW2 8910   5.710   1.626   6.666
 2671SOL     OW 8911   3.260   5.280   0.510
 2671SOL    HW1 8912   3.303   5.359   0.554
 2671SOL    HW2 8913   3.161   5.292   0.509
 2672SOL     OW 8914   0.082   5.445   6.784
 2672SOL    HW1 8915   0.050   5.538   6.769
 2672SOL    HW2 8916   0.014   5.380   6.750
 2673SOL     OW 8917   6.119   2.060   3.943
 2673SOL    HW1 8918   6.179   1.983   3.922
 2673SOL    HW2 8919   6.170   2.146   3.928
 2674SOL     OW 8920   1.974   4.098   4.829
 2674SOL    HW1 8921   1.935   4.088   4.737
 2674SOL    HW2 8922   2.046   4.030   4.842
 2675SOL     OW 8923   0.663   4.932   4.672
 2675SOL    HW1 8924   0.602   5.002   4.635
 2675SOL    HW2 8925   0.651   4.847   4.621
 2676SOL     OW 8926   4.235   0.997   3.023
 2676SOL    HW1 8927   4.199   1.051   2.947
 2676SOL    HW2 8928   4.265   1.059   3.096
 2677SOL     OW 8929   3.173   4.717   0.324
 2677SOL    HW1 8930   3.154   4.813   0.346
 2677SOL    HW2 8931   3.226   4.712   0.239
 2678SOL     OW 8932   6.938   3.857   1.188
 2678SOL    HW1 8933   6.918   3.952   1.209
 2678SOL    HW2 8934   6.902   3.798   1.259
 2679SOL     OW 8935   4.212   5.015   0.886
 2679SOL    HW1 8936   4.190   5.112   0.883
 2679SOL    HW2 8937   4.286   5.000   0.951
 2680SOL     OW 8938   1.863   1.627   0.988
 2680SOL    HW1 8939   1.813   1.650   0.904
 2680SOL    HW2 8940   1.922   1.704   1.014
 2681SOL     OW 8941   1.355   2.375   4.521
 2681SOL    HW1 8942   1.407   2.316   4.582
 2681SOL    HW2 8943   1.287   2.426   4.573
 2682SOL     OW 8944   5.409   3.794   2.420
 2682SOL    HW1 8945   5.318   3.813   2.456
 2682SOL    HW2 8946   5.421   3.695   2.411
 2683SOL     OW 8947   1.322   3.601   0.049
 2683SOL    HW1 8948   1.248   3.615   7.011
 2683SOL    HW2 8949   1.410   3.620   0.006
 2684SOL     OW 8950   4.299   5.545   3.104
 2684SOL    HW1 8951   4.338   5.604   3.175
 2684SOL    HW2 8952   4.333   5.452   3.117
 2685SOL     OW 8953   0.019   6.698   6.146
 2685SOL    HW1 8954   6.983   6.736   6.078
 2685SOL    HW2 8955   0.063   6.772   6.195
 2686SOL     OW 8956   1.498   1.725   5.456
 2686SOL    HW1 8957   1.442   1.758   5.380
 2686SOL    HW2 8958   1.552   1.800   5.493
 2687SOL     OW 8959   4.092   4.809   3.206
 2687SOL    HW1 8960   4.134   4.744   3.143
 2687SOL    HW2 8961   4.028   4.761   3.265
 2688SOL     OW 8962   4.738   5.685   6.387
 2688SOL    HW1 8963   4.796   5.700   6.467
 2688SOL    HW2 8964   4.713   5.773   6.346
 2689SOL     OW 8965   2.306   2.000   3.011
 2689SOL    HW1 8966   2.398   2.022   2.978
 2689SOL    HW2 8967   2.275   1.914   2.969
 2690SOL     OW 8968   3.187   4.030   3.967
 2690SOL    HW1 8969   3.146   4.040   4.058
 2690SOL    HW2 8970   3.130   3.970   3.912
 2691SOL     OW 8971   1.183   5.590   2.143
 2691SOL    HW1 8972   1.134   5.586   2.230
 2691SOL    HW2 8973   1.250   5.515   2.139
 2692SOL     OW 8974   4.733   5.017   3.873
 2692SOL    HW1 8975   4.744   5.037   3.971
 2692SOL    HW2 8976   4.820   5.033   3.826
 2693SOL     OW 8977   1.767   4.212   2.703
 2693SOL    HW1 8978   1.826   4.192   2.625
 2693SOL    HW2 8979   1.735   4.307   2.697
 2694SOL     OW 8980   4.140   0.749   2.655
 2694SOL    HW1 8981   4.064   0.769   2.716
 2694SOL    HW2 8982   4.215   0.707   2.707
 2695SOL     OW 8983   5.854   1.318   2.676
 2695SOL    HW1 8984   5.890   1.252   2.610
 2695SOL    HW2 8985   5.905   1.311   2.761
 2696SOL     OW 8986   3.499   3.254   5.348
 2696SOL    HW1 8987   3.517   3.287   5.256
 2696SOL    HW2 8988   3.544   3.314   5.415
 2697SOL     OW 8989   4.301   1.745   3.175
 2697SOL    HW1 8990   4.344   1.834   3.184
 2697SOL    HW2 8991   4.344   1.681   3.239
 2698SOL     OW 8992   1.873   5.207   0.881
 2698SOL    HW1 8993   1.773   5.215   0.878
 2698SOL    HW2 8994   1.900   5.161   0.966
 2699SOL     OW 8995   3.468   5.817   0.452
 2699SOL    HW1 8996   3.447   5.830   0.355
 2699SOL    HW2 8997   3.391   5.850   0.507
 2700SOL     OW 8998   2.085   3.763   1.298
 2700SOL    HW1 8999   2.058   3.667   1.285
 2700SOL    HW2 9000   2.004   3.819   1.312
 2701SOL     OW 9001   3.581   0.084   6.389
 2701SOL    HW1 9002   3.542   0.080   6.297
 2701SOL    HW2 9003   3.588   7.019   6.426
 2702SOL     OW 9004   0.362   2.374   3.342
 2702SOL    HW1 9005   0.329   2.337   3.256
 2702SOL    HW2 9006   0.286   2.379   3.407
 2703SOL     OW 9007   2.134   0.969   2.578
 2703SOL    HW1 9008   2.117   0.873   2.602
 2703SOL    HW2 9009   2.104   0.985   2.484
 2704SOL     OW 9010   0.617   5.218   1.076
 2704SOL    HW1 9011   0.589   5.286   1.009
 2704SOL    HW2 9012   0.716   5.216   1.083
 2705SOL     OW 9013   1.623   5.762   4.507
 2705SOL    HW1 9014   1.617   5.766   4.607
 2705SOL    HW2 9015   1.532   5.773   4.467
 2706SOL     OW 9016   0.548   0.593   1.142
 2706SOL    HW1 9017   0.593   0.660   1.084
 2706SOL    HW2 9018   0.614   0.558   1.209
 2707SOL     OW 9019   2.099   0.483   5.421
 2707SOL    HW1 9020   2.167   0.539   5.374
 2707SOL    HW2 9021   2.131   0.388   5.424
 2708SOL     OW 9022   1.576   1.995   1.376
 2708SOL    HW1 9023   1.594   1.907   1.421
 2708SOL    HW2 9024   1.662   2.031   1.339
 2709SOL     OW 9025   5.186   6.773   0.739
 2709SOL    HW1 9026   5.217   6.866   0.755
 2709SOL    HW2 9027   5.090   6.773   0.712
 2710SOL     OW 9028   0.032   2.585   2.908
 2710SOL    HW1 9029   0.083   2.615   2.827
 2710SOL    HW2 9030   0.077   2.619   2.990
 2711SOL     OW 9031   2.877   1.259   3.305
 2711SOL    HW1 9032   2.949   1.265   3.374
 2711SOL    HW2 9033   2.915   1.278   3.214
 2712SOL     OW 9034   3.043   5.567   1.341
 2712SOL    HW1 9035   2.978   5.493   1.353
 2712SOL    HW2 9036   3.123   5.551   1.400
 2713SOL     OW 9037   1.815   1.717   4.909
 2713SOL    HW1 9038   1.915   1.714   4.920
 2713SOL    HW2 9039   1.773   1.650   4.970
 2714SOL     OW 9040   4.729   2.030   6.727
 2714SOL    HW1 9041   4.714   2.044   6.629
 2714SOL    HW2 9042   4.644   2.051   6.777
 2715SOL     OW 9043   5.709   0.436   0.466
 2715SOL    HW1 9044   5.706   0.527   0.423
 2715SOL    HW2 9045   5.658   0.439   0.552
 2716SOL     OW 9046   5.629   5.452   2.206
 2716SOL    HW1 9047   5.699   5.401   2.255
 2716SOL    HW2 9048   5.669   5.537   2.171
 2717SOL     OW 9049   0.809   4.980   1.553
 2717SOL    HW1 9050   0.822   5.002   1.649
 2717SOL    HW2 9051   0.724   4.928   1.542
 2718SOL     OW 9052   2.156   3.877   4.866
 2718SOL    HW1 9053   2.107   3.831   4.940
 2718SOL    HW2 9054   2.230   3.933   4.904
 2719SOL     OW 9055   5.391   4.977   1.738
 2719SOL    HW1 9056   5.483   4.974   1.699
 2719SOL    HW2 9057   5.337   5.048   1.691
 2720SOL     OW 9058   2.220   6.043   3.512
 2720SOL    HW1 9059   2.148   6.050   3.582
 2720SOL    HW2 9060   2.264   6.132   3.501
 2721SOL     OW 9061   3.345   0.205   3.990
 2721SOL    HW1 9062   3.292   0.147   4.053
 2721SOL    HW2 9063   3.299   0.293   3.980
 2722SOL     OW 9064   6.337   5.242   2.668
 2722SOL    HW1 9065   6.414   5.296   2.635
 2722SOL    HW2 9066   6.347   5.225   2.766
 2723SOL     OW 9067   1.091   6.953   5.631
 2723SOL    HW1 9068   1.184   6.920   5.647
 2723SOL    HW2 9069   1.029   6.876   5.625
 2724SOL     OW 9070   2.913   6.185   6.003
 2724SOL    HW1 9071   2.976   6.111   5.978
 2724SOL    HW2 9072   2.923   6.260   5.938
 2725SOL     OW 9073   6.241   5.038   3.354
 2725SOL    HW1 9074   6.184   4.956   3.352
 2725SOL    HW2 9075   6.317   5.025   3.418
 2726SOL     OW 9076   6.744   4.444   1.164
 2726SOL    HW1 9077   6.774   4.356   1.200
 2726SOL    HW2 9078   6.661   4.431   1.110
 2727SOL     OW 9079   0.414   4.621   2.647
 2727SOL    HW1 9080   0.436   4.561   2.571
 2727SOL    HW2 9081   0.491   4.624   2.711
 2728SOL     OW 9082   3.759   0.091   5.219
 2728SOL    HW1 9083   3.835   0.061   5.161
 2728SOL    HW2 9084   3.762   0.043   5.306
 2729SOL     OW 9085   6.109   5.980   1.708
 2729SOL    HW1 9086   6.123   6.072   1.673
 2729SOL    HW2 9087   6.031   5.979   1.770
 2730SOL     OW 9088   1.628   5.774   1.424
 2730SOL    HW1 9089   1.595   5.868   1.421
 2730SOL    HW2 9090   1.699   5.766   1.494
 2731SOL     OW 9091   3.965   3.710   1.949
 2731SOL    HW1 9092   3.981   3.677   2.042
 2731SOL    HW2 9093   4.030   3.783   1.928
 2732SOL     OW 9094   5.963   2.982   1.757
 2732SOL    HW1 9095   5.884   3.037   1.784
 2732SOL    HW2 9096   5.950   2.887   1.785
 2733SOL     OW 9097   0.386   0.263   5.362
 2733SOL    HW1 9098   0.367   0.165   5.352
 2733SOL    HW2 9099   0.462   0.289   5.303
 2734SOL     OW 9100   2.076   5.126   2.298
 2734SOL    HW1 9101   2.091   5.082   2.210
 2734SOL    HW2 9102   2.161   5.128   2.351
 2735SOL     OW 9103   0.826   3.843   2.872
 2735SOL    HW1 9104   0.791   3.841   2.966
 2735SOL    HW2 9105   0.873   3.930   2.856
 2736SOL     OW 9106   5.281   0.161   4.586
 2736SOL    HW1 9107   5.227   0.148   4.503
 2736SOL    HW2 9108   5.245   0.103   4.658
 2737SOL     OW 9109   3.133   3.212   5.588
 2737SOL    HW1 9110   3.143   3.116   5.565
 2737SOL    HW2 9111   3.146   3.268   5.506
 2738SOL     OW 9112   5.294   5.267   4.366
 2738SOL    HW1 9113   5.366   5.322   4.324
 2738SOL    HW2 9114   5.330   5.223   4.449
 2739SOL     OW 9115   5.733   5.064   0.166
 2739SOL    HW1 9116   5.786   5.049   0.082
 2739SOL    HW2 9117   5.763   4.999   0.236
 2740SOL     OW 9118   6.163   3.254   2.451
 2740SOL    HW1 9119   6.256   3.217   2.456
 2740SOL    HW2 9120   6.105   3.209   2.520
 2741SOL     OW 9121   7.018   0.912   6.431
 2741SOL    HW1 9122   6.931   0.961   6.436
 2741SOL    HW2 9123   0.008   0.886   6.336
 2742SOL     OW 9124   1.936   5.370   6.942
 2742SOL    HW1 9125   1.910   5.318   6.861
 2742SOL    HW2 9126   1.903   5.323   7.024
 2743SOL     OW 9127   6.429   5.540   2.109
 2743SOL    HW1 9128   6.400   5.469   2.046
 2743SOL    HW2 9129   6.349   5.587   2.146
 2744SOL     OW 9130   4.293   2.236   6.754
 2744SOL    HW1 9131   4.307   2.299   6.677
 2744SOL    HW2 9132   4.205   2.254   6.796
 2745SOL     OW 9133   1.334   6.839   6.817
 2745SOL    HW1 9134   1.301   6.771   6.883
 2745SOL    HW2 9135   1.394   6.795   6.751
 2746SOL     OW 9136   2.315   2.011   4.440
 2746SOL    HW1 9137   2.245   1.966   4.496
 2746SOL    HW2 9138   2.406   1.981   4.470
 2747SOL     OW 9139   5.584   3.452   5.506
 2747SOL    HW1 9140   5.601   3.500   5.420
 2747SOL    HW2 9141   5.504   3.491   5.551
 2748SOL     OW 9142   3.736   1.343   0.879
 2748SOL    HW1 9143   3.832   1.323   0.859
 2748SOL    HW2 9144   3.720   1.442   0.868
 2749SOL     OW 9145   6.179   4.522   4.102
 2749SOL    HW1 9146   6.143   4.572   4.181
 2749SOL    HW2 9147   6.242   4.451   4.133
 2750SOL     OW 9148   0.262   5.093   1.911
 2750SOL    HW1 9149   0.307   5.176   1.876
 2750SOL    HW2 9150   0.202   5.056   1.841
 2751SOL     OW 9151   1.393   6.744   0.413
 2751SOL    HW1 9152   1.411   6.653   0.452
 2751SOL    HW2 9153   1.441   6.752   0.326
 2752SOL     OW 9154   5.172   5.432   5.072
 2752SOL    HW1 9155   5.224   5.518   5.079
 2752SOL    HW2 9156   5.123   5.416   5.158
 2753SOL     OW 9157   1.830   0.293   6.693
 2753SOL    HW1 9158   1.795   0.367   6.636
 2753SOL    HW2 9159   1.864   0.330   6.780
 2754SOL     OW 9160   6.816   0.764   4.182
 2754SOL    HW1 9161   6.810   0.757   4.282
 2754SOL    HW2 9162   6.726   0.749   4.142
 2755SOL     OW 9163   3.354   6.926   3.273
 2755SOL    HW1 9164   3.278   6.869   3.303
 2755SOL    HW2 9165   3.366   6.917   3.174
 2756SOL     OW 9166   6.344   3.841   4.782
 2756SOL    HW1 9167   6.264   3.832   4.723
 2756SOL    HW2 9168   6.415   3.894   4.735
 2757SOL     OW 9169   2.637   1.127   6.686
 2757SOL    HW1 9170   2.691   1.191   6.742
 2757SOL    HW2 9171   2.559   1.094   6.739
 2758SOL     OW 9172   5.393   6.198   3.764
 2758SOL    HW1 9173   5.379   6.176   3.668
 2758SOL    HW2 9174   5.337   6.138   3.821
 2759SOL     OW 9175   3.887   5.570   5.118
 2759SOL    HW1 9176   3.910   5.488   5.065
 2759SOL    HW2 9177   3.789   5.590   5.107
 2760SOL     OW 9178   6.742   5.124   2.808
 2760SOL    HW1 9179   6.762   5.215   2.844
 2760SOL    HW2 9180   6.781   5.114   2.716
 2761SOL     OW 9181   1.754   4.395   3.835
 2761SOL    HW1 9182   1.808   4.475   3.810
 2761SOL    HW2 9183   1.692   4.419   3.910
 2762SOL     OW 9184   1.660   2.032   7.007
 2762SOL    HW1 9185   1.598   2.001   6.935
 2762SOL    HW2 9186   1.690   1.953   0.034
 2763SOL     OW 9187   4.932   2.233   5.392
 2763SOL    HW1 9188   4.889   2.322   5.408
 2763SOL    HW2 9189   4.862   2.164   5.380
 2764SOL     OW 9190   0.507   6.014   2.788
 2764SOL    HW1 9191   0.534   6.059   2.703
 2764SOL    HW2 9192   0.566   5.936   2.805
 2765SOL     OW 9193   6.825   6.998   0.436
 2765SOL    HW1 9194   6.852   0.067   0.440
 2765SOL    HW2 9195   6.726   6.991   0.446
 2766SOL     OW 9196   3.743   1.449   6.397
 2766SOL    HW1 9197   3.809   1.401   6.456
 2766SOL    HW2 9198   3.667   1.482   6.453
 2767SOL     OW 9199   6.011   5.847   6.328
 2767SOL    HW1 9200   6.017   5.946   6.312
 2767SOL    HW2 9201   5.915   5.823   6.344
 2768SOL     OW 9202   4.412   1.242   6.955
 2768SOL    HW1 9203   4.378   1.324   7.003
 2768SOL    HW2 9204   4.509   1.255   6.933
 2769SOL     OW 9205   2.411   4.940   6.528
 2769SOL    HW1 9206   2.339   5.004   6.553
 2769SOL    HW2 9207   2.382   4.847   6.550
 2770SOL     OW 9208   4.262   5.971   5.995
 2770SOL    HW1 9209   4.329   5.965   6.069
 2770SOL    HW2 9210   4.170   5.956   6.031
 2771SOL     OW 9211   6.086   0.499   4.799
 2771SOL    HW1 9212   6.129   0.547   4.723
 2771SOL    HW2 9213   6.025   0.561   4.849
 2772SOL     OW 9214   2.971   1.430   1.961
 2772SOL    HW1 9215   2.970   1.485   1.878
 2772SOL    HW2 9216   2.988   1.488   2.040
 2773SOL     OW 9217   6.770   3.202   4.013
 2773SOL    HW1 9218   6.836   3.214   3.939
 2773SOL    HW2 9219   6.688   3.157   3.978
 2774SOL     OW 9220   5.175   3.113   2.521
 2774SOL    HW1 9221   5.267   3.093   2.488
 2774SOL    HW2 9222   5.119   3.031   2.515
 2775SOL     OW 9223   6.162   3.790   3.833
 2775SOL    HW1 9224   6.251   3.748   3.813
 2775SOL    HW2 9225   6.174   3.889   3.842
 2776SOL     OW 9226   5.491   4.247   5.375
 2776SOL    HW1 9227   5.449   4.225   5.287
 2776SOL    HW2 9228   5.426   4.229   5.449
 2777SOL     OW 9229   2.225   1.537   0.099
 2777SOL    HW1 9230   2.209   1.548   0.001
 2777SOL    HW2 9231   2.302   1.476   0.113
 2778SOL     OW 9232   1.918   5.979   6.327
 2778SOL    HW1 9233   1.967   5.896   6.352
 2778SOL    HW2 9234   1.840   5.992   6.388
 2779SOL     OW 9235   5.188   6.753   2.078
 2779SOL    HW1 9236   5.120   6.680   2.090
 2779SOL    HW2 9237   5.151   6.823   2.016
 2780SOL     OW 9238   6.637   0.206   5.774
 2780SOL    HW1 9239   6.573   0.173   5.705
 2780SOL    HW2 9240   6.637   0.306   5.775
 2781SOL     OW 9241   5.774   0.125   3.361
 2781SOL    HW1 9242   5.700   0.184   3.395
 2781SOL    HW2 9243   5.753   0.096   3.268
 2782SOL     OW 9244   4.624   1.522   5.536
 2782SOL    HW1 9245   4.536   1.561   5.509
 2782SOL    HW2 9246   4.693   1.542   5.465
 2783SOL     OW 9247   6.609   3.900   1.367
 2783SOL    HW1 9248   6.551   3.980   1.354
 2783SOL    HW2 9249   6.554   3.824   1.400
 2784SOL     OW 9250   3.259   1.533   2.017
 2784SOL    HW1 9251   3.225   1.489   2.100
 2784SOL    HW2 9252   3.200   1.610   1.993
 2785SOL     OW 9253   5.330   2.123   0.965
 2785SOL    HW1 9254   5.344   2.153   1.059
 2785SOL    HW2 9255   5.235   2.095   0.952
 2786SOL     OW 9256   6.773   6.201   1.437
 2786SOL    HW1 9257   6.729   6.124   1.483
 2786SOL    HW2 9258   6.841   6.243   1.497
 2787SOL     OW 9259   6.690   5.708   5.533
 2787SOL    HW1 9260   6.742   5.755   5.462
 2787SOL    HW2 9261   6.594   5.701   5.505
 2788SOL     OW 9262   2.907   6.227   6.287
 2788SOL    HW1 9263   2.952   6.159   6.344
 2788SOL    HW2 9264   2.892   6.189   6.195
 2789SOL     OW 9265   2.241   1.746   3.557
 2789SOL    HW1 9266   2.296   1.826   3.534
 2789SOL    HW2 9267   2.301   1.671   3.585
 2790SOL     OW 9268   3.126   5.363   0.987
 2790SOL    HW1 9269   3.164   5.294   1.048
 2790SOL    HW2 9270   3.146   5.454   1.024
 2791SOL     OW 9271   0.163   4.245   2.453
 2791SOL    HW1 9272   0.154   4.342   2.432
 2791SOL    HW2 9273   0.072   4.203   2.456
 2792SOL     OW 9274   2.697   1.399   4.388
 2792SOL    HW1 9275   2.716   1.311   4.345
 2792SOL    HW2 9276   2.760   1.469   4.353
 2793SOL     OW 9277   5.377   3.890   2.110
 2793SOL    HW1 9278   5.317   3.816   2.138
 2793SOL    HW2 9279   5.417   3.934   2.190
 2794SOL     OW 9280   6.627   1.965   6.120
 2794SOL    HW1 9281   6.544   1.973   6.064
 2794SOL    HW2 9282   6.602   1.970   6.217
 2795SOL     OW 9283   0.304   4.575   1.360
 2795SOL    HW1 9284   0.373   4.591   1.289
 2795SOL    HW2 9285   0.235   4.647   1.355
 2796SOL     OW 9286   0.821   5.568   4.130
 2796SOL    HW1 9287   0.758   5.644   4.146
 2796SOL    HW2 9288   0.775   5.497   4.076
 2797SOL     OW 9289   5.638   5.518   5.679
 2797SOL    HW1 9290   5.543   5.489   5.687
 2797SOL    HW2 9291   5.687   5.455   5.619
 2798SOL     OW 9292   6.196   6.006   2.542
 2798SOL    HW1 9293   6.249   6.078   2.588
 2798SOL    HW2 9294   6.154   6.043   2.460
 2799SOL     OW 9295   4.910   6.051   5.793
 2799SOL    HW1 9296   4.827   6.084   5.749
 2799SOL    HW2 9297   4.985   6.114   5.774
 2800SOL     OW 9298   6.117   0.605   6.226
 2800SOL    HW1 9299   6.181   0.551   6.172
 2800SOL    HW2 9300   6.038   0.548   6.250
 2801SOL     OW 9301   1.440   5.697   6.121
 2801SOL    HW1 9302   1.375   5.644   6.067
 2801SOL    HW2 9303   1.394   5.736   6.200
 2802SOL     OW 9304   6.755   6.497   5.566
 2802SOL    HW1 9305   6.683   6.538   5.623
 2802SOL    HW2 9306   6.742   6.398   5.562
 2803SOL     OW 9307   3.505   4.467   6.143
 2803SOL    HW1 9308   3.516   4.508   6.052
 2803SOL    HW2 9309   3.440   4.391   6.137
 2804SOL     OW 9310   0.324   3.983   4.729
 2804SOL    HW1 9311   0.336   3.952   4.635
 2804SOL    HW2 9312   0.377   4.067   4.743
 2805SOL     OW 9313   5.990   4.104   2.637
 2805SOL    HW1 9314   6.066   4.073   2.694
 2805SOL    HW2 9315   5.936   4.025   2.608
 2806SOL     OW 9316   1.659   4.662   6.631
 2806SOL    HW1 9317   1.738   4.639   6.687
 2806SOL    HW2 9318   1.639   4.587   6.568
 2807SOL     OW 9319   4.063   0.845   3.211
 2807SOL    HW1 9320   4.135   0.887   3.156
 2807SOL    HW2 9321   4.060   0.888   3.301
 2808SOL     OW 9322   6.269   6.108   0.956
 2808SOL    HW1 9323   6.201   6.178   0.934
 2808SOL    HW2 9324   6.360   6.149   0.961
 2809SOL     OW 9325   5.843   2.370   1.463
 2809SOL    HW1 9326   5.854   2.457   1.512
 2809SOL    HW2 9327   5.816   2.389   1.369
 2810SOL     OW 9328   2.043   5.647   2.792
 2810SOL    HW1 9329   2.074   5.619   2.883
 2810SOL    HW2 9330   2.028   5.746   2.790
 2811SOL     OW 9331   0.689   1.403   2.518
 2811SOL    HW1 9332   0.765   1.447   2.471
 2811SOL    HW2 9333   0.605   1.454   2.500
 2812SOL     OW 9334   6.423   3.517   0.587
 2812SOL    HW1 9335   6.516   3.487   0.606
 2812SOL    HW2 9336   6.368   3.510   0.670
 2813SOL     OW 9337   0.568   1.409   0.367
 2813SOL    HW1 9338   0.553   1.496   0.322
 2813SOL    HW2 9339   0.569   1.336   0.298
 2814SOL     OW 9340   2.951   4.143   5.566
 2814SOL    HW1 9341   2.876   4.079   5.549
 2814SOL    HW2 9342   2.936   4.190   5.653
 2815SOL     OW 9343   0.041   5.432   5.893
 2815SOL    HW1 9344   0.080   5.348   5.931
 2815SOL    HW2 9345   0.077   5.446   5.801
 2816SOL     OW 9346   6.955   5.335   4.608
 2816SOL    HW1 9347   6.889   5.269   4.572
 2816SOL    HW2 9348   6.973   5.405   4.538
 2817SOL     OW 9349   3.679   1.562   2.468
 2817SOL    HW1 9350   3.674   1.470   2.430
 2817SOL    HW2 9351   3.613   1.621   2.422
 2818SOL     OW 9352   6.780   1.089   2.088
 2818SOL    HW1 9353   6.736   1.077   2.177
 2818SOL    HW2 9354   6.771   1.005   2.035
 2819SOL     OW 9355   1.523   0.169   1.113
 2819SOL    HW1 9356   1.501   0.110   1.190
 2819SOL    HW2 9357   1.527   0.264   1.144
 2820SOL     OW 9358   0.602   2.413   2.166
 2820SOL    HW1 9359   0.699   2.391   2.173
 2820SOL    HW2 9360   0.559   2.405   2.256
 2821SOL     OW 9361   2.915   5.247   6.067
 2821SOL    HW1 9362   2.932   5.262   6.164
 2821SOL    HW2 9363   2.967   5.314   6.013
 2822SOL     OW 9364   4.446   2.608   0.197
 2822SOL    HW1 9365   4.441   2.706   0.217
 2822SOL    HW2 9366   4.481   2.559   0.276
 2823SOL     OW 9367   5.859   0.774   6.884
 2823SOL    HW1 9368   5.805   0.840   6.937
 2823SOL    HW2 9369   5.832   0.778   6.788
 2824SOL     OW 9370   1.890   3.181   5.497
 2824SOL    HW1 9371   1.835   3.199   5.416
 2824SOL    HW2 9372   1.867   3.247   5.569
 2825SOL     OW 9373   5.883   0.492   6.335
 2825SOL    HW1 9374   5.855   0.587   6.323
 2825SOL    HW2 9375   5.804   0.436   6.359
 2826SOL     OW 9376   2.372   3.003   6.291
 2826SOL    HW1 9377   2.351   2.951   6.374
 2826SOL    HW2 9378   2.288   3.045   6.257
 2827SOL     OW 9379   0.576   0.869   6.613
 2827SOL    HW1 9380   0.651   0.813   6.650
 2827SOL    HW2 9381   0.488   0.826   6.635
 2828SOL     OW 9382   1.704   3.562   1.239
 2828SOL    HW1 9383   1.762   3.483   1.217
 2828SOL    HW2 9384   1.637   3.536   1.309
 2829SOL     OW 9385   3.164   3.129   3.336
 2829SOL    HW1 9386   3.071   3.159   3.358
 2829SOL    HW2 9387   3.204   3.086   3.417
 2830SOL     OW 9388   3.317   4.166   5.396
 2830SOL    HW1 9389   3.322   4.265   5.389
 2830SOL    HW2 9390   3.313   4.125   5.305
 2831SOL     OW 9391   0.349   2.750   2.900
 2831SOL    HW1 9392   0.442   2.750   2.864
 2831SOL    HW2 9393   0.324   2.843   2.929
 2832SOL     OW 9394   0.984   3.227   1.310
 2832SOL    HW1 9395   1.068   3.240   1.257
 2832SOL    HW2 9396   0.978   3.297   1.381
 2833SOL     OW 9397   2.721   1.449   1.741
 2833SOL    HW1 9398   2.779   1.525   1.770
 2833SOL    HW2 9399   2.649   1.483   1.681
 2834SOL     OW 9400   5.040   6.387   4.677
 2834SOL    HW1 9401   5.047   6.487   4.683
 2834SOL    HW2 9402   4.952   6.358   4.715
 2835SOL     OW 9403   1.000   6.452   0.624
 2835SOL    HW1 9404   0.979   6.537   0.577
 2835SOL    HW2 9405   0.941   6.442   0.704
 2836SOL     OW 9406   2.179   6.263   2.690
 2836SOL    HW1 9407   2.256   6.205   2.715
 2836SOL    HW2 9408   2.158   6.251   2.593
 2837SOL     OW 9409   5.471   4.546   2.463
 2837SOL    HW1 9410   5.571   4.553   2.454
 2837SOL    HW2 9411   5.435   4.496   2.385
 2838SOL     OW 9412   4.984   3.973   0.414
 2838SOL    HW1 9413   5.079   3.941   0.411
 2838SOL    HW2 9414   4.965   4.027   0.333
 2839SOL     OW 9415   0.195   2.626   2.387
 2839SOL    HW1 9416   0.257   2.704   2.381
 2839SOL    HW2 9417   0.193   2.578   2.300
 2840SOL     OW 9418   1.439   5.662   2.765
 2840SOL    HW1 9419   1.523   5.705   2.730
 2840SOL    HW2 9420   1.461   5.605   2.844
 2841SOL     OW 9421   6.788   2.421   6.980
 2841SOL    HW1 9422   6.828   2.429   0.044
 2841SOL    HW2 9423   6.721   2.346   6.980
 2842SOL     OW 9424   1.545   6.075   4.798
 2842SOL    HW1 9425   1.530   6.100   4.894
 2842SOL    HW2 9426   1.468   6.107   4.743
 2843SOL     OW 9427   2.811   1.956   2.796
 2843SOL    HW1 9428   2.810   1.965   2.896
 2843SOL    HW2 9429   2.744   2.019   2.756
 2844SOL     OW 9430   5.206   4.698   1.488
 2844SOL    HW1 9431   5.214   4.603   1.458
 2844SOL    HW2 9432   5.179   4.701   1.584
 2845SOL     OW 9433   5.218   2.851   2.782
 2845SOL    HW1 9434   5.202   2.795   2.863
 2845SOL    HW2 9435   5.140   2.911   2.766
 2846SOL     OW 9436   3.251   1.187   0.130
 2846SOL    HW1 9437   3.221   1.109   0.076
 2846SOL    HW2 9438   3.323   1.236   0.081
 2847SOL     OW 9439   4.799   4.183   2.464
 2847SOL    HW1 9440   4.737   4.258   2.441
 2847SOL    HW2 9441   4.842   4.148   2.381
 2848SOL     OW 9442   1.724   2.396   5.210
 2848SOL    HW1 9443   1.657   2.350   5.152
 2848SOL    HW2 9444   1.693   2.490   5.228
 2849SOL     OW 9445   3.833   1.180   1.219
 2849SOL    HW1 9446   3.753   1.153   1.166
 2849SOL    HW2 9447   3.909   1.200   1.157
 2850SOL     OW 9448   2.235   6.895   3.662
 2850SOL    HW1 9449   2.231   6.947   3.746
 2850SOL    HW2 9450   2.316   6.920   3.610
 2851SOL     OW 9451   4.152   3.629   6.614
 2851SOL    HW1 9452   4.194   3.541   6.591
 2851SOL    HW2 9453   4.053   3.619   6.616
 2852SOL     OW 9454   6.384   4.556   6.968
 2852SOL    HW1 9455   6.458   4.488   6.963
 2852SOL    HW2 9456   6.296   4.510   6.954
 2853SOL     OW 9457   0.727   3.469   0.764
 2853SOL    HW1 9458   0.638   3.498   0.728
 2853SOL    HW2 9459   0.714   3.393   0.827
 2854SOL     OW 9460   3.241   0.701   6.157
 2854SOL    HW1 9461   3.287   0.788   6.178
 2854SOL    HW2 9462   3.159   0.693   6.214
 2855SOL     OW 9463   1.045   3.035   4.689
 2855SOL    HW1 9464   0.955   3.018   4.649
 2855SOL    HW2 9465   1.110   2.969   4.652
 2856SOL     OW 9466   1.507   2.520   3.294
 2856SOL    HW1 9467   1.499   2.512   3.394
 2856SOL    HW2 9468   1.513   2.616   3.269
 2857SOL     OW 9469   0.331   2.997   0.991
 2857SOL    HW1 9470   0.424   2.996   1.029
 2857SOL    HW2 9471   0.321   2.922   0.926
 2858SOL     OW 9472   5.059   6.314   2.324
 2858SOL    HW1 9473   5.142   6.269   2.291
 2858SOL    HW2 9474   4.992   6.317   2.250
 2859SOL     OW 9475   5.217   6.238   0.735
 2859SOL    HW1 9476   5.278   6.316   0.728
 2859SOL    HW2 9477   5.134   6.265   0.784
 2860SOL     OW 9478   1.844   6.539   1.760
 2860SOL    HW1 9479   1.876   6.633   1.767
 2860SOL    HW2 9480   1.908   6.486   1.704
 2861SOL     OW 9481   2.844   5.598   5.402
 2861SOL    HW1 9482   2.872   5.596   5.498
 2861SOL    HW2 9483   2.899   5.533   5.349
 2862SOL     OW 9484   4.648   2.537   2.211
 2862SOL    HW1 9485   4.682   2.631   2.203
 2862SOL    HW2 9486   4.663   2.505   2.305
 2863SOL     OW 9487   5.167   1.505   6.781
 2863SOL    HW1 9488   5.260   1.543   6.778
 2863SOL    HW2 9489   5.172   1.406   6.793
 2864SOL     OW 9490   4.970   3.282   1.123
 2864SOL    HW1 9491   5.010   3.247   1.207
 2864SOL    HW2 9492   4.870   3.273   1.127
 2865SOL     OW 9493   4.099   0.165   4.211
 2865SOL    HW1 9494   4.137   0.124   4.128
 2865SOL    HW2 9495   4.048   0.095   4.262
 2866SOL     OW 9496   5.841   4.063   0.474
 2866SOL    HW1 9497   5.859   4.119   0.554
 2866SOL    HW2 9498   5.745   4.073   0.448
 2867SOL     OW 9499   6.363   6.240   2.633
 2867SOL    HW1 9500   6.362   6.223   2.534
 2867SOL    HW2 9501   6.320   6.329   2.652
 2868SOL     OW 9502   0.840   1.282   5.329
 2868SOL    HW1 9503   0.799   1.359   5.281
 2868SOL    HW2 9504   0.784   1.200   5.314
 2869SOL     OW 9505   6.074   0.456   3.743
 2869SOL    HW1 9506   6.165   0.498   3.736
 2869SOL    HW2 9507   6.059   0.397   3.663
 2870SOL     OW 9508   0.596   1.737   6.872
 2870SOL    HW1 9509   0.497   1.737   6.855
 2870SOL    HW2 9510   0.627   1.830   6.889
 2871SOL     OW 9511   6.263   0.362   6.742
 2871SOL    HW1 9512   6.194   0.398   6.680
 2871SOL    HW2 9513   6.219   0.323   6.823
 2872SOL     OW 9514   2.824   1.595   0.786
 2872SOL    HW1 9515   2.849   1.582   0.882
 2872SOL    HW2 9516   2.725   1.608   0.779
 2873SOL     OW 9517   6.656   6.002   1.569
 2873SOL    HW1 9518   6.698   5.952   1.645
 2873SOL    HW2 9519   6.560   6.018   1.589
 2874SOL     OW 9520   4.405   6.921   2.818
 2874SOL    HW1 9521   4.453   6.869   2.747
 2874SOL    HW2 9522   4.389   7.014   2.786
 2875SOL     OW 9523   3.531   0.013   2.798
 2875SOL    HW1 9524   3.591   0.016   2.718
 2875SOL    HW2 9525   3.436   0.003   2.767
 2876SOL     OW 9526   1.393   6.514   2.173
 2876SOL    HW1 9527   1.294   6.506   2.160
 2876SOL    HW2 9528   1.430   6.425   2.197
 2877SOL     OW 9529   2.296   0.752   6.958
 2877SOL    HW1 9530   2.345   0.665   6.965
 2877SOL    HW2 9531   2.359   0.827   6.976
 2878SOL     OW 9532   2.916   3.837   4.788
 2878SOL    HW1 9533   2.888   3.818   4.882
 2878SOL    HW2 9534   2.873   3.771   4.726
 2879SOL     OW 9535   4.572   5.405   5.825
 2879SOL    HW1 9536   4.472   5.414   5.826
 2879SOL    HW2 9537   4.609   5.443   5.910
 2880SOL     OW 9538   0.412   2.097   3.722
 2880SOL    HW1 9539   0.339   2.029   3.726
 2880SOL    HW2 9540   0.500   2.051   3.725
 2881SOL     OW 9541   3.441   5.902   0.166
 2881SOL    HW1 9542   3.431   5.885   0.068
 2881SOL    HW2 9543   3.521   5.959   0.183
 2882SOL     OW 9544   6.072   5.980   1.163
 2882SOL    HW1 9545   6.157   6.005   1.116
 2882SOL    HW2 9546   6.094   5.926   1.244
 2883SOL     OW 9547   5.916   6.673   3.624
 2883SOL    HW1 9548   6.007   6.661   3.586
 2883SOL    HW2 9549   5.922   6.683   3.723
 2884SOL     OW 9550   6.883   5.669   2.079
 2884SOL    HW1 9551   6.798   5.630   2.043
 2884SOL    HW2 9552   6.887   5.766   2.056
 2885SOL     OW 9553   1.280   2.289   4.259
 2885SOL    HW1 9554   1.204   2.345   4.227
 2885SOL    HW2 9555   1.288   2.298   4.358
 2886SOL     OW 9556   2.247   4.593   6.749
 2886SOL    HW1 9557   2.338   4.565   6.718
 2886SOL    HW2 9558   2.181   4.520   6.729
 2887SOL     OW 9559   6.900   6.108   4.225
 2887SOL    HW1 9560   6.862   6.180   4.284
 2887SOL    HW2 9561   6.947   6.040   4.282
 2888SOL     OW 9562   0.339   5.199   0.188
 2888SOL    HW1 9563   0.364   5.165   0.097
 2888SOL    HW2 9564   0.249   5.242   0.183
 2889SOL     OW 9565   2.856   6.831   2.892
 2889SOL    HW1 9566   2.905   6.745   2.909
 2889SOL    HW2 9567   2.908   6.906   2.932
 2890SOL     OW 9568   1.745   4.941   0.852
 2890SOL    HW1 9569   1.666   4.916   0.797
 2890SOL    HW2 9570   1.775   5.033   0.827
 2891SOL     OW 9571   1.438   3.583   3.214
 2891SOL    HW1 9572   1.426   3.485   3.197
 2891SOL    HW2 9573   1.536   3.605   3.210
 2892SOL     OW 9574   5.979   2.881   0.795
 2892SOL    HW1 9575   6.012   2.942   0.867
 2892SOL    HW2 9576   5.966   2.789   0.832
 2893SOL     OW 9577   1.866   5.556   4.937
 2893SOL    HW1 9578   1.880   5.647   4.977
 2893SOL    HW2 9579   1.919   5.549   4.853
 2894SOL     OW 9580   1.586   3.939   1.522
 2894SOL    HW1 9581   1.516   3.923   1.592
 2894SOL    HW2 9582   1.598   4.038   1.510
 2895SOL     OW 9583   3.832   0.752   6.446
 2895SOL    HW1 9584   3.773   0.808   6.504
 2895SOL    HW2 9585   3.866   0.807   6.370
 2896SOL     OW 9586   5.350   0.162   5.783
 2896SOL    HW1 9587   5.337   0.134   5.688
 2896SOL    HW2 9588   5.448   0.168   5.803
 2897SOL     OW 9589   4.176   5.019   2.879
 2897SOL    HW1 9590   4.155   5.046   2.973
 2897SOL    HW2 9591   4.098   4.968   2.841
 2898SOL     OW 9592   5.198   3.992   3.984
 2898SOL    HW1 9593   5.264   3.936   4.033
 2898SOL    HW2 9594   5.233   4.013   3.893
 2899SOL     OW 9595   6.558   1.726   0.749
 2899SOL    HW1 9596   6.567   1.627   0.761
 2899SOL    HW2 9597   6.629   1.773   0.801
 2900SOL     OW 9598   4.494   4.767   6.439
 2900SOL    HW1 9599   4.586   4.730   6.454
 2900SOL    HW2 9600   4.493   4.818   6.352
 2901SOL     OW 9601   2.006   5.106   3.374
 2901SOL    HW1 9602   1.940   5.113   3.299
 2901SOL    HW2 9603   2.000   5.187   3.432
 2902SOL     OW 9604   6.950   5.321   3.493
 2902SOL    HW1 9605   6.886   5.394   3.467
 2902SOL    HW2 9606   6.907   5.232   3.480
 2903SOL     OW 9607   4.132   6.255   1.042
 2903SOL    HW1 9608   4.218   6.272   1.090
 2903SOL    HW2 9609   4.065   6.218   1.106
 2904SOL     OW 9610   3.313   5.190   5.016
 2904SOL    HW1 9611   3.410   5.189   5.042
 2904SOL    HW2 9612   3.279   5.097   5.008
 2905SOL     OW 9613   1.563   4.142   3.893
 2905SOL    HW1 9614   1.588   4.239   3.895
 2905SOL    HW2 9615   1.469   4.132   3.862
 2906SOL     OW 9616   5.416   5.847   2.887
 2906SOL    HW1 9617   5.373   5.921   2.939
 2906SOL    HW2 9618   5.348   5.779   2.863
 2907SOL     OW 9619   0.553   1.610   4.221
 2907SOL    HW1 9620   0.642   1.649   4.195
 2907SOL    HW2 9621   0.519   1.551   4.148
 2908SOL     OW 9622   5.306   6.518   3.695
 2908SOL    HW1 9623   5.347   6.610   3.694
 2908SOL    HW2 9624   5.374   6.451   3.666
 2909SOL     OW 9625   1.826   6.849   3.507
 2909SOL    HW1 9626   1.840   6.754   3.479
 2909SOL    HW2 9627   1.739   6.858   3.556
 2910SOL     OW 9628   6.928   0.637   3.613
 2910SOL    HW1 9629   6.914   0.735   3.597
 2910SOL    HW2 9630   6.983   0.599   3.539
 2911SOL     OW 9631   1.325   4.992   3.633
 2911SOL    HW1 9632   1.255   4.973   3.702
 2911SOL    HW2 9633   1.287   5.053   3.563
 2912SOL     OW 9634   6.963   6.278   6.483
 2912SOL    HW1 9635   6.879   6.256   6.532
 2912SOL    HW2 9636   6.946   6.352   6.418
 2913SOL     OW 9637   3.145   4.931   2.541
 2913SOL    HW1 9638   3.195   4.952   2.625
 2913SOL    HW2 9639   3.211   4.911   2.468
 2914SOL     OW 9640   5.562   5.647   1.196
 2914SOL    HW1 9641   5.635   5.703   1.235
 2914SOL    HW2 9642   5.561   5.658   1.097
 2915SOL     OW 9643   3.257   2.090   3.964
 2915SOL    HW1 9644   3.205   2.047   3.890
 2915SOL    HW2 9645   3.216   2.066   4.051
 2916SOL     OW 9646   1.592   5.150   0.371
 2916SOL    HW1 9647   1.674   5.094   0.378
 2916SOL    HW2 9648   1.611   5.230   0.315
 2917SOL     OW 9649   3.177   0.613   4.306
 2917SOL    HW1 9650   3.149   0.517   4.309
 2917SOL    HW2 9651   3.140   0.656   4.224
 2918SOL     OW 9652   5.805   3.845   6.655
 2918SOL    HW1 9653   5.824   3.907   6.731
 2918SOL    HW2 9654   5.862   3.764   6.663
 2919SOL     OW 9655   6.360   6.606   3.198
 2919SOL    HW1 9656   6.283   6.607   3.262
 2919SOL    HW2 9657   6.346   6.534   3.130
 2920SOL     OW 9658   3.229   0.339   1.958
 2920SOL    HW1 9659   3.164   0.402   1.917
 2920SOL    HW2 9660   3.186   0.294   2.037
 2921SOL     OW 9661   0.424   0.218   6.200
 2921SOL    HW1 9662   0.419   0.138   6.141
 2921SOL    HW2 9663   0.417   0.301   6.144
 2922SOL     OW 9664   3.802   6.140   1.878
 2922SOL    HW1 9665   3.708   6.152   1.910
 2922SOL    HW2 9666   3.865   6.159   1.953
 2923SOL     OW 9667   6.505   5.126   4.864
 2923SOL    HW1 9668   6.556   5.143   4.948
 2923SOL    HW2 9669   6.528   5.197   4.797
 2924SOL     OW 9670   0.035   1.733   4.547
 2924SOL    HW1 9671   6.991   1.680   4.500
 2924SOL    HW2 9672   7.021   1.814   4.590
 2925SOL     OW 9673   5.665   1.943   0.122
 2925SOL    HW1 9674   5.742   1.947   0.057
 2925SOL    HW2 9675   5.611   1.861   0.104
 2926SOL     OW 9676   6.460   2.328   6.216
 2926SOL    HW1 9677   6.515   2.412   6.216
 2926SOL    HW2 9678   6.482   2.274   6.135
 2927SOL     OW 9679   1.399   2.870   0.748
 2927SOL    HW1 9680   1.340   2.949   0.766
 2927SOL    HW2 9681   1.343   2.787   0.748
 2928SOL     OW 9682   6.912   1.291   6.873
 2928SOL    HW1 9683   6.857   1.367   6.840
 2928SOL    HW2 9684   6.972   1.259   6.799
 2929SOL     OW 9685   1.591   2.572   4.994
 2929SOL    HW1 9686   1.560   2.486   4.953
 2929SOL    HW2 9687   1.691   2.574   4.996
 2930SOL     OW 9688   5.572   6.419   5.197
 2930SOL    HW1 9689   5.628   6.434   5.278
 2930SOL    HW2 9690   5.628   6.382   5.123
 2931SOL     OW 9691   4.598   4.701   6.825
 2931SOL    HW1 9692   4.542   4.779   6.852
 2931SOL    HW2 9693   4.544   4.617   6.828
 2932SOL     OW 9694   0.203   5.729   1.062
 2932SOL    HW1 9695   0.150   5.774   0.990
 2932SOL    HW2 9696   0.158   5.742   1.150
 2933SOL     OW 9697   0.538   0.084   2.098
 2933SOL    HW1 9698   0.638   0.096   2.103
 2933SOL    HW2 9699   0.517   0.012   2.033
 2934SOL     OW 9700   5.116   2.701   1.341
 2934SOL    HW1 9701   5.025   2.724   1.307
 2934SOL    HW2 9702   5.125   2.732   1.436
 2935SOL     OW 9703   0.329   2.856   6.206
 2935SOL    HW1 9704   0.389   2.871   6.284
 2935SOL    HW2 9705   0.348   2.767   6.165
 2936SOL     OW 9706   3.793   6.185   0.884
 2936SOL    HW1 9707   3.754   6.097   0.857
 2936SOL    HW2 9708   3.875   6.203   0.830
 2937SOL     OW 9709   4.843   5.469   0.773
 2937SOL    HW1 9710   4.847   5.533   0.697
 2937SOL    HW2 9711   4.936   5.443   0.800
 2938SOL     OW 9712   6.679   5.567   0.080
 2938SOL    HW1 9713   6.762   5.541   0.031
 2938SOL    HW2 9714   6.607   5.587   0.014
 2939SOL     OW 9715   1.740   0.535   1.516
 2939SOL    HW1 9716   1.640   0.539   1.522
 2939SOL    HW2 9717   1.769   0.441   1.498
 2940SOL     OW 9718   6.328   5.442   4.856
 2940SOL    HW1 9719   6.296   5.533   4.832
 2940SOL    HW2 9720   6.289   5.414   4.943
 2941SOL     OW 9721   2.543   2.125   2.950
 2941SOL    HW1 9722   2.603   2.203   2.968
 2941SOL    HW2 9723   2.470   2.153   2.887
 2942SOL     OW 9724   3.818   2.428   0.496
 2942SOL    HW1 9725   3.819   2.527   0.508
 2942SOL    HW2 9726   3.832   2.406   0.399
 2943SOL     OW 9727   6.039   4.954   3.947
 2943SOL    HW1 9728   6.112   4.886   3.951
 2943SOL    HW2 9729   5.974   4.928   3.875
 2944SOL     OW 9730   2.361   6.172   3.908
 2944SOL    HW1 9731   2.381   6.081   3.871
 2944SOL    HW2 9732   2.446   6.215   3.939
 2945SOL     OW 9733   5.088   2.806   1.761
 2945SOL    HW1 9734   5.045   2.761   1.683
 2945SOL    HW2 9735   5.026   2.803   1.839
 2946SOL     OW 9736   2.293   4.224   5.821
 2946SOL    HW1 9737   2.258   4.259   5.734
 2946SOL    HW2 9738   2.241   4.143   5.848
 2947SOL     OW 9739   7.005   5.287   0.194
 2947SOL    HW1 9740   6.938   5.342   0.143
 2947SOL    HW2 9741   6.993   5.304   0.292
 2948SOL     OW 9742   6.755   4.519   3.437
 2948SOL    HW1 9743   6.718   4.426   3.441
 2948SOL    HW2 9744   6.802   4.540   3.522
 2949SOL     OW 9745   0.288   5.656   6.737
 2949SOL    HW1 9746   0.255   5.703   6.820
 2949SOL    HW2 9747   0.386   5.642   6.744
 2950SOL     OW 9748   5.942   5.950   3.810
 2950SOL    HW1 9749   5.941   5.851   3.799
 2950SOL    HW2 9750   5.870   5.990   3.753
 2951SOL     OW 9751   5.295   1.313   2.189
 2951SOL    HW1 9752   5.296   1.324   2.090
 2951SOL    HW2 9753   5.306   1.216   2.212
 2952SOL     OW 9754   6.912   6.955   4.999
 2952SOL    HW1 9755   6.989   6.899   5.029
 2952SOL    HW2 9756   6.914   0.016   5.044
 2953SOL     OW 9757   0.210   4.189   3.200
 2953SOL    HW1 9758   0.170   4.280   3.194
 2953SOL    HW2 9759   0.198   4.152   3.292
 2954SOL     OW 9760   6.943   4.563   6.567
 2954SOL    HW1 9761   6.986   4.653   6.575
 2954SOL    HW2 9762   6.940   4.520   6.657
 2955SOL     OW 9763   0.768   4.461   0.899
 2955SOL    HW1 9764   0.822   4.526   0.951
 2955SOL    HW2 9765   0.803   4.369   0.914
 2956SOL     OW 9766   0.039   5.408   3.749
 2956SOL    HW1 9767   7.016   5.351   3.815
 2956SOL    HW2 9768   0.006   5.389   3.657
 2957SOL     OW 9769   4.496   4.918   1.513
 2957SOL    HW1 9770   4.545   4.898   1.429
 2957SOL    HW2 9771   4.491   4.835   1.570
 2958SOL     OW 9772   2.264   4.978   3.404
 2958SOL    HW1 9773   2.278   4.963   3.502
 2958SOL    HW2 9774   2.185   5.037   3.390
 2959SOL     OW 9775   5.478   2.816   2.424
 2959SOL    HW1 9776   5.428   2.748   2.477
 2959SOL    HW2 9777   5.575   2.793   2.423
 2960SOL     OW 9778   3.849   0.455   6.867
 2960SOL    HW1 9779   3.811   0.466   6.775
 2960SOL    HW2 9780   3.908   0.533   6.888
 2961SOL     OW 9781   6.160   4.678   3.143
 2961SOL    HW1 9782   6.123   4.597   3.190
 2961SOL    HW2 9783   6.153   4.758   3.202
 2962SOL     OW 9784   4.857   6.291   3.350
 2962SOL    HW1 9785   4.786   6.361   3.343
 2962SOL    HW2 9786   4.890   6.267   3.258
 2963SOL     OW 9787   1.067   0.646   6.557
 2963SOL    HW1 9788   1.000   0.715   6.584
 2963SOL    HW2 9789   1.115   0.612   6.638
 2964SOL     OW 9790   7.014   1.949   6.558
 2964SOL    HW1 9791   0.041   1.907   6.486
 2964SOL    HW2 9792   6.930   1.986   6.518
 2965SOL     OW 9793   0.835   0.409   4.668
 2965SOL    HW1 9794   0.744   0.443   4.647
 2965SOL    HW2 9795   0.855   0.328   4.612
 2966SOL     OW 9796   4.683   5.808   3.816
 2966SOL    HW1 9797   4.729   5.794   3.729
 2966SOL    HW2 9798   4.750   5.833   3.886
 2967SOL     OW 9799   6.330   1.238   5.769
 2967SOL    HW1 9800   6.261   1.172   5.797
 2967SOL    HW2 9801   6.353   1.297   5.846
 2968SOL     OW 9802   1.387   2.316   0.948
 2968SOL    HW1 9803   1.417   2.405   0.983
 2968SOL    HW2 9804   1.330   2.330   0.867
 2969SOL     OW 9805   4.891   3.147   4.722
 2969SOL    HW1 9806   4.842   3.234   4.727
 2969SOL    HW2 9807   4.988   3.163   4.742
 2970SOL     OW 9808   2.897   3.168   5.404
 2970SOL    HW1 9809   2.814   3.194   5.354
 2970SOL    HW2 9810   2.977   3.194   5.349
 2971SOL     OW 9811   5.467   4.234   0.280
 2971SOL    HW1 9812   5.559   4.258   0.251
 2971SOL    HW2 9813   5.403   4.254   0.205
 2972SOL     OW 9814   5.257   5.080   6.622
 2972SOL    HW1 9815   5.301   5.167   6.645
 2972SOL    HW2 9816   5.289   5.048   6.533
 2973SOL     OW 9817   4.787   6.798   2.236
 2973SOL    HW1 9818   4.696   6.757   2.246
 2973SOL    HW2 9819   4.826   6.814   2.326
 2974SOL     OW 9820   6.502   4.234   3.330
 2974SOL    HW1 9821   6.434   4.268   3.264
 2974SOL    HW2 9822   6.457   4.210   3.415
 2975SOL     OW 9823   5.271   4.383   4.557
 2975SOL    HW1 9824   5.219   4.365   4.641
 2975SOL    HW2 9825   5.221   4.345   4.479
 2976SOL     OW 9826   5.315   2.112   2.738
 2976SOL    HW1 9827   5.345   2.025   2.699
 2976SOL    HW2 9828   5.369   2.132   2.820
 2977SOL     OW 9829   0.357   0.762   2.573
 2977SOL    HW1 9830   0.400   0.672   2.562
 2977SOL    HW2 9831   0.286   0.773   2.503
 2978SOL     OW 9832   3.935   4.251   0.294
 2978SOL    HW1 9833   3.908   4.182   0.227
 2978SOL    HW2 9834   3.982   4.326   0.248
 2979SOL     OW 9835   3.216   1.676   4.183
 2979SOL    HW1 9836   3.141   1.696   4.120
 2979SOL    HW2 9837   3.185   1.690   4.277
 2980SOL     OW 9838   2.113   5.394   6.593
 2980SOL    HW1 9839   2.098   5.432   6.502
 2980SOL    HW2 9840   2.197   5.433   6.632
 2981SOL     OW 9841   2.268   1.142   0.282
 2981SOL    HW1 9842   2.293   1.202   0.358
 2981SOL    HW2 9843   2.328   1.063   0.280
 2982SOL     OW 9844   2.150   5.944   2.191
 2982SOL    HW1 9845   2.133   5.847   2.211
 2982SOL    HW2 9846   2.246   5.965   2.212
 2983SOL     OW 9847   6.946   2.060   1.207
 2983SOL    HW1 9848   6.982   2.149   1.236
 2983SOL    HW2 9849   6.942   1.999   1.285
 2984SOL     OW 9850   5.621   5.214   6.228
 2984SOL    HW1 9851   5.668   5.299   6.207
 2984SOL    HW2 9852   5.684   5.151   6.274
 2985SOL     OW 9853   0.756   1.492   4.907
 2985SOL    HW1 9854   0.703   1.423   4.858
 2985SOL    HW2 9855   0.694   1.555   4.953
 2986SOL     OW 9856   3.589   3.981   2.416
 2986SOL    HW1 9857   3.606   4.034   2.499
 2986SOL    HW2 9858   3.516   3.915   2.433
 2987SOL     OW 9859   1.519   1.244   4.152
 2987SOL    HW1 9860   1.613   1.215   4.137
 2987SOL    HW2 9861   1.461   1.163   4.169
 2988SOL     OW 9862   1.603   0.080   1.619
 2988SOL    HW1 9863   1.603   7.012   1.649
 2988SOL    HW2 9864   1.527   0.129   1.663
 2989SOL     OW 9865   5.417   4.088   5.153
 2989SOL    HW1 9866   5.397   4.063   5.058
 2989SOL    HW2 9867   5.373   4.022   5.214
 2990SOL     OW 9868   4.885   2.278   4.534
 2990SOL    HW1 9869   4.791   2.304   4.554
 2990SOL    HW2 9870   4.913   2.317   4.446
 2991SOL     OW 9871   6.105   3.147   6.188
 2991SOL    HW1 9872   6.159   3.205   6.127
 2991SOL    HW2 9873   6.065   3.204   6.260
 2992SOL     OW 9874   1.567   4.864   4.791
 2992SOL    HW1 9875   1.554   4.825   4.882
 2992SOL    HW2 9876   1.541   4.797   4.721
 2993SOL     OW 9877   0.246   4.955   0.414
 2993SOL    HW1 9878   0.279   5.029   0.355
 2993SOL    HW2 9879   0.148   4.940   0.396
 2994SOL     OW 9880   3.667   6.057   0.210
 2994SOL    HW1 9881   3.759   6.021   0.192
 2994SOL    HW2 9882   3.675   6.146   0.255
 2995SOL     OW 9883   4.251   0.208   0.038
 2995SOL    HW1 9884   4.279   0.118   0.005
 2995SOL    HW2 9885   4.279   0.219   0.133
 2996SOL     OW 9886   0.719   2.221   4.786
 2996SOL    HW1 9887   0.625   2.256   4.781
 2996SOL    HW2 9888   0.717   2.121   4.788
 2997SOL     OW 9889   4.716   6.975   3.270
 2997SOL    HW1 9890   4.797   6.916   3.263
 2997SOL    HW2 9891   4.650   6.949   3.200
 2998SOL     OW 9892   3.944   6.578   3.230
 2998SOL    HW1 9893   3.934   6.606   3.135
 2998SOL    HW2 9894   3.914   6.651   3.291
 2999SOL     OW 9895   2.964   4.964   5.900
 2999SOL    HW1 9896   2.909   5.047   5.912
 2999SOL    HW2 9897   2.906   4.890   5.866
 3000SOL     OW 9898   2.727   3.927   6.595
 3000SOL    HW1 9899   2.723   4.018   6.556
 3000SOL    HW2 9900   2.817   3.887   6.577
 3001SOL     OW 9901   6.149   2.048   0.400
 3001SOL    HW1 9902   6.192   2.017   0.316
 3001SOL    HW2 9903   6.161   1.979   0.471
 3002SOL     OW 9904   3.262   2.130   0.357
 3002SOL    HW1 9905   3.168   2.162   0.367
 3002SOL    HW2 9906   3.263   2.030   0.356
 3003SOL     OW 9907   0.842   6.478   1.223
 3003SOL    HW1 9908   0.933   6.455   1.259
 3003SOL    HW2 9909   0.790   6.394   1.209
 3004SOL     OW 9910   1.510   4.756   3.177
 3004SOL    HW1 9911   1.440   4.748   3.106
 3004SOL    HW2 9912   1.532   4.666   3.213
 3005SOL     OW 9913   1.645   3.093   6.509
 3005SOL    HW1 9914   1.688   3.159   6.572
 3005SOL    HW2 9915   1.583   3.141   6.448
 3006SOL     OW 9916   5.841   1.415   4.592
 3006SOL    HW1 9917   5.783   1.334   4.601
 3006SOL    HW2 9918   5.894   1.427   4.676
 3007SOL     OW 9919   4.792   5.165   0.106
 3007SOL    HW1 9920   4.826   5.221   0.182
 3007SOL    HW2 9921   4.785   5.070   0.135
 3008SOL     OW 9922   3.323   2.281   6.350
 3008SOL    HW1 9923   3.233   2.275   6.307
 3008SOL    HW2 9924   3.387   2.326   6.288
 3009SOL     OW 9925   0.284   2.968   2.554
 3009SOL    HW1 9926   0.229   3.051   2.558
 3009SOL    HW2 9927   0.352   2.970   2.627
 3010SOL     OW 9928   2.675   5.419   4.497
 3010SOL    HW1 9929   2.754   5.421   4.558
 3010SOL    HW2 9930   2.595   5.384   4.546
 3011SOL     OW 9931   6.191   0.381   1.685
 3011SOL    HW1 9932   6.166   0.337   1.599
 3011SOL    HW2 9933   6.271   0.335   1.724
 3012SOL     OW 9934   2.328   3.346   0.078
 3012SOL    HW1 9935   2.363   3.336   0.171
 3012SOL    HW2 9936   2.228   3.344   0.080
 3013SOL     OW 9937   6.436   4.629   3.040
 3013SOL    HW1 9938   6.495   4.681   3.102
 3013SOL    HW2 9939   6.340   4.641   3.069
 3014SOL     OW 9940   4.757   1.820   6.465
 3014SOL    HW1 9941   4.785   1.802   6.559
 3014SOL    HW2 9942   4.718   1.912   6.459
 3015SOL     OW 9943   2.218   1.832   0.183
 3015SOL    HW1 9944   2.296   1.892   0.199
 3015SOL    HW2 9945   2.249   1.747   0.140
 3016SOL     OW 9946   3.128   6.568   4.472
 3016SOL    HW1 9947   3.107   6.492   4.534
 3016SOL    HW2 9948   3.043   6.608   4.438
 3017SOL     OW 9949   5.139   5.013   2.683
 3017SOL    HW1 9950   5.131   5.084   2.753
 3017SOL    HW2 9951   5.150   4.924   2.727
 3018SOL     OW 9952   3.622   6.834   6.682
 3018SOL    HW1 9953   3.595   6.755   6.738
 3018SOL    HW2 9954   3.663   6.904   6.740
 3019SOL     OW 9955   0.846   0.024   0.154
 3019SOL    HW1 9956   0.791   0.074   0.087
 3019SOL    HW2 9957   0.796   6.970   0.184
 3020SOL     OW 9958   4.561   3.202   0.950
 3020SOL    HW1 9959   4.462   3.204   0.964
 3020SOL    HW2 9960   4.598   3.116   0.984
 3021SOL     OW 9961   2.586   7.010   3.806
 3021SOL    HW1 9962   2.602   6.946   3.730
 3021SOL    HW2 9963   2.673   0.003   3.851
 3022SOL     OW 9964   4.154   5.408   4.443
 3022SOL    HW1 9965   4.110   5.460   4.369
 3022SOL    HW2 9966   4.251   5.395   4.421
 3023SOL     OW 9967   3.721   6.639   3.053
 3023SOL    HW1 9968   3.796   6.673   2.997
 3023SOL    HW2 9969   3.649   6.708   3.058
 3024SOL     OW 9970   5.912   6.618   5.194
 3024SOL    HW1 9971   5.996   6.596   5.244
 3024SOL    HW2 9972   5.843   6.548   5.211
 3025SOL     OW 9973   4.042   6.020   1.981
 3025SOL    HW1 9974   3.970   5.954   2.004
 3025SOL    HW2 9975   4.036   6.098   2.043
 3026SOL     OW 9976   0.483   1.223   6.319
 3026SOL    HW1 9977   0.532   1.188   6.398
 3026SOL    HW2 9978   0.524   1.308   6.288
 3027SOL     OW 9979   3.950   1.653   2.257
 3027SOL    HW1 9980   3.921   1.745   2.229
 3027SOL    HW2 9981   3.898   1.584   2.207
 3028SOL     OW 9982   1.579   4.043   6.366
 3028SOL    HW1 9983   1.612   4.109   6.434
 3028SOL    HW2 9984   1.522   3.975   6.412
 3029SOL     OW 9985   1.174   2.587   3.525
 3029SOL    HW1 9986   1.185   2.509   3.463
 3029SOL    HW2 9987   1.202   2.562   3.617
 3030SOL     OW 9988   1.147   4.292   0.930
 3030SOL    HW1 9989   1.156   4.368   0.866
 3030SOL    HW2 9990   1.149   4.206   0.880
 3031SOL     OW 9991   1.181   4.484   0.697
 3031SOL    HW1 9992   1.163   4.433   0.613
 3031SOL    HW2 9993   1.279   4.480   0.718
 3032SOL     OW 9994   2.326   5.869   1.934
 3032SOL    HW1 9995   2.366   5.924   1.861
 3032SOL    HW2 9996   2.228   5.888   1.940
 3033SOL     OW 9997   6.400   1.545   2.935
 3033SOL    HW1 9998   6.444   1.538   2.845
 3033SOL    HW2 9999   6.362   1.637   2.946
 3034SOL     OW10000   0.699   6.076   3.689
 3034SOL    HW110001   0.776   6.046   3.633
 3034SOL    HW210002   0.732   6.128   3.767
 3035SOL     OW10003   1.045   3.021   6.201
 3035SOL    HW110004   1.066   3.064   6.114
 3035SOL    HW210005   1.012   2.928   6.185
 3036SOL     OW10006   1.151   2.425   5.125
 3036SOL    HW110007   1.095   2.352   5.085
 3036SOL    HW210008   1.092   2.497   5.160
 3037SOL     OW10009   6.530   5.014   5.255
 3037SOL    HW110010   6.585   5.012   5.339
 3037SOL    HW210011   6.563   5.087   5.195
 3038SOL     OW10012   5.257   4.146   5.950
 3038SOL    HW110013   5.161   4.160   5.924
 3038SOL    HW210014   5.314   4.209   5.897
 3039SOL     OW10015   0.203   3.181   0.247
 3039SOL    HW110016   0.220   3.083   0.247
 3039SOL    HW210017   0.119   3.200   0.298
 3040SOL     OW10018   3.206   4.663   6.014
 3040SOL    HW110019   3.122   4.608   6.008
 3040SOL    HW210020   3.260   4.651   5.931
 3041SOL     OW10021   1.111   5.065   6.240
 3041SOL    HW110022   1.162   5.150   6.226
 3041SOL    HW210023   1.085   5.056   6.336
 3042SOL     OW10024   5.756   6.273   2.625
 3042SOL    HW110025   5.739   6.300   2.719
 3042SOL    HW210026   5.794   6.180   2.622
 3043SOL     OW10027   3.345   3.993   1.046
 3043SOL    HW110028   3.278   3.920   1.035
 3043SOL    HW210029   3.361   4.010   1.143
 3044SOL     OW10030   2.868   4.878   5.524
 3044SOL    HW110031   2.911   4.802   5.476
 3044SOL    HW210032   2.810   4.929   5.461
 3045SOL     OW10033   4.755   6.652   3.166
 3045SOL    HW110034   4.734   6.575   3.106
 3045SOL    HW210035   4.677   6.714   3.169
 3046SOL     OW10036   3.284   6.706   0.334
 3046SOL    HW110037   3.191   6.725   0.301
 3046SOL    HW210038   3.310   6.613   0.310
 3047SOL     OW10039   6.613   6.806   0.707
 3047SOL    HW110040   6.708   6.828   0.686
 3047SOL    HW210041   6.583   6.858   0.786
 3048SOL     OW10042   4.972   2.356   0.884
 3048SOL    HW110043   4.986   2.372   0.981
 3048SOL    HW210044   4.874   2.348   0.864
 3049SOL     OW10045   0.983   0.440   4.289
 3049SOL    HW110046   1.058   0.505   4.301
 3049SOL    HW210047   0.924   0.471   4.215
 3050SOL     OW10048   2.487   2.525   1.640
 3050SOL    HW110049   2.576   2.528   1.685
 3050SOL    HW210050   2.424   2.470   1.695
 3051SOL     OW10051   2.622   6.575   6.302
 3051SOL    HW110052   2.657   6.564   6.209
 3051SOL    HW210053   2.634   6.670   6.331
 3052SOL     OW10054   5.096   5.517   2.201
 3052SOL    HW110055   5.124   5.601   2.246
 3052SOL    HW210056   5.065   5.451   2.269
 3053SOL     OW10057   0.285   3.368   1.189
 3053SOL    HW110058   0.318   3.440   1.251
 3053SOL    HW210059   0.332   3.376   1.101
 3054SOL     OW10060   6.106   0.781   1.986
 3054SOL    HW110061   6.149   0.723   1.917
 3054SOL    HW210062   6.142   0.874   1.980
 3055SOL     OW10063   5.701   0.206   5.273
 3055SOL    HW110064   5.770   0.141   5.242
 3055SOL    HW210065   5.637   0.159   5.334
 3056SOL     OW10066   6.174   1.773   5.926
 3056SOL    HW110067   6.191   1.775   5.828
 3056SOL    HW210068   6.259   1.754   5.974
 3057SOL     OW10069   5.169   6.301   4.451
 3057SOL    HW110070   5.111   6.332   4.527
 3057SOL    HW210071   5.251   6.357   4.447
 3058SOL     OW10072   6.188   4.266   0.721
 3058SOL    HW110073   6.265   4.266   0.785
 3058SOL    HW210074   6.200   4.191   0.655
 3059SOL     OW10075   2.663   1.885   4.229
 3059SOL    HW110076   2.634   1.917   4.320
 3059SOL    HW210077   2.591   1.828   4.189
 3060SOL     OW10078   2.257   5.137   6.912
 3060SOL    HW110079   2.268   5.214   6.849
 3060SOL    HW210080   2.333   5.135   6.976
 3061SOL     OW10081   6.087   5.674   5.816
 3061SOL    HW110082   6.021   5.598   5.813
 3061SOL    HW210083   6.170   5.643   5.863
 3062SOL     OW10084   2.772   5.763   1.373
 3062SOL    HW110085   2.705   5.702   1.416
 3062SOL    HW210086   2.733   5.803   1.291
 3063SOL     OW10087   0.648   4.483   1.360
 3063SOL    HW110088   0.696   4.536   1.430
 3063SOL    HW210089   0.589   4.544   1.307
 3064SOL     OW10090   4.212   3.576   0.279
 3064SOL    HW110091   4.229   3.633   0.359
 3064SOL    HW210092   4.223   3.630   0.196
 3065SOL     OW10093   1.348   1.814   6.216
 3065SOL    HW110094   1.379   1.898   6.171
 3065SOL    HW210095   1.401   1.799   6.299
 3066SOL     OW10096   5.148   5.277   5.964
 3066SOL    HW110097   5.234   5.302   6.009
 3066SOL    HW210098   5.097   5.213   6.022
 3067SOL     OW10099   2.951   1.194   0.882
 3067SOL    HW110100   2.958   1.187   0.981
 3067SOL    HW210101   2.856   1.179   0.854
 3068SOL     OW10102   7.001   0.316   1.839
 3068SOL    HW110103   0.019   0.404   1.832
 3068SOL    HW210104   0.015   0.262   1.912
 3069SOL     OW10105   6.152   6.395   3.496
 3069SOL    HW110106   6.243   6.355   3.486
 3069SOL    HW210107   6.085   6.337   3.449
 3070SOL     OW10108   2.547   0.748   6.520
 3070SOL    HW110109   2.619   0.813   6.545
 3070SOL    HW210110   2.459   0.796   6.517
 3071SOL     OW10111   6.518   5.356   3.888
 3071SOL    HW110112   6.455   5.426   3.852
 3071SOL    HW210113   6.531   5.285   3.818
 3072SOL     OW10114   2.090   5.960   6.741
 3072SOL    HW110115   2.173   5.917   6.777
 3072SOL    HW210116   2.063   6.036   6.801
 3073SOL     OW10117   6.935   3.988   1.894
 3073SOL    HW110118   6.921   3.900   1.940
 3073SOL    HW210119   6.894   3.985   1.803
 3074SOL     OW10120   0.894   4.218   0.967
 3074SOL    HW110121   0.862   4.163   1.044
 3074SOL    HW210122   0.979   4.264   0.992
 3075SOL     OW10123   2.613   5.328   3.683
 3075SOL    HW110124   2.632   5.424   3.664
 3075SOL    HW210125   2.668   5.271   3.622
 3076SOL     OW10126   6.732   1.662   4.703
 3076SOL    HW110127   6.827   1.646   4.729
 3076SOL    HW210128   6.675   1.587   4.737
 3077SOL     OW10129   6.106   3.601   2.017
 3077SOL    HW110130   6.026   3.654   1.992
 3077SOL    HW210131   6.095   3.567   2.111
 3078SOL     OW10132   6.789   3.236   1.919
 3078SOL    HW110133   6.747   3.266   2.004
 3078SOL    HW210134   6.781   3.308   1.850
 3079SOL     OW10135   3.207   2.139   3.564
 3079SOL    HW110136   3.286   2.118   3.506
 3079SOL    HW210137   3.151   2.210   3.520
 3080SOL     OW10138   5.045   4.347   2.162
 3080SOL    HW110139   5.050   4.286   2.241
 3080SOL    HW210140   4.958   4.396   2.163
 3081SOL     OW10141   0.994   4.596   5.779
 3081SOL    HW110142   0.909   4.617   5.827
 3081SOL    HW210143   1.009   4.664   5.707
 3082SOL     OW10144   2.611   5.719   4.087
 3082SOL    HW110145   2.685   5.782   4.112
 3082SOL    HW210146   2.651   5.631   4.061
 3083SOL     OW10147   3.032   6.200   2.965
 3083SOL    HW110148   3.012   6.142   2.886
 3083SOL    HW210149   2.960   6.189   3.033
 3084SOL     OW10150   6.656   4.082   2.684
 3084SOL    HW110151   6.657   4.181   2.692
 3084SOL    HW210152   6.614   4.056   2.597
 3085SOL     OW10153   5.768   4.287   0.965
 3085SOL    HW110154   5.854   4.264   0.919
 3085SOL    HW210155   5.700   4.315   0.897
 3086SOL     OW10156   4.380   1.047   0.158
 3086SOL    HW110157   4.401   1.078   0.066
 3086SOL    HW210158   4.436   1.097   0.224
 3087SOL     OW10159   2.776   6.272   3.377
 3087SOL    HW110160   2.719   6.307   3.452
 3087SOL    HW210161   2.872   6.285   3.399
 3088SOL     OW10162   1.692   3.273   5.306
 3088SOL    HW110163   1.604   3.299   5.346
 3088SOL    HW210164   1.740   3.355   5.276
 3089SOL     OW10165   4.380   2.464   4.623
 3089SOL    HW110166   4.325   2.392   4.666
 3089SOL    HW210167   4.326   2.511   4.554
 3090SOL     OW10168   2.095   1.333   2.472
 3090SOL    HW110169   2.034   1.355   2.549
 3090SOL    HW210170   2.040   1.319   2.390
 3091SOL     OW10171   1.401   1.068   0.568
 3091SOL    HW110172   1.486   1.030   0.604
 3091SOL    HW210173   1.350   0.996   0.520
 3092SOL     OW10174   4.949   6.662   1.171
 3092SOL    HW110175   4.977   6.745   1.219
 3092SOL    HW210176   5.028   6.604   1.156
 3093SOL     OW10177   5.620   6.523   5.561
 3093SOL    HW110178   5.563   6.603   5.549
 3093SOL    HW210179   5.692   6.543   5.627
 3094SOL     OW10180   2.958   0.482   4.181
 3094SOL    HW110181   2.952   0.582   4.181
 3094SOL    HW210182   2.919   0.447   4.095
 3095SOL     OW10183   2.183   3.968   5.913
 3095SOL    HW110184   2.118   3.920   5.854
 3095SOL    HW210185   2.237   3.902   5.964
 3096SOL     OW10186   0.935   4.588   5.283
 3096SOL    HW110187   0.940   4.495   5.320
 3096SOL    HW210188   0.905   4.584   5.187
 3097SOL     OW10189   5.662   3.111   0.037
 3097SOL    HW110190   5.648   3.012   0.046
 3097SOL    HW210191   5.588   3.159   0.084
 3098SOL     OW10192   1.856   3.392   2.005
 3098SOL    HW110193   1.887   3.371   2.098
 3098SOL    HW210194   1.935   3.394   1.944
 3099SOL     OW10195   1.076   6.463   3.849
 3099SOL    HW110196   1.043   6.384   3.901
 3099SOL    HW210197   1.169   6.485   3.878
 3100SOL     OW10198   6.794   6.283   2.628
 3100SOL    HW110199   6.773   6.301   2.532
 3100SOL    HW210200   6.868   6.344   2.658
 3101SOL     OW10201   4.520   6.254   5.733
 3101SOL    HW110202   4.565   6.165   5.738
 3101SOL    HW210203   4.522   6.298   5.823
 3102SOL     OW10204   7.014   6.137   1.256
 3102SOL    HW110205   6.944   6.136   1.328
 3102SOL    HW210206   7.018   6.228   1.215
 3103SOL     OW10207   4.858   0.557   1.561
 3103SOL    HW110208   4.863   0.601   1.472
 3103SOL    HW210209   4.779   0.496   1.564
 3104SOL     OW10210   3.448   0.723   6.433
 3104SOL    HW110211   3.419   0.774   6.352
 3104SOL    HW210212   3.432   0.779   6.515
 3105SOL     OW10213   4.486   3.739   1.600
 3105SOL    HW110214   4.407   3.685   1.632
 3105SOL    HW210215   4.454   3.825   1.562
 3106SOL     OW10216   5.421   6.752   4.936
 3106SOL    HW110217   5.363   6.827   4.905
 3106SOL    HW210218   5.467   6.709   4.858
 3107SOL     OW10219   4.356   1.465   4.515
 3107SOL    HW110220   4.431   1.451   4.450
 3107SOL    HW210221   4.392   1.508   4.598
 3108SOL     OW10222   1.932   5.255   5.085
 3108SOL    HW110223   1.969   5.257   4.993
 3108SOL    HW210224   2.000   5.293   5.149
 3109SOL     OW10225   6.239   0.478   4.378
 3109SOL    HW110226   6.150   0.496   4.335
 3109SOL    HW210227   6.235   0.391   4.427
 3110SOL     OW10228   2.234   4.499   3.321
 3110SOL    HW110229   2.181   4.444   3.257
 3110SOL    HW210230   2.325   4.461   3.332
 3111SOL     OW10231   0.435   4.408   3.300
 3111SOL    HW110232   0.439   4.345   3.378
 3111SOL    HW210233   0.408   4.357   3.218
 3112SOL     OW10234   2.882   2.914   0.008
 3112SOL    HW110235   2.891   2.840   6.969
 3112SOL    HW210236   2.793   2.958   7.024
 3113SOL     OW10237   3.186   6.574   2.737
 3113SOL    HW110238   3.282   6.573   2.764
 3113SOL    HW210239   3.176   6.526   2.650
 3114SOL     OW10240   4.161   1.672   0.267
 3114SOL    HW110241   4.064   1.682   0.289
 3114SOL    HW210242   4.209   1.629   0.343
 3115SOL     OW10243   3.891   4.656   5.337
 3115SOL    HW110244   3.990   4.660   5.333
 3115SOL    HW210245   3.862   4.586   5.403
 3116SOL     OW10246   0.021   1.372   0.327
 3116SOL    HW110247   7.017   1.466   0.333
 3116SOL    HW210248   6.994   1.322   0.260
 3117SOL     OW10249   4.381   3.145   5.398
 3117SOL    HW110250   4.350   3.235   5.366
 3117SOL    HW210251   4.307   3.079   5.387
 3118SOL     OW10252   0.908   6.670   1.832
 3118SOL    HW110253   0.938   6.760   1.861
 3118SOL    HW210254   0.919   6.605   1.907
 3119SOL     OW10255   2.750   2.231   5.658
 3119SOL    HW110256   2.684   2.186   5.718
 3119SOL    HW210257   2.735   2.201   5.564
 3120SOL     OW10258   3.136   0.675   5.888
 3120SOL    HW110259   3.041   0.706   5.897
 3120SOL    HW210260   3.166   0.634   5.974
 3121SOL     OW10261   5.917   2.034   4.527
 3121SOL    HW110262   5.865   2.113   4.493
 3121SOL    HW210263   5.958   1.985   4.449
 3122SOL     OW10264   4.557   4.646   5.269
 3122SOL    HW110265   4.470   4.685   5.299
 3122SOL    HW210266   4.618   4.720   5.239
 3123SOL     OW10267   1.564   1.238   3.075
 3123SOL    HW110268   1.584   1.158   3.018
 3123SOL    HW210269   1.634   1.308   3.058
 3124SOL     OW10270   5.235   6.928   3.638
 3124SOL    HW110271   5.241   7.018   3.595
 3124SOL    HW210272   5.239   6.938   3.737
 3125SOL     OW10273   1.580   2.650   5.354
 3125SOL    HW110274   1.680   2.663   5.355
 3125SOL    HW210275   1.536   2.735   5.324
 3126SOL     OW10276   5.270   4.175   5.553
 3126SOL    HW110277   5.173   4.191   5.568
 3126SOL    HW210278   5.322   4.217   5.628
 3127SOL     OW10279   1.909   2.305   5.390
 3127SOL    HW110280   1.840   2.343   5.329
 3127SOL    HW210281   1.906   2.205   5.388
 3128SOL     OW10282   3.509   0.717   0.151
 3128SOL    HW110283   3.548   0.681   0.066
 3128SOL    HW210284   3.488   0.642   0.213
 3129SOL     OW10285   4.917   3.691   0.892
 3129SOL    HW110286   4.962   3.669   0.805
 3129SOL    HW210287   4.956   3.635   0.965
 3130SOL     OW10288   1.546   4.507   1.400
 3130SOL    HW110289   1.553   4.483   1.304
 3130SOL    HW210290   1.619   4.571   1.424
 3131SOL     OW10291   0.615   3.372   2.308
 3131SOL    HW110292   0.560   3.367   2.225
 3131SOL    HW210293   0.571   3.317   2.380
 3132SOL     OW10294   4.639   5.141   6.562
 3132SOL    HW110295   4.666   5.212   6.498
 3132SOL    HW210296   4.667   5.167   6.655
 3133SOL     OW10297   3.727   1.195   2.966
 3133SOL    HW110298   3.643   1.181   2.914
 3133SOL    HW210299   3.716   1.274   3.027
 3134SOL     OW10300   4.206   4.964   1.577
 3134SOL    HW110301   4.217   5.046   1.633
 3134SOL    HW210302   4.282   4.958   1.512
 3135SOL     OW10303   5.020   6.706   5.948
 3135SOL    HW110304   4.969   6.763   5.884
 3135SOL    HW210305   4.975   6.708   6.037
 3136SOL     OW10306   5.717   0.040   2.094
 3136SOL    HW110307   5.666   6.989   2.129
 3136SOL    HW210308   5.692   0.055   1.998
 3137SOL     OW10309   6.671   6.566   3.139
 3137SOL    HW110310   6.729   6.647   3.151
 3137SOL    HW210311   6.575   6.592   3.149
 3138SOL     OW10312   6.208   5.705   3.559
 3138SOL    HW110313   6.154   5.701   3.475
 3138SOL    HW210314   6.152   5.741   3.633
 3139SOL     OW10315   3.534   4.902   1.555
 3139SOL    HW110316   3.568   4.992   1.529
 3139SOL    HW210317   3.444   4.887   1.514
 3140SOL     OW10318   6.583   6.514   5.271
 3140SOL    HW110319   6.642   6.574   5.218
 3140SOL    HW210320   6.631   6.427   5.289
 3141SOL     OW10321   0.543   6.908   6.792
 3141SOL    HW110322   0.557   6.871   6.700
 3141SOL    HW210323   0.538   6.833   6.858
 3142SOL     OW10324   3.239   0.798   3.195
 3142SOL    HW110325   3.176   0.749   3.256
 3142SOL    HW210326   3.194   0.817   3.109
 3143SOL     OW10327   6.386   1.731   6.846
 3143SOL    HW110328   6.297   1.771   6.869
 3143SOL    HW210329   6.456   1.766   6.908
 3144SOL     OW10330   4.466   3.632   0.462
 3144SOL    HW110331   4.388   3.694   0.453
 3144SOL    HW210332   4.481   3.584   0.376
 3145SOL     OW10333   1.866   6.258   2.470
 3145SOL    HW110334   1.801   6.309   2.526
 3145SOL    HW210335   1.948   6.314   2.455
 3146SOL     OW10336   0.594   1.152   4.907
 3146SOL    HW110337   0.595   1.130   4.809
 3146SOL    HW210338   0.591   1.068   4.960
 3147SOL     OW10339   3.046   5.026   0.045
 3147SOL    HW110340   3.042   5.098   0.115
 3147SOL    HW210341   3.141   4.996   0.035
 3148SOL     OW10342   0.104   0.353   4.096
 3148SOL    HW110343   0.163   0.319   4.023
 3148SOL    HW210344   0.035   0.415   4.058
 3149SOL     OW10345   3.127   1.207   6.586
 3149SOL    HW110346   3.157   1.289   6.635
 3149SOL    HW210347   3.028   1.206   6.580
 3150SOL     OW10348   0.208   6.229   4.925
 3150SOL    HW110349   0.108   6.230   4.928
 3150SOL    HW210350   0.241   6.137   4.945
 3151SOL     OW10351   6.785   1.369   5.831
 3151SOL    HW110352   6.781   1.272   5.857
 3151SOL    HW210353   6.693   1.402   5.813
 3152SOL     OW10354   0.491   3.736   0.132
 3152SOL    HW110355   0.544   3.762   0.052
 3152SOL    HW210356   0.501   3.805   0.203
 3153SOL     OW10357   6.289   5.420   7.017
 3153SOL    HW110358   6.268   5.433   0.087
 3153SOL    HW210359   6.352   5.493   6.988
 3154SOL     OW10360   6.315   0.941   0.967
 3154SOL    HW110361   6.270   0.886   0.896
 3154SOL    HW210362   6.268   0.926   1.054
 3155SOL     OW10363   6.168   4.835   0.311
 3155SOL    HW110364   6.201   4.818   0.218
 3155SOL    HW210365   6.137   4.930   0.318
 3156SOL     OW10366   3.096   3.941   2.137
 3156SOL    HW110367   3.141   3.855   2.160
 3156SOL    HW210368   3.141   4.016   2.186
 3157SOL     OW10369   1.988   1.417   5.034
 3157SOL    HW110370   1.899   1.395   4.992
 3157SOL    HW210371   1.976   1.488   5.103
 3158SOL     OW10372   2.177   1.052   4.676
 3158SOL    HW110373   2.134   1.105   4.749
 3158SOL    HW210374   2.212   1.114   4.605
 3159SOL     OW10375   5.681   0.300   6.394
 3159SOL    HW110376   5.594   0.283   6.347
 3159SOL    HW210377   5.726   0.213   6.414
 3160SOL     OW10378   1.164   6.303   5.911
 3160SOL    HW110379   1.219   6.364   5.968
 3160SOL    HW210380   1.070   6.339   5.904
 3161SOL     OW10381   2.611   2.361   2.632
 3161SOL    HW110382   2.706   2.342   2.655
 3161SOL    HW210383   2.582   2.300   2.558
 3162SOL     OW10384   0.791   5.725   1.086
 3162SOL    HW110385   0.769   5.656   1.155
 3162SOL    HW210386   0.718   5.792   1.081
 3163SOL     OW10387   4.062   4.271   6.745
 3163SOL    HW110388   4.076   4.256   6.647
 3163SOL    HW210389   4.120   4.347   6.776
 3164SOL     OW10390   3.878   5.471   2.205
 3164SOL    HW110391   3.975   5.444   2.204
 3164SOL    HW210392   3.825   5.407   2.149
 3165SOL     OW10393   0.730   5.862   1.774
 3165SOL    HW110394   0.771   5.782   1.731
 3165SOL    HW210395   0.776   5.945   1.742
 3166SOL     OW10396   4.827   2.052   4.051
 3166SOL    HW110397   4.733   2.069   4.020
 3166SOL    HW210398   4.876   2.000   3.982
 3167SOL     OW10399   5.615   4.315   0.686
 3167SOL    HW110400   5.623   4.354   0.594
 3167SOL    HW210401   5.528   4.268   0.695
 3168SOL     OW10402   5.903   3.150   0.178
 3168SOL    HW110403   5.828   3.135   0.113
 3168SOL    HW210404   5.906   3.247   0.204
 3169SOL     OW10405   2.299   4.145   3.618
 3169SOL    HW110406   2.266   4.138   3.712
 3169SOL    HW210407   2.284   4.057   3.571
 3170SOL     OW10408   4.243   5.553   2.412
 3170SOL    HW110409   4.216   5.648   2.427
 3170SOL    HW210410   4.286   5.517   2.495
 3171SOL     OW10411   6.464   2.055   1.649
 3171SOL    HW110412   6.517   1.976   1.678
 3171SOL    HW210413   6.518   2.109   1.583
 3172SOL     OW10414   6.970   5.122   6.404
 3172SOL    HW110415   7.006   5.207   6.443
 3172SOL    HW210416   0.002   5.091   6.331
 3173SOL     OW10417   2.828   1.916   6.732
 3173SOL    HW110418   2.911   1.943   6.682
 3173SOL    HW210419   2.754   1.979   6.710
 3174SOL     OW10420   2.832   3.167   6.725
 3174SOL    HW110421   2.897   3.097   6.754
 3174SOL    HW210422   2.878   3.256   6.721
 3175SOL     OW10423   5.983   1.542   1.672
 3175SOL    HW110424   6.020   1.459   1.713
 3175SOL    HW210425   6.050   1.583   1.611
 3176SOL     OW10426   1.030   3.129   5.585
 3176SOL    HW110427   1.007   3.118   5.488
 3176SOL    HW210428   1.102   3.198   5.594
 3177SOL     OW10429   5.200   4.266   3.725
 3177SOL    HW110430   5.149   4.245   3.641
 3177SOL    HW210431   5.250   4.185   3.754
 3178SOL     OW10432   6.493   2.496   6.915
 3178SOL    HW110433   6.556   2.551   6.860
 3178SOL    HW210434   6.500   2.524   7.011
 3179SOL     OW10435   1.131   1.904   1.695
 3179SOL    HW110436   1.151   1.820   1.745
 3179SOL    HW210437   1.195   1.975   1.724
 3180SOL     OW10438   6.504   6.739   0.458
 3180SOL    HW110439   6.599   6.724   0.428
 3180SOL    HW210440   6.504   6.777   0.550
 3181SOL     OW10441   6.555   2.661   3.996
 3181SOL    HW110442   6.496   2.672   3.916
 3181SOL    HW210443   6.521   2.718   4.071
 3182SOL     OW10444   2.537   0.533   0.423
 3182SOL    HW110445   2.543   0.477   0.505
 3182SOL    HW210446   2.579   0.622   0.439
 3183SOL     OW10447   4.624   4.559   2.603
 3183SOL    HW110448   4.634   4.496   2.680
 3183SOL    HW210449   4.546   4.619   2.620
 3184SOL     OW10450   0.318   2.270   3.104
 3184SOL    HW110451   0.272   2.181   3.105
 3184SOL    HW210452   0.397   2.266   3.042
 3185SOL     OW10453   4.636   6.420   6.719
 3185SOL    HW110454   4.584   6.345   6.677
 3185SOL    HW210455   4.603   6.435   6.812
 3186SOL     OW10456   3.102   2.076   6.982
 3186SOL    HW110457   3.197   2.056   6.958
 3186SOL    HW210458   3.055   2.114   6.902
 3187SOL     OW10459   3.992   5.451   1.795
 3187SOL    HW110460   3.973   5.507   1.714
 3187SOL    HW210461   4.049   5.374   1.768
 3188SOL     OW10462   1.457   0.083   4.179
 3188SOL    HW110463   1.396   0.098   4.258
 3188SOL    HW210464   1.402   0.057   4.100
 3189SOL     OW10465   1.058   1.634   1.022
 3189SOL    HW110466   1.055   1.630   0.922
 3189SOL    HW210467   1.134   1.579   1.056
 3190SOL     OW10468   0.008   5.705   6.892
 3190SOL    HW110469   0.063   5.702   6.976
 3190SOL    HW210470   6.960   5.769   6.905
 3191SOL     OW10471   4.957   5.131   1.502
 3191SOL    HW110472   4.904   5.180   1.433
 3191SOL    HW210473   4.990   5.045   1.465
 3192SOL     OW10474   0.687   2.936   0.707
 3192SOL    HW110475   0.668   3.033   0.691
 3192SOL    HW210476   0.747   2.927   0.786
 3193SOL     OW10477   3.961   1.667   5.296
 3193SOL    HW110478   3.909   1.672   5.381
 3193SOL    HW210479   3.985   1.571   5.277
 3194SOL     OW10480   1.593   2.081   5.778
 3194SOL    HW110481   1.619   2.048   5.687
 3194SOL    HW210482   1.667   2.061   5.843
 3195SOL     OW10483   1.175   1.365   1.999
 3195SOL    HW110484   1.095   1.320   1.959
 3195SOL    HW210485   1.235   1.296   2.039
 3196SOL     OW10486   0.092   0.546   6.813
 3196SOL    HW110487   0.060   0.641   6.806
 3196SOL    HW210488   0.016   0.487   6.841
 3197SOL     OW10489   2.659   6.895   4.858
 3197SOL    HW110490   2.597   6.845   4.919
 3197SOL    HW210491   2.660   6.852   4.768
 3198SOL     OW10492   6.675   2.970   2.792
 3198SOL    HW110493   6.746   3.011   2.848
 3198SOL    HW210494   6.585   2.987   2.834
 3199SOL     OW10495   5.155   3.824   2.809
 3199SOL    HW110496   5.138   3.739   2.859
 3199SOL    HW210497   5.253   3.837   2.798
 3200SOL     OW10498   5.628   3.259   2.471
 3200SOL    HW110499   5.557   3.198   2.437
 3200SOL    HW210500   5.710   3.205   2.493
 3201SOL     OW10501   6.654   4.328   2.930
 3201SOL    HW110502   6.586   4.355   2.999
 3201SOL    HW210503   6.622   4.247   2.881
 3202SOL     OW10504   1.020   4.978   0.470
 3202SOL    HW110505   0.950   4.977   0.541
 3202SOL    HW210506   1.106   4.945   0.507
 3203SOL     OW10507   5.917   1.412   0.798
 3203SOL    HW110508   5.957   1.322   0.815
 3203SOL    HW210509   5.840   1.403   0.735
 3204SOL     OW10510   4.035   0.188   3.276
 3204SOL    HW110511   4.032   0.178   3.376
 3204SOL    HW210512   4.018   0.099   3.234
 3205SOL     OW10513   4.820   3.200   6.046
 3205SOL    HW110514   4.774   3.231   5.963
 3205SOL    HW210515   4.889   3.268   6.073
 3206SOL     OW10516   1.736   4.195   1.191
 3206SOL    HW110517   1.653   4.142   1.175
 3206SOL    HW210518   1.738   4.272   1.127
 3207SOL     OW10519   1.480   0.945   6.684
 3207SOL    HW110520   1.413   0.932   6.611
 3207SOL    HW210521   1.460   0.882   6.759
 3208SOL     OW10522   5.287   6.328   6.502
 3208SOL    HW110523   5.200   6.302   6.459
 3208SOL    HW210524   5.358   6.264   6.472
 3209SOL     OW10525   2.879   5.118   4.275
 3209SOL    HW110526   2.943   5.056   4.321
 3209SOL    HW210527   2.787   5.081   4.281
 3210SOL     OW10528   1.339   4.613   1.086
 3210SOL    HW110529   1.401   4.690   1.101
 3210SOL    HW210530   1.266   4.640   1.024
 3211SOL     OW10531   1.447   3.857   0.770
 3211SOL    HW110532   1.384   3.898   0.835
 3211SOL    HW210533   1.477   3.768   0.805
 3212SOL     OW10534   2.941   6.619   2.331
 3212SOL    HW110535   2.849   6.629   2.293
 3212SOL    HW210536   2.946   6.667   2.419
 3213SOL     OW10537   0.989   0.205   6.916
 3213SOL    HW110538   1.002   0.109   6.891
 3213SOL    HW210539   1.078   0.246   6.934
 3214SOL     OW10540   4.363   5.617   2.125
 3214SOL    HW110541   4.313   5.614   2.211
 3214SOL    HW210542   4.300   5.641   2.051
 3215SOL     OW10543   0.387   4.166   0.667
 3215SOL    HW110544   0.429   4.115   0.592
 3215SOL    HW210545   0.396   4.114   0.752
 3216SOL     OW10546   5.996   5.764   0.628
 3216SOL    HW110547   6.015   5.667   0.640
 3216SOL    HW210548   6.068   5.818   0.672
 3217SOL     OW10549   0.542   5.534   2.531
 3217SOL    HW110550   0.593   5.471   2.589
 3217SOL    HW210551   0.447   5.541   2.565
 3218SOL     OW10552   5.853   2.576   3.124
 3218SOL    HW110553   5.926   2.640   3.149
 3218SOL    HW210554   5.833   2.516   3.201
 3219SOL     OW10555   0.377   1.483   4.026
 3219SOL    HW110556   0.282   1.473   4.055
 3219SOL    HW210557   0.420   1.393   4.022
 3220SOL     OW10558   0.143   5.522   5.651
 3220SOL    HW110559   0.074   5.594   5.643
 3220SOL    HW210560   0.216   5.537   5.584
 3221SOL     OW10561   3.465   0.018   2.385
 3221SOL    HW110562   3.543   7.012   2.437
 3221SOL    HW210563   3.498   0.073   2.307
 3222SOL     OW10564   2.840   1.443   2.801
 3222SOL    HW110565   2.834   1.540   2.779
 3222SOL    HW210566   2.895   1.396   2.732
 3223SOL     OW10567   2.840   6.307   6.937
 3223SOL    HW110568   2.827   6.229   6.997
 3223SOL    HW210569   2.801   6.389   6.980
 3224SOL     OW10570   4.855   2.880   4.743
 3224SOL    HW110571   4.842   2.978   4.757
 3224SOL    HW210572   4.766   2.837   4.726
 3225SOL     OW10573   4.998   2.069   6.317
 3225SOL    HW110574   4.957   2.056   6.226
 3225SOL    HW210575   5.097   2.075   6.308
 3226SOL     OW10576   2.260   1.079   2.195
 3226SOL    HW110577   2.166   1.082   2.228
 3226SOL    HW210578   2.261   1.093   2.096
 3227SOL     OW10579   3.762   3.725   6.617
 3227SOL    HW110580   3.804   3.815   6.610
 3227SOL    HW210581   3.663   3.733   6.609
 3228SOL     OW10582   6.653   4.045   1.013
 3228SOL    HW110583   6.688   4.097   1.091
 3228SOL    HW210584   6.560   4.015   1.033
 3229SOL     OW10585   3.745   0.959   5.669
 3229SOL    HW110586   3.735   0.872   5.717
 3229SOL    HW210587   3.835   0.961   5.624
 3230SOL     OW10588   2.284   5.314   6.152
 3230SOL    HW110589   2.269   5.220   6.184
 3230SOL    HW210590   2.251   5.323   6.058
 3231SOL     OW10591   2.652   0.542   2.081
 3231SOL    HW110592   2.750   0.556   2.088
 3231SOL    HW210593   2.606   0.631   2.073
 3232SOL     OW10594   4.257   6.502   4.682
 3232SOL    HW110595   4.266   6.599   4.662
 3232SOL    HW210596   4.262   6.450   4.596
 3233SOL     OW10597   6.768   2.328   0.758
 3233SOL    HW110598   6.750   2.373   0.846
 3233SOL    HW210599   6.681   2.310   0.712
 3234SOL     OW10600   0.769   2.505   0.279
 3234SOL    HW110601   0.693   2.484   0.217
 3234SOL    HW210602   0.856   2.483   0.234
 3235SOL     OW10603   0.055   6.950   1.668
 3235SOL    HW110604   0.090   6.858   1.648
 3235SOL    HW210605   6.987   6.943   1.698
 3236SOL     OW10606   0.609   3.932   0.323
 3236SOL    HW110607   0.630   4.007   0.385
 3236SOL    HW210608   0.612   3.964   0.229
 3237SOL     OW10609   6.052   1.546   1.986
 3237SOL    HW110610   6.014   1.629   1.946
 3237SOL    HW210611   5.997   1.468   1.961
 3238SOL     OW10612   6.164   5.487   6.753
 3238SOL    HW110613   6.205   5.459   6.840
 3238SOL    HW210614   6.097   5.559   6.770
 3239SOL     OW10615   0.304   1.177   2.648
 3239SOL    HW110616   0.299   1.272   2.618
 3239SOL    HW210617   0.372   1.168   2.720
 3240SOL     OW10618   6.915   6.506   6.318
 3240SOL    HW110619   6.983   6.549   6.378
 3240SOL    HW210620   6.923   6.545   6.226
 3241SOL     OW10621   4.905   1.008   5.776
 3241SOL    HW110622   4.864   1.020   5.686
 3241SOL    HW210623   4.890   1.091   5.831
 3242SOL     OW10624   4.454   4.336   6.435
 3242SOL    HW110625   4.405   4.418   6.465
 3242SOL    HW210626   4.546   4.336   6.474
 3243SOL     OW10627   4.514   4.907   0.578
 3243SOL    HW110628   4.472   4.833   0.525
 3243SOL    HW210629   4.475   4.995   0.550
 3244SOL     OW10630   4.880   6.388   6.946
 3244SOL    HW110631   4.906   6.484   6.954
 3244SOL    HW210632   4.783   6.377   6.970
 3245SOL     OW10633   5.518   2.534   3.698
 3245SOL    HW110634   5.602   2.504   3.743
 3245SOL    HW210635   5.439   2.494   3.745
 3246SOL     OW10636   6.702   6.864   2.971
 3246SOL    HW110637   6.652   6.922   2.907
 3246SOL    HW210638   6.725   6.777   2.926
 3247SOL     OW10639   5.922   4.124   2.075
 3247SOL    HW110640   6.006   4.137   2.128
 3247SOL    HW210641   5.938   4.151   1.980
 3248SOL     OW10642   5.750   2.569   2.216
 3248SOL    HW110643   5.715   2.645   2.162
 3248SOL    HW210644   5.731   2.483   2.168
 3249SOL     OW10645   3.536   4.182   3.442
 3249SOL    HW110646   3.521   4.260   3.504
 3249SOL    HW210647   3.613   4.128   3.475
 3250SOL     OW10648   5.729   0.012   2.453
 3250SOL    HW110649   5.795   6.972   2.420
 3250SOL    HW210650   5.717   0.084   2.384
 3251SOL     OW10651   3.598   0.591   3.507
 3251SOL    HW110652   3.567   0.581   3.601
 3251SOL    HW210653   3.523   0.625   3.450
 3252SOL     OW10654   2.736   1.079   2.643
 3252SOL    HW110655   2.652   1.058   2.693
 3252SOL    HW210656   2.725   1.167   2.595
 3253SOL     OW10657   4.702   3.274   1.191
 3253SOL    HW110658   4.710   3.353   1.253
 3253SOL    HW210659   4.635   3.294   1.120
 3254SOL     OW10660   4.818   6.172   6.767
 3254SOL    HW110661   4.836   6.225   6.849
 3254SOL    HW210662   4.827   6.231   6.687
 3255SOL     OW10663   4.035   6.519   1.601
 3255SOL    HW110664   4.018   6.420   1.602
 3255SOL    HW210665   3.983   6.563   1.674
 3256SOL     OW10666   3.625   1.124   1.013
 3256SOL    HW110667   3.536   1.133   1.057
 3256SOL    HW210668   3.657   1.214   0.983
 3257SOL     OW10669   1.472   1.845   1.690
 3257SOL    HW110670   1.480   1.813   1.596
 3257SOL    HW210671   1.439   1.940   1.691
 3258SOL     OW10672   4.429   5.853   2.520
 3258SOL    HW110673   4.513   5.902   2.542
 3258SOL    HW210674   4.356   5.885   2.580
 3259SOL     OW10675   4.938   4.840   5.114
 3259SOL    HW110676   5.006   4.825   5.186
 3259SOL    HW210677   4.968   4.794   5.030
 3260SOL     OW10678   1.815   2.393   1.267
 3260SOL    HW110679   1.738   2.421   1.324
 3260SOL    HW210680   1.894   2.370   1.325
 3261SOL     OW10681   5.584   0.686   1.268
 3261SOL    HW110682   5.491   0.665   1.238
 3261SOL    HW210683   5.582   0.723   1.361
 3262SOL     OW10684   3.637   2.098   2.480
 3262SOL    HW110685   3.586   2.162   2.537
 3262SOL    HW210686   3.646   2.011   2.529
 3263SOL     OW10687   2.938   1.452   3.081
 3263SOL    HW110688   3.020   1.510   3.085
 3263SOL    HW210689   2.900   1.454   2.988
 3264SOL     OW10690   1.753   5.634   1.062
 3264SOL    HW110691   1.775   5.606   1.155
 3264SOL    HW210692   1.669   5.687   1.062
 3265SOL     OW10693   4.719   0.002   6.214
 3265SOL    HW110694   4.635   0.029   6.167
 3265SOL    HW210695   4.783   0.079   6.216
 3266SOL     OW10696   2.642   4.270   7.003
 3266SOL    HW110697   2.594   4.210   0.040
 3266SOL    HW210698   2.601   4.259   6.912
 3267SOL     OW10699   3.104   6.165   1.723
 3267SOL    HW110700   3.103   6.259   1.687
 3267SOL    HW210701   3.010   6.130   1.725
 3268SOL     OW10702   2.575   3.912   1.629
 3268SOL    HW110703   2.484   3.886   1.595
 3268SOL    HW210704   2.595   4.006   1.600
 3269SOL     OW10705   5.476   6.017   2.681
 3269SOL    HW110706   5.493   6.088   2.749
 3269SOL    HW210707   5.469   5.928   2.727
 3270SOL     OW10708   1.724   4.222   6.817
 3270SOL    HW110709   1.777   4.276   6.883
 3270SOL    HW210710   1.665   4.158   6.866
 3271SOL     OW10711   6.322   3.065   1.350
 3271SOL    HW110712   6.302   3.071   1.253
 3271SOL    HW210713   6.254   3.007   1.395
 3272SOL     OW10714   2.887   4.338   6.054
 3272SOL    HW110715   2.907   4.331   6.152
 3272SOL    HW210716   2.880   4.434   6.028
 3273SOL     OW10717   6.275   5.066   6.941
 3273SOL    HW110718   6.342   5.094   7.010
 3273SOL    HW210719   6.260   4.967   6.948
 3274SOL     OW10720   5.892   0.490   0.789
 3274SOL    HW110721   5.949   0.512   0.867
 3274SOL    HW210722   5.908   0.395   0.761
 3275SOL     OW10723   5.036   1.088   0.121
 3275SOL    HW110724   5.101   1.029   0.169
 3275SOL    HW210725   5.081   1.175   0.099
 3276SOL     OW10726   4.324   6.011   6.705
 3276SOL    HW110727   4.384   6.006   6.625
 3276SOL    HW210728   4.272   5.926   6.713
 3277SOL     OW10729   3.268   0.949   0.737
 3277SOL    HW110730   3.291   0.853   0.752
 3277SOL    HW210731   3.307   0.979   0.650
 3278SOL     OW10732   1.236   1.023   5.646
 3278SOL    HW110733   1.173   1.096   5.674
 3278SOL    HW210734   1.219   1.000   5.550
 3279SOL     OW10735   5.099   6.578   0.148
 3279SOL    HW110736   5.020   6.553   0.204
 3279SOL    HW210737   5.180   6.585   0.206
 3280SOL     OW10738   4.957   4.549   4.692
 3280SOL    HW110739   5.017   4.470   4.703
 3280SOL    HW210740   4.948   4.571   4.595
 3281SOL     OW10741   0.948   4.784   1.256
 3281SOL    HW110742   1.003   4.838   1.320
 3281SOL    HW210743   0.851   4.806   1.270
 3282SOL     OW10744   0.064   4.659   4.932
 3282SOL    HW110745   0.012   4.726   4.878
 3282SOL    HW210746   0.161   4.672   4.915
 3283SOL     OW10747   3.271   1.086   0.992
 3283SOL    HW110748   3.299   1.058   0.900
 3283SOL    HW210749   3.200   1.024   1.026
 3284SOL     OW10750   0.948   6.101   6.385
 3284SOL    HW110751   0.962   6.134   6.292
 3284SOL    HW210752   0.859   6.134   6.419
 3285SOL     OW10753   4.476   2.334   4.201
 3285SOL    HW110754   4.481   2.234   4.208
 3285SOL    HW210755   4.451   2.373   4.289
 3286SOL     OW10756   4.089   3.248   2.215
 3286SOL    HW110757   4.047   3.162   2.244
 3286SOL    HW210758   4.121   3.299   2.295
 3287SOL     OW10759   0.516   0.105   0.287
 3287SOL    HW110760   0.582   0.131   0.357
 3287SOL    HW210761   0.467   0.023   0.316
 3288SOL     OW10762   1.962   6.176   0.275
 3288SOL    HW110763   1.869   6.181   0.312
 3288SOL    HW210764   1.966   6.226   0.188
 3289SOL     OW10765   3.292   1.266   5.611
 3289SOL    HW110766   3.375   1.321   5.622
 3289SOL    HW210767   3.257   1.275   5.518
 3290SOL     OW10768   6.775   4.857   0.942
 3290SOL    HW110769   6.764   4.849   0.843
 3290SOL    HW210770   6.836   4.785   0.975
 3291SOL     OW10771   1.942   0.620   6.383
 3291SOL    HW110772   1.910   0.603   6.290
 3291SOL    HW210773   1.887   0.693   6.424
 3292SOL     OW10774   0.010   0.761   0.802
 3292SOL    HW110775   0.085   0.699   0.825
 3292SOL    HW210776   0.033   0.854   0.831
 3293SOL     OW10777   6.301   4.686   1.720
 3293SOL    HW110778   6.373   4.676   1.790
 3293SOL    HW210779   6.216   4.645   1.754
 3294SOL     OW10780   5.323   3.291   6.043
 3294SOL    HW110781   5.388   3.215   6.033
 3294SOL    HW210782   5.316   3.316   6.140
 3295SOL     OW10783   1.202   2.899   1.976
 3295SOL    HW110784   1.237   2.993   1.976
 3295SOL    HW210785   1.278   2.835   1.978
 3296SOL     OW10786   1.330   0.810   2.631
 3296SOL    HW110787   1.327   0.892   2.689
 3296SOL    HW210788   1.421   0.801   2.591
 3297SOL     OW10789   2.773   1.720   5.479
 3297SOL    HW110790   2.749   1.646   5.542
 3297SOL    HW210791   2.727   1.804   5.506
 3298SOL     OW10792   5.724   2.076   5.868
 3298SOL    HW110793   5.758   1.995   5.915
 3298SOL    HW210794   5.757   2.158   5.914
 3299SOL     OW10795   3.536   6.056   2.950
 3299SOL    HW110796   3.634   6.076   2.950
 3299SOL    HW210797   3.506   6.036   3.044
 3300SOL     OW10798   0.886   0.650   5.993
 3300SOL    HW110799   0.957   0.681   6.056
 3300SOL    HW210800   0.929   0.611   5.911
 3301SOL     OW10801   1.992   3.213   3.419
 3301SOL    HW110802   2.020   3.189   3.326
 3301SOL    HW210803   1.896   3.190   3.432
 3302SOL     OW10804   0.761   4.970   5.257
 3302SOL    HW110805   0.824   4.914   5.310
 3302SOL    HW210806   0.667   4.952   5.287
 3303SOL     OW10807   3.245   3.508   0.458
 3303SOL    HW110808   3.155   3.526   0.498
 3303SOL    HW210809   3.238   3.506   0.359
 3304SOL     OW10810   2.036   5.785   5.605
 3304SOL    HW110811   2.033   5.884   5.595
 3304SOL    HW210812   2.115   5.759   5.660
 3305SOL     OW10813   2.144   1.729   2.530
 3305SOL    HW110814   2.105   1.821   2.532
 3305SOL    HW210815   2.126   1.687   2.441
 3306SOL     OW10816   2.114   5.576   5.407
 3306SOL    HW110817   2.059   5.551   5.327
 3306SOL    HW210818   2.054   5.613   5.478
 3307SOL     OW10819   0.727   6.203   6.527
 3307SOL    HW110820   0.698   6.205   6.623
 3307SOL    HW210821   0.646   6.210   6.468
 3308SOL     OW10822   2.662   5.670   1.792
 3308SOL    HW110823   2.701   5.637   1.706
 3308SOL    HW210824   2.563   5.661   1.789
 3309SOL     OW10825   6.138   5.468   3.813
 3309SOL    HW110826   6.086   5.388   3.784
 3309SOL    HW210827   6.229   5.465   3.772
 3310SOL     OW10828   0.285   4.343   5.489
 3310SOL    HW110829   0.291   4.428   5.542
 3310SOL    HW210830   0.214   4.284   5.528
 3311SOL     OW10831   3.721   4.368   0.363
 3311SOL    HW110832   3.799   4.313   0.335
 3311SOL    HW210833   3.679   4.328   0.445
 3312SOL     OW10834   4.046   4.177   5.639
 3312SOL    HW110835   4.091   4.260   5.605
 3312SOL    HW210836   4.014   4.122   5.562
 3313SOL     OW10837   0.840   6.608   3.828
 3313SOL    HW110838   0.845   6.702   3.861
 3313SOL    HW210839   0.928   6.563   3.839
 3314SOL     OW10840   2.180   1.558   2.325
 3314SOL    HW110841   2.130   1.497   2.264
 3314SOL    HW210842   2.249   1.507   2.375
 3315SOL     OW10843   0.443   4.240   4.870
 3315SOL    HW110844   0.427   4.329   4.827
 3315SOL    HW210845   0.412   4.243   4.965
 3316SOL     OW10846   5.197   0.998   5.084
 3316SOL    HW110847   5.246   0.915   5.059
 3316SOL    HW210848   5.214   1.020   5.180
 3317SOL     OW10849   4.916   2.718   2.014
 3317SOL    HW110850   4.939   2.626   1.983
 3317SOL    HW210851   4.827   2.745   1.977
 3318SOL     OW10852   2.185   1.558   1.298
 3318SOL    HW110853   2.134   1.643   1.308
 3318SOL    HW210854   2.213   1.525   1.388
 3319SOL     OW10855   5.867   1.184   3.443
 3319SOL    HW110856   5.792   1.215   3.501
 3319SOL    HW210857   5.925   1.120   3.494
 3320SOL     OW10858   6.147   1.087   5.941
 3320SOL    HW110859   6.137   0.989   5.955
 3320SOL    HW210860   6.065   1.134   5.973
 3321SOL     OW10861   5.397   1.998   0.400
 3321SOL    HW110862   5.359   1.983   0.491
 3321SOL    HW210863   5.494   1.974   0.400
 3322SOL     OW10864   6.704   2.466   1.003
 3322SOL    HW110865   6.655   2.550   1.026
 3322SOL    HW210866   6.802   2.482   1.010
 3323SOL     OW10867   3.168   2.975   0.046
 3323SOL    HW110868   3.075   2.947   0.023
 3323SOL    HW210869   3.167   3.030   0.130
 3324SOL     OW10870   3.740   4.789   6.598
 3324SOL    HW110871   3.817   4.725   6.600
 3324SOL    HW210872   3.721   4.821   6.691
 3325SOL     OW10873   0.112   3.890   6.740
 3325SOL    HW110874   0.111   3.837   6.824
 3325SOL    HW210875   0.082   3.833   6.663
 3326SOL     OW10876   5.096   1.863   1.836
 3326SOL    HW110877   5.139   1.871   1.926
 3326SOL    HW210878   5.065   1.769   1.822
 3327SOL     OW10879   3.144   5.320   1.916
 3327SOL    HW110880   3.052   5.351   1.890
 3327SOL    HW210881   3.143   5.291   2.012
 3328SOL     OW10882   4.420   2.320   0.849
 3328SOL    HW110883   4.405   2.290   0.943
 3328SOL    HW210884   4.391   2.249   0.786
 3329SOL     OW10885   6.004   0.145   4.939
 3329SOL    HW110886   6.018   0.107   4.847
 3329SOL    HW210887   6.076   0.211   4.959
 3330SOL     OW10888   6.496   4.138   1.821
 3330SOL    HW110889   6.490   4.201   1.743
 3330SOL    HW210890   6.579   4.158   1.873
 3331SOL     OW10891   2.326   2.971   1.709
 3331SOL    HW110892   2.295   3.066   1.718
 3331SOL    HW210893   2.336   2.930   1.799
 3332SOL     OW10894   5.580   5.791   7.009
 3332SOL    HW110895   5.629   5.798   0.068
 3332SOL    HW210896   5.497   5.736   7.022
 3333SOL     OW10897   4.349   5.449   6.559
 3333SOL    HW110898   4.342   5.469   6.657
 3333SOL    HW210899   4.442   5.419   6.538
 3334SOL     OW10900   3.308   4.063   1.328
 3334SOL    HW110901   3.387   4.098   1.378
 3334SOL    HW210902   3.228   4.063   1.388
 3335SOL     OW10903   4.614   5.993   5.732
 3335SOL    HW110904   4.651   6.012   5.641
 3335SOL    HW210905   4.565   5.906   5.730
 3336SOL     OW10906   2.860   5.345   4.896
 3336SOL    HW110907   2.884   5.270   4.958
 3336SOL    HW210908   2.883   5.432   4.940
 3337SOL     OW10909   2.946   3.855   2.430
 3337SOL    HW110910   2.958   3.771   2.377
 3337SOL    HW210911   2.890   3.920   2.379
 3338SOL     OW10912   5.843   2.666   1.407
 3338SOL    HW110913   5.749   2.645   1.379
 3338SOL    HW210914   5.882   2.733   1.345
 3339SOL     OW10915   6.375   6.889   6.583
 3339SOL    HW110916   6.368   6.987   6.568
 3339SOL    HW210917   6.286   6.846   6.566
 3340SOL     OW10918   3.740   0.406   1.946
 3340SOL    HW110919   3.719   0.446   1.856
 3340SOL    HW210920   3.658   0.361   1.982
 3341SOL     OW10921   1.012   6.402   3.601
 3341SOL    HW110922   1.062   6.406   3.688
 3341SOL    HW210923   0.916   6.379   3.619
 3342SOL     OW10924   2.530   6.707   4.283
 3342SOL    HW110925   2.487   6.620   4.260
 3342SOL    HW210926   2.525   6.768   4.204
 3343SOL     OW10927   4.792   2.933   0.602
 3343SOL    HW110928   4.777   2.954   0.699
 3343SOL    HW210929   4.826   3.015   0.555
 3344SOL     OW10930   5.995   3.582   4.248
 3344SOL    HW110931   5.962   3.514   4.182
 3344SOL    HW210932   5.999   3.540   4.339
 3345SOL     OW10933   1.609   3.840   5.723
 3345SOL    HW110934   1.606   3.745   5.693
 3345SOL    HW210935   1.572   3.847   5.816
 3346SOL     OW10936   1.886   0.681   0.912
 3346SOL    HW110937   1.871   0.652   0.817
 3346SOL    HW210938   1.965   0.742   0.916
 3347SOL     OW10939   0.330   4.550   3.988
 3347SOL    HW110940   0.420   4.551   4.032
 3347SOL    HW210941   0.305   4.455   3.968
 3348SOL     OW10942   3.021   3.167   3.704
 3348SOL    HW110943   3.113   3.182   3.668
 3348SOL    HW210944   2.954   3.185   3.631
 3349SOL     OW10945   0.837   5.360   3.940
 3349SOL    HW110946   0.751   5.310   3.933
 3349SOL    HW210947   0.895   5.318   4.010
 3350SOL     OW10948   1.442   2.525   5.621
 3350SOL    HW110949   1.400   2.455   5.680
 3350SOL    HW210950   1.461   2.486   5.531
 3351SOL     OW10951   5.247   0.517   2.678
 3351SOL    HW110952   5.245   0.612   2.646
 3351SOL    HW210953   5.210   0.457   2.606
 3352SOL     OW10954   0.227   2.371   0.511
 3352SOL    HW110955   0.315   2.354   0.468
 3352SOL    HW210956   0.188   2.284   0.543
 3353SOL     OW10957   1.586   6.092   1.849
 3353SOL    HW110958   1.622   6.006   1.811
 3353SOL    HW210959   1.590   6.163   1.778
 3354SOL     OW10960   5.199   2.580   4.438
 3354SOL    HW110961   5.261   2.508   4.469
 3354SOL    HW210962   5.115   2.577   4.491
 3355SOL     OW10963   1.601   1.618   0.276
 3355SOL    HW110964   1.533   1.560   0.320
 3355SOL    HW210965   1.680   1.627   0.335
 3356SOL     OW10966   2.293   3.685   6.500
 3356SOL    HW110967   2.393   3.677   6.497
 3356SOL    HW210968   2.259   3.641   6.584
 3357SOL     OW10969   2.699   4.796   1.863
 3357SOL    HW110970   2.749   4.744   1.932
 3357SOL    HW210971   2.692   4.743   1.779
 3358SOL     OW10972   5.040   0.428   1.022
 3358SOL    HW110973   4.947   0.423   0.985
 3358SOL    HW210974   5.038   0.469   1.113
 3359SOL     OW10975   6.714   0.244   3.600
 3359SOL    HW110976   6.693   0.176   3.670
 3359SOL    HW210977   6.629   0.290   3.572
 3360SOL     OW10978   0.761   0.818   6.916
 3360SOL    HW110979   0.774   0.894   6.979
 3360SOL    HW210980   0.696   0.753   6.955
 3361SOL     OW10981   0.514   4.118   2.728
 3361SOL    HW110982   0.420   4.087   2.741
 3361SOL    HW210983   0.570   4.087   2.805
 3362SOL     OW10984   3.835   1.317   3.975
 3362SOL    HW110985   3.770   1.246   3.948
 3362SOL    HW210986   3.802   1.406   3.941
 3363SOL     OW10987   0.013   0.154   6.993
 3363SOL    HW110988   6.983   0.073   7.000
 3363SOL    HW210989   0.058   0.155   6.904
 3364SOL     OW10990   1.334   4.797   4.224
 3364SOL    HW110991   1.418   4.780   4.275
 3364SOL    HW210992   1.326   4.731   4.150
 3365SOL     OW10993   0.718   2.023   5.446
 3365SOL    HW110994   0.653   2.039   5.372
 3365SOL    HW210995   0.672   1.981   5.524
 3366SOL     OW10996   5.846   0.375   6.091
 3366SOL    HW110997   5.793   0.456   6.066
 3366SOL    HW210998   5.867   0.378   6.188
 3367SOL     OW10999   3.429   2.665   1.349
 3367SOL    HW111000   3.500   2.711   1.402
 3367SOL    HW211001   3.464   2.639   1.259
 3368SOL     OW11002   0.953   5.617   6.008
 3368SOL    HW111003   0.948   5.716   5.998
 3368SOL    HW211004   0.872   5.584   6.056
 3369SOL     OW11005   3.738   2.612   5.887
 3369SOL    HW111006   3.757   2.633   5.791
 3369SOL    HW211007   3.796   2.535   5.916
 3370SOL     OW11008   6.830   6.047   5.808
 3370SOL    HW111009   6.806   6.091   5.894
 3370SOL    HW211010   6.887   5.967   5.826
 3371SOL     OW11011   1.366   3.826   2.342
 3371SOL    HW111012   1.423   3.854   2.265
 3371SOL    HW211013   1.281   3.786   2.308
 3372SOL     OW11014   0.634   1.422   1.248
 3372SOL    HW111015   0.677   1.423   1.158
 3372SOL    HW211016   0.546   1.469   1.243
 3373SOL     OW11017   0.116   1.433   3.229
 3373SOL    HW111018   0.204   1.401   3.194
 3373SOL    HW211019   0.062   1.354   3.261
 3374SOL     OW11020   2.292   5.874   4.648
 3374SOL    HW111021   2.221   5.891   4.579
 3374SOL    HW211022   2.326   5.962   4.683
 3375SOL     OW11023   5.252   4.997   6.235
 3375SOL    HW111024   5.283   4.932   6.305
 3375SOL    HW211025   5.152   4.994   6.230
 3376SOL     OW11026   3.259   3.322   3.679
 3376SOL    HW111027   3.218   3.364   3.761
 3376SOL    HW211028   3.264   3.390   3.606
 3377SOL     OW11029   0.264   6.666   4.615
 3377SOL    HW111030   0.214   6.590   4.575
 3377SOL    HW211031   0.211   6.750   4.606
 3378SOL     OW11032   6.584   0.729   0.494
 3378SOL    HW111033   6.553   0.735   0.589
 3378SOL    HW211034   6.581   0.819   0.452
 3379SOL     OW11035   6.835   5.543   6.388
 3379SOL    HW111036   6.869   5.514   6.298
 3379SOL    HW211037   6.913   5.573   6.444
 3380SOL     OW11038   5.446   6.903   5.762
 3380SOL    HW111039   5.376   6.935   5.826
 3380SOL    HW211040   5.529   6.960   5.773
 3381SOL     OW11041   1.151   2.929   1.350
 3381SOL    HW111042   1.213   2.860   1.311
 3381SOL    HW211043   1.183   3.020   1.325
 3382SOL     OW11044   0.895   0.257   0.589
 3382SOL    HW111045   0.913   0.192   0.515
 3382SOL    HW211046   0.972   0.258   0.652
 3383SOL     OW11047   4.312   5.691   2.804
 3383SOL    HW111048   4.275   5.764   2.862
 3383SOL    HW211049   4.270   5.696   2.713
 3384SOL     OW11050   2.598   3.612   5.384
 3384SOL    HW111051   2.680   3.580   5.430
 3384SOL    HW211052   2.547   3.534   5.348
 3385SOL     OW11053   0.114   3.456   3.909
 3385SOL    HW111054   0.191   3.393   3.917
 3385SOL    HW211055   0.031   3.405   3.885
 3386SOL     OW11056   6.969   3.488   6.269
 3386SOL    HW111057   6.905   3.481   6.346
 3386SOL    HW211058   7.007   3.581   6.266
 3387SOL     OW11059   3.024   1.575   3.827
 3387SOL    HW111060   3.063   1.486   3.851
 3387SOL    HW211061   2.925   1.572   3.839
 3388SOL     OW11062   5.317   3.468   1.922
 3388SOL    HW111063   5.220   3.445   1.917
 3388SOL    HW211064   5.372   3.391   1.890
 3389SOL     OW11065   5.113   5.395   4.745
 3389SOL    HW111066   5.168   5.387   4.662
 3389SOL    HW211067   5.136   5.319   4.807
 3390SOL     OW11068   5.346   4.365   5.798
 3390SOL    HW111069   5.268   4.413   5.758
 3390SOL    HW211070   5.395   4.428   5.859
 3391SOL     OW11071   5.292   2.739   4.952
 3391SOL    HW111072   5.342   2.655   4.970
 3391SOL    HW211073   5.196   2.718   4.934
 3392SOL     OW11074   2.952   6.898   3.562
 3392SOL    HW111075   2.855   6.881   3.545
 3392SOL    HW211076   2.992   6.821   3.611
 3393SOL     OW11077   0.330   6.360   0.004
 3393SOL    HW111078   0.351   6.263   7.020
 3393SOL    HW211079   0.235   6.376   7.004
 3394SOL     OW11080   6.283   2.876   0.925
 3394SOL    HW111081   6.237   2.804   0.874
 3394SOL    HW211082   6.378   2.884   0.894
 3395SOL     OW11083   5.942   3.446   3.705
 3395SOL    HW111084   5.847   3.416   3.693
 3395SOL    HW211085   6.001   3.398   3.640
 3396SOL     OW11086   5.774   2.160   3.486
 3396SOL    HW111087   5.752   2.066   3.458
 3396SOL    HW211088   5.854   2.159   3.547
 3397SOL     OW11089   2.582   0.933   5.882
 3397SOL    HW111090   2.599   0.962   5.788
 3397SOL    HW211091   2.666   0.940   5.935
 3398SOL     OW11092   1.204   6.741   4.003
 3398SOL    HW111093   1.121   6.762   3.952
 3398SOL    HW211094   1.247   6.826   4.034
 3399SOL     OW11095   5.570   4.204   4.621
 3399SOL    HW111096   5.532   4.281   4.672
 3399SOL    HW211097   5.576   4.228   4.524
 3400SOL     OW11098   4.863   2.129   5.753
 3400SOL    HW111099   4.955   2.166   5.764
 3400SOL    HW211100   4.804   2.199   5.713
 3401SOL     OW11101   0.007   3.238   0.424
 3401SOL    HW111102   0.019   3.178   0.503
 3401SOL    HW211103   0.059   3.322   0.437
 3402SOL     OW11104   3.910   6.551   0.052
 3402SOL    HW111105   3.841   6.565   0.123
 3402SOL    HW211106   3.990   6.506   0.092
 3403SOL     OW11107   4.477   6.797   4.911
 3403SOL    HW111108   4.461   6.716   4.968
 3403SOL    HW211109   4.574   6.805   4.890
 3404SOL     OW11110   5.504   1.738   0.102
 3404SOL    HW111111   5.430   1.789   0.059
 3404SOL    HW211112   5.481   1.718   0.197
 3405SOL     OW11113   6.783   3.954   4.400
 3405SOL    HW111114   6.858   3.890   4.385
 3405SOL    HW211115   6.820   4.046   4.416
 3406SOL     OW11116   0.817   3.890   2.508
 3406SOL    HW111117   0.762   3.809   2.529
 3406SOL    HW211118   0.779   3.969   2.557
 3407SOL     OW11119   1.629   5.423   0.300
 3407SOL    HW111120   1.592   5.477   0.375
 3407SOL    HW211121   1.584   5.450   0.214
 3408SOL     OW11122   5.340   3.951   5.385
 3408SOL    HW111123   5.319   4.036   5.433
 3408SOL    HW211124   5.382   3.886   5.448
 3409SOL     OW11125   3.556   5.899   6.516
 3409SOL    HW111126   3.607   5.970   6.565
 3409SOL    HW211127   3.509   5.939   6.438
 3410SOL     OW11128   6.776   5.802   6.918
 3410SOL    HW111129   6.753   5.840   7.007
 3410SOL    HW211130   6.776   5.874   6.849
 3411SOL     OW11131   0.274   2.577   1.690
 3411SOL    HW111132   0.263   2.561   1.788
 3411SOL    HW211133   0.303   2.671   1.675
 3412SOL     OW11134   4.375   2.707   6.518
 3412SOL    HW111135   4.451   2.644   6.529
 3412SOL    HW211136   4.408   2.794   6.482
 3413SOL     OW11137   5.523   0.476   1.982
 3413SOL    HW111138   5.462   0.409   1.938
 3413SOL    HW211139   5.543   0.549   1.916
 3414SOL     OW11140   1.696   1.095   5.883
 3414SOL    HW111141   1.635   1.113   5.959
 3414SOL    HW211142   1.683   1.001   5.851
 3415SOL     OW11143   1.462   4.020   4.573
 3415SOL    HW111144   1.523   4.085   4.618
 3415SOL    HW211145   1.368   4.036   4.603
 3416SOL     OW11146   0.057   5.981   0.580
 3416SOL    HW111147   6.999   5.930   0.566
 3416SOL    HW211148   0.116   5.968   0.501
 3417SOL     OW11149   0.629   5.968   3.394
 3417SOL    HW111150   0.711   5.918   3.365
 3417SOL    HW211151   0.654   6.036   3.463
 3418SOL     OW11152   3.787   0.301   5.018
 3418SOL    HW111153   3.833   0.265   5.099
 3418SOL    HW211154   3.782   0.229   4.949
 3419SOL     OW11155   4.575   5.893   4.870
 3419SOL    HW111156   4.622   5.837   4.938
 3419SOL    HW211157   4.618   5.881   4.781
 3420SOL     OW11158   5.776   3.232   4.050
 3420SOL    HW111159   5.724   3.306   4.007
 3420SOL    HW211160   5.793   3.255   4.146
 3421SOL     OW11161   5.686   0.778   6.404
 3421SOL    HW111162   5.592   0.772   6.370
 3421SOL    HW211163   5.740   0.836   6.344
 3422SOL     OW11164   1.936   6.798   1.268
 3422SOL    HW111165   1.973   6.759   1.184
 3422SOL    HW211166   1.992   6.770   1.345
 3423SOL     OW11167   2.150   6.411   0.791
 3423SOL    HW111168   2.078   6.457   0.843
 3423SOL    HW211169   2.195   6.344   0.850
 3424SOL     OW11170   2.924   0.230   2.400
 3424SOL    HW111171   2.824   0.241   2.396
 3424SOL    HW211172   2.953   0.227   2.495
 3425SOL     OW11173   5.629   4.287   2.359
 3425SOL    HW111174   5.688   4.295   2.440
 3425SOL    HW211175   5.551   4.228   2.380
 3426SOL     OW11176   3.343   2.903   0.280
 3426SOL    HW111177   3.397   2.881   0.361
 3426SOL    HW211178   3.347   2.826   0.216
 3427SOL     OW11179   6.399   6.467   7.022
 3427SOL    HW111180   6.380   6.565   7.024
 3427SOL    HW211181   6.364   6.427   6.938
 3428SOL     OW11182   3.053   5.081   1.256
 3428SOL    HW111183   3.123   5.150   1.235
 3428SOL    HW211184   3.044   5.072   1.355
 3429SOL     OW11185   0.949   1.814   6.971
 3429SOL    HW111186   0.895   1.892   6.940
 3429SOL    HW211187   0.904   1.771   0.022
 3430SOL     OW11188   7.009   6.375   5.180
 3430SOL    HW111189   6.994   6.333   5.090
 3430SOL    HW211190   6.962   6.463   5.183
 3431SOL     OW11191   2.043   6.708   1.035
 3431SOL    HW111192   2.042   6.608   1.041
 3431SOL    HW211193   2.126   6.737   0.988
 3432SOL     OW11194   2.370   2.573   0.070
 3432SOL    HW111195   2.296   2.622   0.116
 3432SOL    HW211196   2.336   2.535   7.011
 3433SOL     OW11197   1.204   6.873   6.427
 3433SOL    HW111198   1.244   6.893   6.517
 3433SOL    HW211199   1.164   6.782   6.428
 3434SOL     OW11200   4.695   2.399   0.841
 3434SOL    HW111201   4.596   2.389   0.842
 3434SOL    HW211202   4.719   2.494   0.821
 3435SOL     OW11203   1.173   1.219   1.055
 3435SOL    HW111204   1.215   1.179   0.973
 3435SOL    HW211205   1.179   1.154   1.131
 3436SOL     OW11206   3.235   6.719   6.049
 3436SOL    HW111207   3.316   6.710   6.107
 3436SOL    HW211208   3.240   6.805   5.998
 3437SOL     OW11209   2.901   0.975   5.907
 3437SOL    HW111210   2.854   1.060   5.933
 3437SOL    HW211211   2.923   0.923   5.989
 3438SOL     OW11212   1.208   2.329   0.750
 3438SOL    HW111213   1.227   2.305   0.655
 3438SOL    HW211214   1.128   2.278   0.782
 3439SOL     OW11215   2.080   6.439   5.272
 3439SOL    HW111216   2.165   6.387   5.274
 3439SOL    HW211217   2.076   6.498   5.353
 3440SOL     OW11218   3.875   3.470   1.830
 3440SOL    HW111219   3.888   3.386   1.882
 3440SOL    HW211220   3.923   3.546   1.876
 3441SOL     OW11221   5.245   6.941   3.897
 3441SOL    HW111222   5.274   7.021   3.949
 3441SOL    HW211223   5.250   6.860   3.955
 3442SOL     OW11224   3.290   4.992   2.771
 3442SOL    HW111225   3.278   4.959   2.864
 3442SOL    HW211226   3.363   5.061   2.769
 3443SOL     OW11227   5.422   6.731   1.607
 3443SOL    HW111228   5.347   6.708   1.544
 3443SOL    HW211229   5.457   6.822   1.584
 3444SOL     OW11230   5.324   6.012   0.617
 3444SOL    HW111231   5.269   5.959   0.553
 3444SOL    HW211232   5.266   6.081   0.661
 3445SOL     OW11233   6.251   5.674   4.753
 3445SOL    HW111234   6.342   5.716   4.742
 3445SOL    HW211235   6.188   5.712   4.685
 3446SOL     OW11236   5.877   0.459   2.063
 3446SOL    HW111237   5.882   0.365   2.030
 3446SOL    HW211238   5.803   0.466   2.130
 3447SOL     OW11239   5.095   5.728   1.261
 3447SOL    HW111240   5.030   5.707   1.188
 3447SOL    HW211241   5.097   5.653   1.327
 3448SOL     OW11242   3.165   0.638   0.973
 3448SOL    HW111243   3.216   0.553   0.978
 3448SOL    HW211244   3.210   0.708   1.029
 3449SOL     OW11245   6.388   6.714   3.629
 3449SOL    HW111246   6.378   6.616   3.645
 3449SOL    HW211247   6.479   6.744   3.659
 3450SOL     OW11248   0.424   1.988   6.744
 3450SOL    HW111249   0.399   2.084   6.752
 3450SOL    HW211250   0.408   1.956   6.651
 3451SOL     OW11251   1.718   6.104   2.708
 3451SOL    HW111252   1.746   6.066   2.620
 3451SOL    HW211253   1.619   6.116   2.710
 3452SOL     OW11254   6.029   1.701   6.520
 3452SOL    HW111255   6.069   1.616   6.554
 3452SOL    HW211256   5.933   1.685   6.495
 3453SOL     OW11257   6.861   5.956   6.267
 3453SOL    HW111258   6.761   5.957   6.258
 3453SOL    HW211259   6.886   5.939   6.362
 3454SOL     OW11260   1.386   1.640   6.691
 3454SOL    HW111261   1.438   1.560   6.720
 3454SOL    HW211262   1.292   1.633   6.724
 3455SOL     OW11263   2.031   2.655   4.085
 3455SOL    HW111264   2.094   2.579   4.099
 3455SOL    HW211265   1.948   2.639   4.138
 3456SOL     OW11266   5.687   5.846   2.521
 3456SOL    HW111267   5.661   5.800   2.606
 3456SOL    HW211268   5.735   5.931   2.543
 3457SOL     OW11269   2.679   5.591   3.681
 3457SOL    HW111270   2.744   5.562   3.752
 3457SOL    HW211271   2.602   5.639   3.724
 3458SOL     OW11272   4.532   0.404   0.618
 3458SOL    HW111273   4.623   0.364   0.617
 3458SOL    HW211274   4.505   0.430   0.525
 3459SOL     OW11275   5.776   4.257   2.584
 3459SOL    HW111276   5.708   4.197   2.626
 3459SOL    HW211277   5.866   4.215   2.591
 3460SOL     OW11278   2.303   3.056   0.202
 3460SOL    HW111279   2.386   3.111   0.206
 3460SOL    HW211280   2.313   2.978   0.263
 3461SOL     OW11281   4.806   6.323   4.803
 3461SOL    HW111282   4.758   6.346   4.888
 3461SOL    HW211283   4.746   6.271   4.743
 3462SOL     OW11284   0.368   3.610   2.473
 3462SOL    HW111285   0.370   3.611   2.373
 3462SOL    HW211286   0.461   3.600   2.509
 3463SOL     OW11287   1.176   3.826   3.386
 3463SOL    HW111288   1.152   3.731   3.368
 3463SOL    HW211289   1.259   3.850   3.336
 3464SOL     OW11290   6.944   3.065   6.979
 3464SOL    HW111291   6.902   3.127   0.018
 3464SOL    HW211292   0.005   3.101   6.951
 3465SOL     OW11293   1.383   2.341   1.953
 3465SOL    HW111294   1.354   2.434   1.974
 3465SOL    HW211295   1.458   2.315   2.015
 3466SOL     OW11296   6.623   4.895   6.936
 3466SOL    HW111297   6.531   4.879   6.900
 3466SOL    HW211298   6.622   4.883   0.008
 3467SOL     OW11299   2.521   2.308   1.039
 3467SOL    HW111300   2.465   2.380   1.081
 3467SOL    HW211301   2.468   2.261   0.969
 3468SOL     OW11302   5.832   0.605   2.360
 3468SOL    HW111303   5.828   0.587   2.458
 3468SOL    HW211304   5.740   0.597   2.321
 3469SOL     OW11305   4.793   0.372   4.217
 3469SOL    HW111306   4.731   0.386   4.140
 3469SOL    HW211307   4.878   0.423   4.202
 3470SOL     OW11308   6.798   2.055   1.626
 3470SOL    HW111309   6.743   2.078   1.546
 3470SOL    HW211310   6.895   2.059   1.602
 3471SOL     OW11311   4.712   4.518   4.623
 3471SOL    HW111312   4.657   4.596   4.654
 3471SOL    HW211313   4.807   4.531   4.651
 3472SOL     OW11314   2.610   1.222   3.191
 3472SOL    HW111315   2.627   1.238   3.094
 3472SOL    HW211316   2.697   1.219   3.240
 3473SOL     OW11317   0.053   2.802   1.915
 3473SOL    HW111318   0.143   2.824   1.876
 3473SOL    HW211319   0.051   2.705   1.942
 3474SOL     OW11320   0.962   4.272   3.075
 3474SOL    HW111321   1.049   4.290   3.029
 3474SOL    HW211322   0.910   4.357   3.083
 3475SOL     OW11323   1.435   3.908   3.825
 3475SOL    HW111324   1.500   3.982   3.838
 3475SOL    HW211325   1.477   3.835   3.771
 3476SOL     OW11326   2.374   1.955   2.687
 3476SOL    HW111327   2.405   2.045   2.718
 3476SOL    HW211328   2.404   1.941   2.592
 3477SOL     OW11329   1.947   4.876   0.670
 3477SOL    HW111330   1.860   4.870   0.719
 3477SOL    HW211331   2.023   4.863   0.734
 3478SOL     OW11332   2.428   5.559   6.178
 3478SOL    HW111333   2.385   5.474   6.209
 3478SOL    HW211334   2.410   5.571   6.080
 3479SOL     OW11335   1.160   0.591   2.906
 3479SOL    HW111336   1.136   0.508   2.956
 3479SOL    HW211337   1.083   0.619   2.849
 3480SOL     OW11338   6.720   5.574   4.666
 3480SOL    HW111339   6.707   5.656   4.721
 3480SOL    HW211340   6.786   5.593   4.593
 3481SOL     OW11341   5.132   0.700   0.746
 3481SOL    HW111342   5.177   0.618   0.781
 3481SOL    HW211343   5.080   0.743   0.820
 3482SOL     OW11344   6.170   0.970   1.727
 3482SOL    HW111345   6.160   1.066   1.756
 3482SOL    HW211346   6.267   0.947   1.721
 3483SOL     OW11347   5.151   2.227   1.837
 3483SOL    HW111348   5.147   2.128   1.844
 3483SOL    HW211349   5.247   2.257   1.839
 3484SOL     OW11350   0.896   2.976   0.423
 3484SOL    HW111351   0.918   2.889   0.467
 3484SOL    HW211352   0.847   3.035   0.488
 3485SOL     OW11353   1.744   1.923   4.368
 3485SOL    HW111354   1.783   2.006   4.328
 3485SOL    HW211355   1.816   1.866   4.405
 3486SOL     OW11356   2.712   0.419   3.703
 3486SOL    HW111357   2.620   0.383   3.692
 3486SOL    HW211358   2.777   0.357   3.658
 3487SOL     OW11359   6.210   1.914   0.162
 3487SOL    HW111360   6.303   1.924   0.126
 3487SOL    HW211361   6.197   1.821   0.196
 3488SOL     OW11362   6.541   0.282   4.835
 3488SOL    HW111363   6.522   0.213   4.905
 3488SOL    HW211364   6.466   0.348   4.833
 3489SOL     OW11365   3.699   0.583   1.734
 3489SOL    HW111366   3.737   0.673   1.752
 3489SOL    HW211367   3.676   0.575   1.637
 3490SOL     OW11368   3.912   4.280   1.161
 3490SOL    HW111369   3.981   4.335   1.114
 3490SOL    HW211370   3.822   4.298   1.120
 3491SOL     OW11371   4.496   2.820   5.864
 3491SOL    HW111372   4.415   2.878   5.871
 3491SOL    HW211373   4.527   2.796   5.956
 3492SOL     OW11374   6.561   4.692   1.165
 3492SOL    HW111375   6.624   4.725   1.094
 3492SOL    HW211376   6.610   4.630   1.226
 3493SOL     OW11377   4.821   4.020   4.717
 3493SOL    HW111378   4.781   4.060   4.800
 3493SOL    HW211379   4.824   3.920   4.727
 3494SOL     OW11380   3.380   0.900   2.085
 3494SOL    HW111381   3.358   0.804   2.065
 3494SOL    HW211382   3.469   0.922   2.046
 3495SOL     OW11383   5.865   4.875   1.574
 3495SOL    HW111384   5.823   4.850   1.486
 3495SOL    HW211385   5.874   4.792   1.630
 3496SOL     OW11386   5.976   5.138   1.053
 3496SOL    HW111387   5.933   5.125   1.142
 3496SOL    HW211388   6.074   5.120   1.061
 3497SOL     OW11389   2.214   1.063   3.994
 3497SOL    HW111390   2.217   0.986   4.058
 3497SOL    HW211391   2.296   1.061   3.936
 3498SOL     OW11392   3.184   2.216   0.949
 3498SOL    HW111393   3.254   2.253   1.009
 3498SOL    HW211394   3.185   2.116   0.956
 3499SOL     OW11395   5.753   4.032   3.869
 3499SOL    HW111396   5.825   4.011   3.935
 3499SOL    HW211397   5.762   3.969   3.791
 3500SOL     OW11398   2.005   3.732   5.074
 3500SOL    HW111399   2.044   3.648   5.037
 3500SOL    HW211400   1.941   3.771   5.007
 3501SOL     OW11401   2.151   6.011   5.072
 3501SOL    HW111402   2.130   6.108   5.059
 3501SOL    HW211403   2.239   6.001   5.118
 3502SOL     OW11404   6.705   2.820   1.787
 3502SOL    HW111405   6.677   2.916   1.793
 3502SOL    HW211406   6.713   2.783   1.880
 3503SOL     OW11407   6.240   6.479   4.761
 3503SOL    HW111408   6.199   6.390   4.780
 3503SOL    HW211409   6.193   6.549   4.813
 3504SOL     OW11410   2.513   1.082   1.858
 3504SOL    HW111411   2.507   1.077   1.758
 3504SOL    HW211412   2.542   1.173   1.885
 3505SOL     OW11413   5.633   4.483   5.406
 3505SOL    HW111414   5.580   4.398   5.402
 3505SOL    HW211415   5.656   4.513   5.313
 3506SOL     OW11416   4.958   5.445   5.254
 3506SOL    HW111417   4.996   5.354   5.272
 3506SOL    HW211418   5.005   5.512   5.311
 3507SOL     OW11419   2.440   0.540   1.570
 3507SOL    HW111420   2.484   0.474   1.508
 3507SOL    HW211421   2.510   0.586   1.625
 3508SOL     OW11422   2.270   1.548   5.780
 3508SOL    HW111423   2.326   1.540   5.863
 3508SOL    HW211424   2.179   1.583   5.804
 3509SOL     OW11425   4.946   0.938   6.642
 3509SOL    HW111426   4.914   0.854   6.600
 3509SOL    HW211427   4.972   0.920   6.737
 3510SOL     OW11428   1.406   1.512   1.614
 3510SOL    HW111429   1.481   1.467   1.566
 3510SOL    HW211430   1.435   1.603   1.643
 3511SOL     OW11431   2.556   4.986   1.212
 3511SOL    HW111432   2.506   4.900   1.223
 3511SOL    HW211433   2.639   4.970   1.159
 3512SOL     OW11434   6.811   4.335   0.736
 3512SOL    HW111435   6.869   4.335   0.817
 3512SOL    HW211436   6.736   4.401   0.748
 3513SOL     OW11437   5.566   2.760   6.630
 3513SOL    HW111438   5.545   2.786   6.536
 3513SOL    HW211439   5.523   2.672   6.651
 3514SOL     OW11440   0.245   1.856   1.822
 3514SOL    HW111441   0.284   1.911   1.748
 3514SOL    HW211442   0.243   1.760   1.795
 3515SOL     OW11443   4.571   5.917   3.515
 3515SOL    HW111444   4.589   5.819   3.505
 3515SOL    HW211445   4.657   5.966   3.523
 3516SOL     OW11446   4.915   6.801   0.933
 3516SOL    HW111447   4.935   6.743   1.012
 3516SOL    HW211448   4.945   6.895   0.952
 3517SOL     OW11449   1.514   2.199   1.176
 3517SOL    HW111450   1.435   2.219   1.118
 3517SOL    HW211451   1.482   2.159   1.263
 3518SOL     OW11452   5.766   2.449   4.210
 3518SOL    HW111453   5.731   2.359   4.187
 3518SOL    HW211454   5.846   2.469   4.153
 3519SOL     OW11455   1.478   0.490   6.309
 3519SOL    HW111456   1.560   0.441   6.340
 3519SOL    HW211457   1.402   0.469   6.371
 3520SOL     OW11458   3.027   5.189   6.681
 3520SOL    HW111459   3.080   5.155   6.759
 3520SOL    HW211460   3.022   5.118   6.611
 3521SOL     OW11461   5.133   2.462   0.027
 3521SOL    HW111462   5.103   2.397   0.096
 3521SOL    HW211463   5.174   2.542   0.071
 3522SOL     OW11464   6.957   5.001   1.356
 3522SOL    HW111465   6.887   4.956   1.301
 3522SOL    HW211466   6.921   5.019   1.448
 3523SOL     OW11467   1.664   4.864   6.140
 3523SOL    HW111468   1.664   4.878   6.239
 3523SOL    HW211469   1.754   4.886   6.103
 3524SOL     OW11470   4.467   1.445   1.738
 3524SOL    HW111471   4.377   1.467   1.774
 3524SOL    HW211472   4.466   1.452   1.638
 3525SOL     OW11473   0.800   4.491   3.096
 3525SOL    HW111474   0.804   4.527   3.190
 3525SOL    HW211475   0.713   4.517   3.054
 3526SOL     OW11476   2.545   6.412   4.182
 3526SOL    HW111477   2.491   6.431   4.264
 3526SOL    HW211478   2.548   6.313   4.166
 3527SOL     OW11479   5.777   3.429   6.492
 3527SOL    HW111480   5.777   3.514   6.440
 3527SOL    HW211481   5.691   3.420   6.542
 3528SOL     OW11482   1.556   6.233   5.029
 3528SOL    HW111483   1.525   6.320   4.990
 3528SOL    HW211484   1.656   6.232   5.033
 3529SOL     OW11485   3.879   0.537   6.241
 3529SOL    HW111486   3.809   0.473   6.271
 3529SOL    HW211487   3.866   0.625   6.286
 3530SOL     OW11488   0.220   4.780   2.387
 3530SOL    HW111489   0.245   4.825   2.472
 3530SOL    HW211490   0.264   4.828   2.310
 3531SOL     OW11491   4.682   3.050   0.231
 3531SOL    HW111492   4.670   3.063   0.132
 3531SOL    HW211493   4.701   3.139   0.273
 3532SOL     OW11494   2.916   0.569   1.854
 3532SOL    HW111495   2.837   0.509   1.843
 3532SOL    HW211496   2.948   0.566   1.949
 3533SOL     OW11497   1.842   1.851   2.742
 3533SOL    HW111498   1.907   1.919   2.707
 3533SOL    HW211499   1.753   1.895   2.757
 3534SOL     OW11500   6.710   1.504   0.037
 3534SOL    HW111501   6.699   1.484   6.968
 3534SOL    HW211502   6.638   1.567   0.066
 3535SOL     OW11503   1.929   5.851   1.006
 3535SOL    HW111504   2.018   5.845   1.050
 3535SOL    HW211505   1.878   5.767   1.021
 3536SOL     OW11506   3.045   1.811   3.191
 3536SOL    HW111507   3.107   1.837   3.265
 3536SOL    HW211508   2.973   1.751   3.227
 3537SOL     OW11509   3.327   6.066   1.849
 3537SOL    HW111510   3.328   5.985   1.790
 3537SOL    HW211511   3.244   6.119   1.832
 3538SOL     OW11512   1.588   0.110   6.567
 3538SOL    HW111513   1.503   0.110   6.620
 3538SOL    HW211514   1.584   0.184   6.499
 3539SOL     OW11515   5.155   3.516   5.991
 3539SOL    HW111516   5.187   3.422   5.993
 3539SOL    HW211517   5.113   3.535   5.902
 3540SOL     OW11518   2.123   1.841   5.513
 3540SOL    HW111519   2.204   1.881   5.470
 3540SOL    HW211520   2.131   1.848   5.612
 3541SOL     OW11521   1.801   2.273   6.261
 3541SOL    HW111522   1.870   2.260   6.332
 3541SOL    HW211523   1.836   2.238   6.174
 3542SOL     OW11524   1.822   5.481   2.818
 3542SOL    HW111525   1.918   5.500   2.796
 3542SOL    HW211526   1.817   5.435   2.906
 3543SOL     OW11527   1.010   2.213   4.694
 3543SOL    HW111528   0.997   2.299   4.645
 3543SOL    HW211529   0.924   2.162   4.695
 3544SOL     OW11530   2.744   4.261   6.426
 3544SOL    HW111531   2.677   4.204   6.378
 3544SOL    HW211532   2.830   4.210   6.437
 3545SOL     OW11533   4.247   5.027   0.373
 3545SOL    HW111534   4.258   4.969   0.454
 3545SOL    HW211535   4.150   5.048   0.360
 3546SOL     OW11536   1.386   4.428   4.288
 3546SOL    HW111537   1.306   4.451   4.343
 3546SOL    HW211538   1.398   4.328   4.288
 3547SOL     OW11539   6.534   4.983   4.473
 3547SOL    HW111540   6.619   4.931   4.471
 3547SOL    HW211541   6.555   5.081   4.467
 3548SOL     OW11542   5.855   1.398   6.045
 3548SOL    HW111543   5.808   1.475   6.001
 3548SOL    HW211544   5.954   1.411   6.036
 3549SOL     OW11545   6.642   4.990   5.535
 3549SOL    HW111546   6.728   5.039   5.546
 3549SOL    HW211547   6.647   4.902   5.582
 3550SOL     OW11548   6.382   3.038   2.860
 3550SOL    HW111549   6.383   3.138   2.855
 3550SOL    HW211550   6.326   3.002   2.785
 3551SOL     OW11551   3.988   1.095   2.581
 3551SOL    HW111552   4.059   1.078   2.649
 3551SOL    HW211553   3.963   1.192   2.583
 3552SOL     OW11554   5.488   6.509   2.411
 3552SOL    HW111555   5.494   6.423   2.360
 3552SOL    HW211556   5.394   6.520   2.445
 3553SOL     OW11557   4.927   4.802   1.211
 3553SOL    HW111558   4.926   4.843   1.120
 3553SOL    HW211559   4.963   4.709   1.206
 3554SOL     OW11560   4.723   1.996   1.401
 3554SOL    HW111561   4.633   1.987   1.444
 3554SOL    HW211562   4.791   1.947   1.455
 3555SOL     OW11563   1.284   4.556   4.070
 3555SOL    HW111564   1.331   4.523   4.152
 3555SOL    HW211565   1.285   4.485   4.000
 3556SOL     OW11566   4.117   1.613   4.262
 3556SOL    HW111567   4.072   1.684   4.315
 3556SOL    HW211568   4.051   1.542   4.238
 3557SOL     OW11569   1.222   1.071   4.497
 3557SOL    HW111570   1.195   0.995   4.556
 3557SOL    HW211571   1.224   1.040   4.402
 3558SOL     OW11572   1.443   6.495   1.675
 3558SOL    HW111573   1.510   6.424   1.653
 3558SOL    HW211574   1.465   6.534   1.765
 3559SOL     OW11575   0.708   5.959   5.427
 3559SOL    HW111576   0.808   5.963   5.421
 3559SOL    HW211577   0.668   6.008   5.350
 3560SOL     OW11578   0.348   5.831   1.407
 3560SOL    HW111579   0.314   5.738   1.416
 3560SOL    HW211580   0.396   5.857   1.490
 3561SOL     OW11581   4.330   4.725   4.811
 3561SOL    HW111582   4.346   4.774   4.897
 3561SOL    HW211583   4.341   4.627   4.825
 3562SOL     OW11584   4.682   1.329   3.216
 3562SOL    HW111585   4.707   1.288   3.304
 3562SOL    HW211586   4.688   1.259   3.144
 3563SOL     OW11587   5.693   1.563   0.326
 3563SOL    HW111588   5.618   1.498   0.332
 3563SOL    HW211589   5.659   1.651   0.293
 3564SOL     OW11590   1.885   4.643   3.810
 3564SOL    HW111591   1.973   4.603   3.835
 3564SOL    HW211592   1.853   4.702   3.883
 3565SOL     OW11593   2.687   5.696   5.204
 3565SOL    HW111594   2.587   5.699   5.202
 3565SOL    HW211595   2.717   5.643   5.283
 3566SOL     OW11596   6.862   3.674   6.027
 3566SOL    HW111597   6.810   3.741   6.079
 3566SOL    HW211598   6.906   3.610   6.090
 3567SOL     OW11599   0.392   3.376   0.397
 3567SOL    HW111600   0.300   3.399   0.365
 3567SOL    HW211601   0.459   3.416   0.335
 3568SOL     OW11602   4.804   5.138   4.129
 3568SOL    HW111603   4.818   5.097   4.220
 3568SOL    HW211604   4.882   5.195   4.106
 3569SOL     OW11605   2.077   1.712   5.944
 3569SOL    HW111606   2.082   1.807   5.911
 3569SOL    HW211607   2.111   1.708   6.038
 3570SOL     OW11608   5.406   0.573   5.130
 3570SOL    HW111609   5.460   0.504   5.082
 3570SOL    HW211610   5.418   0.662   5.086
 3571SOL     OW11611   1.422   6.239   5.268
 3571SOL    HW111612   1.415   6.322   5.324
 3571SOL    HW211613   1.467   6.262   5.181
 3572SOL     OW11614   5.745   2.883   2.805
 3572SOL    HW111615   5.655   2.916   2.778
 3572SOL    HW211616   5.750   2.876   2.904
 3573SOL     OW11617   6.413   4.341   3.082
 3573SOL    HW111618   6.392   4.437   3.068
 3573SOL    HW211619   6.332   4.286   3.061
 3574SOL     OW11620   0.432   2.789   0.768
 3574SOL    HW111621   0.484   2.720   0.819
 3574SOL    HW211622   0.495   2.844   0.714
 3575SOL     OW11623   5.336   5.637   2.712
 3575SOL    HW111624   5.269   5.593   2.652
 3575SOL    HW211625   5.428   5.608   2.687
 3576SOL     OW11626   0.966   2.114   6.728
 3576SOL    HW111627   0.960   2.119   6.628
 3576SOL    HW211628   1.030   2.041   6.754
 3577SOL     OW11629   1.583   2.666   0.013
 3577SOL    HW111630   1.544   2.713   6.961
 3577SOL    HW211631   1.581   2.727   0.092
 3578SOL     OW11632   3.993   1.251   0.559
 3578SOL    HW111633   3.991   1.228   0.657
 3578SOL    HW211634   4.081   1.226   0.521
 3579SOL     OW11635   6.682   2.337   2.853
 3579SOL    HW111636   6.626   2.416   2.826
 3579SOL    HW211637   6.774   2.348   2.816
 3580SOL     OW11638   6.269   3.120   1.067
 3580SOL    HW111639   6.315   3.203   1.035
 3580SOL    HW211640   6.282   3.047   1.000
 3581SOL     OW11641   0.785   5.047   3.240
 3581SOL    HW111642   0.728   5.114   3.288
 3581SOL    HW211643   0.824   5.089   3.158
 3582SOL     OW11644   1.248   3.463   6.514
 3582SOL    HW111645   1.163   3.474   6.463
 3582SOL    HW211646   1.239   3.387   6.578
 3583SOL     OW11647   1.255   4.579   6.920
 3583SOL    HW111648   1.300   4.609   6.836
 3583SOL    HW211649   1.321   4.533   6.979
 3584SOL     OW11650   6.050   4.554   5.982
 3584SOL    HW111651   5.956   4.576   5.957
 3584SOL    HW211652   6.099   4.519   5.901
 3585SOL     OW11653   2.719   2.046   4.716
 3585SOL    HW111654   2.721   2.133   4.668
 3585SOL    HW211655   2.811   2.025   4.750
 3586SOL     OW11656   6.167   1.578   4.561
 3586SOL    HW111657   6.098   1.584   4.490
 3586SOL    HW211658   6.256   1.555   4.520
 3587SOL     OW11659   1.878   4.674   5.885
 3587SOL    HW111660   1.892   4.759   5.935
 3587SOL    HW211661   1.792   4.678   5.835
 3588SOL     OW11662   0.658   3.400   5.097
 3588SOL    HW111663   0.712   3.401   5.182
 3588SOL    HW211664   0.664   3.311   5.054
 3589SOL     OW11665   5.635   0.872   5.646
 3589SOL    HW111666   5.603   0.829   5.730
 3589SOL    HW211667   5.732   0.896   5.655
 3590SOL     OW11668   0.133   3.464   0.494
 3590SOL    HW111669   0.153   3.473   0.592
 3590SOL    HW211670   0.152   3.550   0.448
 3591SOL     OW11671   5.593   3.789   0.262
 3591SOL    HW111672   5.621   3.742   0.345
 3591SOL    HW211673   5.540   3.726   0.204
 3592SOL     OW11674   0.617   6.113   2.512
 3592SOL    HW111675   0.542   6.103   2.446
 3592SOL    HW211676   0.694   6.160   2.469
 3593SOL     OW11677   1.019   4.957   5.411
 3593SOL    HW111678   1.083   4.905   5.468
 3593SOL    HW211679   1.064   5.041   5.379
 3594SOL     OW11680   4.765   6.714   3.584
 3594SOL    HW111681   4.847   6.734   3.531
 3594SOL    HW211682   4.749   6.788   3.650
 3595SOL     OW11683   4.786   6.316   6.368
 3595SOL    HW111684   4.792   6.343   6.272
 3595SOL    HW211685   4.693   6.286   6.389
 3596SOL     OW11686   5.153   3.364   2.390
 3596SOL    HW111687   5.094   3.353   2.310
 3596SOL    HW211688   5.168   3.275   2.433
 3597SOL     OW11689   1.911   2.027   5.414
 3597SOL    HW111690   1.944   2.043   5.320
 3597SOL    HW211691   1.977   1.971   5.463
 3598SOL     OW11692   1.348   6.896   5.742
 3598SOL    HW111693   1.353   6.808   5.789
 3598SOL    HW211694   1.393   6.889   5.653
 3599SOL     OW11695   4.862   1.947   0.147
 3599SOL    HW111696   4.856   1.963   0.246
 3599SOL    HW211697   4.784   1.989   0.102
 3600SOL     OW11698   1.063   2.889   2.224
 3600SOL    HW111699   1.122   2.914   2.147
 3600SOL    HW211700   1.114   2.832   2.288
 3601SOL     OW11701   5.207   2.948   5.975
 3601SOL    HW111702   5.207   2.949   6.075
 3601SOL    HW211703   5.159   3.028   5.941
 3602SOL     OW11704   0.997   4.083   0.584
 3602SOL    HW111705   0.946   4.054   0.503
 3602SOL    HW211706   1.065   4.152   0.558
 3603SOL     OW11707   3.681   1.047   4.441
 3603SOL    HW111708   3.707   1.064   4.536
 3603SOL    HW211709   3.669   1.134   4.394
 3604SOL     OW11710   6.882   6.146   3.332
 3604SOL    HW111711   6.796   6.176   3.372
 3604SOL    HW211712   6.885   6.174   3.236
 3605SOL     OW11713   0.390   4.795   3.856
 3605SOL    HW111714   0.364   4.729   3.927
 3605SOL    HW211715   0.401   4.747   3.769
 3606SOL     OW11716   0.642   6.974   4.588
 3606SOL    HW111717   0.542   6.981   4.581
 3606SOL    HW211718   0.684   7.020   4.509
 3607SOL     OW11719   5.226   5.281   2.112
 3607SOL    HW111720   5.198   5.376   2.129
 3607SOL    HW211721   5.203   5.257   2.017
 3608SOL     OW11722   4.619   2.347   4.545
 3608SOL    HW111723   4.527   2.385   4.551
 3608SOL    HW211724   4.626   2.266   4.604
 3609SOL     OW11725   1.716   0.326   4.101
 3609SOL    HW111726   1.639   0.322   4.037
 3609SOL    HW211727   1.689   0.284   4.188
 3610SOL     OW11728   1.644   0.284   6.359
 3610SOL    HW111729   1.744   0.288   6.369
 3610SOL    HW211730   1.621   0.232   6.277
 3611SOL     OW11731   4.564   5.159   4.518
 3611SOL    HW111732   4.478   5.109   4.505
 3611SOL    HW211733   4.639   5.094   4.531
 3612SOL     OW11734   0.360   0.498   0.058
 3612SOL    HW111735   0.394   0.409   0.028
 3612SOL    HW211736   0.403   0.570   0.003
 3613SOL     OW11737   4.967   4.700   2.121
 3613SOL    HW111738   4.891   4.657   2.072
 3613SOL    HW211739   4.972   4.662   2.214
 3614SOL     OW11740   3.510   3.656   0.622
 3614SOL    HW111741   3.589   3.701   0.663
 3614SOL    HW211742   3.434   3.720   0.616
 3615SOL     OW11743   5.088   3.158   5.820
 3615SOL    HW111744   5.163   3.214   5.783
 3615SOL    HW211745   5.001   3.205   5.804
 3616SOL     OW11746   0.829   1.198   6.474
 3616SOL    HW111747   0.856   1.102   6.481
 3616SOL    HW211748   0.910   1.256   6.477
 3617SOL     OW11749   4.502   0.775   6.502
 3617SOL    HW111750   4.574   0.721   6.545
 3617SOL    HW211751   4.508   0.870   6.533
 3618SOL     OW11752   2.239   3.137   5.342
 3618SOL    HW111753   2.318   3.117   5.285
 3618SOL    HW211754   2.248   3.089   5.430
 3619SOL     OW11755   6.014   2.661   5.455
 3619SOL    HW111756   5.943   2.715   5.411
 3619SOL    HW211757   6.015   2.568   5.417
 3620SOL     OW11758   5.997   5.453   5.521
 3620SOL    HW111759   6.091   5.420   5.530
 3620SOL    HW211760   5.955   5.459   5.611
 3621SOL     OW11761   3.230   2.889   4.969
 3621SOL    HW111762   3.328   2.887   4.986
 3621SOL    HW211763   3.212   2.873   4.872
 3622SOL     OW11764   1.323   1.397   0.064
 3622SOL    HW111765   1.224   1.385   0.060
 3622SOL    HW211766   1.344   1.493   0.087
 3623SOL     OW11767   6.587   6.170   4.280
 3623SOL    HW111768   6.618   6.103   4.212
 3623SOL    HW211769   6.664   6.194   4.340
 3624SOL     OW11770   1.703   0.298   2.349
 3624SOL    HW111771   1.721   0.204   2.379
 3624SOL    HW211772   1.610   0.305   2.315
 3625SOL     OW11773   0.664   3.481   6.419
 3625SOL    HW111774   0.593   3.449   6.356
 3625SOL    HW211775   0.690   3.407   6.480
 3626SOL     OW11776   0.989   2.885   5.677
 3626SOL    HW111777   0.936   2.838   5.607
 3626SOL    HW211778   0.995   2.983   5.655
 3627SOL     OW11779   4.174   3.054   1.477
 3627SOL    HW111780   4.204   3.125   1.541
 3627SOL    HW211781   4.171   2.966   1.524
 3628SOL     OW11782   0.864   1.672   1.855
 3628SOL    HW111783   0.949   1.621   1.853
 3628SOL    HW211784   0.840   1.700   1.762
 3629SOL     OW11785   0.655   1.089   5.350
 3629SOL    HW111786   0.709   1.033   5.414
 3629SOL    HW211787   0.564   1.105   5.389
 3630SOL     OW11788   5.713   2.483   3.881
 3630SOL    HW111789   5.689   2.507   3.975
 3630SOL    HW211790   5.742   2.387   3.877
 3631SOL     OW11791   1.910   0.536   2.756
 3631SOL    HW111792   1.895   0.526   2.658
 3631SOL    HW211793   1.892   0.449   2.802
 3632SOL     OW11794   5.615   4.957   1.176
 3632SOL    HW111795   5.527   4.937   1.218
 3632SOL    HW211796   5.604   4.961   1.076
 3633SOL     OW11797   4.151   2.122   5.962
 3633SOL    HW111798   4.170   2.188   5.889
 3633SOL    HW211799   4.103   2.167   6.037
 3634SOL     OW11800   1.928   5.618   6.183
 3634SOL    HW111801   1.974   5.682   6.122
 3634SOL    HW211802   1.829   5.626   6.172
 3635SOL     OW11803   2.788   0.410   1.380
 3635SOL    HW111804   2.781   0.509   1.385
 3635SOL    HW211805   2.835   0.376   1.462
 3636SOL     OW11806   6.418   5.702   0.325
 3636SOL    HW111807   6.353   5.642   0.279
 3636SOL    HW211808   6.511   5.682   0.293
 3637SOL     OW11809   0.030   2.311   1.885
 3637SOL    HW111810   7.008   2.398   1.889
 3637SOL    HW211811   0.114   2.318   1.939
 3638SOL     OW11812   6.867   3.976   3.007
 3638SOL    HW111813   6.774   3.983   2.972
 3638SOL    HW211814   6.867   3.997   3.105
 3639SOL     OW11815   4.427   4.710   0.437
 3639SOL    HW111816   4.500   4.711   0.368
 3639SOL    HW211817   4.342   4.676   0.395
 3640SOL     OW11818   4.770   1.597   0.621
 3640SOL    HW111819   4.700   1.620   0.553
 3640SOL    HW211820   4.727   1.551   0.699
 3641SOL     OW11821   6.386   3.668   1.979
 3641SOL    HW111822   6.287   3.675   1.966
 3641SOL    HW211823   6.406   3.594   2.043
 3642SOL     OW11824   4.689   2.149   0.101
 3642SOL    HW111825   4.719   2.168   0.194
 3642SOL    HW211826   4.589   2.140   0.099
 3643SOL     OW11827   3.314   5.705   5.234
 3643SOL    HW111828   3.222   5.735   5.259
 3643SOL    HW211829   3.355   5.772   5.172
 3644SOL     OW11830   2.321   1.628   1.970
 3644SOL    HW111831   2.350   1.637   2.065
 3644SOL    HW211832   2.250   1.558   1.963
 3645SOL     OW11833   1.842   3.005   3.950
 3645SOL    HW111834   1.829   2.965   3.859
 3645SOL    HW211835   1.902   2.946   4.004
 3646SOL     OW11836   1.219   3.985   5.690
 3646SOL    HW111837   1.224   4.064   5.629
 3646SOL    HW211838   1.180   4.013   5.778
 3647SOL     OW11839   2.592   5.787   6.991
 3647SOL    HW111840   2.561   5.875   7.027
 3647SOL    HW211841   2.536   5.714   0.004
 3648SOL     OW11842   4.763   6.117   3.565
 3648SOL    HW111843   4.785   6.187   3.497
 3648SOL    HW211844   4.845   6.093   3.616
 3649SOL     OW11845   6.143   2.985   0.422
 3649SOL    HW111846   6.127   3.038   0.339
 3649SOL    HW211847   6.227   3.016   0.466
 3650SOL     OW11848   5.765   5.319   1.783
 3650SOL    HW111849   5.833   5.349   1.716
 3650SOL    HW211850   5.800   5.335   1.875
 3651SOL     OW11851   1.802   0.384   4.517
 3651SOL    HW111852   1.735   0.367   4.589
 3651SOL    HW211853   1.850   0.470   4.537
 3652SOL     OW11854   6.179   6.669   3.438
 3652SOL    HW111855   6.265   6.691   3.484
 3652SOL    HW211856   6.160   6.571   3.450
 3653SOL     OW11857   1.221   1.536   2.741
 3653SOL    HW111858   1.145   1.571   2.795
 3653SOL    HW211859   1.301   1.524   2.800
 3654SOL     OW11860   4.183   4.910   0.596
 3654SOL    HW111861   4.243   4.931   0.673
 3654SOL    HW211862   4.139   4.822   0.611
 3655SOL     OW11863   3.476   1.016   4.142
 3655SOL    HW111864   3.480   0.917   4.153
 3655SOL    HW211865   3.456   1.038   4.046
 3656SOL     OW11866   0.316   5.476   1.447
 3656SOL    HW111867   0.396   5.505   1.499
 3656SOL    HW211868   0.336   5.483   1.349
 3657SOL     OW11869   4.847   5.805   4.888
 3657SOL    HW111870   4.933   5.756   4.906
 3657SOL    HW211871   4.854   5.855   4.802
 3658SOL     OW11872   2.683   5.002   6.562
 3658SOL    HW111873   2.585   4.998   6.580
 3658SOL    HW211874   2.721   4.910   6.568
 3659SOL     OW11875   1.673   2.665   5.703
 3659SOL    HW111876   1.688   2.758   5.670
 3659SOL    HW211877   1.579   2.638   5.684
 3660SOL     OW11878   6.114   6.186   4.455
 3660SOL    HW111879   6.118   6.285   4.461
 3660SOL    HW211880   6.188   6.153   4.396
 3661SOL     OW11881   6.909   1.051   5.215
 3661SOL    HW111882   6.997   1.019   5.250
 3661SOL    HW211883   6.841   1.051   5.289
 3662SOL     OW11884   4.170   0.635   4.855
 3662SOL    HW111885   4.263   0.601   4.870
 3662SOL    HW211886   4.165   0.732   4.880
 3663SOL     OW11887   1.533   2.851   0.222
 3663SOL    HW111888   1.482   2.783   0.274
 3663SOL    HW211889   1.519   2.942   0.262
 3664SOL     OW11890   4.682   2.308   1.754
 3664SOL    HW111891   4.705   2.321   1.851
 3664SOL    HW211892   4.645   2.216   1.741
 3665SOL     OW11893   0.755   6.369   5.239
 3665SOL    HW111894   0.786   6.423   5.160
 3665SOL    HW211895   0.682   6.418   5.286
 3666SOL     OW11896   1.174   3.972   3.047
 3666SOL    HW111897   1.265   3.937   3.069
 3666SOL    HW211898   1.132   4.009   3.130
 3667SOL     OW11899   0.196   1.180   3.604
 3667SOL    HW111900   0.124   1.178   3.673
 3667SOL    HW211901   0.156   1.169   3.513
 3668SOL     OW11902   1.057   0.614   1.342
 3668SOL    HW111903   1.084   0.678   1.414
 3668SOL    HW211904   0.960   0.623   1.323
 3669SOL     OW11905   5.984   1.689   3.596
 3669SOL    HW111906   5.935   1.694   3.509
 3669SOL    HW211907   5.921   1.709   3.671
 3670SOL     OW11908   2.682   5.204   0.099
 3670SOL    HW111909   2.719   5.155   0.178
 3670SOL    HW211910   2.747   5.202   0.024
 3671SOL     OW11911   0.115   2.372   4.012
 3671SOL    HW111912   0.175   2.452   4.021
 3671SOL    HW211913   0.097   2.334   4.103
 3672SOL     OW11914   4.654   2.023   2.798
 3672SOL    HW111915   4.618   1.931   2.813
 3672SOL    HW211916   4.587   2.091   2.828
 3673SOL     OW11917   3.949   5.781   6.797
 3673SOL    HW111918   4.025   5.754   6.738
 3673SOL    HW211919   3.863   5.749   6.758
 3674SOL     OW11920   1.671   6.100   5.953
 3674SOL    HW111921   1.670   6.176   6.019
 3674SOL    HW211922   1.716   6.131   5.869
 3675SOL     OW11923   1.524   2.668   3.997
 3675SOL    HW111924   1.461   2.592   4.005
 3675SOL    HW211925   1.553   2.677   3.901
 3676SOL     OW11926   5.694   3.643   2.157
 3676SOL    HW111927   5.627   3.710   2.125
 3676SOL    HW211928   5.701   3.570   2.089
 3677SOL     OW11929   2.970   7.025   4.309
 3677SOL    HW111930   2.961   6.962   4.386
 3677SOL    HW211931   2.917   0.080   4.327
 3678SOL     OW11932   1.558   0.778   4.297
 3678SOL    HW111933   1.637   0.819   4.251
 3678SOL    HW211934   1.512   0.846   4.353
 3679SOL     OW11935   0.165   0.380   3.151
 3679SOL    HW111936   0.176   0.419   3.242
 3679SOL    HW211937   0.073   0.400   3.117
 3680SOL     OW11938   4.962   2.862   4.501
 3680SOL    HW111939   4.940   2.855   4.598
 3680SOL    HW211940   5.051   2.908   4.491
 3681SOL     OW11941   1.061   1.381   6.516
 3681SOL    HW111942   1.138   1.320   6.536
 3681SOL    HW211943   1.032   1.426   6.600
 3682SOL     OW11944   5.773   2.625   0.244
 3682SOL    HW111945   5.703   2.604   0.312
 3682SOL    HW211946   5.781   2.550   0.179
 3683SOL     OW11947   0.013   0.486   3.867
 3683SOL    HW111948   6.962   0.476   3.928
 3683SOL    HW211949   7.016   0.544   3.789
 3684SOL     OW11950   1.044   5.618   6.910
 3684SOL    HW111951   1.099   5.565   6.975
 3684SOL    HW211952   1.096   5.698   6.881
 3685SOL     OW11953   2.040   5.872   6.025
 3685SOL    HW111954   2.004   5.961   6.053
 3685SOL    HW211955   2.140   5.879   6.014
 3686SOL     OW11956   6.346   5.370   4.316
 3686SOL    HW111957   6.369   5.304   4.245
 3686SOL    HW211958   6.376   5.335   4.405
 3687SOL     OW11959   4.663   6.602   4.256
 3687SOL    HW111960   4.660   6.502   4.253
 3687SOL    HW211961   4.725   6.632   4.328
 3688SOL     OW11962   6.778   3.589   6.788
 3688SOL    HW111963   6.695   3.544   6.753
 3688SOL    HW211964   6.764   3.688   6.790
 3689SOL     OW11965   2.162   0.997   5.368
 3689SOL    HW111966   2.089   0.972   5.432
 3689SOL    HW211967   2.134   1.077   5.314
 3690SOL     OW11968   4.340   5.687   0.611
 3690SOL    HW111969   4.268   5.628   0.647
 3690SOL    HW211970   4.301   5.773   0.580
 3691SOL     OW11971   2.540   1.725   6.998
 3691SOL    HW111972   2.531   1.625   6.993
 3691SOL    HW211973   2.637   1.748   7.012
 3692SOL     OW11974   6.443   5.030   5.898
 3692SOL    HW111975   6.457   5.058   5.993
 3692SOL    HW211976   6.479   5.100   5.837
 3693SOL     OW11977   1.998   2.013   2.920
 3693SOL    HW111978   1.937   1.937   2.942
 3693SOL    HW211979   2.085   2.001   2.969
 3694SOL     OW11980   1.759   6.809   2.456
 3694SOL    HW111981   1.785   6.796   2.360
 3694SOL    HW211982   1.685   6.747   2.480
 3695SOL     OW11983   5.339   1.766   1.512
 3695SOL    HW111984   5.252   1.730   1.546
 3695SOL    HW211985   5.328   1.794   1.416
 3696SOL     OW11986   4.084   7.019   4.773
 3696SOL    HW111987   4.140   0.073   4.790
 3696SOL    HW211988   4.023   0.009   4.695
 3697SOL     OW11989   6.832   6.014   2.992
 3697SOL    HW111990   6.743   6.059   3.000
 3697SOL    HW211991   6.826   5.940   2.925
 3698SOL     OW11992   2.231   0.686   3.511
 3698SOL    HW111993   2.134   0.671   3.496
 3698SOL    HW211994   2.245   0.775   3.555
 3699SOL     OW11995   1.869   1.197   3.549
 3699SOL    HW111996   1.795   1.209   3.484
 3699SOL    HW211997   1.913   1.108   3.533
 3700SOL     OW11998   1.445   5.049   4.994
 3700SOL    HW111999   1.504   4.987   4.943
 3700SOL    HW212000   1.501   5.109   5.050
 3701SOL     OW12001   0.934   6.619   3.334
 3701SOL    HW112002   1.007   6.551   3.329
 3701SOL    HW212003   0.928   6.668   3.247
 3702SOL     OW12004   5.257   6.594   3.113
 3702SOL    HW112005   5.348   6.636   3.118
 3702SOL    HW212006   5.231   6.561   3.204
 3703SOL     OW12007   0.781   0.625   6.704
 3703SOL    HW112008   0.811   0.530   6.706
 3703SOL    HW212009   0.771   0.659   6.798
 3704SOL     OW12010   4.624   2.277   1.477
 3704SOL    HW112011   4.689   2.212   1.437
 3704SOL    HW212012   4.622   2.266   1.576
 3705SOL     OW12013   5.517   4.384   4.434
 3705SOL    HW112014   5.457   4.413   4.508
 3705SOL    HW212015   5.464   4.374   4.349
 3706SOL     OW12016   0.654   4.142   6.779
 3706SOL    HW112017   0.558   4.120   6.763
 3706SOL    HW212018   0.710   4.061   6.765
 3707SOL     OW12019   4.338   5.933   4.328
 3707SOL    HW112020   4.289   6.000   4.384
 3707SOL    HW212021   4.372   5.978   4.245
 3708SOL     OW12022   4.468   6.583   1.363
 3708SOL    HW112023   4.374   6.616   1.364
 3708SOL    HW212024   4.476   6.502   1.422
 3709SOL     OW12025   2.737   0.383   1.758
 3709SOL    HW112026   2.666   0.315   1.741
 3709SOL    HW212027   2.827   0.342   1.740
 3710SOL     OW12028   0.223   5.289   4.618
 3710SOL    HW112029   0.125   5.274   4.608
 3710SOL    HW212030   0.240   5.352   4.694
 3711SOL     OW12031   1.261   5.769   5.490
 3711SOL    HW112032   1.242   5.710   5.412
 3711SOL    HW212033   1.358   5.764   5.513
 3712SOL     OW12034   1.384   5.743   6.998
 3712SOL    HW112035   1.425   5.834   6.995
 3712SOL    HW212036   1.341   5.728   0.059
 3713SOL     OW12037   0.688   6.915   5.365
 3713SOL    HW112038   0.660   6.952   5.454
 3713SOL    HW212039   0.676   6.816   5.364
 3714SOL     OW12040   5.433   5.791   6.750
 3714SOL    HW112041   5.461   5.781   6.845
 3714SOL    HW212042   5.480   5.870   6.710
 3715SOL     OW12043   1.022   4.707   1.922
 3715SOL    HW112044   0.965   4.709   1.839
 3715SOL    HW212045   0.998   4.784   1.981
 3716SOL     OW12046   6.118   6.191   4.769
 3716SOL    HW112047   6.121   6.193   4.669
 3716SOL    HW212048   6.023   6.188   4.799
 3717SOL     OW12049   5.079   1.066   0.811
 3717SOL    HW112050   5.078   0.971   0.841
 3717SOL    HW212051   5.149   1.116   0.863
 3718SOL     OW12052   6.804   7.003   6.791
 3718SOL    HW112053   6.828   6.986   6.887
 3718SOL    HW212054   6.803   6.917   6.741
 3719SOL     OW12055   4.225   2.837   6.733
 3719SOL    HW112056   4.256   2.824   6.827
 3719SOL    HW212057   4.275   2.775   6.673
 3720SOL     OW12058   5.869   3.467   0.928
 3720SOL    HW112059   5.798   3.537   0.917
 3720SOL    HW212060   5.827   3.379   0.949
 3721SOL     OW12061   0.148   4.494   0.999
 3721SOL    HW112062   0.145   4.435   1.080
 3721SOL    HW212063   0.216   4.459   0.935
 3722SOL     OW12064   5.815   6.403   1.543
 3722SOL    HW112065   5.894   6.420   1.484
 3722SOL    HW212066   5.802   6.304   1.553
 3723SOL     OW12067   4.747   4.938   0.733
 3723SOL    HW112068   4.648   4.942   0.717
 3723SOL    HW212069   4.777   5.023   0.776
 3724SOL     OW12070   1.602   4.176   5.764
 3724SOL    HW112071   1.574   4.122   5.843
 3724SOL    HW212072   1.639   4.116   5.694
 3725SOL     OW12073   0.614   5.901   6.700
 3725SOL    HW112074   0.682   5.969   6.727
 3725SOL    HW212075   0.609   5.896   6.600
 3726SOL     OW12076   5.381   3.645   6.003
 3726SOL    HW112077   5.291   3.602   6.008
 3726SOL    HW212078   5.372   3.744   6.014
 3727SOL     OW12079   6.842   2.971   5.489
 3727SOL    HW112080   6.750   2.933   5.479
 3727SOL    HW212081   6.904   2.928   5.423
 3728SOL     OW12082   1.889   3.345   6.519
 3728SOL    HW112083   1.817   3.372   6.583
 3728SOL    HW212084   1.883   3.401   6.437
 3729SOL     OW12085   1.287   1.919   4.120
 3729SOL    HW112086   1.386   1.907   4.105
 3729SOL    HW212087   1.243   1.829   4.120
 3730SOL     OW12088   3.609   6.281   5.545
 3730SOL    HW112089   3.604   6.185   5.515
 3730SOL    HW212090   3.550   6.294   5.624
 3731SOL     OW12091   0.191   1.087   0.324
 3731SOL    HW112092   0.121   1.020   0.297
 3731SOL    HW212093   0.159   1.179   0.303
 3732SOL     OW12094   2.740   2.226   0.374
 3732SOL    HW112095   2.735   2.273   0.286
 3732SOL    HW212096   2.730   2.293   0.448
 3733SOL     OW12097   2.338   1.987   3.455
 3733SOL    HW112098   2.402   1.929   3.406
 3733SOL    HW212099   2.273   2.027   3.391
 3734SOL     OW12100   4.288   0.174   1.387
 3734SOL    HW112101   4.192   0.160   1.407
 3734SOL    HW212102   4.297   0.235   1.308
 3735SOL     OW12103   3.369   0.811   2.838
 3735SOL    HW112104   3.310   0.783   2.763
 3735SOL    HW212105   3.364   0.911   2.849
 3736SOL     OW12106   6.842   1.390   0.970
 3736SOL    HW112107   6.898   1.447   0.909
 3736SOL    HW212108   6.895   1.311   0.999
 3737SOL     OW12109   6.233   1.516   3.547
 3737SOL    HW112110   6.159   1.582   3.562
 3737SOL    HW212111   6.275   1.494   3.635
 3738SOL     OW12112   6.093   0.222   1.443
 3738SOL    HW112113   6.096   0.275   1.359
 3738SOL    HW212114   6.140   0.134   1.428
 3739SOL     OW12115   2.206   4.339   1.664
 3739SOL    HW112116   2.259   4.423   1.652
 3739SOL    HW212117   2.248   4.265   1.611
 3740SOL     OW12118   6.318   5.985   0.276
 3740SOL    HW112119   6.378   5.908   0.256
 3740SOL    HW212120   6.240   5.953   0.331
 3741SOL     OW12121   4.929   2.730   6.688
 3741SOL    HW112122   4.904   2.688   6.600
 3741SOL    HW212123   4.989   2.668   6.738
 3742SOL     OW12124   4.030   6.935   0.496
 3742SOL    HW112125   3.978   7.013   0.461
 3742SOL    HW212126   4.028   6.936   0.596
 3743SOL     OW12127   5.346   3.444   1.522
 3743SOL    HW112128   5.389   3.387   1.592
 3743SOL    HW212129   5.349   3.540   1.551
 3744SOL     OW12130   1.048   5.809   2.043
 3744SOL    HW112131   1.108   5.738   2.080
 3744SOL    HW212132   1.068   5.897   2.088
 3745SOL     OW12133   5.386   3.939   3.093
 3745SOL    HW112134   5.305   3.978   3.049
 3745SOL    HW212135   5.445   4.012   3.125
 3746SOL     OW12136   6.421   0.502   3.901
 3746SOL    HW112137   6.373   0.428   3.856
 3746SOL    HW212138   6.493   0.464   3.960
 3747SOL     OW12139   4.227   6.096   5.364
 3747SOL    HW112140   4.251   6.157   5.288
 3747SOL    HW212141   4.159   6.030   5.333
 3748SOL     OW12142   5.095   0.662   1.903
 3748SOL    HW112143   5.078   0.749   1.856
 3748SOL    HW212144   5.024   0.646   1.972
 3749SOL     OW12145   2.457   4.900   3.037
 3749SOL    HW112146   2.504   4.988   3.046
 3749SOL    HW212147   2.359   4.915   3.034
 3750SOL     OW12148   6.112   4.536   0.736
 3750SOL    HW112149   6.090   4.538   0.833
 3750SOL    HW212150   6.144   4.445   0.711
 3751SOL     OW12151   6.681   3.424   0.647
 3751SOL    HW112152   6.719   3.331   0.655
 3751SOL    HW212153   6.756   3.489   0.634
 3752SOL     OW12154   0.797   6.965   0.580
 3752SOL    HW112155   0.891   6.978   0.611
 3752SOL    HW212156   0.733   6.989   0.653
 3753SOL     OW12157   6.719   1.030   4.128
 3753SOL    HW112158   6.778   0.969   4.182
 3753SOL    HW212159   6.738   1.125   4.154
 3754SOL     OW12160   4.038   6.273   1.412
 3754SOL    HW112161   3.996   6.217   1.340
 3754SOL    HW212162   3.987   6.260   1.497
 3755SOL     OW12163   5.871   5.904   4.209
 3755SOL    HW112164   5.833   5.949   4.128
 3755SOL    HW212165   5.935   5.833   4.180
 3756SOL     OW12166   1.897   6.542   5.893
 3756SOL    HW112167   1.996   6.526   5.898
 3756SOL    HW212168   1.872   6.616   5.955
 3757SOL     OW12169   3.867   6.559   6.819
 3757SOL    HW112170   3.916   6.631   6.770
 3757SOL    HW212171   3.890   6.562   6.916
 3758SOL     OW12172   1.809   1.396   4.447
 3758SOL    HW112173   1.829   1.334   4.523
 3758SOL    HW212174   1.856   1.364   4.365
 3759SOL     OW12175   4.540   5.242   6.227
 3759SOL    HW112176   4.447   5.273   6.204
 3759SOL    HW212177   4.542   5.142   6.229
 3760SOL     OW12178   1.628   2.818   4.293
 3760SOL    HW112179   1.651   2.912   4.270
 3760SOL    HW212180   1.553   2.787   4.235
 3761SOL     OW12181   0.300   0.637   5.262
 3761SOL    HW112182   0.336   0.559   5.211
 3761SOL    HW212183   0.370   0.671   5.325
 3762SOL     OW12184   0.353   5.377   6.790
 3762SOL    HW112185   0.387   5.337   6.705
 3762SOL    HW212186   0.277   5.439   6.770
 3763SOL     OW12187   6.794   4.709   6.815
 3763SOL    HW112188   6.845   4.758   6.743
 3763SOL    HW212189   6.701   4.745   6.820
 3764SOL     OW12190   1.650   0.105   3.493
 3764SOL    HW112191   1.656   0.201   3.465
 3764SOL    HW212192   1.665   0.046   3.414
 3765SOL     OW12193   5.061   1.501   1.070
 3765SOL    HW112194   5.048   1.403   1.085
 3765SOL    HW212195   5.140   1.532   1.123
 3766SOL     OW12196   0.880   1.085   3.940
 3766SOL    HW112197   0.956   1.149   3.930
 3766SOL    HW212198   0.883   1.043   4.031
 3767SOL     OW12199   2.475   5.254   0.312
 3767SOL    HW112200   2.455   5.325   0.379
 3767SOL    HW212201   2.538   5.290   0.243
 3768SOL     OW12202   2.369   5.964   5.281
 3768SOL    HW112203   2.353   5.900   5.356
 3768SOL    HW212204   2.398   6.053   5.318
 3769SOL     OW12205   5.695   5.640   5.188
 3769SOL    HW112206   5.648   5.567   5.237
 3769SOL    HW212207   5.657   5.728   5.215
 3770SOL     OW12208   1.867   6.764   7.002
 3770SOL    HW112209   1.858   6.692   0.043
 3770SOL    HW212210   1.959   6.761   6.962
 3771SOL     OW12211   6.638   3.054   6.621
 3771SOL    HW112212   6.576   3.055   6.699
 3771SOL    HW212213   6.592   3.017   6.541
 3772SOL     OW12214   7.013   0.879   0.309
 3772SOL    HW112215   7.004   0.810   0.380
 3772SOL    HW212216   0.009   0.835   0.222
 3773SOL     OW12217   6.532   2.912   6.406
 3773SOL    HW112218   6.541   2.813   6.391
 3773SOL    HW212219   6.511   2.956   6.318
 3774SOL     OW12220   0.646   5.639   0.246
 3774SOL    HW112221   0.583   5.620   0.321
 3774SOL    HW212222   0.652   5.560   0.185
 3775SOL     OW12223   5.057   5.041   2.248
 3775SOL    HW112224   5.062   5.046   2.348
 3775SOL    HW212225   5.113   5.113   2.208
 3776SOL     OW12226   4.232   0.899   0.753
 3776SOL    HW112227   4.330   0.886   0.742
 3776SOL    HW212228   4.182   0.834   0.695
 3777SOL     OW12229   3.255   4.903   4.996
 3777SOL    HW112230   3.232   4.860   5.084
 3777SOL    HW212231   3.173   4.905   4.939
 3778SOL     OW12232   2.819   4.989   3.115
 3778SOL    HW112233   2.830   5.079   3.071
 3778SOL    HW212234   2.722   4.967   3.121
 3779SOL     OW12235   1.827   4.707   1.165
 3779SOL    HW112236   1.842   4.609   1.181
 3779SOL    HW212237   1.897   4.742   1.103
 3780SOL     OW12238   4.591   5.529   6.094
 3780SOL    HW112239   4.676   5.579   6.115
 3780SOL    HW212240   4.598   5.436   6.131
 3781SOL     OW12241   1.864   0.007   4.152
 3781SOL    HW112242   1.853   6.994   4.061
 3781SOL    HW212243   1.892   0.102   4.143
 3782SOL     OW12244   2.556   1.088   4.438
 3782SOL    HW112245   2.511   1.006   4.401
 3782SOL    HW212246   2.640   1.106   4.388
 3783SOL     OW12247   5.678   6.077   4.634
 3783SOL    HW112248   5.718   6.027   4.711
 3783SOL    HW212249   5.729   6.057   4.551
 3784SOL     OW12250   5.408   2.641   3.198
 3784SOL    HW112251   5.466   2.635   3.117
 3784SOL    HW212252   5.356   2.557   3.208
 3785SOL     OW12253   1.230   1.090   6.825
 3785SOL    HW112254   1.290   1.120   6.750
 3785SOL    HW212255   1.275   1.107   6.912
 3786SOL     OW12256   2.238   6.917   2.945
 3786SOL    HW112257   2.172   6.975   2.994
 3786SOL    HW212258   2.285   6.972   2.875
 3787SOL     OW12259   5.809   6.692   2.989
 3787SOL    HW112260   5.740   6.648   2.931
 3787SOL    HW212261   5.897   6.694   2.941
 3788SOL     OW12262   0.858   3.705   4.352
 3788SOL    HW112263   0.838   3.786   4.297
 3788SOL    HW212264   0.898   3.634   4.295
 3789SOL     OW12265   0.553   3.352   4.427
 3789SOL    HW112266   0.474   3.290   4.426
 3789SOL    HW212267   0.523   3.444   4.405
 3790SOL     OW12268   2.059   4.099   5.617
 3790SOL    HW112269   2.091   4.167   5.552
 3790SOL    HW212270   2.084   4.008   5.585
 3791SOL     OW12271   6.151   0.076   0.165
 3791SOL    HW112272   6.175   0.007   0.233
 3791SOL    HW212273   6.209   0.157   0.178
 3792SOL     OW12274   0.026   0.845   4.002
 3792SOL    HW112275   0.003   0.774   4.068
 3792SOL    HW212276   0.092   0.908   4.042
 3793SOL     OW12277   3.794   0.468   2.655
 3793SOL    HW112278   3.759   0.561   2.669
 3793SOL    HW212279   3.744   0.405   2.715
 3794SOL     OW12280   2.206   4.170   1.276
 3794SOL    HW112281   2.165   4.120   1.352
 3794SOL    HW212282   2.198   4.115   1.192
 3795SOL     OW12283   3.762   6.371   6.631
 3795SOL    HW112284   3.663   6.370   6.641
 3795SOL    HW212285   3.803   6.415   6.711
 3796SOL     OW12286   2.865   1.855   1.090
 3796SOL    HW112287   2.797   1.786   1.064
 3796SOL    HW212288   2.949   1.809   1.119
 3797SOL     OW12289   6.167   4.253   2.877
 3797SOL    HW112290   6.137   4.347   2.862
 3797SOL    HW212291   6.218   4.222   2.796
 3798SOL     OW12292   3.798   6.136   3.015
 3798SOL    HW112293   3.826   6.212   3.074
 3798SOL    HW212294   3.843   6.144   2.926
 3799SOL     OW12295   0.024   2.916   3.931
 3799SOL    HW112296   6.983   2.926   3.859
 3799SOL    HW212297   0.069   2.828   3.922
 3800SOL     OW12298   5.338   3.416   4.306
 3800SOL    HW112299   5.276   3.492   4.287
 3800SOL    HW212300   5.397   3.440   4.383
 3801SOL     OW12301   6.396   5.934   3.194
 3801SOL    HW112302   6.349   6.019   3.172
 3801SOL    HW212303   6.492   5.952   3.213
 3802SOL     OW12304   0.882   2.684   3.558
 3802SOL    HW112305   0.978   2.658   3.555
 3802SOL    HW212306   0.861   2.723   3.648
 3803SOL     OW12307   3.950   2.295   1.084
 3803SOL    HW112308   3.862   2.323   1.121
 3803SOL    HW212309   3.968   2.200   1.108
 3804SOL     OW12310   5.095   2.308   3.383
 3804SOL    HW112311   5.102   2.391   3.439
 3804SOL    HW212312   5.063   2.232   3.440
 3805SOL     OW12313   2.844   3.500   1.819
 3805SOL    HW112314   2.880   3.592   1.838
 3805SOL    HW212315   2.888   3.463   1.738
 3806SOL     OW12316   3.117   3.807   6.744
 3806SOL    HW112317   3.198   3.840   6.793
 3806SOL    HW212318   3.034   3.840   6.790
 3807SOL     OW12319   2.594   6.546   3.932
 3807SOL    HW112320   2.496   6.551   3.909
 3807SOL    HW212321   2.605   6.498   4.019
 3808SOL     OW12322   3.918   0.077   0.928
 3808SOL    HW112323   3.887   0.145   0.861
 3808SOL    HW212324   3.992   0.116   0.982
 3809SOL     OW12325   6.015   2.738   0.520
 3809SOL    HW112326   6.034   2.805   0.449
 3809SOL    HW212327   6.002   2.785   0.607
 3810SOL     OW12328   4.594   2.383   5.349
 3810SOL    HW112329   4.681   2.419   5.318
 3810SOL    HW212330   4.601   2.356   5.445
 3811SOL     OW12331   1.275   4.325   3.931
 3811SOL    HW112332   1.294   4.282   3.843
 3811SOL    HW212333   1.176   4.335   3.942
 3812SOL     OW12334   5.053   0.708   5.376
 3812SOL    HW112335   5.000   0.683   5.456
 3812SOL    HW212336   5.032   0.802   5.350
 3813SOL     OW12337   4.237   4.032   0.593
 3813SOL    HW112338   4.160   4.095   0.586
 3813SOL    HW212339   4.261   4.020   0.689
 3814SOL     OW12340   0.360   0.110   1.229
 3814SOL    HW112341   0.278   0.102   1.285
 3814SOL    HW212342   0.403   0.198   1.244
 3815SOL     OW12343   4.504   2.872   0.305
 3815SOL    HW112344   4.528   2.808   0.377
 3815SOL    HW212345   4.584   2.926   0.279
 3816SOL     OW12346   0.542   5.912   0.292
 3816SOL    HW112347   0.521   5.919   0.390
 3816SOL    HW212348   0.605   5.836   0.276
 3817SOL     OW12349   5.420   3.567   3.320
 3817SOL    HW112350   5.442   3.507   3.397
 3817SOL    HW212351   5.395   3.657   3.354
 3818SOL     OW12352   4.982   0.242   0.439
 3818SOL    HW112353   4.962   0.154   0.482
 3818SOL    HW212354   5.071   0.237   0.393
 3819SOL     OW12355   5.358   5.454   1.101
 3819SOL    HW112356   5.400   5.382   1.046
 3819SOL    HW212357   5.428   5.500   1.155
 3820SOL     OW12358   7.015   6.759   3.165
 3820SOL    HW112359   7.020   6.859   3.156
 3820SOL    HW212360   0.078   6.723   3.189
 3821SOL     OW12361   2.337   2.705   0.647
 3821SOL    HW112362   2.381   2.697   0.736
 3821SOL    HW212363   2.406   2.728   0.577
 3822SOL     OW12364   1.461   6.261   2.913
 3822SOL    HW112365   1.497   6.302   2.997
 3822SOL    HW212366   1.369   6.226   2.931
 3823SOL     OW12367   3.870   2.188   5.827
 3823SOL    HW112368   3.777   2.164   5.799
 3823SOL    HW212369   3.931   2.110   5.811
 3824SOL     OW12370   5.620   2.091   6.718
 3824SOL    HW112371   5.621   2.172   6.776
 3824SOL    HW212372   5.698   2.033   6.741
 3825SOL     OW12373   0.407   6.823   0.732
 3825SOL    HW112374   0.499   6.846   0.701
 3825SOL    HW212375   0.339   6.868   0.674
 3826SOL     OW12376   0.250   3.269   7.020
 3826SOL    HW112377   0.324   3.332   7.000
 3826SOL    HW212378   0.235   3.265   0.092
 3827SOL     OW12379   3.258   2.806   0.962
 3827SOL    HW112380   3.167   2.845   0.949
 3827SOL    HW212381   3.252   2.707   0.960
 3828SOL     OW12382   4.870   2.455   1.479
 3828SOL    HW112383   4.931   2.394   1.530
 3828SOL    HW212384   4.775   2.426   1.492
 3829SOL     OW12385   2.218   4.502   4.500
 3829SOL    HW112386   2.191   4.449   4.581
 3829SOL    HW212387   2.176   4.592   4.504
 3830SOL     OW12388   0.927   6.959   5.216
 3830SOL    HW112389   0.850   6.925   5.269
 3830SOL    HW212390   0.988   7.012   5.275
 3831SOL     OW12391   4.591   1.592   2.158
 3831SOL    HW112392   4.661   1.563   2.224
 3831SOL    HW212393   4.602   1.690   2.139
 3832SOL     OW12394   5.943   1.052   2.107
 3832SOL    HW112395   5.883   0.983   2.148
 3832SOL    HW212396   6.037   1.036   2.135
 3833SOL     OW12397   1.145   5.778   6.145
 3833SOL    HW112398   1.133   5.855   6.083
 3833SOL    HW212399   1.080   5.786   6.221
 3834SOL     OW12400   3.514   2.610   1.097
 3834SOL    HW112401   3.518   2.673   1.020
 3834SOL    HW212402   3.589   2.544   1.090
 3835SOL     OW12403   3.236   5.039   5.300
 3835SOL    HW112404   3.213   5.130   5.263
 3835SOL    HW212405   3.335   5.032   5.311
 3836SOL     OW12406   1.937   3.676   5.497
 3836SOL    HW112407   2.004   3.727   5.444
 3836SOL    HW212408   1.937   3.708   5.592
 3837SOL     OW12409   4.974   3.590   6.889
 3837SOL    HW112410   4.934   3.628   6.972
 3837SOL    HW212411   5.066   3.627   6.876
 3838SOL     OW12412   6.799   4.277   4.159
 3838SOL    HW112413   6.816   4.212   4.085
 3838SOL    HW212414   6.702   4.299   4.162
 3839SOL     OW12415   4.104   0.697   4.531
 3839SOL    HW112416   4.056   0.609   4.531
 3839SOL    HW212417   4.063   0.757   4.600
 3840SOL     OW12418   1.820   1.071   5.198
 3840SOL    HW112419   1.738   1.067   5.142
 3840SOL    HW212420   1.854   1.164   5.202
 3841SOL     OW12421   0.131   3.364   4.954
 3841SOL    HW112422   0.228   3.346   4.971
 3841SOL    HW212423   0.097   3.299   4.886
 3842SOL     OW12424   0.992   4.430   6.896
 3842SOL    HW112425   1.004   4.387   6.985
 3842SOL    HW212426   1.057   4.505   6.886
 3843SOL     OW12427   6.884   4.851   1.850
 3843SOL    HW112428   6.933   4.935   1.829
 3843SOL    HW212429   6.789   4.859   1.821
 3844SOL     OW12430   0.076   3.981   6.101
 3844SOL    HW112431   0.147   3.942   6.042
 3844SOL    HW212432   0.064   4.077   6.079
 3845SOL     OW12433   3.847   3.001   2.868
 3845SOL    HW112434   3.768   2.944   2.890
 3845SOL    HW212435   3.882   3.043   2.952
 3846SOL     OW12436   0.651   4.741   3.968
 3846SOL    HW112437   0.644   4.797   4.050
 3846SOL    HW212438   0.575   4.762   3.907
 3847SOL     OW12439   6.080   1.056   5.222
 3847SOL    HW112440   6.070   1.073   5.320
 3847SOL    HW212441   6.012   1.110   5.172
 3848SOL     OW12442   3.070   5.573   3.118
 3848SOL    HW112443   3.125   5.535   3.044
 3848SOL    HW212444   2.988   5.518   3.130
 3849SOL     OW12445   0.685   1.488   5.235
 3849SOL    HW112446   0.684   1.559   5.305
 3849SOL    HW212447   0.640   1.523   5.152
 3850SOL     OW12448   2.815   3.347   1.252
 3850SOL    HW112449   2.767   3.300   1.178
 3850SOL    HW212450   2.886   3.287   1.289
 3851SOL     OW12451   1.281   4.391   3.210
 3851SOL    HW112452   1.304   4.293   3.213
 3851SOL    HW212453   1.366   4.444   3.210
 3852SOL     OW12454   4.488   6.759   4.120
 3852SOL    HW112455   4.549   6.715   4.187
 3852SOL    HW212456   4.511   6.728   4.028
 3853SOL     OW12457   1.630   3.333   2.538
 3853SOL    HW112458   1.688   3.257   2.570
 3853SOL    HW212459   1.653   3.415   2.590
 3854SOL     OW12460   1.120   4.010   2.683
 3854SOL    HW112461   1.165   3.932   2.728
 3854SOL    HW212462   1.153   4.017   2.589
 3855SOL     OW12463   4.912   5.999   6.583
 3855SOL    HW112464   4.933   5.905   6.610
 3855SOL    HW212465   4.878   6.050   6.662
 3856SOL     OW12466   6.697   6.204   4.935
 3856SOL    HW112467   6.699   6.223   5.034
 3856SOL    HW212468   6.603   6.188   4.906
 3857SOL     OW12469   0.914   6.115   5.704
 3857SOL    HW112470   0.944   6.205   5.735
 3857SOL    HW212471   0.982   6.076   5.642
 3858SOL     OW12472   1.526   6.542   6.053
 3858SOL    HW112473   1.564   6.451   6.074
 3858SOL    HW212474   1.584   6.612   6.095
 3859SOL     OW12475   0.065   1.695   3.228
 3859SOL    HW112476   0.006   1.713   3.149
 3859SOL    HW212477   0.096   1.600   3.224
 3860SOL     OW12478   1.191   6.766   5.183
 3860SOL    HW112479   1.188   6.859   5.218
 3860SOL    HW212480   1.219   6.767   5.087
 3861SOL     OW12481   5.117   4.285   1.723
 3861SOL    HW112482   5.144   4.302   1.818
 3861SOL    HW212483   5.191   4.236   1.676
 3862SOL     OW12484   6.817   0.021   5.420
 3862SOL    HW112485   6.752   6.974   5.429
 3862SOL    HW212486   6.831   0.042   5.323
 3863SOL     OW12487   3.896   3.964   6.561
 3863SOL    HW112488   3.927   3.951   6.655
 3863SOL    HW212489   3.931   4.051   6.526
 3864SOL     OW12490   4.358   1.896   5.705
 3864SOL    HW112491   4.266   1.914   5.739
 3864SOL    HW212492   4.422   1.894   5.782
 3865SOL     OW12493   3.659   0.257   1.564
 3865SOL    HW112494   3.731   0.291   1.625
 3865SOL    HW212495   3.698   0.238   1.474
 3866SOL     OW12496   3.770   0.778   0.462
 3866SOL    HW112497   3.803   0.746   0.373
 3866SOL    HW212498   3.840   0.833   0.505
 3867SOL     OW12499   1.672   3.760   4.215
 3867SOL    HW112500   1.594   3.718   4.168
 3867SOL    HW212501   1.710   3.832   4.157
 3868SOL     OW12502   2.032   6.450   2.148
 3868SOL    HW112503   2.051   6.436   2.245
 3868SOL    HW212504   2.017   6.361   2.104
 3869SOL     OW12505   6.759   3.035   4.404
 3869SOL    HW112506   6.678   3.053   4.348
 3869SOL    HW212507   6.834   3.006   4.346
 3870SOL     OW12508   4.609   4.674   0.150
 3870SOL    HW112509   4.686   4.738   0.160
 3870SOL    HW212510   4.644   4.580   0.147
 3871SOL     OW12511   2.842   0.911   2.462
 3871SOL    HW112512   2.786   0.963   2.527
 3871SOL    HW212513   2.923   0.964   2.437
 3872SOL     OW12514   3.090   2.930   1.710
 3872SOL    HW112515   3.081   2.947   1.808
 3872SOL    HW212516   3.084   2.831   1.693
 3873SOL     OW12517   5.866   5.556   1.135
 3873SOL    HW112518   5.837   5.643   1.175
 3873SOL    HW212519   5.817   5.481   1.179
 3874SOL     OW12520   4.072   6.447   0.593
 3874SOL    HW112521   4.152   6.425   0.649
 3874SOL    HW212522   3.999   6.483   0.652
 3875SOL     OW12523   1.208   3.158   2.733
 3875SOL    HW112524   1.263   3.218   2.676
 3875SOL    HW212525   1.120   3.140   2.689
 3876SOL     OW12526   5.192   5.414   6.468
 3876SOL    HW112527   5.111   5.379   6.420
 3876SOL    HW212528   5.272   5.362   6.439
 3877SOL     OW12529   6.477   1.244   0.689
 3877SOL    HW112530   6.522   1.188   0.619
 3877SOL    HW212531   6.382   1.261   0.662
 3878SOL     OW12532   2.494   5.961   5.971
 3878SOL    HW112533   2.406   6.008   5.977
 3878SOL    HW212534   2.564   6.017   6.016
 3879SOL     OW12535   4.612   5.995   1.189
 3879SOL    HW112536   4.541   6.064   1.174
 3879SOL    HW212537   4.691   6.036   1.233
 3880SOL     OW12538   5.952   4.005   2.925
 3880SOL    HW112539   6.021   3.991   2.996
 3880SOL    HW212540   5.940   4.103   2.908
 3881SOL     OW12541   1.308   5.392   0.897
 3881SOL    HW112542   1.237   5.422   0.833
 3881SOL    HW212543   1.277   5.309   0.944
 3882SOL     OW12544   6.413   1.011   4.879
 3882SOL    HW112545   6.418   0.937   4.812
 3882SOL    HW212546   6.495   1.009   4.937
 3883SOL     OW12547   4.633   1.485   3.742
 3883SOL    HW112548   4.692   1.414   3.781
 3883SOL    HW212549   4.538   1.463   3.762
 3884SOL     OW12550   1.362   6.442   4.719
 3884SOL    HW112551   1.387   6.346   4.705
 3884SOL    HW212552   1.286   6.466   4.659
 3885SOL     OW12553   6.363   0.875   4.603
 3885SOL    HW112554   6.319   0.838   4.522
 3885SOL    HW212555   6.439   0.935   4.574
 3886SOL     OW12556   5.937   0.585   5.694
 3886SOL    HW112557   5.943   0.493   5.655
 3886SOL    HW212558   5.981   0.585   5.784
 3887SOL     OW12559   5.418   2.209   5.303
 3887SOL    HW112560   5.404   2.145   5.378
 3887SOL    HW212561   5.333   2.258   5.284
 3888SOL     OW12562   0.054   0.537   6.482
 3888SOL    HW112563   0.148   0.525   6.512
 3888SOL    HW212564   0.000   0.578   6.556
 3889SOL     OW12565   0.252   4.830   5.983
 3889SOL    HW112566   0.319   4.776   6.034
 3889SOL    HW212567   0.296   4.870   5.903
 3890SOL     OW12568   6.590   6.503   2.677
 3890SOL    HW112569   6.602   6.416   2.725
 3890SOL    HW212570   6.531   6.490   2.597
 3891SOL     OW12571   5.281   4.650   4.971
 3891SOL    HW112572   5.268   4.587   5.047
 3891SOL    HW212573   5.373   4.690   4.975
 3892SOL     OW12574   1.415   0.557   2.383
 3892SOL    HW112575   1.471   0.604   2.450
 3892SOL    HW212576   1.426   0.458   2.392
 3893SOL     OW12577   3.271   5.936   3.200
 3893SOL    HW112578   3.180   5.948   3.240
 3893SOL    HW212579   3.270   5.858   3.137
 3894SOL     OW12580   3.974   2.378   0.768
 3894SOL    HW112581   3.930   2.381   0.679
 3894SOL    HW212582   3.917   2.428   0.835
 3895SOL     OW12583   1.188   0.954   5.388
 3895SOL    HW112584   1.212   1.027   5.323
 3895SOL    HW212585   1.174   0.868   5.338
 3896SOL     OW12586   0.849   2.178   6.456
 3896SOL    HW112587   0.842   2.215   6.363
 3896SOL    HW212588   0.789   2.229   6.517
 3897SOL     OW12589   3.047   6.433   2.504
 3897SOL    HW112590   3.019   6.484   2.422
 3897SOL    HW212591   3.020   6.337   2.493
 3898SOL     OW12592   3.258   3.062   3.576
 3898SOL    HW112593   3.297   3.150   3.604
 3898SOL    HW212594   3.322   2.989   3.602
 3899SOL     OW12595   4.992   1.270   4.829
 3899SOL    HW112596   4.923   1.239   4.894
 3899SOL    HW212597   5.028   1.359   4.858
 3900SOL     OW12598   6.062   2.738   3.240
 3900SOL    HW112599   6.155   2.741   3.204
 3900SOL    HW212600   6.028   2.832   3.250
 3901SOL     OW12601   1.801   6.868   5.682
 3901SOL    HW112602   1.782   6.771   5.665
 3901SOL    HW212603   1.793   6.886   5.780
 3902SOL     OW12604   5.183   4.065   2.950
 3902SOL    HW112605   5.138   3.994   2.896
 3902SOL    HW212606   5.118   4.103   3.015
 3903SOL     OW12607   4.534   3.589   0.071
 3903SOL    HW112608   4.631   3.601   0.095
 3903SOL    HW212609   4.491   3.525   0.135
 3904SOL     OW12610   1.061   6.971   7.023
 3904SOL    HW112611   0.993   6.990   0.067
 3904SOL    HW212612   1.014   6.947   6.938
 3905SOL     OW12613   6.297   6.200   6.233
 3905SOL    HW112614   6.350   6.163   6.309
 3905SOL    HW212615   6.201   6.174   6.242
 3906SOL     OW12616   1.774   4.690   4.061
 3906SOL    HW112617   1.818   4.620   4.117
 3906SOL    HW212618   1.675   4.685   4.075
 3907SOL     OW12619   0.124   1.391   4.877
 3907SOL    HW112620   0.126   1.292   4.863
 3907SOL    HW212621   0.128   1.411   4.975
 3908SOL     OW12622   0.923   0.831   5.682
 3908SOL    HW112623   0.953   0.879   5.764
 3908SOL    HW212624   0.974   0.746   5.672
 3909SOL     OW12625   5.005   3.338   6.201
 3909SOL    HW112626   5.015   3.423   6.150
 3909SOL    HW212627   5.068   3.339   6.279
 3910SOL     OW12628   3.799   3.795   2.316
 3910SOL    HW112629   3.763   3.879   2.356
 3910SOL    HW212630   3.888   3.774   2.358
 3911SOL     OW12631   5.473   0.447   0.981
 3911SOL    HW112632   5.504   0.386   1.054
 3911SOL    HW212633   5.530   0.435   0.900
 3912SOL     OW12634   3.151   1.722   6.083
 3912SOL    HW112635   3.190   1.794   6.026
 3912SOL    HW212636   3.191   1.726   6.175
 3913SOL     OW12637   3.595   6.447   0.584
 3913SOL    HW112638   3.588   6.351   0.556
 3913SOL    HW212639   3.610   6.504   0.504
 3914SOL     OW12640   5.413   1.335   1.345
 3914SOL    HW112641   5.431   1.239   1.363
 3914SOL    HW212642   5.491   1.390   1.376
 3915SOL     OW12643   3.073   6.060   0.689
 3915SOL    HW112644   3.071   6.154   0.723
 3915SOL    HW212645   2.983   6.018   0.701
 3916SOL     OW12646   3.510   0.592   2.904
 3916SOL    HW112647   3.455   0.675   2.898
 3916SOL    HW212648   3.577   0.602   2.978
 3917SOL     OW12649   2.597   4.968   0.800
 3917SOL    HW112650   2.662   5.026   0.848
 3917SOL    HW212651   2.504   4.995   0.825
 3918SOL     OW12652   4.929   1.379   0.640
 3918SOL    HW112653   4.888   1.308   0.583
 3918SOL    HW212654   4.878   1.465   0.627
 3919SOL     OW12655   4.448   1.496   0.798
 3919SOL    HW112656   4.476   1.552   0.876
 3919SOL    HW212657   4.523   1.435   0.771
 3920SOL     OW12658   2.894   1.565   6.947
 3920SOL    HW112659   2.945   1.542   0.002
 3920SOL    HW212660   2.855   1.656   6.957
 3921SOL     OW12661   6.823   2.904   6.731
 3921SOL    HW112662   6.876   2.964   6.791
 3921SOL    HW212663   6.754   2.957   6.682
 3922SOL     OW12664   4.708   4.887   2.101
 3922SOL    HW112665   4.653   4.815   2.143
 3922SOL    HW212666   4.648   4.951   2.053
 3923SOL     OW12667   5.868   0.954   1.459
 3923SOL    HW112668   5.901   1.042   1.494
 3923SOL    HW212669   5.945   0.891   1.450
 3924SOL     OW12670   0.055   4.757   3.388
 3924SOL    HW112671   0.043   4.658   3.397
 3924SOL    HW212672   0.097   4.793   3.471
 3925SOL     OW12673   4.663   4.017   0.659
 3925SOL    HW112674   4.660   3.983   0.565
 3925SOL    HW212675   4.712   4.104   0.662
 3926SOL     OW12676   1.015   0.543   5.763
 3926SOL    HW112677   1.103   0.552   5.717
 3926SOL    HW212678   0.996   0.446   5.778
 3927SOL     OW12679   0.417   2.933   4.322
 3927SOL    HW112680   0.356   2.927   4.243
 3927SOL    HW212681   0.406   2.852   4.380
 3928SOL     OW12682   2.515   6.952   3.054
 3928SOL    HW112683   2.448   7.014   3.014
 3928SOL    HW212684   2.524   6.871   2.996
 3929SOL     OW12685   6.768   1.820   5.916
 3929SOL    HW112686   6.712   1.867   5.985
 3929SOL    HW212687   6.709   1.762   5.859
 3930SOL     OW12688   1.463   2.413   3.586
 3930SOL    HW112689   1.392   2.350   3.614
 3930SOL    HW212690   1.550   2.387   3.630
 3931SOL     OW12691   1.732   1.784   1.808
 3931SOL    HW112692   1.713   1.799   1.905
 3931SOL    HW212693   1.647   1.785   1.756
 3932SOL     OW12694   1.865   5.584   3.611
 3932SOL    HW112695   1.871   5.586   3.711
 3932SOL    HW212696   1.935   5.643   3.572
 3933SOL     OW12697   1.381   5.330   0.439
 3933SOL    HW112698   1.415   5.412   0.486
 3933SOL    HW212699   1.456   5.266   0.424
 3934SOL     OW12700   0.796   1.663   2.789
 3934SOL    HW112701   0.892   1.636   2.797
 3934SOL    HW212702   0.740   1.582   2.774
 3935SOL     OW12703   5.939   3.245   6.384
 3935SOL    HW112704   5.951   3.178   6.457
 3935SOL    HW212705   5.879   3.319   6.415
 3936SOL     OW12706   6.560   5.592   5.089
 3936SOL    HW112707   6.585   5.579   4.993
 3936SOL    HW212708   6.463   5.616   5.094
 3937SOL     OW12709   0.457   4.961   2.618
 3937SOL    HW112710   0.452   5.055   2.650
 3937SOL    HW212711   0.377   4.910   2.650
 3938SOL     OW12712   0.026   3.652   4.598
 3938SOL    HW112713   0.022   3.744   4.638
 3938SOL    HW212714   0.023   3.660   4.498
 3939SOL     OW12715   0.921   1.409   2.169
 3939SOL    HW112716   0.960   1.318   2.180
 3939SOL    HW212717   0.983   1.465   2.114
 3940SOL     OW12718   2.991   4.705   1.684
 3940SOL    HW112719   2.980   4.800   1.713
 3940SOL    HW212720   2.938   4.645   1.743
 3941SOL     OW12721   6.271   0.099   4.083
 3941SOL    HW112722   6.344   0.134   4.142
 3941SOL    HW212723   6.203   0.171   4.069
 3942SOL     OW12724   1.112   6.695   6.060
 3942SOL    HW112725   1.163   6.609   6.053
 3942SOL    HW212726   1.018   6.681   6.030
 3943SOL     OW12727   0.759   3.829   1.896
 3943SOL    HW112728   0.849   3.853   1.931
 3943SOL    HW212729   0.712   3.771   1.962
 3944SOL     OW12730   6.157   2.973   6.924
 3944SOL    HW112731   6.235   2.912   6.938
 3944SOL    HW212732   6.072   2.919   6.928
 3945SOL     OW12733   0.970   1.937   3.311
 3945SOL    HW112734   1.065   1.966   3.321
 3945SOL    HW212735   0.918   2.007   3.262
 3946SOL     OW12736   6.848   3.546   0.396
 3946SOL    HW112737   6.836   3.639   0.360
 3946SOL    HW212738   6.921   3.500   0.346
 3947SOL     OW12739   5.742   6.100   0.563
 3947SOL    HW112740   5.668   6.128   0.503
 3947SOL    HW212741   5.830   6.129   0.525
 3948SOL     OW12742   1.894   2.386   6.557
 3948SOL    HW112743   1.927   2.474   6.590
 3948SOL    HW212744   1.972   2.324   6.542
 3949SOL     OW12745   6.257   6.840   2.620
 3949SOL    HW112746   6.176   6.864   2.568
 3949SOL    HW212747   6.247   6.871   2.715
 3950SOL     OW12748   4.254   4.282   1.605
 3950SOL    HW112749   4.313   4.306   1.528
 3950SOL    HW212750   4.307   4.290   1.690
 3951SOL     OW12751   0.449   2.208   5.598
 3951SOL    HW112752   0.526   2.268   5.575
 3951SOL    HW212753   0.409   2.172   5.514
 3952SOL     OW12754   5.518   2.090   4.863
 3952SOL    HW112755   5.516   2.054   4.956
 3952SOL    HW212756   5.533   2.015   4.798
 3953SOL     OW12757   3.080   3.769   6.103
 3953SOL    HW112758   3.041   3.771   6.011
 3953SOL    HW212759   3.091   3.862   6.137
 3954SOL     OW12760   6.661   3.983   5.510
 3954SOL    HW112761   6.741   3.982   5.452
 3954SOL    HW212762   6.672   3.916   5.584
 3955SOL     OW12763   5.147   6.317   0.040
 3955SOL    HW112764   5.099   6.261   7.001
 3955SOL    HW212765   5.135   6.414   0.017
 3956SOL     OW12766   0.854   2.872   5.931
 3956SOL    HW112767   0.911   2.809   5.984
 3956SOL    HW212768   0.894   2.885   5.840
 3957SOL     OW12769   2.918   0.375   3.926
 3957SOL    HW112770   2.994   0.406   3.868
 3957SOL    HW212771   2.838   0.356   3.869
 3958SOL     OW12772   6.515   6.119   0.019
 3958SOL    HW112773   6.541   6.142   6.952
 3958SOL    HW212774   6.464   6.032   0.019
 3959SOL     OW12775   2.533   5.542   1.110
 3959SOL    HW112776   2.521   5.498   1.199
 3959SOL    HW212777   2.443   5.565   1.072
 3960SOL     OW12778   4.305   2.761   7.001
 3960SOL    HW112779   4.403   2.779   6.989
 3960SOL    HW212780   4.291   2.663   7.011
 3961SOL     OW12781   5.181   1.866   2.086
 3961SOL    HW112782   5.102   1.812   2.115
 3961SOL    HW212783   5.264   1.810   2.090
 3962SOL     OW12784   1.238   6.423   0.312
 3962SOL    HW112785   1.257   6.355   0.241
 3962SOL    HW212786   1.149   6.465   0.294
 3963SOL     OW12787   5.267   5.723   3.525
 3963SOL    HW112788   5.245   5.742   3.429
 3963SOL    HW212789   5.254   5.625   3.543
 3964SOL     OW12790   5.340   6.357   5.312
 3964SOL    HW112791   5.268   6.418   5.279
 3964SOL    HW212792   5.428   6.385   5.272
 3965SOL     OW12793   3.773   5.044   6.850
 3965SOL    HW112794   3.846   5.030   6.783
 3965SOL    HW212795   3.741   5.139   6.845
 3966SOL     OW12796   6.090   4.917   6.247
 3966SOL    HW112797   6.022   4.880   6.184
 3966SOL    HW212798   6.069   5.013   6.266
 3967SOL     OW12799   0.557   5.446   4.649
 3967SOL    HW112800   0.603   5.529   4.680
 3967SOL    HW212801   0.558   5.444   4.549
 3968SOL     OW12802   5.335   0.437   2.929
 3968SOL    HW112803   5.322   0.481   2.840
 3968SOL    HW212804   5.247   0.411   2.967
 3969SOL     OW12805   1.556   5.042   2.818
 3969SOL    HW112806   1.610   4.990   2.884
 3969SOL    HW212807   1.545   5.136   2.850
 3970SOL     OW12808   4.845   4.791   4.063
 3970SOL    HW112809   4.821   4.780   3.966
 3970SOL    HW212810   4.761   4.802   4.116
 3971SOL     OW12811   2.685   5.488   3.422
 3971SOL    HW112812   2.680   5.551   3.500
 3971SOL    HW212813   2.609   5.506   3.359
 3972SOL     OW12814   0.297   6.608   0.618
 3972SOL    HW112815   0.316   6.512   0.637
 3972SOL    HW212816   0.346   6.665   0.684
 3973SOL     OW12817   3.417   3.196   4.745
 3973SOL    HW112818   3.446   3.105   4.716
 3973SOL    HW212819   3.335   3.189   4.802
 3974SOL     OW12820   0.045   1.548   6.050
 3974SOL    HW112821   0.048   1.531   5.951
 3974SOL    HW212822   6.989   1.597   6.073
 3975SOL     OW12823   6.269   0.883   6.237
 3975SOL    HW112824   6.194   0.821   6.215
 3975SOL    HW212825   6.319   0.849   6.317
 3976SOL     OW12826   0.597   4.262   1.215
 3976SOL    HW112827   0.633   4.350   1.244
 3976SOL    HW212828   0.513   4.242   1.266
 3977SOL     OW12829   2.264   6.110   6.052
 3977SOL    HW112830   2.311   6.191   6.089
 3977SOL    HW212831   2.174   6.136   6.019
 3978SOL     OW12832   5.746   1.652   5.857
 3978SOL    HW112833   5.748   1.573   5.796
 3978SOL    HW212834   5.705   1.730   5.810
 3979SOL     OW12835   2.029   0.288   1.722
 3979SOL    HW112836   2.020   0.373   1.671
 3979SOL    HW212837   2.117   0.287   1.771
 3980SOL     OW12838   5.483   3.435   4.538
 3980SOL    HW112839   5.418   3.487   4.593
 3980SOL    HW212840   5.510   3.352   4.586
 3981SOL     OW12841   0.298   2.061   6.494
 3981SOL    HW112842   0.262   2.063   6.401
 3981SOL    HW212843   0.228   2.028   6.557
 3982SOL     OW12844   1.733   0.990   4.565
 3982SOL    HW112845   1.777   1.069   4.606
 3982SOL    HW212846   1.769   0.976   4.473
 3983SOL     OW12847   3.423   0.210   4.838
 3983SOL    HW112848   3.486   0.214   4.761
 3983SOL    HW212849   3.409   0.114   4.864
 3984SOL     OW12850   1.537   6.604   1.919
 3984SOL    HW112851   1.631   6.617   1.949
 3984SOL    HW212852   1.479   6.584   1.999
 3985SOL     OW12853   1.591   4.057   6.969
 3985SOL    HW112854   1.616   3.989   0.011
 3985SOL    HW212855   1.523   4.120   7.008
 3986SOL     OW12856   0.325   2.026   1.636
 3986SOL    HW112857   0.341   2.124   1.625
 3986SOL    HW212858   0.371   1.976   1.563
 3987SOL     OW12859   1.637   5.566   5.584
 3987SOL    HW112860   1.701   5.603   5.651
 3987SOL    HW212861   1.552   5.540   5.631
 3988SOL     OW12862   4.098   1.446   6.451
 3988SOL    HW112863   4.094   1.362   6.396
 3988SOL    HW212864   4.080   1.524   6.392
 3989SOL     OW12865   6.130   6.763   6.556
 3989SOL    HW112866   6.125   6.822   6.475
 3989SOL    HW212867   6.149   6.669   6.528
 3990SOL     OW12868   0.032   2.508   4.698
 3990SOL    HW112869   7.013   2.535   4.782
 3990SOL    HW212870   6.994   2.469   4.634
 3991SOL     OW12871   0.570   2.166   3.415
 3991SOL    HW112872   0.509   2.148   3.493
 3991SOL    HW212873   0.518   2.209   3.341
 3992SOL     OW12874   3.886   3.475   6.567
 3992SOL    HW112875   3.842   3.558   6.599
 3992SOL    HW212876   3.822   3.398   6.573
 3993SOL     OW12877   3.030   2.195   2.514
 3993SOL    HW112878   3.060   2.176   2.420
 3993SOL    HW212879   3.082   2.136   2.577
 3994SOL     OW12880   2.244   2.611   5.059
 3994SOL    HW112881   2.200   2.524   5.083
 3994SOL    HW212882   2.227   2.678   5.132
 3995SOL     OW12883   2.226   4.117   3.235
 3995SOL    HW112884   2.322   4.137   3.255
 3995SOL    HW212885   2.176   4.203   3.224
 3996SOL     OW12886   1.082   1.345   4.222
 3996SOL    HW112887   1.000   1.309   4.267
 3996SOL    HW212888   1.064   1.437   4.188
 3997SOL     OW12889   5.035   3.299   3.103
 3997SOL    HW112890   4.964   3.242   3.144
 3997SOL    HW212891   5.124   3.254   3.114
 3998SOL     OW12892   6.425   1.534   2.240
 3998SOL    HW112893   6.397   1.569   2.150
 3998SOL    HW212894   6.422   1.434   2.238
 3999SOL     OW12895   5.843   4.131   3.551
 3999SOL    HW112896   5.820   4.033   3.547
 3999SOL    HW212897   5.762   4.185   3.526
 4000SOL     OW12898   3.049   6.058   2.711
 4000SOL    HW112899   3.048   6.108   2.625
 4000SOL    HW212900   2.958   6.022   2.730
 4001SOL     OW12901   2.350   3.932   6.395
 4001SOL    HW112902   2.264   3.982   6.388
 4001SOL    HW212903   2.334   3.845   6.442
 4002SOL     OW12904   4.103   3.272   4.721
 4002SOL    HW112905   4.006   3.294   4.731
 4002SOL    HW212906   4.143   3.332   4.652
 4003SOL     OW12907   2.188   0.808   6.229
 4003SOL    HW112908   2.163   0.830   6.323
 4003SOL    HW212909   2.248   0.880   6.193
 4004SOL     OW12910   6.243   3.917   3.544
 4004SOL    HW112911   6.330   3.952   3.507
 4004SOL    HW212912   6.255   3.822   3.573
 4005SOL     OW12913   3.967   4.559   1.084
 4005SOL    HW112914   4.037   4.490   1.064
 4005SOL    HW212915   3.921   4.585   0.999
 4006SOL     OW12916   5.374   4.848   1.997
 4006SOL    HW112917   5.358   4.893   1.909
 4006SOL    HW212918   5.369   4.916   2.070
 4007SOL     OW12919   0.029   2.379   3.737
 4007SOL    HW112920   6.970   2.329   3.730
 4007SOL    HW212921   0.066   2.368   3.830
 4008SOL     OW12922   2.711   6.862   0.338
 4008SOL    HW112923   2.734   6.820   0.250
 4008SOL    HW212924   2.779   6.837   0.406
 4009SOL     OW12925   5.025   1.980   1.248
 4009SOL    HW112926   4.949   1.920   1.223
 4009SOL    HW212927   5.048   2.039   1.171
 4010SOL     OW12928   3.041   3.404   1.603
 4010SOL    HW112929   3.025   3.306   1.595
 4010SOL    HW212930   3.090   3.423   1.688
 4011SOL     OW12931   6.354   6.201   1.821
 4011SOL    HW112932   6.278   6.171   1.878
 4011SOL    HW212933   6.438   6.199   1.874
 4012SOL     OW12934   3.693   6.927   2.609
 4012SOL    HW112935   3.666   6.831   2.613
 4012SOL    HW212936   3.753   6.947   2.687
 4013SOL     OW12937   1.763   0.263   1.428
 4013SOL    HW112938   1.861   0.277   1.413
 4013SOL    HW212939   1.749   0.193   1.498
 4014SOL     OW12940   3.601   6.360   3.975
 4014SOL    HW112941   3.562   6.361   4.068
 4014SOL    HW212942   3.681   6.300   3.973
 4015SOL     OW12943   4.442   4.965   6.211
 4015SOL    HW112944   4.351   5.005   6.198
 4015SOL    HW212945   4.450   4.883   6.155
 4016SOL     OW12946   2.769   5.009   0.294
 4016SOL    HW112947   2.746   5.040   0.386
 4016SOL    HW212948   2.829   4.929   0.299
 4017SOL     OW12949   6.877   4.658   5.111
 4017SOL    HW112950   6.798   4.656   5.049
 4017SOL    HW212951   6.951   4.603   5.072
 4018SOL     OW12952   4.092   6.875   1.691
 4018SOL    HW112953   4.010   6.819   1.707
 4018SOL    HW212954   4.075   6.968   1.726
 4019SOL     OW12955   5.191   3.933   2.505
 4019SOL    HW112956   5.098   3.933   2.542
 4019SOL    HW212957   5.250   3.988   2.563
 4020SOL     OW12958   0.144   3.194   5.414
 4020SOL    HW112959   0.096   3.229   5.494
 4020SOL    HW212960   0.097   3.224   5.331
 4021SOL     OW12961   3.853   4.014   5.410
 4021SOL    HW112962   3.948   3.985   5.424
 4021SOL    HW212963   3.846   4.064   5.324
 4022SOL     OW12964   4.004   6.569   0.369
 4022SOL    HW112965   4.020   6.516   0.452
 4022SOL    HW212966   4.087   6.620   0.346
 4023SOL     OW12967   0.288   1.147   6.156
 4023SOL    HW112968   0.207   1.206   6.161
 4023SOL    HW212969   0.357   1.178   6.221
 4024SOL     OW12970   2.493   4.704   4.566
 4024SOL    HW112971   2.588   4.709   4.599
 4024SOL    HW212972   2.449   4.624   4.605
 4025SOL     OW12973   0.593   6.333   4.596
 4025SOL    HW112974   0.495   6.313   4.606
 4025SOL    HW212975   0.638   6.326   4.685
 4026SOL     OW12976   6.285   6.569   4.211
 4026SOL    HW112977   6.223   6.556   4.288
 4026SOL    HW212978   6.232   6.583   4.128
 4027SOL     OW12979   2.906   2.355   6.917
 4027SOL    HW112980   2.884   2.451   6.934
 4027SOL    HW212981   2.926   2.343   6.819
 4028SOL     OW12982   4.812   1.544   3.538
 4028SOL    HW112983   4.903   1.549   3.580
 4028SOL    HW212984   4.744   1.524   3.609
 4029SOL     OW12985   3.129   3.799   5.792
 4029SOL    HW112986   3.105   3.895   5.789
 4029SOL    HW212987   3.220   3.787   5.751
 4030SOL     OW12988   6.514   0.907   1.955
 4030SOL    HW112989   6.520   0.879   1.860
 4030SOL    HW212990   6.591   0.869   2.007
 4031SOL     OW12991   4.964   5.979   3.216
 4031SOL    HW112992   5.004   6.060   3.172
 4031SOL    HW212993   4.910   6.008   3.295
 4032SOL     OW12994   0.181   6.997   2.566
 4032SOL    HW112995   0.268   6.956   2.594
 4032SOL    HW212996   0.158   6.966   2.474
 4033SOL     OW12997   1.923   2.623   1.988
 4033SOL    HW112998   1.860   2.554   2.022
 4033SOL    HW212999   1.987   2.648   2.061
 4034SOL     OW13000   5.912   1.948   5.255
 4034SOL    HW113001   5.971   1.868   5.243
 4034SOL    HW213002   5.922   2.008   5.176
 4035SOL     OW13003   6.036   1.122   0.875
 4035SOL    HW113004   6.101   1.178   0.927
 4035SOL    HW213005   6.085   1.048   0.829
 4036SOL     OW13006   4.287   4.833   2.215
 4036SOL    HW113007   4.257   4.794   2.128
 4036SOL    HW213008   4.367   4.782   2.248
 4037SOL     OW13009   2.184   1.416   6.604
 4037SOL    HW113010   2.278   1.380   6.598
 4037SOL    HW213011   2.123   1.343   6.635
 4038SOL     OW13012   4.672   3.001   1.089
 4038SOL    HW113013   4.650   2.907   1.117
 4038SOL    HW213014   4.683   3.059   1.169
 4039SOL     OW13015   5.096   5.502   1.730
 4039SOL    HW113016   5.125   5.505   1.634
 4039SOL    HW213017   5.076   5.408   1.756
 4040SOL     OW13018   3.645   0.028   4.929
 4040SOL    HW113019   3.596   0.072   5.005
 4040SOL    HW213020   3.626   6.957   4.931
 4041SOL     OW13021   1.342   4.935   0.865
 4041SOL    HW113022   1.297   5.009   0.915
 4041SOL    HW213023   1.381   4.972   0.780
 4042SOL     OW13024   6.315   6.109   4.314
 4042SOL    HW113025   6.280   6.092   4.222
 4042SOL    HW213026   6.413   6.129   4.309
 4043SOL     OW13027   6.793   2.188   6.251
 4043SOL    HW113028   6.739   2.139   6.182
 4043SOL    HW213029   6.890   2.182   6.227
 4044SOL     OW13030   5.069   6.329   3.520
 4044SOL    HW113031   5.011   6.304   3.442
 4044SOL    HW213032   5.057   6.262   3.593
 4045SOL     OW13033   3.897   5.945   5.971
 4045SOL    HW113034   3.914   5.846   5.973
 4045SOL    HW213035   3.861   5.974   6.059
 4046SOL     OW13036   1.227   1.979   3.426
 4046SOL    HW113037   1.323   2.009   3.425
 4046SOL    HW213038   1.175   2.038   3.487
 4047SOL     OW13039   2.783   1.836   7.007
 4047SOL    HW113040   2.791   1.895   6.926
 4047SOL    HW213041   2.816   1.886   0.059
 4048SOL     OW13042   5.008   1.206   1.543
 4048SOL    HW113043   5.072   1.144   1.589
 4048SOL    HW213044   5.014   1.194   1.444
 4049SOL     OW13045   5.022   4.989   6.489
 4049SOL    HW113046   5.105   5.030   6.528
 4049SOL    HW213047   5.003   4.902   6.535
 4050SOL     OW13048   0.828   6.545   2.340
 4050SOL    HW113049   0.905   6.600   2.306
 4050SOL    HW213050   0.767   6.603   2.393
 4051SOL     OW13051   3.937   1.458   6.716
 4051SOL    HW113052   3.846   1.430   6.685
 4051SOL    HW213053   4.001   1.452   6.640
 4052SOL     OW13054   6.069   1.358   2.937
 4052SOL    HW113055   6.027   1.424   3.000
 4052SOL    HW213056   6.167   1.349   2.959
 4053SOL     OW13057   2.837   6.903   4.518
 4053SOL    HW113058   2.761   6.839   4.532
 4053SOL    HW213059   2.911   6.882   4.582
 4054SOL     OW13060   5.305   4.024   1.220
 4054SOL    HW113061   5.370   4.025   1.144
 4054SOL    HW213062   5.233   4.092   1.203
 4055SOL     OW13063   2.992   3.807   0.545
 4055SOL    HW113064   2.911   3.855   0.579
 4055SOL    HW213065   3.062   3.874   0.522
 4056SOL     OW13066   5.410   4.138   0.630
 4056SOL    HW113067   5.376   4.063   0.687
 4056SOL    HW213068   5.474   4.101   0.562
 4057SOL     OW13069   6.873   2.609   0.646
 4057SOL    HW113070   6.813   2.532   0.624
 4057SOL    HW213071   6.968   2.579   0.644
 4058SOL     OW13072   2.468   6.736   4.965
 4058SOL    HW113073   2.477   6.680   5.047
 4058SOL    HW213074   2.449   6.677   4.886
 4059SOL     OW13075   0.893   1.559   2.404
 4059SOL    HW113076   0.904   1.506   2.320
 4059SOL    HW213077   0.983   1.574   2.445
 4060SOL     OW13078   5.572   5.457   5.333
 4060SOL    HW113079   5.483   5.411   5.329
 4060SOL    HW213080   5.629   5.413   5.403
 4061SOL     OW13081   1.960   4.422   2.236
 4061SOL    HW113082   2.051   4.465   2.238
 4061SOL    HW213083   1.970   4.324   2.256
 4062SOL     OW13084   2.482   0.760   2.021
 4062SOL    HW113085   2.522   0.848   2.048
 4062SOL    HW213086   2.517   0.734   1.931
 4063SOL     OW13087   5.934   6.385   0.306
 4063SOL    HW113088   5.972   6.318   0.369
 4063SOL    HW213089   5.973   6.370   0.215
 4064SOL     OW13090   2.500   0.628   3.877
 4064SOL    HW113091   2.443   0.584   3.807
 4064SOL    HW213092   2.591   0.644   3.839
 4065SOL     OW13093   1.101   6.490   1.480
 4065SOL    HW113094   1.169   6.559   1.456
 4065SOL    HW213095   1.145   6.415   1.529
 4066SOL     OW13096   6.257   4.097   3.081
 4066SOL    HW113097   6.315   4.029   3.036
 4066SOL    HW213098   6.204   4.146   3.011
 4067SOL     OW13099   6.129   3.777   3.057
 4067SOL    HW113100   6.090   3.712   2.991
 4067SOL    HW213101   6.126   3.736   3.149
 4068SOL     OW13102   1.434   1.159   4.881
 4068SOL    HW113103   1.490   1.088   4.922
 4068SOL    HW213104   1.337   1.134   4.887
 4069SOL     OW13105   3.225   5.353   6.907
 4069SOL    HW113106   3.269   5.440   6.887
 4069SOL    HW213107   3.180   5.358   6.996
 4070SOL     OW13108   0.439   2.991   2.776
 4070SOL    HW113109   0.449   3.075   2.829
 4070SOL    HW213110   0.517   2.931   2.794
 4071SOL     OW13111   1.067   1.697   5.563
 4071SOL    HW113112   1.039   1.719   5.469
 4071SOL    HW213113   1.118   1.610   5.563
 4072SOL     OW13114   1.035   5.766   4.729
 4072SOL    HW113115   0.954   5.760   4.671
 4072SOL    HW213116   1.104   5.700   4.698
 4073SOL     OW13117   2.879   6.650   6.546
 4073SOL    HW113118   2.968   6.643   6.501
 4073SOL    HW213119   2.857   6.747   6.559
 4074SOL     OW13120   0.009   4.094   1.375
 4074SOL    HW113121   0.037   4.168   1.436
 4074SOL    HW213122   0.078   4.082   1.303
 4075SOL     OW13123   4.421   1.972   1.438
 4075SOL    HW113124   4.419   1.881   1.480
 4075SOL    HW213125   4.336   2.019   1.459
 4076SOL     OW13126   3.051   2.910   6.119
 4076SOL    HW113127   3.072   3.006   6.102
 4076SOL    HW213128   2.966   2.903   6.171
 4077SOL     OW13129   3.730   1.510   0.016
 4077SOL    HW113130   3.738   1.424   6.994
 4077SOL    HW213131   3.671   1.497   0.096
 4078SOL     OW13132   0.245   5.265   1.235
 4078SOL    HW113133   0.283   5.177   1.263
 4078SOL    HW213134   0.147   5.255   1.216
 4079SOL     OW13135   1.927   0.908   3.568
 4079SOL    HW113136   1.965   0.821   3.535
 4079SOL    HW213137   1.968   0.930   3.657
 4080SOL     OW13138   4.155   4.078   6.099
 4080SOL    HW113139   4.194   4.131   6.175
 4080SOL    HW213140   4.081   4.020   6.133
 4081SOL     OW13141   2.110   3.280   4.329
 4081SOL    HW113142   2.132   3.374   4.356
 4081SOL    HW213143   2.150   3.216   4.394
 4082SOL     OW13144   0.829   3.642   7.021
 4082SOL    HW113145   0.745   3.688   6.990
 4082SOL    HW213146   0.818   3.615   0.089
 4083SOL     OW13147   0.088   3.196   2.203
 4083SOL    HW113148   0.091   3.283   2.154
 4083SOL    HW213149   0.009   3.195   2.264
 4084SOL     OW13150   5.780   1.908   3.676
 4084SOL    HW113151   5.842   1.982   3.700
 4084SOL    HW213152   5.750   1.861   3.759
 4085SOL     OW13153   3.013   5.823   1.740
 4085SOL    HW113154   2.954   5.784   1.811
 4085SOL    HW213155   3.106   5.787   1.750
 4086SOL     OW13156   1.352   5.771   1.903
 4086SOL    HW113157   1.348   5.755   2.002
 4086SOL    HW213158   1.290   5.846   1.879
 4087SOL     OW13159   1.950   1.536   3.462
 4087SOL    HW113160   1.878   1.563   3.526
 4087SOL    HW213161   2.016   1.476   3.509
 4088SOL     OW13162   6.861   1.291   0.151
 4088SOL    HW113163   6.825   1.361   0.090
 4088SOL    HW213164   6.902   1.217   0.096
 4089SOL     OW13165   5.858   6.373   4.195
 4089SOL    HW113166   5.831   6.448   4.255
 4089SOL    HW213167   5.876   6.409   4.104
 4090SOL     OW13168   1.433   4.884   5.999
 4090SOL    HW113169   1.513   4.910   6.054
 4090SOL    HW213170   1.355   4.867   6.058
 4091SOL     OW13171   0.027   6.477   0.160
 4091SOL    HW113172   0.090   6.491   0.237
 4091SOL    HW213173   6.968   6.441   0.195
 4092SOL     OW13174   6.653   2.487   5.972
 4092SOL    HW113175   6.615   2.404   5.930
 4092SOL    HW213176   6.752   2.485   5.965
 4093SOL     OW13177   4.660   0.170   2.856
 4093SOL    HW113178   4.633   0.176   2.952
 4093SOL    HW213179   4.742   0.115   2.847
 4094SOL     OW13180   2.495   5.721   4.441
 4094SOL    HW113181   2.478   5.648   4.507
 4094SOL    HW213182   2.451   5.699   4.354
 4095SOL     OW13183   0.395   3.821   0.489
 4095SOL    HW113184   0.413   3.768   0.572
 4095SOL    HW213185   0.477   3.872   0.463
 4096SOL     OW13186   4.703   6.152   6.129
 4096SOL    HW113187   4.654   6.221   6.075
 4096SOL    HW213188   4.781   6.119   6.076
 4097SOL     OW13189   3.613   4.771   5.447
 4097SOL    HW113190   3.589   4.675   5.433
 4097SOL    HW213191   3.663   4.805   5.367
 4098SOL     OW13192   0.390   2.811   1.651
 4098SOL    HW113193   0.476   2.850   1.618
 4098SOL    HW213194   0.318   2.879   1.647
 4099SOL     OW13195   2.707   4.675   1.614
 4099SOL    HW113196   2.745   4.584   1.630
 4099SOL    HW213197   2.668   4.680   1.522
 4100SOL     OW13198   6.597   5.804   4.446
 4100SOL    HW113199   6.689   5.784   4.478
 4100SOL    HW213200   6.571   5.737   4.376
 4101SOL     OW13201   6.099   0.664   7.006
 4101SOL    HW113202   6.179   0.720   0.001
 4101SOL    HW213203   6.025   0.724   6.974
 4102SOL     OW13204   6.506   0.502   0.747
 4102SOL    HW113205   6.480   0.500   0.651
 4102SOL    HW213206   6.581   0.438   0.764
 4103SOL     OW13207   0.294   0.646   0.482
 4103SOL    HW113208   0.276   0.643   0.384
 4103SOL    HW213209   0.378   0.595   0.502
 4104SOL     OW13210   0.683   4.624   2.729
 4104SOL    HW113211   0.702   4.716   2.692
 4104SOL    HW213212   0.753   4.561   2.696
 4105SOL     OW13213   4.484   6.708   1.612
 4105SOL    HW113214   4.582   6.687   1.603
 4105SOL    HW213215   4.446   6.726   1.522
 4106SOL     OW13216   6.688   2.611   3.516
 4106SOL    HW113217   6.739   2.576   3.438
 4106SOL    HW213218   6.596   2.637   3.486
 4107SOL     OW13219   1.038   5.581   1.439
 4107SOL    HW113220   1.065   5.590   1.343
 4107SOL    HW213221   1.052   5.668   1.486
 4108SOL     OW13222   6.125   4.541   5.349
 4108SOL    HW113223   6.083   4.605   5.285
 4108SOL    HW213224   6.172   4.591   5.421
 4109SOL     OW13225   5.937   0.054   5.198
 4109SOL    HW113226   5.884   6.997   5.189
 4109SOL    HW213227   5.978   0.078   5.110
 4110SOL     OW13228   4.131   3.719   6.145
 4110SOL    HW113229   4.074   3.797   6.118
 4110SOL    HW213230   4.110   3.694   6.240
 4111SOL     OW13231   4.188   3.677   0.023
 4111SOL    HW113232   4.225   3.697   6.959
 4111SOL    HW213233   4.088   3.684   0.020
 4112SOL     OW13234   5.118   6.765   5.014
 4112SOL    HW113235   5.042   6.712   5.052
 4112SOL    HW213236   5.154   6.826   5.084
 4113SOL     OW13237   4.936   6.240   4.306
 4113SOL    HW113238   4.851   6.277   4.345
 4113SOL    HW213239   5.013   6.266   4.364
 4114SOL     OW13240   3.346   2.093   4.360
 4114SOL    HW113241   3.294   2.168   4.321
 4114SOL    HW213242   3.345   2.100   4.460
 4115SOL     OW13243   3.799   4.888   2.528
 4115SOL    HW113244   3.818   4.800   2.485
 4115SOL    HW213245   3.700   4.904   2.528
 4116SOL     OW13246   3.717   1.711   1.966
 4116SOL    HW113247   3.676   1.737   1.879
 4116SOL    HW213248   3.783   1.780   1.994
 4117SOL     OW13249   1.037   4.570   2.150
 4117SOL    HW113250   1.129   4.565   2.189
 4117SOL    HW213251   1.042   4.609   2.058
 4118SOL     OW13252   2.725   6.444   0.775
 4118SOL    HW113253   2.635   6.470   0.810
 4118SOL    HW213254   2.716   6.362   0.718
 4119SOL     OW13255   3.774   2.085   4.092
 4119SOL    HW113256   3.795   2.135   4.176
 4119SOL    HW213257   3.675   2.071   4.085
 4120SOL     OW13258   3.831   0.081   0.386
 4120SOL    HW113259   3.792   0.104   0.297
 4120SOL    HW213260   3.770   0.017   0.434
 4121SOL     OW13261   6.388   0.705   5.144
 4121SOL    HW113262   6.324   0.765   5.097
 4121SOL    HW213263   6.337   0.643   5.204
 4122SOL     OW13264   1.039   5.750   5.283
 4122SOL    HW113265   0.988   5.668   5.257
 4122SOL    HW213266   1.058   5.805   5.202
 4123SOL     OW13267   4.285   4.732   5.873
 4123SOL    HW113268   4.276   4.829   5.896
 4123SOL    HW213269   4.209   4.681   5.913
 4124SOL     OW13270   5.884   5.371   6.615
 4124SOL    HW113271   5.795   5.339   6.582
 4124SOL    HW213272   5.875   5.402   6.710
 4125SOL     OW13273   4.538   1.298   2.549
 4125SOL    HW113274   4.615   1.321   2.489
 4125SOL    HW213275   4.494   1.215   2.518
 4126SOL     OW13276   1.329   3.773   4.340
 4126SOL    HW113277   1.261   3.776   4.267
 4126SOL    HW213278   1.390   3.852   4.332
 4127SOL     OW13279   4.386   5.055   4.832
 4127SOL    HW113280   4.359   5.008   4.748
 4127SOL    HW213281   4.486   5.056   4.838
 4128SOL     OW13282   1.751   2.886   1.790
 4128SOL    HW113283   1.764   2.898   1.691
 4128SOL    HW213284   1.839   2.870   1.833
 4129SOL     OW13285   4.482   1.690   6.421
 4129SOL    HW113286   4.391   1.730   6.407
 4129SOL    HW213287   4.533   1.748   6.485
 4130SOL     OW13288   6.568   2.899   5.668
 4130SOL    HW113289   6.576   2.809   5.625
 4130SOL    HW213290   6.626   2.903   5.749
 4131SOL     OW13291   1.918   0.402   3.114
 4131SOL    HW113292   1.924   0.348   3.030
 4131SOL    HW213293   1.826   0.391   3.153
 4132SOL     OW13294   4.899   4.410   3.824
 4132SOL    HW113295   4.862   4.317   3.826
 4132SOL    HW213296   4.824   4.476   3.821
 4133SOL     OW13297   3.094   6.633   1.180
 4133SOL    HW113298   3.185   6.630   1.221
 4133SOL    HW213299   3.065   6.540   1.156
 4134SOL     OW13300   2.509   3.208   0.291
 4134SOL    HW113301   2.555   3.256   0.216
 4134SOL    HW213302   2.572   3.142   0.332
 4135SOL     OW13303   1.491   1.625   2.882
 4135SOL    HW113304   1.545   1.544   2.902
 4135SOL    HW213305   1.524   1.702   2.938
 4136SOL     OW13306   1.321   2.194   2.725
 4136SOL    HW113307   1.284   2.212   2.633
 4136SOL    HW213308   1.418   2.217   2.726
 4137SOL     OW13309   0.492   4.553   0.899
 4137SOL    HW113310   0.586   4.530   0.874
 4137SOL    HW213311   0.428   4.497   0.846
 4138SOL     OW13312   4.325   5.157   3.315
 4138SOL    HW113313   4.268   5.217   3.372
 4138SOL    HW213314   4.387   5.212   3.260
 4139SOL     OW13315   2.033   2.048   4.879
 4139SOL    HW113316   1.975   2.121   4.914
 4139SOL    HW213317   2.110   2.088   4.828
 4140SOL     OW13318   2.784   1.244   5.406
 4140SOL    HW113319   2.832   1.157   5.395
 4140SOL    HW213320   2.845   1.311   5.448
 4141SOL     OW13321   6.327   6.088   1.557
 4141SOL    HW113322   6.247   6.136   1.520
 4141SOL    HW213323   6.338   6.110   1.654
 4142SOL     OW13324   6.222   5.914   0.759
 4142SOL    HW113325   6.232   5.993   0.819
 4142SOL    HW213326   6.258   5.935   0.669
 4143SOL     OW13327   6.826   3.046   1.113
 4143SOL    HW113328   6.800   3.121   1.173
 4143SOL    HW213329   6.926   3.045   1.102
 4144SOL     OW13330   4.625   4.076   5.772
 4144SOL    HW113331   4.700   4.041   5.827
 4144SOL    HW213332   4.572   3.999   5.735
 4145SOL     OW13333   0.005   6.034   0.994
 4145SOL    HW113334   0.037   6.092   1.069
 4145SOL    HW213335   6.935   6.017   1.005
 4146SOL     OW13336   6.722   0.758   5.420
 4146SOL    HW113337   6.729   0.721   5.327
 4146SOL    HW213338   6.813   0.767   5.459
 4147SOL     OW13339   5.044   3.632   5.759
 4147SOL    HW113340   4.954   3.641   5.801
 4147SOL    HW213341   5.037   3.574   5.678
 4148SOL     OW13342   1.251   0.202   5.228
 4148SOL    HW113343   1.343   0.168   5.248
 4148SOL    HW213344   1.185   0.154   5.286
 4149SOL     OW13345   0.137   2.532   0.338
 4149SOL    HW113346   0.163   2.472   0.414
 4149SOL    HW213347   0.143   2.627   0.368
 4150SOL     OW13348   0.561   0.892   5.880
 4150SOL    HW113349   0.603   0.902   5.790
 4150SOL    HW213350   0.463   0.914   5.874
 4151SOL     OW13351   3.756   5.915   5.723
 4151SOL    HW113352   3.821   5.969   5.776
 4151SOL    HW213353   3.718   5.842   5.780
 4152SOL     OW13354   3.266   6.415   1.593
 4152SOL    HW113355   3.339   6.349   1.610
 4152SOL    HW213356   3.298   6.506   1.618
 4153SOL     OW13357   4.418   4.853   0.069
 4153SOL    HW113358   4.498   4.797   0.093
 4153SOL    HW213359   4.433   4.947   0.100
 4154SOL     OW13360   0.749   4.735   4.469
 4154SOL    HW113361   0.842   4.738   4.432
 4154SOL    HW213362   0.717   4.641   4.470
 4155SOL     OW13363   6.597   1.540   1.963
 4155SOL    HW113364   6.525   1.587   2.014
 4155SOL    HW213365   6.662   1.499   2.027
 4156SOL     OW13366   5.705   5.820   4.746
 4156SOL    HW113367   5.678   5.823   4.650
 4156SOL    HW213368   5.778   5.752   4.758
 4157SOL     OW13369   4.378   6.150   4.680
 4157SOL    HW113370   4.321   6.081   4.725
 4157SOL    HW213371   4.339   6.172   4.590
 4158SOL     OW13372   1.704   4.904   3.057
 4158SOL    HW113373   1.782   4.861   3.011
 4158SOL    HW213374   1.649   4.834   3.102
 4159SOL     OW13375   2.129   3.584   4.419
 4159SOL    HW113376   2.128   3.590   4.519
 4159SOL    HW213377   2.036   3.581   4.384
 4160SOL     OW13378   6.283   0.292   0.663
 4160SOL    HW113379   6.221   0.238   0.605
 4160SOL    HW213380   6.360   0.235   0.691
 4161SOL     OW13381   0.608   0.654   0.031
 4161SOL    HW113382   0.585   0.717   0.106
 4161SOL    HW213383   0.617   0.562   0.068
 4162SOL     OW13384   6.191   6.666   5.642
 4162SOL    HW113385   6.279   6.637   5.604
 4162SOL    HW213386   6.202   6.754   5.689
 4163SOL     OW13387   6.231   6.932   3.631
 4163SOL    HW113388   6.279   6.845   3.628
 4163SOL    HW213389   6.164   6.936   3.557
 4164SOL     OW13390   1.312   6.520   6.764
 4164SOL    HW113391   1.330   6.431   6.721
 4164SOL    HW213392   1.216   6.544   6.752
 4165SOL     OW13393   3.969   0.200   6.925
 4165SOL    HW113394   3.932   0.292   6.915
 4165SOL    HW213395   4.056   0.204   6.974
 4166SOL     OW13396   6.424   3.887   1.114
 4166SOL    HW113397   6.454   3.814   1.176
 4166SOL    HW213398   6.335   3.864   1.075
 4167SOL     OW13399   1.138   3.838   0.935
 4167SOL    HW113400   1.185   3.756   0.967
 4167SOL    HW213401   1.088   3.880   1.011
 4168SOL     OW13402   6.499   5.482   1.092
 4168SOL    HW113403   6.523   5.385   1.079
 4168SOL    HW213404   6.582   5.536   1.102
 4169SOL     OW13405   5.736   4.326   3.831
 4169SOL    HW113406   5.768   4.370   3.915
 4169SOL    HW213407   5.748   4.227   3.838
 4170SOL     OW13408   3.338   4.133   5.138
 4170SOL    HW113409   3.312   4.049   5.091
 4170SOL    HW213410   3.259   4.193   5.146
 4171SOL     OW13411   5.139   5.444   1.466
 4171SOL    HW113412   5.238   5.435   1.483
 4171SOL    HW213413   5.114   5.385   1.389
 4172SOL     OW13414   0.659   1.993   6.257
 4172SOL    HW113415   0.620   2.057   6.322
 4172SOL    HW213416   0.637   2.021   6.163
 4173SOL     OW13417   5.272   3.674   5.216
 4173SOL    HW113418   5.320   3.727   5.286
 4173SOL    HW213419   5.287   3.577   5.233
 4174SOL     OW13420   5.243   0.884   3.540
 4174SOL    HW113421   5.156   0.923   3.512
 4174SOL    HW213422   5.316   0.951   3.529
 4175SOL     OW13423   2.117   6.112   4.764
 4175SOL    HW113424   2.209   6.073   4.768
 4175SOL    HW213425   2.050   6.039   4.776
 4176SOL     OW13426   3.395   6.875   2.116
 4176SOL    HW113427   3.462   6.950   2.118
 4176SOL    HW213428   3.309   6.907   2.154
 4177SOL     OW13429   6.900   4.156   4.770
 4177SOL    HW113430   6.901   4.245   4.817
 4177SOL    HW213431   6.904   4.170   4.672
 4178SOL     OW13432   4.440   1.265   4.284
 4178SOL    HW113433   4.475   1.211   4.208
 4178SOL    HW213434   4.342   1.282   4.271
 4179SOL     OW13435   5.523   2.238   3.283
 4179SOL    HW113436   5.608   2.201   3.246
 4179SOL    HW213437   5.544   2.303   3.356
 4180SOL     OW13438   5.126   3.816   1.763
 4180SOL    HW113439   5.191   3.761   1.711
 4180SOL    HW213440   5.172   3.896   1.801
 4181SOL     OW13441   2.322   1.928   6.875
 4181SOL    HW113442   2.227   1.921   6.842
 4181SOL    HW213443   2.336   1.863   6.950
 4182SOL     OW13444   0.201   6.302   2.871
 4182SOL    HW113445   0.108   6.326   2.841
 4182SOL    HW213446   0.265   6.371   2.837
 4183SOL     OW13447   4.419   0.687   0.458
 4183SOL    HW113448   4.437   0.604   0.404
 4183SOL    HW213449   4.385   0.759   0.397
 4184SOL     OW13450   4.483   5.353   1.283
 4184SOL    HW113451   4.500   5.260   1.251
 4184SOL    HW213452   4.398   5.356   1.334
 4185SOL     OW13453   0.945   6.036   2.329
 4185SOL    HW113454   1.037   6.044   2.289
 4185SOL    HW213455   0.880   6.006   2.259
 4186SOL     OW13456   1.710   5.130   1.277
 4186SOL    HW113457   1.743   5.165   1.365
 4186SOL    HW213458   1.628   5.075   1.292
 4187SOL     OW13459   3.343   3.699   5.634
 4187SOL    HW113460   3.422   3.699   5.695
 4187SOL    HW213461   3.364   3.753   5.552
 4188SOL     OW13462   5.441   0.113   4.058
 4188SOL    HW113463   5.477   0.064   4.137
 4188SOL    HW213464   5.490   0.086   3.975
 4189SOL     OW13465   3.485   0.722   5.003
 4189SOL    HW113466   3.439   0.655   5.062
 4189SOL    HW213467   3.560   0.677   4.954
 4190SOL     OW13468   0.826   0.372   6.741
 4190SOL    HW113469   0.877   0.328   6.815
 4190SOL    HW213470   0.770   0.303   6.695
 4191SOL     OW13471   5.626   3.223   3.129
 4191SOL    HW113472   5.663   3.212   3.221
 4191SOL    HW213473   5.561   3.150   3.110
 4192SOL     OW13474   0.547   0.675   3.957
 4192SOL    HW113475   0.508   0.719   3.877
 4192SOL    HW213476   0.612   0.605   3.928
 4193SOL     OW13477   2.181   6.725   2.536
 4193SOL    HW113478   2.244   6.788   2.492
 4193SOL    HW213479   2.232   6.656   2.588
 4194SOL     OW13480   5.969   1.080   5.493
 4194SOL    HW113481   5.964   0.996   5.546
 4194SOL    HW213482   5.877   1.104   5.460
 4195SOL     OW13483   4.327   0.564   1.797
 4195SOL    HW113484   4.295   0.573   1.891
 4195SOL    HW213485   4.255   0.593   1.734
 4196SOL     OW13486   6.079   2.332   3.489
 4196SOL    HW113487   6.020   2.413   3.484
 4196SOL    HW213488   6.164   2.350   3.440
 4197SOL     OW13489   5.132   5.558   5.420
 4197SOL    HW113490   5.208   5.622   5.429
 4197SOL    HW213491   5.150   5.477   5.477
 4198SOL     OW13492   5.539   3.101   6.621
 4198SOL    HW113493   5.601   3.121   6.697
 4198SOL    HW213494   5.474   3.031   6.649
 4199SOL     OW13495   1.974   4.299   6.446
 4199SOL    HW113496   2.014   4.209   6.427
 4199SOL    HW213497   1.987   4.359   6.367
 4200SOL     OW13498   3.126   6.311   5.039
 4200SOL    HW113499   3.099   6.266   5.124
 4200SOL    HW213500   3.221   6.286   5.016
 4201SOL     OW13501   6.164   6.060   3.544
 4201SOL    HW113502   6.248   6.110   3.520
 4201SOL    HW213503   6.186   5.983   3.603
 4202SOL     OW13504   4.094   5.604   5.788
 4202SOL    HW113505   4.063   5.632   5.879
 4202SOL    HW213506   4.016   5.601   5.725
 4203SOL     OW13507   4.682   5.540   1.355
 4203SOL    HW113508   4.681   5.609   1.283
 4203SOL    HW213509   4.611   5.473   1.338
 4204SOL     OW13510   3.701   3.097   2.287
 4204SOL    HW113511   3.789   3.067   2.324
 4204SOL    HW213512   3.631   3.029   2.311
 4205SOL     OW13513   3.844   5.059   4.286
 4205SOL    HW113514   3.751   5.025   4.269
 4205SOL    HW213515   3.883   5.012   4.365
 4206SOL     OW13516   5.934   0.874   5.670
 4206SOL    HW113517   5.943   0.778   5.643
 4206SOL    HW213518   6.006   0.896   5.736
 4207SOL     OW13519   2.380   1.752   1.569
 4207SOL    HW113520   2.303   1.724   1.625
 4207SOL    HW213521   2.352   1.825   1.506
 4208SOL     OW13522   1.656   2.871   6.643
 4208SOL    HW113523   1.654   2.784   6.593
 4208SOL    HW213524   1.659   2.947   6.578
 4209SOL     OW13525   0.715   1.701   5.416
 4209SOL    HW113526   0.687   1.705   5.512
 4209SOL    HW213527   0.809   1.733   5.407
 4210SOL     OW13528   2.944   3.678   2.211
 4210SOL    HW113529   3.005   3.741   2.163
 4210SOL    HW213530   2.924   3.599   2.152
 4211SOL     OW13531   3.404   5.902   5.040
 4211SOL    HW113532   3.492   5.897   4.993
 4211SOL    HW213533   3.385   5.997   5.064
 4212SOL     OW13534   6.186   2.540   2.413
 4212SOL    HW113535   6.144   2.625   2.380
 4212SOL    HW213536   6.161   2.526   2.509
 4213SOL     OW13537   2.953   1.171   2.842
 4213SOL    HW113538   2.923   1.266   2.851
 4213SOL    HW213539   2.893   1.122   2.778
 4214SOL     OW13540   0.823   4.314   6.074
 4214SOL    HW113541   0.862   4.378   6.140
 4214SOL    HW213542   0.726   4.301   6.094
 4215SOL     OW13543   6.413   5.967   4.561
 4215SOL    HW113544   6.330   5.993   4.512
 4215SOL    HW213545   6.473   5.916   4.499
 4216SOL     OW13546   1.819   1.849   3.051
 4216SOL    HW113547   1.852   1.900   3.130
 4216SOL    HW213548   1.863   1.759   3.048
 4217SOL     OW13549   6.432   0.317   2.306
 4217SOL    HW113550   6.398   0.231   2.344
 4217SOL    HW213551   6.470   0.373   2.379
 4218SOL     OW13552   4.652   0.021   1.197
 4218SOL    HW113553   4.625   6.956   1.225
 4218SOL    HW213554   4.741   0.017   1.151
 4219SOL     OW13555   2.698   5.011   4.566
 4219SOL    HW113556   2.612   4.983   4.609
 4219SOL    HW213557   2.737   5.088   4.616
 4220SOL     OW13558   6.201   2.781   2.883
 4220SOL    HW113559   6.273   2.837   2.925
 4220SOL    HW213560   6.161   2.721   2.952
 4221SOL     OW13561   6.129   5.587   6.259
 4221SOL    HW113562   6.119   5.503   6.312
 4221SOL    HW213563   6.094   5.664   6.311
 4222SOL     OW13564   6.567   2.213   2.581
 4222SOL    HW113565   6.595   2.133   2.528
 4222SOL    HW213566   6.554   2.291   2.520
 4223SOL     OW13567   2.872   3.605   4.605
 4223SOL    HW113568   2.881   3.527   4.666
 4223SOL    HW213569   2.850   3.573   4.512
 4224SOL     OW13570   4.958   3.191   3.652
 4224SOL    HW113571   5.020   3.131   3.704
 4224SOL    HW213572   4.894   3.135   3.599
 4225SOL     OW13573   4.754   0.169   5.401
 4225SOL    HW113574   4.712   0.227   5.470
 4225SOL    HW213575   4.813   0.225   5.342
 4226SOL     OW13576   0.829   0.740   3.347
 4226SOL    HW113577   0.749   0.704   3.299
 4226SOL    HW213578   0.803   0.823   3.396
 4227SOL     OW13579   3.336   4.943   6.876
 4227SOL    HW113580   3.268   4.904   6.815
 4227SOL    HW213581   3.365   5.033   6.842
 4228SOL     OW13582   6.814   3.306   3.131
 4228SOL    HW113583   6.768   3.360   3.060
 4228SOL    HW213584   6.839   3.217   3.094
 4229SOL     OW13585   4.812   4.808   5.513
 4229SOL    HW113586   4.735   4.760   5.555
 4229SOL    HW213587   4.777   4.879   5.451
 4230SOL     OW13588   2.155   0.794   4.769
 4230SOL    HW113589   2.187   0.883   4.736
 4230SOL    HW213590   2.069   0.806   4.819
 4231SOL     OW13591   5.476   6.256   4.625
 4231SOL    HW113592   5.554   6.194   4.627
 4231SOL    HW213593   5.465   6.298   4.715
 4232SOL     OW13594   0.189   4.756   1.956
 4232SOL    HW113595   0.219   4.675   2.006
 4232SOL    HW213596   0.159   4.827   2.021
 4233SOL     OW13597   6.750   0.232   6.668
 4233SOL    HW113598   6.770   0.171   6.745
 4233SOL    HW213599   6.710   0.317   6.702
 4234SOL     OW13600   1.264   0.382   5.970
 4234SOL    HW113601   1.255   0.393   5.871
 4234SOL    HW213602   1.199   0.313   6.003
 4235SOL     OW13603   6.347   3.579   5.512
 4235SOL    HW113604   6.360   3.671   5.475
 4235SOL    HW213605   6.430   3.551   5.560
 4236SOL     OW13606   0.394   3.184   3.154
 4236SOL    HW113607   0.348   3.273   3.160
 4236SOL    HW213608   0.341   3.116   3.204
 4237SOL     OW13609   6.506   4.836   4.053
 4237SOL    HW113610   6.445   4.884   4.116
 4237SOL    HW213611   6.515   4.887   3.968
 4238SOL     OW13612   4.788   4.675   3.805
 4238SOL    HW113613   4.845   4.744   3.761
 4238SOL    HW213614   4.692   4.697   3.791
 4239SOL     OW13615   6.051   0.605   3.479
 4239SOL    HW113616   6.096   0.519   3.503
 4239SOL    HW213617   6.067   0.625   3.382
 4240SOL     OW13618   2.124   6.723   6.842
 4240SOL    HW113619   2.130   6.810   6.794
 4240SOL    HW213620   2.214   6.698   6.878
 4241SOL     OW13621   4.953   1.229   1.035
 4241SOL    HW113622   4.859   1.259   1.051
 4241SOL    HW213623   4.975   1.238   0.938
 4242SOL     OW13624   1.717   0.700   2.864
 4242SOL    HW113625   1.806   0.658   2.849
 4242SOL    HW213626   1.661   0.639   2.921
 4243SOL     OW13627   0.787   3.716   3.189
 4243SOL    HW113628   0.821   3.622   3.177
 4243SOL    HW213629   0.687   3.716   3.183
 4244SOL     OW13630   4.749   5.217   0.810
 4244SOL    HW113631   4.649   5.215   0.813
 4244SOL    HW213632   4.780   5.301   0.768
 4245SOL     OW13633   0.100   1.433   6.968
 4245SOL    HW113634   0.003   1.412   6.964
 4245SOL    HW213635   0.138   1.433   6.876
 4246SOL     OW13636   5.988   2.588   3.447
 4246SOL    HW113637   5.891   2.607   3.456
 4246SOL    HW213638   6.022   2.627   3.361
 4247SOL     OW13639   2.252   5.340   4.225
 4247SOL    HW113640   2.180   5.373   4.164
 4247SOL    HW213641   2.211   5.303   4.309
 4248SOL     OW13642   1.176   1.179   3.641
 4248SOL    HW113643   1.178   1.274   3.669
 4248SOL    HW213644   1.230   1.124   3.705
 4249SOL     OW13645   6.560   1.254   3.412
 4249SOL    HW113646   6.470   1.214   3.429
 4249SOL    HW213647   6.573   1.334   3.472
 4250SOL     OW13648   7.000   6.028   3.761
 4250SOL    HW113649   0.042   6.043   3.692
 4250SOL    HW213650   0.007   5.965   3.831
 4251SOL     OW13651   6.819   2.966   0.304
 4251SOL    HW113652   6.803   2.963   0.403
 4251SOL    HW213653   6.899   2.910   0.282
 4252SOL     OW13654   5.577   6.219   6.178
 4252SOL    HW113655   5.541   6.271   6.101
 4252SOL    HW213656   5.637   6.147   6.144
 4253SOL     OW13657   3.884   5.751   2.135
 4253SOL    HW113658   3.859   5.656   2.154
 4253SOL    HW213659   3.804   5.809   2.147
 4254SOL     OW13660   2.020   4.425   1.861
 4254SOL    HW113661   2.075   4.387   1.787
 4254SOL    HW213662   2.077   4.438   1.942
 4255SOL     OW13663   0.340   3.960   3.783
 4255SOL    HW113664   0.241   3.945   3.778
 4255SOL    HW213665   0.383   3.880   3.825
 4256SOL     OW13666   1.165   5.954   1.827
 4256SOL    HW113667   1.172   6.053   1.838
 4256SOL    HW213668   1.105   5.916   1.898
 4257SOL     OW13669   5.516   1.204   4.272
 4257SOL    HW113670   5.459   1.132   4.312
 4257SOL    HW213671   5.478   1.293   4.296
 4258SOL     OW13672   3.218   5.978   1.327
 4258SOL    HW113673   3.131   5.982   1.279
 4258SOL    HW213674   3.264   5.891   1.306
 4259SOL     OW13675   1.734   6.063   1.006
 4259SOL    HW113676   1.796   5.985   1.011
 4259SOL    HW213677   1.658   6.049   1.069
 4260SOL     OW13678   5.479   6.752   3.635
 4260SOL    HW113679   5.400   6.804   3.605
 4260SOL    HW213680   5.539   6.810   3.690
 4261SOL     OW13681   1.812   1.003   2.690
 4261SOL    HW113682   1.715   1.024   2.695
 4261SOL    HW213683   1.826   0.921   2.634
 4262SOL     OW13684   1.405   4.192   6.030
 4262SOL    HW113685   1.316   4.149   6.016
 4262SOL    HW213686   1.396   4.291   6.027
 4263SOL     OW13687   2.389   1.050   3.199
 4263SOL    HW113688   2.458   1.120   3.180
 4263SOL    HW213689   2.422   0.991   3.273
 4264SOL     OW13690   6.264   1.758   4.210
 4264SOL    HW113691   6.351   1.777   4.256
 4264SOL    HW213692   6.254   1.659   4.197
 4265SOL     OW13693   3.927   0.920   0.627
 4265SOL    HW113694   4.022   0.908   0.598
 4265SOL    HW213695   3.914   0.875   0.715
 4266SOL     OW13696   1.284   6.665   0.000
 4266SOL    HW113697   1.261   6.687   0.095
 4266SOL    HW213698   1.265   6.568   7.011
 4267SOL     OW13699   1.897   3.529   3.785
 4267SOL    HW113700   1.907   3.436   3.821
 4267SOL    HW213701   1.802   3.545   3.758
 4268SOL     OW13702   2.159   5.537   6.966
 4268SOL    HW113703   2.077   5.480   6.961
 4268SOL    HW213704   2.228   5.501   6.903
 4269SOL     OW13705   2.896   1.198   3.864
 4269SOL    HW113706   2.887   1.221   3.767
 4269SOL    HW213707   2.840   1.261   3.918
 4270SOL     OW13708   3.154   2.926   2.023
 4270SOL    HW113709   3.203   2.839   2.025
 4270SOL    HW213710   3.103   2.938   2.107
 4271SOL     OW13711   6.968   0.827   6.874
 4271SOL    HW113712   6.986   0.783   6.962
 4271SOL    HW213713   6.875   0.865   6.874
 4272SOL     OW13714   6.712   3.222   5.368
 4272SOL    HW113715   6.784   3.205   5.435
 4272SOL    HW213716   6.726   3.311   5.326
 4273SOL     OW13717   4.847   5.999   5.219
 4273SOL    HW113718   4.893   5.911   5.229
 4273SOL    HW213719   4.882   6.046   5.138
 4274SOL     OW13720   1.053   0.289   1.688
 4274SOL    HW113721   0.961   0.288   1.728
 4274SOL    HW213722   1.080   0.195   1.665
 4275SOL     OW13723   0.489   1.781   4.428
 4275SOL    HW113724   0.490   1.718   4.350
 4275SOL    HW213725   0.539   1.864   4.402
 4276SOL     OW13726   2.997   5.335   3.911
 4276SOL    HW113727   2.932   5.263   3.886
 4276SOL    HW213728   2.947   5.414   3.947
 4277SOL     OW13729   6.924   4.145   2.510
 4277SOL    HW113730   6.915   4.119   2.606
 4277SOL    HW213731   6.884   4.235   2.496
 4278SOL     OW13732   0.816   6.969   3.678
 4278SOL    HW113733   0.717   6.956   3.687
 4278SOL    HW213734   0.848   6.924   3.594
 4279SOL     OW13735   1.023   1.170   2.232
 4279SOL    HW113736   1.109   1.150   2.185
 4279SOL    HW213737   1.032   1.148   2.329
 4280SOL     OW13738   6.211   6.920   5.728
 4280SOL    HW113739   6.309   6.901   5.717
 4280SOL    HW213740   6.190   6.930   5.826
 4281SOL     OW13741   5.188   4.905   3.407
 4281SOL    HW113742   5.171   4.863   3.497
 4281SOL    HW213743   5.213   5.001   3.419
 4282SOL     OW13744   2.839   4.899   1.167
 4282SOL    HW113745   2.861   4.802   1.163
 4282SOL    HW213746   2.903   4.946   1.227
 4283SOL     OW13747   4.124   1.006   3.574
 4283SOL    HW113748   4.034   0.985   3.611
 4283SOL    HW213749   4.182   0.925   3.580
 4284SOL     OW13750   4.582   5.440   0.391
 4284SOL    HW113751   4.543   5.500   0.461
 4284SOL    HW213752   4.528   5.447   0.307
 4285SOL     OW13753   2.517   0.999   6.127
 4285SOL    HW113754   2.469   1.077   6.168
 4285SOL    HW213755   2.500   0.997   6.029
 4286SOL     OW13756   5.897   0.073   6.292
 4286SOL    HW113757   5.966   0.127   6.244
 4286SOL    HW213758   5.827   0.042   6.228
 4287SOL     OW13759   5.123   1.258   5.761
 4287SOL    HW113760   5.039   1.209   5.783
 4287SOL    HW213761   5.100   1.350   5.729
 4288SOL     OW13762   0.417   5.710   3.038
 4288SOL    HW113763   0.361   5.660   3.104
 4288SOL    HW213764   0.419   5.807   3.063
 4289SOL     OW13765   1.435   2.624   6.490
 4289SOL    HW113766   1.525   2.585   6.505
 4289SOL    HW213767   1.366   2.570   6.539
 4290SOL     OW13768   0.290   6.740   4.904
 4290SOL    HW113769   0.306   6.705   4.812
 4290SOL    HW213770   0.320   6.673   4.971
 4291SOL     OW13771   5.111   3.866   6.160
 4291SOL    HW113772   5.064   3.954   6.148
 4291SOL    HW213773   5.177   3.853   6.086
 4292SOL     OW13774   6.196   3.158   0.077
 4292SOL    HW113775   6.097   3.170   0.083
 4292SOL    HW213776   6.217   3.088   0.008
 4293SOL     OW13777   3.629   4.223   6.678
 4293SOL    HW113778   3.589   4.158   6.613
 4293SOL    HW213779   3.596   4.315   6.658
 4294SOL     OW13780   2.109   1.637   6.249
 4294SOL    HW113781   2.035   1.656   6.313
 4294SOL    HW213782   2.169   1.716   6.243
 4295SOL     OW13783   4.552   6.410   3.196
 4295SOL    HW113784   4.475   6.463   3.160
 4295SOL    HW213785   4.576   6.445   3.287
 4296SOL     OW13786   3.426   6.869   0.490
 4296SOL    HW113787   3.375   6.807   0.431
 4296SOL    HW213788   3.487   6.926   0.435
 4297SOL     OW13789   6.656   6.750   2.283
 4297SOL    HW113790   6.614   6.836   2.311
 4297SOL    HW213791   6.623   6.726   2.191
 4298SOL     OW13792   3.280   6.134   2.107
 4298SOL    HW113793   3.308   6.049   2.152
 4298SOL    HW213794   3.320   6.139   2.016
 4299SOL     OW13795   0.855   3.001   6.797
 4299SOL    HW113796   0.870   3.086   6.747
 4299SOL    HW213797   0.915   2.999   6.878
 4300SOL     OW13798   2.911   6.802   0.526
 4300SOL    HW113799   2.905   6.788   0.625
 4300SOL    HW213800   2.937   6.716   0.481
 4301SOL     OW13801   4.227   0.316   1.716
 4301SOL    HW113802   4.249   0.394   1.775
 4301SOL    HW213803   4.309   0.288   1.666
 4302SOL     OW13804   6.257   0.130   6.593
 4302SOL    HW113805   6.191   0.148   6.520
 4302SOL    HW213806   6.276   0.215   6.642
 4303SOL     OW13807   0.189   4.980   3.854
 4303SOL    HW113808   0.264   4.915   3.868
 4303SOL    HW213809   0.213   5.042   3.780
 4304SOL     OW13810   3.556   3.707   2.031
 4304SOL    HW113811   3.635   3.750   1.986
 4304SOL    HW213812   3.577   3.611   2.049
 4305SOL     OW13813   0.386   6.506   5.837
 4305SOL    HW113814   0.290   6.514   5.814
 4305SOL    HW213815   0.419   6.593   5.874
 4306SOL     OW13816   4.956   5.193   4.454
 4306SOL    HW113817   5.002   5.112   4.489
 4306SOL    HW213818   5.002   5.225   4.371
 4307SOL     OW13819   5.615   3.598   5.212
 4307SOL    HW113820   5.712   3.599   5.189
 4307SOL    HW213821   5.600   3.651   5.295
 4308SOL     OW13822   5.553   5.231   1.474
 4308SOL    HW113823   5.455   5.225   1.494
 4308SOL    HW213824   5.605   5.201   1.554
 4309SOL     OW13825   1.335   2.412   0.204
 4309SOL    HW113826   1.411   2.415   0.138
 4309SOL    HW213827   1.303   2.318   0.213
 4310SOL     OW13828   1.492   2.867   1.872
 4310SOL    HW113829   1.586   2.874   1.838
 4310SOL    HW213830   1.432   2.839   1.797
 4311SOL     OW13831   1.133   6.486   2.175
 4311SOL    HW113832   1.050   6.464   2.125
 4311SOL    HW213833   1.136   6.433   2.260
 4312SOL     OW13834   1.709   5.701   2.947
 4312SOL    HW113835   1.775   5.634   2.912
 4312SOL    HW213836   1.645   5.656   3.008
 4313SOL     OW13837   3.910   2.085   0.452
 4313SOL    HW113838   3.850   2.045   0.383
 4313SOL    HW213839   3.855   2.110   0.532
 4314SOL     OW13840   6.091   1.742   5.044
 4314SOL    HW113841   6.142   1.792   5.114
 4314SOL    HW213842   6.108   1.783   4.955
 4315SOL     OW13843   1.840   1.087   3.109
 4315SOL    HW113844   1.890   1.031   3.176
 4315SOL    HW213845   1.904   1.123   3.041
 4316SOL     OW13846   5.339   0.148   2.233
 4316SOL    HW113847   5.271   0.098   2.287
 4316SOL    HW213848   5.366   0.230   2.282
 4317SOL     OW13849   5.063   1.735   5.413
 4317SOL    HW113850   4.975   1.704   5.377
 4317SOL    HW213851   5.084   1.685   5.496
 4318SOL     OW13852   0.787   1.304   4.629
 4318SOL    HW113853   0.727   1.289   4.707
 4318SOL    HW213854   0.874   1.257   4.644
 4319SOL     OW13855   1.947   1.761   1.348
 4319SOL    HW113856   1.947   1.798   1.441
 4319SOL    HW213857   1.901   1.826   1.287
 4320SOL     OW13858   3.634   6.040   1.282
 4320SOL    HW113859   3.712   6.078   1.234
 4320SOL    HW213860   3.574   5.993   1.217
 4321SOL     OW13861   6.878   5.051   3.454
 4321SOL    HW113862   6.903   5.038   3.549
 4321SOL    HW213863   6.785   5.016   3.439
 4322SOL     OW13864   6.527   3.015   6.130
 4322SOL    HW113865   6.517   3.114   6.138
 4322SOL    HW213866   6.600   2.994   6.065
 4323SOL     OW13867   4.705   5.033   0.375
 4323SOL    HW113868   4.676   5.005   0.467
 4323SOL    HW213869   4.758   5.117   0.381
 4324SOL     OW13870   6.496   4.208   5.515
 4324SOL    HW113871   6.563   4.139   5.543
 4324SOL    HW213872   6.448   4.242   5.596
 4325SOL     OW13873   2.754   1.673   2.234
 4325SOL    HW113874   2.774   1.764   2.272
 4325SOL    HW213875   2.662   1.673   2.195
 4326SOL     OW13876   5.647   3.916   1.999
 4326SOL    HW113877   5.654   3.951   1.905
 4326SOL    HW213878   5.551   3.897   2.020
 4327SOL     OW13879   4.127   6.210   3.005
 4327SOL    HW113880   4.129   6.110   2.996
 4327SOL    HW213881   4.068   6.248   2.935
 4328SOL     OW13882   5.775   4.380   4.921
 4328SOL    HW113883   5.739   4.363   4.829
 4328SOL    HW213884   5.867   4.419   4.914
 4329SOL     OW13885   6.203   3.219   5.740
 4329SOL    HW113886   6.282   3.231   5.799
 4329SOL    HW213887   6.144   3.300   5.746
 4330SOL     OW13888   2.228   6.886   3.983
 4330SOL    HW113889   2.155   6.823   3.960
 4330SOL    HW213890   2.227   6.905   4.081
 4331SOL     OW13891   6.536   0.236   1.370
 4331SOL    HW113892   6.635   0.242   1.364
 4331SOL    HW213893   6.500   0.317   1.417
 4332SOL     OW13894   6.854   3.023   3.104
 4332SOL    HW113895   6.928   2.995   3.164
 4332SOL    HW213896   6.876   2.997   3.010
 4333SOL     OW13897   4.097   2.028   4.922
 4333SOL    HW113898   4.101   2.000   4.826
 4333SOL    HW213899   4.031   1.971   4.971
 4334SOL     OW13900   1.747   2.875   2.501
 4334SOL    HW113901   1.782   2.967   2.519
 4334SOL    HW213902   1.749   2.857   2.402
 4335SOL     OW13903   3.857   2.769   1.817
 4335SOL    HW113904   3.896   2.809   1.734
 4335SOL    HW213905   3.885   2.822   1.896
 4336SOL     OW13906   2.264   5.066   5.809
 4336SOL    HW113907   2.260   4.966   5.806
 4336SOL    HW213908   2.355   5.097   5.782
 4337SOL     OW13909   1.895   5.185   1.522
 4337SOL    HW113910   1.945   5.257   1.571
 4337SOL    HW213911   1.918   5.096   1.560
 4338SOL     OW13912   6.121   0.365   6.453
 4338SOL    HW113913   6.170   0.446   6.422
 4338SOL    HW213914   6.039   0.393   6.503
 4339SOL     OW13915   3.458   2.480   6.190
 4339SOL    HW113916   3.410   2.490   6.103
 4339SOL    HW213917   3.428   2.552   6.253
 4340SOL     OW13918   5.685   3.187   1.200
 4340SOL    HW113919   5.706   3.214   1.106
 4340SOL    HW213920   5.737   3.105   1.223
 4341SOL     OW13921   1.080   5.309   1.786
 4341SOL    HW113922   1.025   5.225   1.785
 4341SOL    HW213923   1.058   5.362   1.868
 4342SOL     OW13924   5.294   3.262   3.100
 4342SOL    HW113925   5.294   3.360   3.080
 4342SOL    HW213926   5.335   3.213   3.023
 4343SOL     OW13927   2.919   6.209   5.451
 4343SOL    HW113928   3.017   6.204   5.433
 4343SOL    HW213929   2.883   6.117   5.464
 4344SOL     OW13930   1.209   2.771   3.200
 4344SOL    HW113931   1.213   2.823   3.285
 4344SOL    HW213932   1.130   2.711   3.201
 4345SOL     OW13933   2.898   3.552   4.301
 4345SOL    HW113934   2.911   3.586   4.209
 4345SOL    HW213935   2.925   3.455   4.305
 4346SOL     OW13936   2.231   2.959   2.456
 4346SOL    HW113937   2.183   2.872   2.441
 4346SOL    HW213938   2.317   2.960   2.405
 4347SOL     OW13939   6.225   6.481   2.666
 4347SOL    HW113940   6.277   6.522   2.591
 4347SOL    HW213941   6.228   6.541   2.746
 4348SOL     OW13942   0.602   6.055   4.546
 4348SOL    HW113943   0.575   6.144   4.510
 4348SOL    HW213944   0.698   6.037   4.525
 4349SOL     OW13945   6.880   3.456   4.080
 4349SOL    HW113946   6.970   3.433   4.117
 4349SOL    HW213947   6.818   3.378   4.091
 4350SOL     OW13948   5.264   2.416   3.783
 4350SOL    HW113949   5.254   2.382   3.877
 4350SOL    HW213950   5.279   2.339   3.722
 4351SOL     OW13951   0.983   5.989   1.356
 4351SOL    HW113952   1.062   5.949   1.309
 4351SOL    HW213953   0.979   6.087   1.337
 4352SOL     OW13954   6.260   3.995   1.906
 4352SOL    HW113955   6.344   4.049   1.893
 4352SOL    HW213956   6.256   3.962   2.000
 4353SOL     OW13957   3.378   3.600   0.011
 4353SOL    HW113958   3.378   3.675   6.972
 4353SOL    HW213959   3.350   3.635   0.100
 4354SOL     OW13960   0.598   1.589   5.997
 4354SOL    HW113961   0.535   1.658   5.960
 4354SOL    HW213962   0.690   1.628   6.002
 4355SOL     OW13963   1.739   7.012   2.935
 4355SOL    HW113964   1.718   6.964   3.020
 4355SOL    HW213965   1.801   6.956   2.880
 4356SOL     OW13966   4.494   3.552   5.306
 4356SOL    HW113967   4.522   3.553   5.402
 4356SOL    HW213968   4.552   3.614   5.254
 4357SOL     OW13969   0.129   1.520   1.337
 4357SOL    HW113970   0.075   1.594   1.296
 4357SOL    HW213971   0.079   1.434   1.330
 4358SOL     OW13972   6.889   6.937   0.012
 4358SOL    HW113973   6.939   6.861   0.053
 4358SOL    HW213974   6.817   6.968   0.075
 4359SOL     OW13975   1.728   1.051   6.630
 4359SOL    HW113976   1.640   1.007   6.647
 4359SOL    HW213977   1.760   1.028   6.538
 4360SOL     OW13978   0.806   2.683   4.112
 4360SOL    HW113979   0.902   2.693   4.086
 4360SOL    HW213980   0.752   2.755   4.068
 4361SOL     OW13981   2.147   3.489   1.266
 4361SOL    HW113982   2.141   3.391   1.246
 4361SOL    HW213983   2.231   3.526   1.225
 4362SOL     OW13984   0.324   6.018   3.906
 4362SOL    HW113985   0.332   6.117   3.892
 4362SOL    HW213986   0.380   5.970   3.838
 4363SOL     OW13987   4.598   1.004   2.031
 4363SOL    HW113988   4.594   1.092   1.984
 4363SOL    HW213989   4.555   0.934   1.975
 4364SOL     OW13990   3.105   3.991   3.039
 4364SOL    HW113991   3.128   4.022   3.131
 4364SOL    HW213992   3.135   3.896   3.028
 4365SOL     OW13993   3.190   1.020   1.898
 4365SOL    HW113994   3.102   0.972   1.893
 4365SOL    HW213995   3.259   0.958   1.935
 4366SOL     OW13996   5.936   6.370   6.366
 4366SOL    HW113997   5.846   6.391   6.327
 4366SOL    HW213998   5.942   6.409   6.458
 4367SOL     OW13999   2.983   4.827   3.484
 4367SOL    HW114000   2.889   4.792   3.489
 4367SOL    HW214001   3.031   4.805   3.569
 4368SOL     OW14002   3.939   5.604   2.518
 4368SOL    HW114003   3.930   5.582   2.421
 4368SOL    HW214004   3.967   5.522   2.568
 4369SOL     OW14005   5.247   5.531   3.221
 4369SOL    HW114006   5.244   5.455   3.157
 4369SOL    HW214007   5.207   5.503   3.309
 4370SOL     OW14008   3.683   4.018   1.456
 4370SOL    HW114009   3.694   3.924   1.424
 4370SOL    HW214010   3.674   4.018   1.555
 4371SOL     OW14011   2.151   1.617   3.015
 4371SOL    HW114012   2.198   1.675   2.948
 4371SOL    HW214013   2.205   1.535   3.033
 4372SOL     OW14014   2.190   3.223   3.782
 4372SOL    HW114015   2.226   3.228   3.875
 4372SOL    HW214016   2.094   3.249   3.782
 4373SOL     OW14017   4.202   1.054   6.377
 4373SOL    HW114018   4.215   0.957   6.359
 4373SOL    HW214019   4.153   1.065   6.464
 4374SOL     OW14020   1.846   1.487   1.355
 4374SOL    HW114021   1.882   1.581   1.352
 4374SOL    HW214022   1.916   1.426   1.392
 4375SOL     OW14023   3.842   6.346   3.191
 4375SOL    HW114024   3.914   6.406   3.227
 4375SOL    HW214025   3.758   6.398   3.177
 4376SOL     OW14026   6.833   0.064   1.831
 4376SOL    HW114027   6.842   0.021   1.920
 4376SOL    HW214028   6.910   0.125   1.814
 4377SOL     OW14029   6.262   5.417   0.286
 4377SOL    HW114030   6.182   5.454   0.332
 4377SOL    HW214031   6.332   5.394   0.354
 4378SOL     OW14032   1.133   4.471   2.572
 4378SOL    HW114033   1.067   4.421   2.516
 4378SOL    HW214034   1.085   4.537   2.629
 4379SOL     OW14035   2.232   0.724   2.039
 4379SOL    HW114036   2.219   0.672   1.954
 4379SOL    HW214037   2.329   0.747   2.049
 4380SOL     OW14038   1.804   6.025   4.684
 4380SOL    HW114039   1.720   6.037   4.737
 4380SOL    HW214040   1.863   5.960   4.731
 4381SOL     OW14041   2.313   4.314   5.046
 4381SOL    HW114042   2.294   4.217   5.028
 4381SOL    HW214043   2.349   4.323   5.139
 4382SOL     OW14044   6.240   4.219   6.248
 4382SOL    HW114045   6.234   4.181   6.155
 4382SOL    HW214046   6.241   4.319   6.243
 4383SOL     OW14047   0.587   2.426   5.488
 4383SOL    HW114048   0.528   2.407   5.409
 4383SOL    HW214049   0.571   2.520   5.519
 4384SOL     OW14050   5.134   1.326   0.011
 4384SOL    HW114051   5.093   1.386   0.080
 4384SOL    HW214052   5.069   1.314   6.963
 4385SOL     OW14053   6.903   3.018   4.183
 4385SOL    HW114054   6.878   3.084   4.112
 4385SOL    HW214055   6.906   2.927   4.143
 4386SOL     OW14056   1.208   3.221   6.622
 4386SOL    HW114057   1.230   3.158   6.547
 4386SOL    HW214058   1.109   3.224   6.635
 4387SOL     OW14059   0.920   2.366   1.781
 4387SOL    HW114060   0.863   2.303   1.834
 4387SOL    HW214061   0.931   2.332   1.688
 4388SOL     OW14062   4.292   1.094   6.752
 4388SOL    HW114063   4.306   1.173   6.693
 4388SOL    HW214064   4.319   1.116   6.846
 4389SOL     OW14065   5.670   2.290   0.500
 4389SOL    HW114066   5.744   2.236   0.459
 4389SOL    HW214067   5.582   2.256   0.468
 4390SOL     OW14068   3.888   2.125   2.433
 4390SOL    HW114069   3.790   2.143   2.436
 4390SOL    HW214070   3.925   2.154   2.345
 4391SOL     OW14071   1.357   5.807   6.400
 4391SOL    HW114072   1.309   5.874   6.456
 4391SOL    HW214073   1.327   5.715   6.424
 4392SOL     OW14074   6.201   3.644   5.118
 4392SOL    HW114075   6.174   3.645   5.215
 4392SOL    HW214076   6.224   3.737   5.089
 4393SOL     OW14077   4.959   6.402   2.892
 4393SOL    HW114078   4.974   6.403   2.793
 4393SOL    HW214079   4.868   6.438   2.912
 4394SOL     OW14080   6.294   5.240   3.185
 4394SOL    HW114081   6.293   5.147   3.220
 4394SOL    HW214082   6.254   5.302   3.253
 4395SOL     OW14083   4.257   1.567   1.858
 4395SOL    HW114084   4.239   1.575   1.956
 4395SOL    HW214085   4.171   1.570   1.807
 4396SOL     OW14086   2.475   2.001   3.897
 4396SOL    HW114087   2.418   2.026   3.975
 4396SOL    HW214088   2.425   2.019   3.812
 4397SOL     OW14089   0.287   1.738   4.598
 4397SOL    HW114090   0.340   1.755   4.515
 4397SOL    HW214091   0.190   1.736   4.575
 4398SOL     OW14092   1.192   4.691   5.317
 4398SOL    HW114093   1.099   4.662   5.294
 4398SOL    HW214094   1.257   4.620   5.290
 4399SOL     OW14095   1.824   0.534   1.873
 4399SOL    HW114096   1.791   0.484   1.953
 4399SOL    HW214097   1.770   0.509   1.793
 4400SOL     OW14098   2.153   6.765   4.665
 4400SOL    HW114099   2.126   6.827   4.591
 4400SOL    HW214100   2.101   6.680   4.657
 4401SOL     OW14101   5.450   5.929   6.005
 4401SOL    HW114102   5.359   5.968   6.013
 4401SOL    HW214103   5.517   6.002   5.994
 4402SOL     OW14104   2.042   6.032   2.469
 4402SOL    HW114105   2.072   5.983   2.387
 4402SOL    HW214106   1.977   6.104   2.443
 4403SOL     OW14107   0.072   6.778   3.609
 4403SOL    HW114108   0.045   6.872   3.585
 4403SOL    HW214109   0.160   6.758   3.566
 4404SOL     OW14110   1.416   3.901   5.295
 4404SOL    HW114111   1.323   3.936   5.289
 4404SOL    HW214112   1.416   3.811   5.339
 4405SOL     OW14113   3.144   3.982   0.164
 4405SOL    HW114114   3.198   4.058   0.126
 4405SOL    HW214115   3.047   4.006   0.161
 4406SOL     OW14116   5.514   4.491   1.383
 4406SOL    HW114117   5.585   4.464   1.448
 4406SOL    HW214118   5.544   4.571   1.332
 4407SOL     OW14119   0.037   4.825   0.747
 4407SOL    HW114120   0.019   4.921   0.725
 4407SOL    HW214121   0.088   4.820   0.832
 4408SOL     OW14122   5.010   0.844   0.926
 4408SOL    HW114123   5.033   0.856   1.022
 4408SOL    HW214124   4.911   0.848   0.914
 4409SOL     OW14125   4.131   1.002   2.382
 4409SOL    HW114126   4.166   0.910   2.399
 4409SOL    HW214127   4.093   1.040   2.466
 4410SOL     OW14128   1.783   4.769   0.104
 4410SOL    HW114129   1.853   4.750   0.035
 4410SOL    HW214130   1.796   4.707   0.181
 4411SOL     OW14131   4.150   3.318   3.361
 4411SOL    HW114132   4.105   3.382   3.298
 4411SOL    HW214133   4.097   3.234   3.367
 4412SOL     OW14134   3.531   1.839   4.418
 4412SOL    HW114135   3.483   1.924   4.396
 4412SOL    HW214136   3.587   1.810   4.341
 4413SOL     OW14137   5.208   5.895   5.168
 4413SOL    HW114138   5.182   5.992   5.168
 4413SOL    HW214139   5.200   5.858   5.260
 4414SOL     OW14140   4.370   4.897   1.819
 4414SOL    HW114141   4.374   4.926   1.723
 4414SOL    HW214142   4.456   4.921   1.865
 4415SOL     OW14143   4.280   3.789   6.798
 4415SOL    HW114144   4.240   3.725   6.732
 4415SOL    HW214145   4.369   3.820   6.765
 4416SOL     OW14146   2.920   0.632   4.680
 4416SOL    HW114147   2.874   0.717   4.705
 4416SOL    HW214148   3.008   0.653   4.638
 4417SOL     OW14149   6.972   4.070   2.778
 4417SOL    HW114150   6.928   4.023   2.854
 4417SOL    HW214151   0.027   4.116   2.810
 4418SOL     OW14152   5.120   0.607   4.321
 4418SOL    HW114153   5.103   0.561   4.408
 4418SOL    HW214154   5.081   0.699   4.323
 4419SOL     OW14155   5.494   6.140   0.413
 4419SOL    HW114156   5.450   6.107   0.496
 4419SOL    HW214157   5.430   6.135   0.336
 4420SOL     OW14158   5.015   2.044   0.624
 4420SOL    HW114159   5.107   2.024   0.657
 4420SOL    HW214160   4.948   1.995   0.680
 4421SOL     OW14161   1.593   0.964   2.984
 4421SOL    HW114162   1.630   0.873   2.963
 4421SOL    HW214163   1.661   1.016   3.036
 4422SOL     OW14164   2.349   3.758   6.001
 4422SOL    HW114165   2.331   3.706   5.918
 4422SOL    HW214166   2.289   3.725   6.074
 4423SOL     OW14167   1.615   2.714   5.990
 4423SOL    HW114168   1.648   2.673   6.076
 4423SOL    HW214169   1.655   2.664   5.913
 4424SOL     OW14170   5.707   6.854   3.751
 4424SOL    HW114171   5.735   6.779   3.811
 4424SOL    HW214172   5.780   6.875   3.687
 4425SOL     OW14173   3.651   5.713   5.871
 4425SOL    HW114174   3.577   5.681   5.812
 4425SOL    HW214175   3.618   5.716   5.966
 4426SOL     OW14176   6.980   1.954   4.697
 4426SOL    HW114177   0.017   1.989   4.765
 4426SOL    HW214178   6.907   2.020   4.684
 4427SOL     OW14179   6.952   6.885   2.695
 4427SOL    HW114180   6.989   6.843   2.778
 4427SOL    HW214181   7.010   6.861   2.617
 4428SOL     OW14182   2.917   5.409   2.823
 4428SOL    HW114183   3.007   5.367   2.823
 4428SOL    HW214184   2.917   5.490   2.764
 4429SOL     OW14185   3.007   0.955   3.916
 4429SOL    HW114186   2.934   0.895   3.948
 4429SOL    HW214187   2.968   1.042   3.885
 4430SOL     OW14188   5.471   2.930   4.073
 4430SOL    HW114189   5.455   3.026   4.098
 4430SOL    HW214190   5.567   2.917   4.050
 4431SOL     OW14191   1.518   1.326   2.013
 4431SOL    HW114192   1.486   1.381   1.936
 4431SOL    HW214193   1.511   1.229   1.990
 4432SOL     OW14194   3.637   4.129   3.807
 4432SOL    HW114195   3.668   4.074   3.730
 4432SOL    HW214196   3.538   4.144   3.801
 4433SOL     OW14197   5.967   0.331   4.596
 4433SOL    HW114198   5.873   0.358   4.574
 4433SOL    HW214199   6.001   0.390   4.670
 4434SOL     OW14200   4.566   2.174   3.876
 4434SOL    HW114201   4.574   2.181   3.777
 4434SOL    HW214202   4.583   2.264   3.917
 4435SOL     OW14203   4.440   3.659   1.120
 4435SOL    HW114204   4.351   3.656   1.165
 4435SOL    HW214205   4.441   3.594   1.044
 4436SOL     OW14206   3.515   2.194   0.482
 4436SOL    HW114207   3.558   2.258   0.417
 4436SOL    HW214208   3.424   2.171   0.449
 4437SOL     OW14209   5.544   1.608   3.437
 4437SOL    HW114210   5.568   1.703   3.457
 4437SOL    HW214211   5.520   1.561   3.523
 4438SOL     OW14212   4.294   1.416   6.699
 4438SOL    HW114213   4.256   1.438   6.609
 4438SOL    HW214214   4.390   1.443   6.702
 4439SOL     OW14215   0.253   6.092   1.591
 4439SOL    HW114216   0.331   6.045   1.633
 4439SOL    HW214217   0.267   6.097   1.492
 4440SOL     OW14218   1.743   4.595   0.311
 4440SOL    HW114219   1.648   4.575   0.335
 4440SOL    HW214220   1.796   4.611   0.395
 4441SOL     OW14221   6.966   1.217   2.357
 4441SOL    HW114222   6.952   1.206   2.259
 4441SOL    HW214223   0.031   1.186   2.381
 4442SOL     OW14224   3.270   6.251   4.187
 4442SOL    HW114225   3.258   6.234   4.089
 4442SOL    HW214226   3.366   6.276   4.204
 4443SOL     OW14227   0.163   2.760   0.815
 4443SOL    HW114228   0.261   2.776   0.799
 4443SOL    HW214229   0.137   2.674   0.772
 4444SOL     OW14230   3.784   5.985   6.213
 4444SOL    HW114231   3.866   5.958   6.263
 4444SOL    HW214232   3.714   5.915   6.225
 4445SOL     OW14233   6.862   0.430   0.699
 4445SOL    HW114234   6.947   0.405   0.745
 4445SOL    HW214235   6.826   0.514   0.741
 4446SOL     OW14236   5.411   1.088   1.775
 4446SOL    HW114237   5.503   1.049   1.772
 4446SOL    HW214238   5.365   1.071   1.688
 4447SOL     OW14239   5.763   3.587   5.913
 4447SOL    HW114240   5.715   3.556   5.831
 4447SOL    HW214241   5.779   3.509   5.974
 4448SOL     OW14242   3.260   4.164   0.814
 4448SOL    HW114243   3.310   4.117   0.887
 4448SOL    HW214244   3.205   4.237   0.854
 4449SOL     OW14245   4.783   0.841   5.963
 4449SOL    HW114246   4.688   0.873   5.962
 4449SOL    HW214247   4.832   0.880   5.885
 4450SOL     OW14248   3.982   3.138   4.263
 4450SOL    HW114249   3.890   3.177   4.268
 4450SOL    HW214250   4.008   3.100   4.351
 4451SOL     OW14251   5.791   3.771   2.874
 4451SOL    HW114252   5.844   3.854   2.888
 4451SOL    HW214253   5.716   3.767   2.939
 4452SOL     OW14254   5.847   6.619   4.915
 4452SOL    HW114255   5.927   6.616   4.975
 4452SOL    HW214256   5.821   6.714   4.898
 4453SOL     OW14257   6.336   2.542   0.934
 4453SOL    HW114258   6.400   2.589   0.995
 4453SOL    HW214259   6.383   2.466   0.888
 4454SOL     OW14260   5.253   2.656   0.165
 4454SOL    HW114261   5.244   2.713   0.246
 4454SOL    HW214262   5.319   2.583   0.181
 4455SOL     OW14263   3.421   0.447   6.427
 4455SOL    HW114264   3.443   0.544   6.440
 4455SOL    HW214265   3.324   0.433   6.444
 4456SOL     OW14266   2.344   4.961   2.329
 4456SOL    HW114267   2.367   4.902   2.252
 4456SOL    HW214268   2.368   4.916   2.415
 4457SOL     OW14269   4.087   2.481   0.234
 4457SOL    HW114270   4.049   2.573   0.236
 4457SOL    HW214271   4.077   2.439   0.325
 4458SOL     OW14272   1.264   3.731   6.405
 4458SOL    HW114273   1.272   3.679   6.490
 4458SOL    HW214274   1.294   3.825   6.421
 4459SOL     OW14275   5.248   0.626   3.412
 4459SOL    HW114276   5.234   0.592   3.318
 4459SOL    HW214277   5.234   0.725   3.413
 4460SOL     OW14278   2.639   3.096   5.675
 4460SOL    HW114279   2.591   3.009   5.688
 4460SOL    HW214280   2.575   3.172   5.687
 4461SOL     OW14281   0.945   0.645   2.760
 4461SOL    HW114282   0.847   0.636   2.774
 4461SOL    HW214283   0.964   0.726   2.704
 4462SOL     OW14284   0.083   3.537   1.533
 4462SOL    HW114285   0.072   3.585   1.446
 4462SOL    HW214286   0.179   3.515   1.548
 4463SOL     OW14287   2.926   2.626   0.051
 4463SOL    HW114288   2.827   2.626   0.033
 4463SOL    HW214289   2.975   2.649   6.994
 4464SOL     OW14290   5.649   4.836   6.869
 4464SOL    HW114291   5.707   4.917   6.861
 4464SOL    HW214292   5.659   4.796   6.960
 4465SOL     OW14293   2.121   5.741   3.562
 4465SOL    HW114294   2.102   5.810   3.492
 4465SOL    HW214295   2.219   5.720   3.562
 4466SOL     OW14296   1.373   0.527   1.894
 4466SOL    HW114297   1.405   0.500   1.803
 4466SOL    HW214298   1.333   0.448   1.940
 4467SOL     OW14299   1.533   6.066   3.376
 4467SOL    HW114300   1.501   6.155   3.342
 4467SOL    HW214301   1.605   6.031   3.317
 4468SOL     OW14302   1.341   2.285   0.523
 4468SOL    HW114303   1.421   2.345   0.520
 4468SOL    HW214304   1.348   2.217   0.449
 4469SOL     OW14305   3.422   0.245   1.280
 4469SOL    HW114306   3.459   0.152   1.284
 4469SOL    HW214307   3.408   0.280   1.372
 4470SOL     OW14308   6.175   3.762   1.726
 4470SOL    HW114309   6.082   3.790   1.707
 4470SOL    HW214310   6.215   3.821   1.796
 4471SOL     OW14311   0.348   1.942   0.581
 4471SOL    HW114312   0.403   1.928   0.663
 4471SOL    HW214313   0.275   2.007   0.600
 4472SOL     OW14314   1.774   2.919   3.704
 4472SOL    HW114315   1.785   3.010   3.665
 4472SOL    HW214316   1.705   2.868   3.651
 4473SOL     OW14317   6.587   2.144   3.775
 4473SOL    HW114318   6.560   2.117   3.867
 4473SOL    HW214319   6.506   2.154   3.717
 4474SOL     OW14320   3.175   1.283   1.824
 4474SOL    HW114321   3.103   1.326   1.879
 4474SOL    HW214322   3.170   1.184   1.834
 4475SOL     OW14323   1.584   3.989   2.498
 4475SOL    HW114324   1.536   4.067   2.457
 4475SOL    HW214325   1.680   4.014   2.515
 4476SOL     OW14326   5.018   6.617   3.997
 4476SOL    HW114327   5.048   6.583   3.907
 4476SOL    HW214328   4.934   6.570   4.023
 4477SOL     OW14329   1.687   0.083   5.540
 4477SOL    HW114330   1.761   0.136   5.500
 4477SOL    HW214331   1.724   0.006   5.593
 4478SOL     OW14332   2.558   5.886   2.399
 4478SOL    HW114333   2.632   5.946   2.429
 4478SOL    HW214334   2.586   5.835   2.318
 4479SOL     OW14335   0.776   0.307   1.071
 4479SOL    HW114336   0.685   0.291   1.032
 4479SOL    HW214337   0.832   0.356   1.005
 4480SOL     OW14338   1.665   3.587   5.500
 4480SOL    HW114339   1.733   3.648   5.458
 4480SOL    HW214340   1.574   3.609   5.465
 4481SOL     OW14341   2.747   6.948   5.153
 4481SOL    HW114342   2.767   6.865   5.100
 4481SOL    HW214343   2.803   7.024   5.119
 4482SOL     OW14344   0.360   4.229   3.882
 4482SOL    HW114345   0.335   4.132   3.881
 4482SOL    HW214346   0.429   4.246   3.813
 4483SOL     OW14347   5.742   3.391   1.379
 4483SOL    HW114348   5.798   3.448   1.319
 4483SOL    HW214349   5.714   3.308   1.331
 4484SOL     OW14350   2.978   2.316   5.298
 4484SOL    HW114351   2.920   2.395   5.321
 4484SOL    HW214352   3.073   2.346   5.287
 4485SOL     OW14353   5.342   2.290   6.207
 4485SOL    HW114354   5.307   2.204   6.244
 4485SOL    HW214355   5.275   2.362   6.223
 4486SOL     OW14356   5.714   3.595   4.439
 4486SOL    HW114357   5.640   3.532   4.462
 4486SOL    HW214358   5.730   3.656   4.517
 4487SOL     OW14359   2.437   3.307   6.660
 4487SOL    HW114360   2.375   3.337   6.587
 4487SOL    HW214361   2.492   3.230   6.628
 4488SOL     OW14362   5.893   3.040   5.213
 4488SOL    HW114363   5.868   2.970   5.279
 4488SOL    HW214364   5.915   3.125   5.261
 4489SOL     OW14365   5.258   6.045   4.460
 4489SOL    HW114366   5.330   6.038   4.390
 4489SOL    HW214367   5.230   6.141   4.469
 4490SOL     OW14368   6.013   2.406   2.215
 4490SOL    HW114369   6.073   2.396   2.294
 4490SOL    HW214370   5.920   2.378   2.240
 4491SOL     OW14371   0.673   3.316   3.899
 4491SOL    HW114372   0.765   3.289   3.928
 4491SOL    HW214373   0.637   3.248   3.835
 4492SOL     OW14374   5.002   3.330   0.755
 4492SOL    HW114375   4.910   3.290   0.749
 4492SOL    HW214376   5.037   3.346   0.663
 4493SOL     OW14377   4.724   6.038   5.466
 4493SOL    HW114378   4.632   6.024   5.429
 4493SOL    HW214379   4.792   6.017   5.396
 4494SOL     OW14380   0.002   1.875   6.075
 4494SOL    HW114381   6.969   1.816   6.021
 4494SOL    HW214382   0.009   1.838   6.168
 4495SOL     OW14383   5.020   6.172   3.723
 4495SOL    HW114384   4.955   6.209   3.789
 4495SOL    HW214385   5.101   6.140   3.771
 4496SOL     OW14386   4.626   5.706   0.604
 4496SOL    HW114387   4.672   5.779   0.555
 4496SOL    HW214388   4.527   5.719   0.598
 4497SOL     OW14389   4.504   0.448   0.326
 4497SOL    HW114390   4.521   0.527   0.266
 4497SOL    HW214391   4.464   0.374   0.272
 4498SOL     OW14392   0.359   2.945   5.941
 4498SOL    HW114393   0.411   2.863   5.921
 4498SOL    HW214394   0.343   2.951   6.039
 4499SOL     OW14395   0.474   3.736   3.867
 4499SOL    HW114396   0.429   3.666   3.922
 4499SOL    HW214397   0.558   3.699   3.827
 4500SOL     OW14398   3.039   3.305   4.364
 4500SOL    HW114399   3.001   3.238   4.427
 4500SOL    HW214400   3.095   3.370   4.415
 4501SOL     OW14401   0.607   3.453   5.902
 4501SOL    HW114402   0.581   3.401   5.820
 4501SOL    HW214403   0.702   3.432   5.927
 4502SOL     OW14404   1.799   1.862   6.799
 4502SOL    HW114405   1.783   1.942   6.740
 4502SOL    HW214406   1.711   1.827   6.832
 4503SOL     OW14407   3.131   0.514   2.702
 4503SOL    HW114408   3.223   0.553   2.700
 4503SOL    HW214409   3.079   0.546   2.623
 4504SOL     OW14410   6.553   1.688   4.998
 4504SOL    HW114411   6.512   1.705   5.088
 4504SOL    HW214412   6.558   1.773   4.946
 4505SOL     OW14413   6.407   5.903   3.488
 4505SOL    HW114414   6.362   5.940   3.407
 4505SOL    HW214415   6.350   5.831   3.528
 4506SOL     OW14416   4.710   2.786   3.861
 4506SOL    HW114417   4.754   2.868   3.897
 4506SOL    HW214418   4.612   2.804   3.850
 4507SOL     OW14419   5.209   4.620   2.033
 4507SOL    HW114420   5.116   4.628   2.070
 4507SOL    HW214421   5.254   4.709   2.036
 4508SOL     OW14422   0.916   4.893   5.819
 4508SOL    HW114423   0.994   4.870   5.877
 4508SOL    HW214424   0.837   4.915   5.876
 4509SOL     OW14425   5.832   2.743   3.789
 4509SOL    HW114426   5.787   2.798   3.859
 4509SOL    HW214427   5.827   2.646   3.814
 4510SOL     OW14428   5.542   0.119   5.481
 4510SOL    HW114429   5.595   0.102   5.564
 4510SOL    HW214430   5.446   0.097   5.497
 4511SOL     OW14431   0.022   3.758   6.540
 4511SOL    HW114432   0.021   3.662   6.566
 4511SOL    HW214433   0.050   3.767   6.445
 4512SOL     OW14434   2.271   6.642   5.806
 4512SOL    HW114435   2.249   6.556   5.851
 4512SOL    HW214436   2.220   6.717   5.849
 4513SOL     OW14437   4.919   6.402   0.526
 4513SOL    HW114438   4.837   6.442   0.567
 4513SOL    HW214439   4.930   6.437   0.433
 4514SOL     OW14440   5.091   1.267   5.132
 4514SOL    HW114441   5.174   1.296   5.179
 4514SOL    HW214442   5.106   1.176   5.092
 4515SOL     OW14443   6.830   3.915   5.903
 4515SOL    HW114444   6.874   3.826   5.918
 4515SOL    HW214445   6.897   3.987   5.920
 4516SOL     OW14446   1.474   0.869   6.003
 4516SOL    HW114447   1.395   0.928   6.023
 4516SOL    HW214448   1.480   0.798   6.073
 4517SOL     OW14449   2.055   0.234   6.978
 4517SOL    HW114450   2.021   0.328   6.971
 4517SOL    HW214451   1.978   0.171   6.990
 4518SOL     OW14452   6.626   1.253   3.783
 4518SOL    HW114453   6.562   1.253   3.860
 4518SOL    HW214454   6.646   1.159   3.756
 4519SOL     OW14455   5.402   0.279   1.449
 4519SOL    HW114456   5.338   0.207   1.424
 4519SOL    HW214457   5.448   0.255   1.534
 4520SOL     OW14458   5.549   5.598   3.557
 4520SOL    HW114459   5.581   5.613   3.464
 4520SOL    HW214460   5.470   5.657   3.575
 4521SOL     OW14461   5.018   2.036   4.428
 4521SOL    HW114462   5.023   2.111   4.362
 4521SOL    HW214463   5.053   2.067   4.516
 4522SOL     OW14464   5.381   0.164   3.653
 4522SOL    HW114465   5.310   0.219   3.696
 4522SOL    HW214466   5.375   0.175   3.553
 4523SOL     OW14467   1.053   4.238   0.065
 4523SOL    HW114468   1.063   4.149   0.020
 4523SOL    HW214469   1.132   4.254   0.124
 4524SOL     OW14470   5.106   2.174   4.659
 4524SOL    HW114471   5.162   2.219   4.728
 4524SOL    HW214472   5.024   2.228   4.642
 4525SOL     OW14473   6.297   1.136   3.375
 4525SOL    HW114474   6.254   1.148   3.285
 4525SOL    HW214475   6.228   1.108   3.442
 4526SOL     OW14476   4.752   0.665   0.863
 4526SOL    HW114477   4.754   0.567   0.886
 4526SOL    HW214478   4.670   0.706   0.904
 4527SOL     OW14479   4.191   1.279   4.190
 4527SOL    HW114480   4.102   1.324   4.187
 4527SOL    HW214481   4.219   1.254   4.097
 4528SOL     OW14482   4.609   6.657   0.052
 4528SOL    HW114483   4.621   6.715   0.132
 4528SOL    HW214484   4.665   6.691   7.004
 4529SOL     OW14485   3.474   1.553   4.419
 4529SOL    HW114486   3.549   1.506   4.465
 4529SOL    HW214487   3.473   1.649   4.447
 4530SOL     OW14488   0.464   3.319   5.680
 4530SOL    HW114489   0.430   3.233   5.718
 4530SOL    HW214490   0.502   3.303   5.589
 4531SOL     OW14491   0.670   3.505   3.456
 4531SOL    HW114492   0.756   3.472   3.495
 4531SOL    HW214493   0.640   3.441   3.385
 4532SOL     OW14494   0.188   1.103   2.416
 4532SOL    HW114495   0.244   1.151   2.348
 4532SOL    HW214496   0.226   1.118   2.507
 4533SOL     OW14497   1.082   0.488   2.579
 4533SOL    HW114498   1.163   0.530   2.538
 4533SOL    HW214499   1.053   0.543   2.658
 4534SOL     OW14500   6.147   3.839   4.587
 4534SOL    HW114501   6.136   3.878   4.495
 4534SOL    HW214502   6.097   3.896   4.653
 4535SOL     OW14503   4.809   1.704   2.456
 4535SOL    HW114504   4.773   1.779   2.402
 4535SOL    HW214505   4.865   1.739   2.530
 4536SOL     OW14506   5.009   2.205   4.195
 4536SOL    HW114507   4.938   2.150   4.150
 4536SOL    HW214508   5.081   2.226   4.129
 4537SOL     OW14509   3.547   2.816   6.022
 4537SOL    HW114510   3.599   2.737   5.990
 4537SOL    HW214511   3.604   2.898   6.017
 4538SOL     OW14512   2.465   0.638   4.381
 4538SOL    HW114513   2.559   0.620   4.352
 4538SOL    HW214514   2.401   0.585   4.325
 4539SOL     OW14515   2.049   1.057   4.325
 4539SOL    HW114516   1.966   1.002   4.339
 4539SOL    HW214517   2.122   0.998   4.290
 4540SOL     OW14518   3.701   2.933   4.458
 4540SOL    HW114519   3.723   2.882   4.374
 4540SOL    HW214520   3.781   2.984   4.488
 4541SOL     OW14521   5.496   1.376   0.381
 4541SOL    HW114522   5.403   1.407   0.367
 4541SOL    HW214523   5.497   1.276   0.392
 4542SOL     OW14524   6.282   6.748   1.780
 4542SOL    HW114525   6.353   6.684   1.750
 4542SOL    HW214526   6.215   6.699   1.836
 4543SOL     OW14527   5.042   2.272   0.240
 4543SOL    HW114528   4.961   2.233   0.196
 4543SOL    HW214529   5.018   2.303   0.332
 4544SOL     OW14530   2.768   6.386   5.608
 4544SOL    HW114531   2.819   6.323   5.549
 4544SOL    HW214532   2.703   6.335   5.663
 4545SOL     OW14533   5.404   2.728   4.528
 4545SOL    HW114534   5.460   2.669   4.470
 4545SOL    HW214535   5.307   2.706   4.514
 4546SOL     OW14536   1.269   1.571   6.086
 4546SOL    HW114537   1.183   1.577   6.034
 4546SOL    HW214538   1.298   1.663   6.113
 4547SOL     OW14539   6.579   2.595   2.915
 4547SOL    HW114540   6.530   2.543   2.984
 4547SOL    HW214541   6.593   2.689   2.947
 4548SOL     OW14542   1.397   4.263   4.904
 4548SOL    HW114543   1.481   4.252   4.850
 4548SOL    HW214544   1.383   4.182   4.960
 4549SOL     OW14545   6.110   3.862   2.144
 4549SOL    HW114546   6.091   3.946   2.194
 4549SOL    HW214547   6.027   3.831   2.098
 4550SOL     OW14548   0.865   6.000   2.586
 4550SOL    HW114549   0.917   6.012   2.501
 4550SOL    HW214550   0.768   6.012   2.568
 4551SOL     OW14551   6.581   2.251   5.826
 4551SOL    HW114552   6.675   2.230   5.854
 4551SOL    HW214553   6.574   2.245   5.727
 4552SOL     OW14554   6.629   2.638   6.722
 4552SOL    HW114555   6.676   2.674   6.641
 4552SOL    HW214556   6.558   2.702   6.751
 4553SOL     OW14557   4.093   4.436   0.166
 4553SOL    HW114558   4.151   4.354   0.166
 4553SOL    HW214559   4.026   4.429   0.093
 4554SOL     OW14560   4.050   0.928   1.674
 4554SOL    HW114561   4.002   0.969   1.596
 4554SOL    HW214562   4.139   0.972   1.684
 4555SOL     OW14563   3.205   1.595   5.695
 4555SOL    HW114564   3.184   1.692   5.712
 4555SOL    HW214565   3.149   1.562   5.620
 4556SOL     OW14566   4.579   2.410   3.099
 4556SOL    HW114567   4.554   2.450   3.187
 4556SOL    HW214568   4.664   2.358   3.109
 4557SOL     OW14569   5.501   6.991   5.091
 4557SOL    HW114570   5.456   6.930   5.026
 4557SOL    HW214571   5.464   0.056   5.082
 4558SOL     OW14572   0.146   3.607   5.939
 4558SOL    HW114573   0.084   3.650   5.873
 4558SOL    HW214574   0.155   3.666   6.019
 4559SOL     OW14575   0.937   4.653   1.028
 4559SOL    HW114576   0.926   4.696   1.118
 4559SOL    HW214577   1.025   4.678   0.989
 4560SOL     OW14578   5.431   4.778   3.469
 4560SOL    HW114579   5.341   4.815   3.448
 4560SOL    HW214580   5.489   4.783   3.387
 4561SOL     OW14581   2.725   0.701   1.421
 4561SOL    HW114582   2.649   0.765   1.421
 4561SOL    HW214583   2.785   0.720   1.498
 4562SOL     OW14584   2.821   5.616   4.995
 4562SOL    HW114585   2.920   5.616   5.008
 4562SOL    HW214586   2.776   5.645   5.080
 4563SOL     OW14587   7.026   3.806   0.224
 4563SOL    HW114588   6.943   3.861   0.232
 4563SOL    HW214589   0.033   3.786   0.315
 4564SOL     OW14590   0.366   6.667   0.977
 4564SOL    HW114591   0.287   6.719   1.010
 4564SOL    HW214592   0.392   6.701   0.887
 4565SOL     OW14593   0.144   1.498   5.486
 4565SOL    HW114594   0.241   1.485   5.510
 4565SOL    HW214595   0.114   1.425   5.425
 4566SOL     OW14596   6.437   1.214   0.979
 4566SOL    HW114597   6.442   1.240   0.883
 4566SOL    HW214598   6.382   1.131   0.988
 4567SOL     OW14599   0.675   1.062   0.112
 4567SOL    HW114600   0.689   1.112   0.027
 4567SOL    HW214601   0.602   1.106   0.165
 4568SOL     OW14602   1.333   4.919   5.289
 4568SOL    HW114603   1.282   5.005   5.287
 4568SOL    HW214604   1.270   4.842   5.281
 4569SOL     OW14605   2.267   1.786   2.843
 4569SOL    HW114606   2.331   1.847   2.797
 4569SOL    HW214607   2.199   1.753   2.777
 4570SOL     OW14608   0.502   4.873   3.045
 4570SOL    HW114609   0.492   4.892   3.142
 4570SOL    HW214610   0.520   4.776   3.031
 4571SOL     OW14611   3.453   3.414   5.811
 4571SOL    HW114612   3.445   3.445   5.716
 4571SOL    HW214613   3.549   3.407   5.836
 4572SOL     OW14614   1.067   6.600   6.347
 4572SOL    HW114615   0.984   6.548   6.368
 4572SOL    HW214616   1.043   6.686   6.302
 4573SOL     OW14617   6.024   6.192   0.496
 4573SOL    HW114618   6.049   6.101   0.462
 4573SOL    HW214619   6.085   6.217   0.571
 4574SOL     OW14620   6.459   4.394   1.126
 4574SOL    HW114621   6.434   4.463   1.195
 4574SOL    HW214622   6.438   4.303   1.161
 4575SOL     OW14623   6.767   2.038   6.504
 4575SOL    HW114624   6.767   2.088   6.418
 4575SOL    HW214625   6.691   1.974   6.506
 4576SOL     OW14626   2.041   6.261   6.663
 4576SOL    HW114627   2.004   6.271   6.571
 4576SOL    HW214628   2.068   6.166   6.678
 4577SOL     OW14629   0.582   2.830   3.598
 4577SOL    HW114630   0.607   2.750   3.543
 4577SOL    HW214631   0.654   2.848   3.665
 4578SOL     OW14632   0.656   3.101   4.223
 4578SOL    HW114633   0.650   3.120   4.125
 4578SOL    HW214634   0.589   3.031   4.248
 4579SOL     OW14635   5.560   1.673   2.709
 4579SOL    HW114636   5.591   1.591   2.660
 4579SOL    HW214637   5.514   1.735   2.644
 4580SOL     OW14638   5.254   5.565   6.712
 4580SOL    HW114639   5.337   5.621   6.702
 4580SOL    HW214640   5.193   5.607   6.779
 4581SOL     OW14641   2.876   5.385   3.245
 4581SOL    HW114642   2.803   5.422   3.302
 4581SOL    HW214643   2.935   5.327   3.301
 4582SOL     OW14644   5.943   6.594   4.658
 4582SOL    HW114645   5.910   6.509   4.617
 4582SOL    HW214646   5.901   6.605   4.749
 4583SOL     OW14647   2.753   1.245   4.993
 4583SOL    HW114648   2.714   1.262   4.903
 4583SOL    HW214649   2.682   1.255   5.063
 4584SOL     OW14650   0.112   4.881   5.178
 4584SOL    HW114651   0.092   4.801   5.235
 4584SOL    HW214652   0.093   4.860   5.082
 4585SOL     OW14653   2.987   6.457   2.905
 4585SOL    HW114654   3.065   6.480   2.847
 4585SOL    HW214655   3.008   6.375   2.958
 4586SOL     OW14656   3.705   5.117   0.529
 4586SOL    HW114657   3.619   5.107   0.578
 4586SOL    HW214658   3.734   5.028   0.494
 4587SOL     OW14659   4.231   3.224   1.683
 4587SOL    HW114660   4.325   3.189   1.679
 4587SOL    HW214661   4.202   3.230   1.779
 4588SOL     OW14662   3.647   3.943   5.554
 4588SOL    HW114663   3.727   3.958   5.496
 4588SOL    HW214664   3.676   3.902   5.641
 4589SOL     OW14665   5.703   1.436   1.889
 4589SOL    HW114666   5.682   1.457   1.793
 4589SOL    HW214667   5.782   1.374   1.893
 4590SOL     OW14668   4.227   6.313   2.181
 4590SOL    HW114669   4.234   6.219   2.214
 4590SOL    HW214670   4.199   6.313   2.085
 4591SOL     OW14671   0.498   5.993   5.128
 4591SOL    HW114672   0.545   6.027   5.047
 4591SOL    HW214673   0.509   6.058   5.203
 4592SOL     OW14674   4.454   2.229   1.935
 4592SOL    HW114675   4.500   2.142   1.917
 4592SOL    HW214676   4.522   2.299   1.958
 4593SOL     OW14677   4.041   5.929   4.158
 4593SOL    HW114678   4.088   5.861   4.103
 4593SOL    HW214679   4.004   5.886   4.240
 4594SOL     OW14680   3.507   1.957   1.490
 4594SOL    HW114681   3.442   2.006   1.432
 4594SOL    HW214682   3.458   1.896   1.552
 4595SOL     OW14683   3.290   2.987   5.838
 4595SOL    HW114684   3.382   3.026   5.835
 4595SOL    HW214685   3.223   3.060   5.823
 4596SOL     OW14686   6.226   6.568   2.273
 4596SOL    HW114687   6.269   6.539   2.188
 4596SOL    HW214688   6.177   6.654   2.258
 4597SOL     OW14689   5.353   4.695   6.884
 4597SOL    HW114690   5.397   4.732   6.802
 4597SOL    HW214691   5.310   4.607   6.863
 4598SOL     OW14692   1.789   5.608   6.972
 4598SOL    HW114693   1.835   5.523   6.947
 4598SOL    HW214694   1.710   5.588   0.002
 4599SOL     OW14695   1.610   4.276   0.525
 4599SOL    HW114696   1.634   4.179   0.514
 4599SOL    HW214697   1.689   4.326   0.560
 4600SOL     OW14698   1.787   5.851   5.926
 4600SOL    HW114699   1.884   5.854   5.951
 4600SOL    HW214700   1.735   5.910   5.989
 4601SOL     OW14701   1.730   0.439   4.929
 4601SOL    HW114702   1.701   0.489   5.011
 4601SOL    HW214703   1.828   0.452   4.915
 4602SOL     OW14704   1.058   5.916   0.979
 4602SOL    HW114705   1.156   5.911   1.001
 4602SOL    HW214706   1.018   5.825   0.983
 4603SOL     OW14707   3.575   6.299   1.006
 4603SOL    HW114708   3.651   6.270   0.948
 4603SOL    HW214709   3.608   6.360   1.078
 4604SOL     OW14710   4.869   0.667   2.047
 4604SOL    HW114711   4.841   0.692   1.954
 4604SOL    HW214712   4.807   0.710   2.113
 4605SOL     OW14713   5.114   1.554   3.120
 4605SOL    HW114714   5.191   1.590   3.172
 4605SOL    HW214715   5.029   1.589   3.159
 4606SOL     OW14716   0.649   0.073   1.589
 4606SOL    HW114717   0.723   0.049   1.525
 4606SOL    HW214718   0.601   0.154   1.555
 4607SOL     OW14719   2.671   2.887   0.733
 4607SOL    HW114720   2.692   2.959   0.666
 4607SOL    HW214721   2.705   2.800   0.699
 4608SOL     OW14722   0.959   5.749   3.588
 4608SOL    HW114723   0.892   5.705   3.648
 4608SOL    HW214724   1.013   5.679   3.541
 4609SOL     OW14725   3.955   5.663   6.020
 4609SOL    HW114726   3.909   5.578   5.996
 4609SOL    HW214727   3.982   5.661   6.117
 4610SOL     OW14728   5.629   2.555   0.464
 4610SOL    HW114729   5.535   2.586   0.479
 4610SOL    HW214730   5.631   2.455   0.462
 4611SOL     OW14731   6.303   5.697   6.023
 4611SOL    HW114732   6.277   5.627   6.090
 4611SOL    HW214733   6.402   5.701   6.015
 4612SOL     OW14734   1.135   6.656   0.836
 4612SOL    HW114735   1.180   6.567   0.824
 4612SOL    HW214736   1.098   6.687   0.749
 4613SOL     OW14737   2.716   5.361   2.431
 4613SOL    HW114738   2.721   5.301   2.511
 4613SOL    HW214739   2.652   5.436   2.449
 4614SOL     OW14740   1.130   4.034   5.248
 4614SOL    HW114741   1.074   4.100   5.199
 4614SOL    HW214742   1.124   4.051   5.347
 4615SOL     OW14743   1.450   0.871   6.963
 4615SOL    HW114744   1.386   0.794   6.976
 4615SOL    HW214745   1.416   0.950   7.013
 4616SOL     OW14746   5.992   0.282   5.876
 4616SOL    HW114747   5.959   0.304   5.785
 4616SOL    HW214748   5.921   0.302   5.943
 4617SOL     OW14749   1.503   2.265   2.388
 4617SOL    HW114750   1.531   2.260   2.484
 4617SOL    HW214751   1.462   2.354   2.370
 4618SOL     OW14752   2.250   2.214   5.474
 4618SOL    HW114753   2.203   2.298   5.501
 4618SOL    HW214754   2.213   2.182   5.387
 4619SOL     OW14755   3.460   6.358   3.349
 4619SOL    HW114756   3.369   6.393   3.325
 4619SOL    HW214757   3.529   6.426   3.324
 4620SOL     OW14758   3.166   4.276   0.092
 4620SOL    HW114759   3.115   4.327   0.161
 4620SOL    HW214760   3.261   4.306   0.092
 4621SOL     OW14761   5.660   1.949   3.078
 4621SOL    HW114762   5.698   1.859   3.060
 4621SOL    HW214763   5.666   2.005   2.996
 4622SOL     OW14764   1.335   3.121   0.892
 4622SOL    HW114765   1.390   3.106   0.974
 4622SOL    HW214766   1.345   3.216   0.861
 4623SOL     OW14767   0.301   6.323   0.686
 4623SOL    HW114768   0.213   6.280   0.708
 4623SOL    HW214769   0.375   6.271   0.728
 4624SOL     OW14770   5.071   6.671   2.932
 4624SOL    HW114771   5.012   6.592   2.947
 4624SOL    HW214772   5.153   6.662   2.989
 4625SOL     OW14773   1.522   4.841   0.094
 4625SOL    HW114774   1.491   4.855   7.027
 4625SOL    HW214775   1.619   4.816   0.094
 4626SOL     OW14776   5.817   5.649   1.831
 4626SOL    HW114777   5.736   5.611   1.785
 4626SOL    HW214778   5.866   5.576   1.879
 4627SOL     OW14779   3.562   5.944   3.902
 4627SOL    HW114780   3.600   6.025   3.948
 4627SOL    HW214781   3.488   5.972   3.841
 4628SOL     OW14782   6.192   4.105   4.138
 4628SOL    HW114783   6.238   4.172   4.196
 4628SOL    HW214784   6.255   4.075   4.066
 4629SOL     OW14785   2.301   4.945   5.077
 4629SOL    HW114786   2.244   4.934   4.995
 4629SOL    HW214787   2.343   4.857   5.099
 4630SOL     OW14788   3.591   5.682   2.877
 4630SOL    HW114789   3.542   5.755   2.828
 4630SOL    HW214790   3.684   5.675   2.840
 4631SOL     OW14791   2.190   6.360   3.794
 4631SOL    HW114792   2.221   6.455   3.804
 4631SOL    HW214793   2.265   6.298   3.817
 4632SOL     OW14794   4.084   4.762   3.500
 4632SOL    HW114795   4.184   4.767   3.495
 4632SOL    HW214796   4.055   4.764   3.596
 4633SOL     OW14797   6.233   2.278   3.835
 4633SOL    HW114798   6.270   2.239   3.751
 4633SOL    HW214799   6.172   2.355   3.812
 4634SOL     OW14800   2.243   4.627   7.004
 4634SOL    HW114801   2.335   4.606   0.009
 4634SOL    HW214802   2.244   4.631   6.904
 4635SOL     OW14803   5.514   3.682   1.897
 4635SOL    HW114804   5.564   3.602   1.930
 4635SOL    HW214805   5.417   3.659   1.889
 4636SOL     OW14806   2.261   5.355   0.147
 4636SOL    HW114807   2.214   5.353   0.059
 4636SOL    HW214808   2.291   5.262   0.171
 4637SOL     OW14809   1.806   0.761   0.369
 4637SOL    HW114810   1.818   0.679   0.313
 4637SOL    HW214811   1.729   0.814   0.333
 4638SOL     OW14812   4.027   3.033   6.622
 4638SOL    HW114813   3.929   3.034   6.640
 4638SOL    HW214814   4.071   2.961   6.676
 4639SOL     OW14815   1.889   4.561   5.295
 4639SOL    HW114816   1.988   4.574   5.298
 4639SOL    HW214817   1.863   4.525   5.205
 4640SOL     OW14818   5.272   5.180   3.425
 4640SOL    HW114819   5.241   5.188   3.520
 4640SOL    HW214820   5.207   5.226   3.364
 4641SOL     OW14821   2.883   6.625   4.382
 4641SOL    HW114822   2.861   6.699   4.319
 4641SOL    HW214823   2.846   6.539   4.346
 4642SOL     OW14824   0.564   6.482   5.415
 4642SOL    HW114825   0.610   6.535   5.487
 4642SOL    HW214826   0.466   6.486   5.429
 4643SOL     OW14827   5.500   2.459   1.315
 4643SOL    HW114828   5.494   2.410   1.402
 4643SOL    HW214829   5.470   2.399   1.241
 4644SOL     OW14830   1.193   5.021   4.934
 4644SOL    HW114831   1.289   5.020   4.960
 4644SOL    HW214832   1.176   4.953   4.862
 4645SOL     OW14833   1.186   0.480   3.791
 4645SOL    HW114834   1.146   0.391   3.816
 4645SOL    HW214835   1.122   0.530   3.733
 4646SOL     OW14836   2.626   6.580   3.383
 4646SOL    HW114837   2.527   6.596   3.382
 4646SOL    HW214838   2.669   6.637   3.314
 4647SOL     OW14839   1.286   6.792   3.433
 4647SOL    HW114840   1.224   6.767   3.507
 4647SOL    HW214841   1.318   6.709   3.387
 4648SOL     OW14842   4.018   0.600   1.315
 4648SOL    HW114843   4.019   0.697   1.340
 4648SOL    HW214844   4.109   0.561   1.329
 4649SOL     OW14845   5.179   6.545   5.804
 4649SOL    HW114846   5.129   6.575   5.723
 4649SOL    HW214847   5.151   6.601   5.882
 4650SOL     OW14848   3.983   5.955   3.866
 4650SOL    HW114849   4.065   5.914   3.824
 4650SOL    HW214850   3.990   5.946   3.965
 4651SOL     OW14851   0.185   1.351   0.712
 4651SOL    HW114852   0.241   1.358   0.629
 4651SOL    HW214853   0.222   1.411   0.783
 4652SOL     OW14854   0.417   0.376   4.439
 4652SOL    HW114855   0.351   0.302   4.429
 4652SOL    HW214856   0.490   0.365   4.372
 4653SOL     OW14857   5.937   5.630   6.885
 4653SOL    HW114858   5.902   5.623   6.978
 4653SOL    HW214859   5.878   5.689   6.831
 4654SOL     OW14860   0.293   6.715   0.124
 4654SOL    HW114861   0.321   6.810   0.140
 4654SOL    HW214862   0.362   6.669   0.068
 4655SOL     OW14863   6.640   5.619   1.970
 4655SOL    HW114864   6.593   5.623   1.882
 4655SOL    HW214865   6.587   5.563   2.034
 4656SOL     OW14866   1.149   0.304   3.486
 4656SOL    HW114867   1.204   0.342   3.561
 4656SOL    HW214868   1.119   0.212   3.511
 4657SOL     OW14869   4.736   6.605   1.630
 4657SOL    HW114870   4.802   6.627   1.558
 4657SOL    HW214871   4.757   6.658   1.712
 4658SOL     OW14872   3.916   1.146   2.268
 4658SOL    HW114873   3.989   1.086   2.298
 4658SOL    HW214874   3.934   1.239   2.300
 4659SOL     OW14875   2.673   3.822   6.039
 4659SOL    HW114876   2.591   3.815   5.983
 4659SOL    HW214877   2.650   3.802   6.135
 4660SOL     OW14878   1.180   2.889   5.254
 4660SOL    HW114879   1.219   2.823   5.318
 4660SOL    HW214880   1.251   2.956   5.228
 4661SOL     OW14881   3.374   3.919   5.466
 4661SOL    HW114882   3.469   3.914   5.495
 4661SOL    HW214883   3.351   4.014   5.446
 4662SOL     OW14884   4.421   0.555   5.168
 4662SOL    HW114885   4.338   0.499   5.177
 4662SOL    HW214886   4.441   0.570   5.072
 4663SOL     OW14887   0.662   1.744   2.441
 4663SOL    HW114888   0.747   1.697   2.417
 4663SOL    HW214889   0.681   1.811   2.512
 4664SOL     OW14890   2.325   2.086   0.520
 4664SOL    HW114891   2.326   2.054   0.615
 4664SOL    HW214892   2.415   2.071   0.479
 4665SOL     OW14893   4.134   7.026   0.778
 4665SOL    HW114894   4.189   0.081   0.762
 4665SOL    HW214895   4.057   0.021   0.838
 4666SOL     OW14896   1.683   1.710   0.772
 4666SOL    HW114897   1.719   1.792   0.727
 4666SOL    HW214898   1.583   1.710   0.765
 4667SOL     OW14899   6.289   4.691   1.095
 4667SOL    HW114900   6.385   4.670   1.114
 4667SOL    HW214901   6.262   4.772   1.147
 4668SOL     OW14902   6.317   2.247   2.734
 4668SOL    HW114903   6.395   2.216   2.679
 4668SOL    HW214904   6.322   2.346   2.745
 4669SOL     OW14905   3.017   0.040   0.503
 4669SOL    HW114906   3.096   0.057   0.562
 4669SOL    HW214907   2.992   6.971   0.508
 4670SOL     OW14908   3.120   1.844   4.891
 4670SOL    HW114909   3.029   1.876   4.915
 4670SOL    HW214910   3.126   1.745   4.907
 4671SOL     OW14911   6.846   2.430   2.176
 4671SOL    HW114912   6.937   2.420   2.138
 4671SOL    HW214913   6.847   2.499   2.248
 4672SOL     OW14914   2.828   5.086   6.346
 4672SOL    HW114915   2.862   5.180   6.357
 4672SOL    HW214916   2.789   5.054   6.432
 4673SOL     OW14917   4.667   6.676   0.816
 4673SOL    HW114918   4.573   6.648   0.831
 4673SOL    HW214919   4.690   6.749   0.881
 4674SOL     OW14920   4.928   0.301   7.008
 4674SOL    HW114921   4.969   0.363   6.942
 4674SOL    HW214922   4.845   0.261   6.969
 4675SOL     OW14923   0.648   2.787   6.775
 4675SOL    HW114924   0.565   2.839   6.756
 4675SOL    HW214925   0.724   2.849   6.790
 4676SOL     OW14926   6.762   5.892   3.796
 4676SOL    HW114927   6.693   5.939   3.742
 4676SOL    HW214928   6.853   5.928   3.774
 4677SOL     OW14929   2.917   2.231   0.814
 4677SOL    HW114930   2.875   2.213   0.902
 4677SOL    HW214931   3.012   2.198   0.814
 4678SOL     OW14932   2.103   4.671   3.150
 4678SOL    HW114933   2.012   4.637   3.124
 4678SOL    HW214934   2.149   4.603   3.207
 4679SOL     OW14935   4.492   0.014   1.687
 4679SOL    HW114936   4.454   0.012   1.595
 4679SOL    HW214937   4.446   6.972   1.743
 4680SOL     OW14938   3.888   1.206   6.503
 4680SOL    HW114939   3.967   1.198   6.564
 4680SOL    HW214940   3.921   1.204   6.408
 4681SOL     OW14941   5.309   5.021   0.095
 4681SOL    HW114942   5.357   4.939   0.126
 4681SOL    HW214943   5.254   5.000   0.014
 4682SOL     OW14944   4.534   4.553   5.568
 4682SOL    HW114945   4.569   4.484   5.630
 4682SOL    HW214946   4.571   4.537   5.476
 4683SOL     OW14947   5.567   5.524   2.642
 4683SOL    HW114948   5.577   5.495   2.737
 4683SOL    HW214949   5.641   5.587   2.618
 4684SOL     OW14950   4.998   7.010   5.640
 4684SOL    HW114951   5.003   0.074   5.600
 4684SOL    HW214952   4.980   6.942   5.569
 4685SOL     OW14953   2.034   4.977   6.785
 4685SOL    HW114954   2.039   4.993   6.884
 4685SOL    HW214955   2.115   5.017   6.741
 4686SOL     OW14956   4.052   6.013   6.984
 4686SOL    HW114957   4.030   5.943   6.916
 4686SOL    HW214958   4.040   6.103   6.943
 4687SOL     OW14959   4.822   3.067   3.929
 4687SOL    HW114960   4.779   3.155   3.909
 4687SOL    HW214961   4.894   3.050   3.861
 4688SOL     OW14962   6.022   2.881   5.044
 4688SOL    HW114963   6.013   2.948   5.117
 4688SOL    HW214964   6.030   2.928   4.956
 4689SOL     OW14965   5.369   0.875   0.901
 4689SOL    HW114966   5.417   0.889   0.987
 4689SOL    HW214967   5.272   0.858   0.919
 4690SOL     OW14968   2.125   0.508   0.598
 4690SOL    HW114969   2.034   0.537   0.626
 4690SOL    HW214970   2.126   0.487   0.500
 4691SOL     OW14971   3.069   3.454   0.944
 4691SOL    HW114972   3.078   3.491   1.036
 4691SOL    HW214973   3.085   3.527   0.877
 4692SOL     OW14974   5.648   5.433   2.891
 4692SOL    HW114975   5.715   5.502   2.919
 4692SOL    HW214976   5.613   5.385   2.972
 4693SOL     OW14977   1.542   0.581   3.528
 4693SOL    HW114978   1.468   0.587   3.460
 4693SOL    HW214979   1.566   0.673   3.558
 4694SOL     OW14980   2.390   1.303   0.093
 4694SOL    HW114981   2.312   1.256   0.136
 4694SOL    HW214982   2.463   1.313   0.161
 4695SOL     OW14983   1.165   4.702   0.892
 4695SOL    HW114984   1.201   4.788   0.856
 4695SOL    HW214985   1.164   4.633   0.820
 4696SOL     OW14986   0.312   5.759   6.317
 4696SOL    HW114987   0.381   5.688   6.309
 4696SOL    HW214988   0.240   5.744   6.250
 4697SOL     OW14989   1.122   3.848   2.117
 4697SOL    HW114990   1.031   3.862   2.157
 4697SOL    HW214991   1.158   3.759   2.147
 4698SOL     OW14992   4.223   6.252   3.304
 4698SOL    HW114993   4.293   6.218   3.367
 4698SOL    HW214994   4.258   6.247   3.210
 4699SOL     OW14995   0.487   6.403   2.458
 4699SOL    HW114996   0.402   6.358   2.486
 4699SOL    HW214997   0.523   6.357   2.377
 4700SOL     OW14998   6.677   2.024   2.423
 4700SOL    HW114999   6.757   2.026   2.363
 4700SOL    HW215000   6.600   1.983   2.374
 4701SOL     OW15001   3.424   1.990   6.989
 4701SOL    HW115002   3.498   1.955   0.019
 4701SOL    HW215003   3.460   2.062   6.929
 4702SOL     OW15004   4.819   4.886   0.188
 4702SOL    HW115005   4.776   4.906   0.276
 4702SOL    HW215006   4.917   4.902   0.194
 4703SOL     OW15007   1.105   7.020   2.998
 4703SOL    HW115008   1.082   6.959   3.073
 4703SOL    HW215009   1.027   0.052   2.978
 4704SOL     OW15010   6.573   5.903   6.246
 4704SOL    HW115011   6.549   5.999   6.232
 4704SOL    HW215012   6.570   5.855   6.158
 4705SOL     OW15013   4.443   2.538   1.183
 4705SOL    HW115014   4.507   2.514   1.256
 4705SOL    HW215015   4.434   2.461   1.120
 4706SOL     OW15016   1.771   0.337   0.581
 4706SOL    HW115017   1.817   0.306   0.498
 4706SOL    HW215018   1.721   0.261   0.622
 4707SOL     OW15019   0.771   6.615   1.513
 4707SOL    HW115020   0.788   6.653   1.422
 4707SOL    HW215021   0.850   6.562   1.542
 4708SOL     OW15022   1.277   1.868   5.630
 4708SOL    HW115023   1.186   1.831   5.610
 4708SOL    HW215024   1.345   1.822   5.572
 4709SOL     OW15025   4.710   5.404   5.128
 4709SOL    HW115026   4.712   5.320   5.073
 4709SOL    HW215027   4.796   5.410   5.179
 4710SOL     OW15028   5.166   0.217   5.986
 4710SOL    HW115029   5.249   0.198   5.933
 4710SOL    HW215030   5.192   0.255   6.075
 4711SOL     OW15031   6.494   1.729   1.494
 4711SOL    HW115032   6.543   1.707   1.409
 4711SOL    HW215033   6.430   1.804   1.478
 4712SOL     OW15034   3.138   4.880   6.702
 4712SOL    HW115035   3.103   4.790   6.728
 4712SOL    HW215036   3.135   4.890   6.603
 4713SOL     OW15037   3.864   4.679   0.858
 4713SOL    HW115038   3.796   4.743   0.821
 4713SOL    HW215039   3.949   4.728   0.875
 4714SOL     OW15040   0.653   1.424   6.228
 4714SOL    HW115041   0.739   1.386   6.194
 4714SOL    HW215042   0.617   1.491   6.163
 4715SOL     OW15043   6.135   3.515   1.338
 4715SOL    HW115044   6.054   3.497   1.282
 4715SOL    HW215045   6.124   3.472   1.427
 4716SOL     OW15046   4.073   6.409   5.358
 4716SOL    HW115047   4.161   6.369   5.384
 4716SOL    HW215048   3.998   6.357   5.400
 4717SOL     OW15049   0.772   5.907   4.965
 4717SOL    HW115050   0.871   5.904   4.950
 4717SOL    HW215051   0.753   5.960   5.047
 4718SOL     OW15052   5.427   1.737   1.098
 4718SOL    HW115053   5.384   1.811   1.150
 4718SOL    HW215054   5.527   1.745   1.104
 4719SOL     OW15055   4.851   3.761   2.446
 4719SOL    HW115056   4.754   3.757   2.424
 4719SOL    HW215057   4.906   3.742   2.365
 4720SOL     OW15058   2.140   5.317   5.924
 4720SOL    HW115059   2.187   5.241   5.879
 4720SOL    HW215060   2.073   5.357   5.862
 4721SOL     OW15061   6.443   1.840   1.889
 4721SOL    HW115062   6.529   1.815   1.844
 4721SOL    HW215063   6.455   1.927   1.937
 4722SOL     OW15064   1.172   6.091   6.984
 4722SOL    HW115065   1.178   6.040   0.042
 4722SOL    HW215066   1.088   6.066   6.936
 4723SOL     OW15067   2.831   3.510   5.469
 4723SOL    HW115068   2.907   3.573   5.483
 4723SOL    HW215069   2.827   3.445   5.544
 4724SOL     OW15070   6.924   6.692   4.241
 4724SOL    HW115071   6.963   6.769   4.189
 4724SOL    HW215072   6.986   6.614   4.236
 4725SOL     OW15073   6.412   5.195   0.134
 4725SOL    HW115074   6.492   5.192   0.195
 4725SOL    HW215075   6.410   5.282   0.086
 4726SOL     OW15076   1.456   3.096   6.230
 4726SOL    HW115077   1.517   3.173   6.247
 4726SOL    HW215078   1.493   3.040   6.155
 4727SOL     OW15079   0.674   6.248   1.209
 4727SOL    HW115080   0.646   6.185   1.281
 4727SOL    HW215081   0.606   6.249   1.136
 4728SOL     OW15082   6.026   0.892   2.740
 4728SOL    HW115083   6.047   0.933   2.651
 4728SOL    HW215084   6.098   0.915   2.805
 4729SOL     OW15085   4.822   1.128   0.710
 4729SOL    HW115086   4.908   1.093   0.747
 4729SOL    HW215087   4.797   1.077   0.629
 4730SOL     OW15088   3.163   6.019   5.186
 4730SOL    HW115089   3.253   6.040   5.224
 4730SOL    HW215090   3.116   5.954   5.246
 4731SOL     OW15091   2.808   1.122   0.633
 4731SOL    HW115092   2.837   1.218   0.629
 4731SOL    HW215093   2.727   1.109   0.575
 4732SOL     OW15094   0.837   3.349   5.308
 4732SOL    HW115095   0.907   3.282   5.285
 4732SOL    HW215096   0.879   3.438   5.323
 4733SOL     OW15097   1.604   3.765   3.659
 4733SOL    HW115098   1.620   3.667   3.666
 4733SOL    HW215099   1.692   3.813   3.653
 4734SOL     OW15100   4.443   3.417   0.248
 4734SOL    HW115101   4.451   3.318   0.262
 4734SOL    HW215102   4.348   3.445   0.266
 4735SOL     OW15103   6.869   5.673   4.100
 4735SOL    HW115104   6.848   5.579   4.074
 4735SOL    HW215105   6.816   5.736   4.044
 4736SOL     OW15106   5.528   1.613   6.080
 4736SOL    HW115107   5.515   1.615   5.981
 4736SOL    HW215108   5.558   1.703   6.111
 4737SOL     OW15109   2.796   4.367   0.954
 4737SOL    HW115110   2.788   4.397   0.859
 4737SOL    HW215111   2.741   4.284   0.968
 4738SOL     OW15112   2.364   6.652   3.348
 4738SOL    HW115113   2.296   6.640   3.420
 4738SOL    HW215114   2.317   6.663   3.260
 4739SOL     OW15115   5.472   1.741   2.951
 4739SOL    HW115116   5.546   1.787   2.999
 4739SOL    HW215117   5.507   1.702   2.866
 4740SOL     OW15118   0.299   0.677   1.075
 4740SOL    HW115119   0.295   0.769   1.113
 4740SOL    HW215120   0.385   0.633   1.101
 4741SOL     OW15121   4.438   3.293   1.446
 4741SOL    HW115122   4.466   3.386   1.419
 4741SOL    HW215123   4.517   3.232   1.445
 4742SOL     OW15124   2.550   6.648   1.213
 4742SOL    HW115125   2.537   6.549   1.204
 4742SOL    HW215126   2.640   6.666   1.251
 4743SOL     OW15127   1.840   3.026   4.907
 4743SOL    HW115128   1.767   3.056   4.969
 4743SOL    HW215129   1.799   2.997   4.820
 4744SOL     OW15130   2.575   4.131   6.005
 4744SOL    HW115131   2.595   4.228   6.018
 4744SOL    HW215132   2.590   4.106   5.909
 4745SOL     OW15133   2.708   5.163   5.452
 4745SOL    HW115134   2.676   5.111   5.373
 4745SOL    HW215135   2.648   5.241   5.468
 4746SOL     OW15136   5.949   6.517   2.598
 4746SOL    HW115137   5.910   6.425   2.590
 4746SOL    HW215138   6.049   6.510   2.601
 4747SOL     OW15139   1.280   4.068   0.190
 4747SOL    HW115140   1.338   4.001   0.236
 4747SOL    HW215141   1.198   4.022   0.155
 4748SOL     OW15142   1.256   5.185   0.627
 4748SOL    HW115143   1.283   5.247   0.554
 4748SOL    HW215144   1.204   5.235   0.696
 4749SOL     OW15145   2.756   6.379   5.293
 4749SOL    HW115146   2.821   6.452   5.269
 4749SOL    HW215147   2.804   6.305   5.340
 4750SOL     OW15148   0.295   3.593   4.371
 4750SOL    HW115149   0.227   3.627   4.436
 4750SOL    HW215150   0.387   3.615   4.404
 4751SOL     OW15151   2.622   2.995   0.447
 4751SOL    HW115152   2.703   2.950   0.409
 4751SOL    HW215153   2.542   2.938   0.432
 4752SOL     OW15154   2.992   0.412   0.298
 4752SOL    HW115155   3.091   0.397   0.292
 4752SOL    HW215156   2.967   0.431   0.393
 4753SOL     OW15157   5.742   6.999   4.559
 4753SOL    HW115158   5.648   6.965   4.564
 4753SOL    HW215159   5.748   0.041   4.487
 4754SOL     OW15160   5.866   0.540   5.011
 4754SOL    HW115161   5.864   0.565   5.108
 4754SOL    HW215162   5.851   0.442   5.001
 4755SOL     OW15163   3.067   0.928   1.129
 4755SOL    HW115164   2.979   0.952   1.170
 4755SOL    HW215165   3.128   0.893   1.200
 4756SOL     OW15166   5.926   3.025   1.349
 4756SOL    HW115167   5.998   2.988   1.406
 4756SOL    HW215168   5.839   3.025   1.399
 4757SOL     OW15169   1.552   2.334   1.725
 4757SOL    HW115170   1.581   2.424   1.692
 4757SOL    HW215171   1.474   2.345   1.787
 4758SOL     OW15172   2.659   5.936   4.488
 4758SOL    HW115173   2.748   5.922   4.444
 4758SOL    HW215174   2.593   5.872   4.449
 4759SOL     OW15175   5.487   5.436   4.590
 4759SOL    HW115176   5.430   5.511   4.623
 4759SOL    HW215177   5.579   5.445   4.630
 4760SOL     OW15178   3.725   1.940   0.830
 4760SOL    HW115179   3.718   2.013   0.761
 4760SOL    HW215180   3.821   1.918   0.845
 4761SOL     OW15181   0.797   6.485   6.359
 4761SOL    HW115182   0.774   6.388   6.353
 4761SOL    HW215183   0.715   6.540   6.343
 4762SOL     OW15184   2.071   5.336   2.942
 4762SOL    HW115185   2.044   5.418   2.992
 4762SOL    HW215186   2.171   5.332   2.936
 4763SOL     OW15187   6.116   6.495   3.763
 4763SOL    HW115188   6.126   6.453   3.672
 4763SOL    HW215189   6.032   6.460   3.806
 4764SOL     OW15190   4.995   4.100   5.598
 4764SOL    HW115191   4.971   4.122   5.692
 4764SOL    HW215192   4.912   4.091   5.543
 4765SOL     OW15193   5.321   0.430   4.669
 4765SOL    HW115194   5.397   0.448   4.731
 4765SOL    HW215195   5.325   0.336   4.637
 4766SOL     OW15196   4.462   0.019   3.990
 4766SOL    HW115197   4.449   0.118   3.982
 4766SOL    HW215198   4.445   7.018   4.084
 4767SOL     OW15199   4.054   4.926   5.806
 4767SOL    HW115200   4.058   4.827   5.816
 4767SOL    HW215201   3.966   4.960   5.840
 4768SOL     OW15202   4.533   1.663   5.075
 4768SOL    HW115203   4.605   1.711   5.125
 4768SOL    HW215204   4.470   1.730   5.035
 4769SOL     OW15205   4.824   4.587   6.965
 4769SOL    HW115206   4.884   4.664   6.986
 4769SOL    HW215207   4.738   4.622   6.926
 4770SOL     OW15208   1.032   0.880   4.660
 4770SOL    HW115209   1.011   0.790   4.698
 4770SOL    HW215210   0.953   0.914   4.609
 4771SOL     OW15211   3.364   5.540   5.493
 4771SOL    HW115212   3.298   5.485   5.544
 4771SOL    HW215213   3.416   5.597   5.556
 4772SOL     OW15214   3.094   4.975   1.526
 4772SOL    HW115215   3.182   5.013   1.551
 4772SOL    HW215216   3.033   4.976   1.605
 4773SOL     OW15217   6.556   5.335   4.713
 4773SOL    HW115218   6.469   5.368   4.750
 4773SOL    HW215219   6.617   5.413   4.697
 4774SOL     OW15220   1.222   2.364   1.575
 4774SOL    HW115221   1.193   2.433   1.642
 4774SOL    HW215222   1.142   2.314   1.542
 4775SOL     OW15223   5.006   6.608   2.403
 4775SOL    HW115224   5.054   6.543   2.462
 4775SOL    HW215225   5.010   6.577   2.308
 4776SOL     OW15226   0.987   6.403   5.010
 4776SOL    HW115227   1.075   6.424   5.053
 4776SOL    HW215228   0.972   6.304   5.012
 4777SOL     OW15229   2.806   4.362   1.420
 4777SOL    HW115230   2.835   4.275   1.381
 4777SOL    HW215231   2.776   4.347   1.515
 4778SOL     OW15232   6.258   2.933   2.285
 4778SOL    HW115233   6.256   2.883   2.198
 4778SOL    HW215234   6.331   2.895   2.343
 4779SOL     OW15235   6.422   6.519   2.436
 4779SOL    HW115236   6.348   6.560   2.383
 4779SOL    HW215237   6.496   6.493   2.375
 4780SOL     OW15238   6.765   0.677   0.771
 4780SOL    HW115239   6.853   0.697   0.812
 4780SOL    HW215240   6.757   0.724   0.683
 4781SOL     OW15241   2.743   6.067   1.970
 4781SOL    HW115242   2.697   6.142   2.018
 4781SOL    HW215243   2.778   6.100   1.882
 4782SOL     OW15244   4.513   6.197   0.126
 4782SOL    HW115245   4.531   6.111   0.078
 4782SOL    HW215246   4.417   6.200   0.154
 4783SOL     OW15247   4.718   4.662   6.587
 4783SOL    HW115248   4.708   4.563   6.576
 4783SOL    HW215249   4.673   4.692   6.671
 4784SOL     OW15250   5.973   4.277   6.427
 4784SOL    HW115251   5.940   4.365   6.393
 4784SOL    HW215252   6.025   4.231   6.355
 4785SOL     OW15253   5.916   5.426   1.540
 4785SOL    HW115254   5.951   5.519   1.548
 4785SOL    HW215255   5.843   5.423   1.472
 4786SOL     OW15256   2.489   2.183   1.415
 4786SOL    HW115257   2.572   2.137   1.384
 4786SOL    HW215258   2.500   2.282   1.406
 4787SOL     OW15259   3.390   2.124   3.355
 4787SOL    HW115260   3.477   2.123   3.306
 4787SOL    HW215261   3.317   2.155   3.294
 4788SOL     OW15262   1.068   5.149   5.831
 4788SOL    HW115263   1.019   5.063   5.815
 4788SOL    HW215264   1.011   5.226   5.804
 4789SOL     OW15265   5.503   1.141   0.593
 4789SOL    HW115266   5.505   1.160   0.692
 4789SOL    HW215267   5.550   1.055   0.575
 4790SOL     OW15268   0.476   3.050   5.732
 4790SOL    HW115269   0.420   3.013   5.806
 4790SOL    HW215270   0.554   3.100   5.771
 4791SOL     OW15271   6.414   1.769   1.022
 4791SOL    HW115272   6.359   1.851   1.033
 4791SOL    HW215273   6.439   1.759   0.925
 4792SOL     OW15274   2.149   3.265   2.926
 4792SOL    HW115275   2.166   3.360   2.900
 4792SOL    HW215276   2.178   3.204   2.852
 4793SOL     OW15277   1.865   2.925   6.021
 4793SOL    HW115278   1.784   2.932   5.964
 4793SOL    HW215279   1.846   2.965   6.111
 4794SOL     OW15280   4.852   0.343   3.297
 4794SOL    HW115281   4.808   0.426   3.329
 4794SOL    HW215282   4.797   0.263   3.323
 4795SOL     OW15283   6.850   1.421   3.797
 4795SOL    HW115284   6.853   1.520   3.810
 4795SOL    HW215285   6.756   1.391   3.786
 4796SOL     OW15286   5.054   1.828   6.485
 4796SOL    HW115287   5.030   1.901   6.421
 4796SOL    HW215288   4.970   1.793   6.528
 4797SOL     OW15289   1.838   6.259   5.820
 4797SOL    HW115290   1.865   6.354   5.833
 4797SOL    HW215291   1.906   6.212   5.763
 4798SOL     OW15292   6.955   3.032   4.929
 4798SOL    HW115293   6.905   2.962   4.878
 4798SOL    HW215294   6.908   3.051   5.015
 4799SOL     OW15295   4.568   2.501   6.788
 4799SOL    HW115296   4.505   2.495   6.865
 4799SOL    HW215297   4.581   2.597   6.763
 4800SOL     OW15298   2.577   3.488   5.888
 4800SOL    HW115299   2.569   3.558   5.958
 4800SOL    HW215300   2.673   3.460   5.879
 4801SOL     OW15301   2.663   2.148   1.193
 4801SOL    HW115302   2.757   2.182   1.190
 4801SOL    HW215303   2.606   2.203   1.132
 4802SOL     OW15304   0.800   6.274   2.365
 4802SOL    HW115305   0.883   6.218   2.355
 4802SOL    HW215306   0.827   6.369   2.378
 4803SOL     OW15307   1.497   6.044   0.592
 4803SOL    HW115308   1.406   6.011   0.617
 4803SOL    HW215309   1.527   6.113   0.658
 4804SOL     OW15310   4.995   5.709   6.563
 4804SOL    HW115311   5.078   5.756   6.595
 4804SOL    HW215312   5.014   5.665   6.475
 4805SOL     OW15313   5.753   0.283   1.327
 4805SOL    HW115314   5.700   0.287   1.243
 4805SOL    HW215315   5.835   0.340   1.318
 4806SOL     OW15316   1.130   4.914   2.715
 4806SOL    HW115317   1.087   4.849   2.778
 4806SOL    HW215318   1.216   4.947   2.756
 4807SOL     OW15319   0.898   4.866   0.254
 4807SOL    HW115320   0.940   4.922   0.325
 4807SOL    HW215321   0.826   4.918   0.208
 4808SOL     OW15322   6.204   3.702   6.309
 4808SOL    HW115323   6.211   3.740   6.402
 4808SOL    HW215324   6.127   3.638   6.305
 4809SOL     OW15325   3.503   4.181   0.224
 4809SOL    HW115326   3.477   4.264   0.174
 4809SOL    HW215327   3.596   4.192   0.259
 4810SOL     OW15328   0.763   5.193   2.408
 4810SOL    HW115329   0.728   5.119   2.350
 4810SOL    HW215330   0.860   5.207   2.390
 4811SOL     OW15331   1.703   4.719   2.188
 4811SOL    HW115332   1.786   4.736   2.135
 4811SOL    HW215333   1.635   4.674   2.130
 4812SOL     OW15334   6.919   4.857   4.769
 4812SOL    HW115335   6.885   4.889   4.857
 4812SOL    HW215336   6.904   4.928   4.700
 4813SOL     OW15337   5.837   1.976   0.569
 4813SOL    HW115338   5.936   1.984   0.568
 4813SOL    HW215339   5.800   2.017   0.652
 4814SOL     OW15340   5.903   3.947   0.796
 4814SOL    HW115341   5.888   4.043   0.770
 4814SOL    HW215342   5.879   3.887   0.720
 4815SOL     OW15343   5.916   4.149   3.194
 4815SOL    HW115344   5.842   4.210   3.222
 4815SOL    HW215345   5.996   4.165   3.252
 4816SOL     OW15346   0.656   5.204   1.431
 4816SOL    HW115347   0.717   5.126   1.446
 4816SOL    HW215348   0.632   5.209   1.335
 4817SOL     OW15349   0.997   2.337   6.873
 4817SOL    HW115350   0.979   2.252   6.823
 4817SOL    HW215351   0.933   2.408   6.843
 4818SOL     OW15352   1.213   0.473   5.155
 4818SOL    HW115353   1.123   0.484   5.113
 4818SOL    HW215354   1.228   0.376   5.176
 4819SOL     OW15355   0.950   2.316   0.132
 4819SOL    HW115356   0.976   2.333   0.037
 4819SOL    HW215357   0.967   2.221   0.155
 4820SOL     OW15358   6.502   2.637   1.103
 4820SOL    HW115359   6.450   2.597   1.178
 4820SOL    HW215360   6.552   2.717   1.136
 4821SOL     OW15361   1.261   6.133   2.574
 4821SOL    HW115362   1.302   6.126   2.483
 4821SOL    HW215363   1.307   6.070   2.636
 4822SOL     OW15364   1.935   2.981   4.289
 4822SOL    HW115365   1.983   2.970   4.376
 4822SOL    HW215366   2.002   2.985   4.215
 4823SOL     OW15367   1.781   1.182   4.117
 4823SOL    HW115368   1.795   1.134   4.031
 4823SOL    HW215369   1.842   1.261   4.121
 4824SOL     OW15370   4.869   3.027   5.051
 4824SOL    HW115371   4.927   3.092   5.100
 4824SOL    HW215372   4.909   3.008   4.962
 4825SOL     OW15373   1.260   2.818   4.187
 4825SOL    HW115374   1.322   2.743   4.210
 4825SOL    HW215375   1.240   2.871   4.268
 4826SOL     OW15376   5.480   0.672   0.447
 4826SOL    HW115377   5.428   0.619   0.379
 4826SOL    HW215378   5.549   0.727   0.400
 4827SOL     OW15379   6.071   1.787   0.857
 4827SOL    HW115380   6.000   1.751   0.918
 4827SOL    HW215381   6.143   1.719   0.846
 4828SOL     OW15382   4.869   1.635   0.371
 4828SOL    HW115383   4.864   1.735   0.363
 4828SOL    HW215384   4.860   1.609   0.467
 4829SOL     OW15385   3.070   0.207   5.707
 4829SOL    HW115386   3.135   0.158   5.766
 4829SOL    HW215387   3.096   0.304   5.702
 4830SOL     OW15388   3.633   5.821   4.399
 4830SOL    HW115389   3.581   5.767   4.333
 4830SOL    HW215390   3.730   5.822   4.372
 4831SOL     OW15391   1.387   4.799   5.698
 4831SOL    HW115392   1.415   4.891   5.729
 4831SOL    HW215393   1.332   4.756   5.770
 4832SOL     OW15394   3.380   4.187   3.819
 4832SOL    HW115395   3.336   4.106   3.858
 4832SOL    HW215396   3.315   4.263   3.819
 4833SOL     OW15397   6.403   1.509   3.331
 4833SOL    HW115398   6.306   1.487   3.348
 4833SOL    HW215399   6.446   1.538   3.416
 4834SOL     OW15400   2.914   5.455   1.892
 4834SOL    HW115401   2.892   5.544   1.931
 4834SOL    HW215402   2.829   5.409   1.865
 4835SOL     OW15403   5.767   2.821   5.389
 4835SOL    HW115404   5.720   2.758   5.452
 4835SOL    HW215405   5.738   2.802   5.295
 4836SOL     OW15406   4.988   1.566   4.581
 4836SOL    HW115407   4.895   1.530   4.590
 4836SOL    HW215408   4.986   1.650   4.527
 4837SOL     OW15409   6.901   3.630   2.791
 4837SOL    HW115410   6.916   3.675   2.703
 4837SOL    HW215411   6.915   3.532   2.781
 4838SOL     OW15412   2.004   5.913   0.321
 4838SOL    HW115413   1.919   5.901   0.373
 4838SOL    HW215414   2.015   6.010   0.298
 4839SOL     OW15415   0.849   3.562   0.233
 4839SOL    HW115416   0.880   3.467   0.225
 4839SOL    HW215417   0.899   3.608   0.306
 4840SOL     OW15418   6.591   4.777   6.258
 4840SOL    HW115419   6.640   4.846   6.311
 4840SOL    HW215420   6.495   4.803   6.250
 4841SOL     OW15421   2.333   5.287   2.860
 4841SOL    HW115422   2.415   5.243   2.896
 4841SOL    HW215423   2.359   5.371   2.812
 4842SOL     OW15424   2.550   5.174   3.028
 4842SOL    HW115425   2.515   5.215   3.112
 4842SOL    HW215426   2.645   5.202   3.014
 4843SOL     OW15427   6.303   2.485   1.617
 4843SOL    HW115428   6.220   2.518   1.661
 4843SOL    HW215429   6.353   2.426   1.679
 4844SOL     OW15430   0.311   3.857   6.009
 4844SOL    HW115431   0.366   3.876   6.090
 4844SOL    HW215432   0.366   3.803   5.944
 4845SOL     OW15433   4.776   4.942   6.354
 4845SOL    HW115434   4.695   4.960   6.410
 4845SOL    HW215435   4.858   4.976   6.401
 4846SOL     OW15436   0.435   2.408   3.717
 4846SOL    HW115437   0.485   2.458   3.646
 4846SOL    HW215438   0.426   2.312   3.690
 4847SOL     OW15439   1.945   1.448   6.151
 4847SOL    HW115440   1.964   1.397   6.067
 4847SOL    HW215441   2.013   1.521   6.162
 4848SOL     OW15442   2.543   0.956   4.958
 4848SOL    HW115443   2.502   0.871   4.923
 4848SOL    HW215444   2.575   1.011   4.881
 4849SOL     OW15445   1.543   5.784   1.084
 4849SOL    HW115446   1.450   5.776   1.048
 4849SOL    HW215447   1.542   5.837   1.168
 4850SOL     OW15448   4.838   0.725   1.790
 4850SOL    HW115449   4.809   0.652   1.728
 4850SOL    HW215450   4.817   0.814   1.750
 4851SOL     OW15451   2.940   5.465   5.752
 4851SOL    HW115452   3.019   5.458   5.812
 4851SOL    HW215453   2.914   5.374   5.720
 4852SOL     OW15454   2.146   5.711   5.091
 4852SOL    HW115455   2.088   5.669   5.161
 4852SOL    HW215456   2.130   5.810   5.089
 4853SOL     OW15457   4.275   1.495   3.325
 4853SOL    HW115458   4.352   1.453   3.375
 4853SOL    HW215459   4.237   1.429   3.261
 4854SOL     OW15460   5.054   0.172   1.978
 4854SOL    HW115461   5.041   0.231   1.899
 4854SOL    HW215462   5.136   0.199   2.028
 4855SOL     OW15463   6.206   3.577   5.804
 4855SOL    HW115464   6.131   3.637   5.833
 4855SOL    HW215465   6.227   3.593   5.708
 4856SOL     OW15466   1.466   3.051   2.720
 4856SOL    HW115467   1.545   3.103   2.753
 4856SOL    HW215468   1.382   3.101   2.741
 4857SOL     OW15469   2.826   2.010   3.423
 4857SOL    HW115470   2.880   2.066   3.486
 4857SOL    HW215471   2.775   2.068   3.360
 4858SOL     OW15472   6.955   6.255   4.922
 4858SOL    HW115473   6.860   6.224   4.927
 4858SOL    HW215474   6.965   6.316   4.843
 4859SOL     OW15475   0.185   4.823   1.697
 4859SOL    HW115476   0.274   4.794   1.664
 4859SOL    HW215477   0.176   4.799   1.794
 4860SOL     OW15478   4.408   4.106   7.022
 4860SOL    HW115479   4.405   4.012   0.029
 4860SOL    HW215480   4.498   4.123   6.982
 4861SOL     OW15481   5.734   5.815   6.378
 4861SOL    HW115482   5.666   5.884   6.353
 4861SOL    HW215483   5.689   5.728   6.394
 4862SOL     OW15484   2.454   4.730   5.137
 4862SOL    HW115485   2.429   4.667   5.063
 4862SOL    HW215486   2.536   4.696   5.183
 4863SOL     OW15487   5.041   2.882   2.471
 4863SOL    HW115488   5.104   2.842   2.537
 4863SOL    HW215489   5.065   2.851   2.379
 4864SOL     OW15490   3.533   1.380   2.090
 4864SOL    HW115491   3.481   1.466   2.088
 4864SOL    HW215492   3.530   1.337   2.000
 4865SOL     OW15493   2.401   5.614   4.702
 4865SOL    HW115494   2.483   5.626   4.757
 4865SOL    HW215495   2.348   5.699   4.700
 4866SOL     OW15496   5.888   4.400   1.184
 4866SOL    HW115497   5.824   4.366   1.116
 4866SOL    HW215498   5.960   4.454   1.140
 4867SOL     OW15499   4.741   5.627   3.443
 4867SOL    HW115500   4.672   5.555   3.434
 4867SOL    HW215501   4.783   5.645   3.354
 4868SOL     OW15502   0.063   5.399   1.529
 4868SOL    HW115503   0.039   5.457   1.607
 4868SOL    HW215504   0.153   5.425   1.495
 4869SOL     OW15505   6.970   2.555   1.048
 4869SOL    HW115506   0.019   2.517   0.997
 4869SOL    HW215507   6.982   2.654   1.057
 4870SOL     OW15508   5.392   5.505   1.599
 4870SOL    HW115509   5.366   5.498   1.695
 4870SOL    HW215510   5.409   5.600   1.575
 4871SOL     OW15511   0.369   1.171   4.611
 4871SOL    HW115512   0.338   1.095   4.668
 4871SOL    HW215513   0.443   1.220   4.658
 4872SOL     OW15514   0.555   6.031   4.080
 4872SOL    HW115515   0.462   6.023   4.043
 4872SOL    HW215516   0.576   6.127   4.097
 4873SOL     OW15517   6.845   4.925   4.171
 4873SOL    HW115518   6.819   5.000   4.232
 4873SOL    HW215519   6.823   4.950   4.077
 4874SOL     OW15520   5.851   3.913   2.530
 4874SOL    HW115521   5.841   3.918   2.430
 4874SOL    HW215522   5.793   3.839   2.565
 4875SOL     OW15523   5.283   2.248   1.225
 4875SOL    HW115524   5.232   2.334   1.225
 4875SOL    HW215525   5.281   2.208   1.317
 4876SOL     OW15526   6.224   0.763   4.401
 4876SOL    HW115527   6.209   0.665   4.389
 4876SOL    HW215528   6.290   0.794   4.332
 4877SOL     OW15529   6.820   1.617   0.709
 4877SOL    HW115530   6.898   1.565   0.674
 4877SOL    HW215531   6.737   1.563   0.700
 4878SOL     OW15532   6.251   1.729   2.344
 4878SOL    HW115533   6.237   1.728   2.443
 4878SOL    HW215534   6.286   1.640   2.316
 4879SOL     OW15535   4.495   5.508   3.401
 4879SOL    HW115536   4.423   5.569   3.371
 4879SOL    HW215537   4.489   5.493   3.499
 4880SOL     OW15538   5.221   3.006   6.264
 4880SOL    HW115539   5.231   3.099   6.298
 4880SOL    HW215540   5.222   2.942   6.341
 4881SOL     OW15541   2.248   6.017   0.011
 4881SOL    HW115542   2.230   5.920   0.031
 4881SOL    HW215543   2.342   6.027   7.006
 4882SOL     OW15544   6.119   1.189   4.285
 4882SOL    HW115545   6.072   1.117   4.234
 4882SOL    HW215546   6.103   1.176   4.383
 4883SOL     OW15547   5.450   4.686   2.751
 4883SOL    HW115548   5.451   4.785   2.766
 4883SOL    HW215549   5.400   4.666   2.667
 4884SOL     OW15550   4.406   0.214   0.826
 4884SOL    HW115551   4.452   0.285   0.774
 4884SOL    HW215552   4.312   0.242   0.846
 4885SOL     OW15553   2.660   6.385   2.591
 4885SOL    HW115554   2.748   6.411   2.552
 4885SOL    HW215555   2.667   6.385   2.691
 4886SOL     OW15556   0.079   5.725   6.160
 4886SOL    HW115557   0.025   5.808   6.170
 4886SOL    HW215558   0.129   5.728   6.073
 4887SOL     OW15559   0.245   1.422   2.593
 4887SOL    HW115560   0.312   1.495   2.581
 4887SOL    HW215561   0.170   1.454   2.651
 4888SOL     OW15562   1.871   6.546   4.452
 4888SOL    HW115563   1.882   6.645   4.442
 4888SOL    HW215564   1.779   6.526   4.485
 4889SOL     OW15565   0.168   1.458   6.724
 4889SOL    HW115566   0.239   1.387   6.723
 4889SOL    HW215567   0.187   1.525   6.652
 4890SOL     OW15568   0.502   2.409   5.218
 4890SOL    HW115569   0.476   2.490   5.164
 4890SOL    HW215570   0.582   2.366   5.176
 4891SOL     OW15571   1.309   6.115   0.288
 4891SOL    HW115572   1.369   6.036   0.294
 4891SOL    HW215573   1.215   6.085   0.272
 4892SOL     OW15574   2.389   6.056   2.269
 4892SOL    HW115575   2.438   6.096   2.191
 4892SOL    HW215576   2.450   5.997   2.321
 4893SOL     OW15577   5.962   4.659   6.934
 4893SOL    HW115578   5.900   4.681   7.009
 4893SOL    HW215579   5.914   4.673   6.847
 4894SOL     OW15580   2.570   1.023   2.146
 4894SOL    HW115581   2.552   1.054   2.053
 4894SOL    HW215582   2.579   1.102   2.207
 4895SOL     OW15583   0.118   4.819   1.378
 4895SOL    HW115584   0.129   4.820   1.478
 4895SOL    HW215585   0.078   4.906   1.348
 4896SOL     OW15586   2.276   5.282   2.480
 4896SOL    HW115587   2.184   5.321   2.478
 4896SOL    HW215588   2.328   5.317   2.403
 4897SOL     OW15589   2.923   5.371   6.350
 4897SOL    HW115590   2.969   5.379   6.438
 4897SOL    HW215591   2.860   5.447   6.337
 4898SOL     OW15592   6.028   1.514   5.345
 4898SOL    HW115593   5.946   1.539   5.396
 4898SOL    HW215594   6.003   1.476   5.257
 4899SOL     OW15595   6.122   4.554   2.862
 4899SOL    HW115596   6.214   4.571   2.827
 4899SOL    HW215597   6.110   4.600   2.950
 4900SOL     OW15598   1.920   6.200   5.328
 4900SOL    HW115599   1.832   6.232   5.362
 4900SOL    HW215600   1.980   6.279   5.310
 4901SOL     OW15601   2.386   6.676   5.361
 4901SOL    HW115602   2.333   6.757   5.336
 4901SOL    HW215603   2.374   6.657   5.459
 4902SOL     OW15604   2.148   2.358   4.598
 4902SOL    HW115605   2.082   2.408   4.654
 4902SOL    HW215606   2.101   2.319   4.519
 4903SOL     OW15607   3.307   6.745   6.912
 4903SOL    HW115608   3.235   6.704   6.857
 4903SOL    HW215609   3.396   6.724   6.872
 4904SOL     OW15610   1.897   0.213   3.780
 4904SOL    HW115611   1.825   0.152   3.749
 4904SOL    HW215612   1.929   0.184   3.870
 4905SOL     OW15613   4.292   2.045   2.648
 4905SOL    HW115614   4.365   2.103   2.613
 4905SOL    HW215615   4.315   1.949   2.631
 4906SOL     OW15616   3.352   1.163   6.422
 4906SOL    HW115617   3.376   1.244   6.369
 4906SOL    HW215618   3.266   1.178   6.469
 4907SOL     OW15619   4.330   6.014   2.260
 4907SOL    HW115620   4.251   5.953   2.272
 4907SOL    HW215621   4.410   5.973   2.303
 4908SOL     OW15622   4.186   5.158   6.968
 4908SOL    HW115623   4.098   5.201   6.986
 4908SOL    HW215624   4.175   5.059   6.961
 4909SOL     OW15625   6.168   6.951   6.348
 4909SOL    HW115626   6.133   0.017   6.344
 4909SOL    HW215627   6.264   6.950   6.321
 4910SOL     OW15628   5.805   6.882   4.832
 4910SOL    HW115629   5.796   6.933   4.746
 4910SOL    HW215630   5.743   6.922   4.901
 4911SOL     OW15631   6.914   2.618   5.899
 4911SOL    HW115632   7.007   2.598   5.868
 4911SOL    HW215633   6.902   2.717   5.906
 4912SOL     OW15634   5.289   1.542   1.196
 4912SOL    HW115635   5.351   1.474   1.237
 4912SOL    HW215636   5.343   1.612   1.149
 4913SOL     OW15637   3.640   3.207   3.614
 4913SOL    HW115638   3.610   3.143   3.543
 4913SOL    HW215639   3.740   3.211   3.616
 4914SOL     OW15640   3.835   0.967   4.746
 4914SOL    HW115641   3.859   1.044   4.687
 4914SOL    HW215642   3.824   0.885   4.691
 4915SOL     OW15643   4.794   0.830   4.874
 4915SOL    HW115644   4.847   0.751   4.844
 4915SOL    HW215645   4.825   0.859   4.964
 4916SOL     OW15646   1.752   1.423   3.006
 4916SOL    HW115647   1.762   1.462   3.098
 4916SOL    HW215648   1.804   1.477   2.941
 4917SOL     OW15649   1.697   4.013   0.507
 4917SOL    HW115650   1.785   3.968   0.524
 4917SOL    HW215651   1.623   3.952   0.538
 4918SOL     OW15652   3.034   0.266   2.654
 4918SOL    HW115653   3.119   0.218   2.630
 4918SOL    HW215654   3.056   0.349   2.705
 4919SOL     OW15655   2.731   1.921   1.359
 4919SOL    HW115656   2.747   1.988   1.286
 4919SOL    HW215657   2.768   1.833   1.331
 4920SOL     OW15658   4.040   0.677   6.969
 4920SOL    HW115659   4.042   0.701   6.872
 4920SOL    HW215660   4.118   0.619   6.991
 4921SOL     OW15661   1.788   3.764   1.433
 4921SOL    HW115662   1.722   3.839   1.436
 4921SOL    HW215663   1.787   3.722   1.343
 4922SOL     OW15664   1.023   3.287   5.088
 4922SOL    HW115665   0.941   3.303   5.032
 4922SOL    HW215666   1.085   3.225   5.040
 4923SOL     OW15667   4.305   0.592   1.359
 4923SOL    HW115668   4.364   0.605   1.279
 4923SOL    HW215669   4.296   0.679   1.408
 4924SOL     OW15670   2.132   2.915   5.961
 4924SOL    HW115671   2.188   2.981   6.011
 4924SOL    HW215672   2.035   2.938   5.971
 4925SOL     OW15673   6.287   6.411   0.679
 4925SOL    HW115674   6.385   6.413   0.698
 4925SOL    HW215675   6.271   6.433   0.583
 4926SOL     OW15676   5.469   3.122   1.554
 4926SOL    HW115677   5.418   3.067   1.620
 4926SOL    HW215678   5.423   3.118   1.465
 4927SOL     OW15679   4.031   3.179   3.985
 4927SOL    HW115680   3.955   3.241   3.966
 4927SOL    HW215681   4.045   3.172   4.084
 4928SOL     OW15682   0.489   6.602   6.998
 4928SOL    HW115683   0.491   6.508   0.004
 4928SOL    HW215684   0.539   6.608   6.912
 4929SOL     OW15685   1.233   4.177   5.487
 4929SOL    HW115686   1.298   4.192   5.413
 4929SOL    HW215687   1.213   4.264   5.532
 4930SOL     OW15688   6.794   0.226   1.380
 4930SOL    HW115689   6.784   0.128   1.397
 4930SOL    HW215690   6.872   0.261   1.432
 4931SOL     OW15691   0.685   6.577   0.585
 4931SOL    HW115692   0.724   6.602   0.674
 4931SOL    HW215693   0.759   6.553   0.522
 4932SOL     OW15694   2.313   3.270   1.644
 4932SOL    HW115695   2.328   3.333   1.720
 4932SOL    HW215696   2.237   3.304   1.589
 4933SOL     OW15697   2.663   0.021   4.368
 4933SOL    HW115698   2.719   6.990   4.426
 4933SOL    HW215699   2.713   0.106   4.348
 4934SOL     OW15700   1.217   5.313   3.706
 4934SOL    HW115701   1.248   5.403   3.676
 4934SOL    HW215702   1.279   5.279   3.777
 4935SOL     OW15703   0.999   1.102   6.967
 4935SOL    HW115704   1.059   1.090   6.888
 4935SOL    HW215705   0.909   1.135   6.937
 4936SOL     OW15706   1.793   5.094   2.043
 4936SOL    HW115707   1.705   5.062   2.008
 4936SOL    HW215708   1.849   5.016   2.070
 4937SOL     OW15709   0.776   3.834   5.883
 4937SOL    HW115710   0.681   3.809   5.866
 4937SOL    HW215711   0.786   3.934   5.876
 4938SOL     OW15712   3.427   5.286   1.611
 4938SOL    HW115713   3.455   5.364   1.556
 4938SOL    HW215714   3.415   5.315   1.706
 4939SOL     OW15715   1.501   2.075   3.431
 4939SOL    HW115716   1.573   2.097   3.497
 4939SOL    HW215717   1.488   2.151   3.368
 4940SOL     OW15718   0.097   1.590   5.740
 4940SOL    HW115719   0.023   1.658   5.743
 4940SOL    HW215720   0.099   1.546   5.651
 4941SOL     OW15721   4.111   2.742   5.351
 4941SOL    HW115722   4.091   2.827   5.301
 4941SOL    HW215723   4.127   2.668   5.286
 4942SOL     OW15724   5.167   3.198   4.324
 4942SOL    HW115725   5.193   3.144   4.404
 4942SOL    HW215726   5.206   3.290   4.333
 4943SOL     OW15727   4.826   3.966   5.921
 4943SOL    HW115728   4.807   4.007   6.010
 4943SOL    HW215729   4.862   3.873   5.935
 4944SOL     OW15730   2.306   4.505   1.932
 4944SOL    HW115731   2.345   4.496   2.024
 4944SOL    HW215732   2.350   4.438   1.872
 4945SOL     OW15733   1.128   0.088   4.980
 4945SOL    HW115734   1.162   0.131   5.063
 4945SOL    HW215735   1.034   0.117   4.964
 4946SOL     OW15736   1.092   5.337   0.017
 4946SOL    HW115737   1.006   5.384   0.040
 4946SOL    HW215738   1.115   5.273   0.090
 4947SOL     OW15739   2.456   1.284   1.369
 4947SOL    HW115740   2.471   1.308   1.273
 4947SOL    HW215741   2.368   1.238   1.379
 4948SOL     OW15742   2.124   2.788   2.931
 4948SOL    HW115743   2.157   2.871   2.975
 4948SOL    HW215744   2.055   2.812   2.862
 4949SOL     OW15745   0.344   3.932   5.215
 4949SOL    HW115746   0.293   3.918   5.130
 4949SOL    HW215747   0.348   4.030   5.235
 4950SOL     OW15748   2.519   4.018   5.728
 4950SOL    HW115749   2.597   4.023   5.666
 4950SOL    HW215750   2.484   4.110   5.744
 4951SOL     OW15751   6.262   6.946   4.492
 4951SOL    HW115752   6.347   6.901   4.464
 4951SOL    HW215753   6.184   6.896   4.454
 4952SOL     OW15754   0.314   6.724   6.203
 4952SOL    HW115755   0.265   6.807   6.231
 4952SOL    HW215756   0.305   6.712   6.104
 4953SOL     OW15757   1.546   0.182   2.821
 4953SOL    HW115758   1.478   0.194   2.894
 4953SOL    HW215759   1.601   0.101   2.839
 4954SOL     OW15760   3.255   3.725   6.528
 4954SOL    HW115761   3.186   3.747   6.597
 4954SOL    HW215762   3.211   3.681   6.449
 4955SOL     OW15763   3.122   6.381   0.065
 4955SOL    HW115764   3.175   6.317   0.009
 4955SOL    HW215765   3.024   6.366   0.049
 4956SOL     OW15766   2.663   0.268   5.073
 4956SOL    HW115767   2.747   0.238   5.028
 4956SOL    HW215768   2.684   0.299   5.165
 4957SOL     OW15769   5.308   3.278   0.580
 4957SOL    HW115770   5.385   3.223   0.609
 4957SOL    HW215771   5.229   3.219   0.561
 4958SOL     OW15772   1.656   5.548   6.133
 4958SOL    HW115773   1.584   5.609   6.102
 4958SOL    HW215774   1.653   5.463   6.080
 4959SOL     OW15775   6.006   1.097   1.184
 4959SOL    HW115776   6.042   1.168   1.123
 4959SOL    HW215777   5.967   1.023   1.130
 4960SOL     OW15778   4.177   4.836   4.252
 4960SOL    HW115779   4.242   4.763   4.275
 4960SOL    HW215780   4.100   4.834   4.315
 4961SOL     OW15781   3.118   0.146   6.322
 4961SOL    HW115782   3.183   0.221   6.324
 4961SOL    HW215783   3.106   0.114   6.228
 4962SOL     OW15784   5.718   2.608   0.735
 4962SOL    HW115785   5.729   2.706   0.753
 4962SOL    HW215786   5.697   2.595   0.638
 4963SOL     OW15787   0.981   5.232   0.357
 4963SOL    HW115788   0.986   5.134   0.377
 4963SOL    HW215789   1.070   5.263   0.323
 4964SOL     OW15790   2.443   0.102   4.222
 4964SOL    HW115791   2.495   0.042   4.283
 4964SOL    HW215792   2.359   0.132   4.267
 4965SOL     OW15793   1.130   6.351   2.426
 4965SOL    HW115794   1.173   6.268   2.462
 4965SOL    HW215795   1.071   6.391   2.497
 4966SOL     OW15796   2.907   6.714   4.995
 4966SOL    HW115797   2.936   6.672   4.908
 4966SOL    HW215798   2.928   6.652   5.070
 4967SOL     OW15799   2.967   5.205   5.618
 4967SOL    HW115800   2.902   5.154   5.562
 4967SOL    HW215801   3.040   5.144   5.649
 4968SOL     OW15802   0.650   1.466   3.483
 4968SOL    HW115803   0.692   1.495   3.570
 4968SOL    HW215804   0.692   1.518   3.408
 4969SOL     OW15805   1.435   5.985   2.750
 4969SOL    HW115806   1.417   6.005   2.846
 4969SOL    HW215807   1.455   5.888   2.739
 4970SOL     OW15808   2.558   1.616   1.179
 4970SOL    HW115809   2.470   1.628   1.226
 4970SOL    HW215810   2.572   1.519   1.159
 4971SOL     OW15811   6.438   5.649   3.151
 4971SOL    HW115812   6.415   5.747   3.145
 4971SOL    HW215813   6.375   5.597   3.094
 4972SOL     OW15814   0.450   4.108   0.935
 4972SOL    HW115815   0.450   4.196   0.984
 4972SOL    HW215816   0.541   4.066   0.944
 4973SOL     OW15817   0.793   0.238   1.793
 4973SOL    HW115818   0.734   0.211   1.717
 4973SOL    HW215819   0.769   0.184   1.874
 4974SOL     OW15820   6.112   5.112   0.582
 4974SOL    HW115821   6.102   5.117   0.482
 4974SOL    HW215822   6.104   5.203   0.621
 4975SOL     OW15823   5.322   3.911   6.994
 4975SOL    HW115824   5.315   3.982   6.924
 4975SOL    HW215825   5.285   3.946   0.053
 4976SOL     OW15826   1.322   1.376   4.330
 4976SOL    HW115827   1.380   1.308   4.285
 4976SOL    HW215828   1.226   1.355   4.310
 4977SOL     OW15829   4.481   5.187   6.976
 4977SOL    HW115830   4.474   5.161   0.045
 4977SOL    HW215831   4.399   5.157   6.928
 4978SOL     OW15832   5.648   4.789   4.624
 4978SOL    HW115833   5.564   4.815   4.671
 4978SOL    HW215834   5.679   4.700   4.659
 4979SOL     OW15835   6.887   6.664   5.877
 4979SOL    HW115836   6.808   6.726   5.885
 4979SOL    HW215837   6.873   6.585   5.935
 4980SOL     OW15838   5.543   5.114   3.341
 4980SOL    HW115839   5.530   5.028   3.291
 4980SOL    HW215840   5.455   5.145   3.378
 4981SOL     OW15841   3.826   5.107   2.337
 4981SOL    HW115842   3.916   5.150   2.334
 4981SOL    HW215843   3.830   5.026   2.395
 4982SOL     OW15844   3.088   2.347   5.795
 4982SOL    HW115845   2.995   2.382   5.804
 4982SOL    HW215846   3.120   2.361   5.701
 4983SOL     OW15847   5.691   3.969   5.016
 4983SOL    HW115848   5.661   3.981   5.111
 4983SOL    HW215849   5.784   3.933   5.015
 4984SOL     OW15850   4.918   3.436   2.900
 4984SOL    HW115851   4.920   3.383   2.985
 4984SOL    HW215852   4.867   3.385   2.830
 4985SOL     OW15853   5.833   6.877   3.210
 4985SOL    HW115854   5.770   6.842   3.279
 4985SOL    HW215855   5.839   6.812   3.134
 4986SOL     OW15856   6.405   5.324   0.534
 4986SOL    HW115857   6.497   5.288   0.552
 4986SOL    HW215858   6.339   5.278   0.595
 4987SOL     OW15859   1.089   6.681   2.361
 4987SOL    HW115860   1.137   6.619   2.299
 4987SOL    HW215861   1.092   6.644   2.454
 4988SOL     OW15862   6.120   1.032   2.507
 4988SOL    HW115863   6.128   1.063   2.412
 4988SOL    HW215864   6.169   0.946   2.519
 4989SOL     OW15865   5.505   6.690   1.226
 4989SOL    HW115866   5.593   6.732   1.205
 4989SOL    HW215867   5.438   6.761   1.246
 4990SOL     OW15868   2.864   2.344   6.113
 4990SOL    HW115869   2.840   2.344   6.016
 4990SOL    HW215870   2.952   2.298   6.126
 4991SOL     OW15871   6.365   5.228   4.078
 4991SOL    HW115872   6.416   5.281   4.010
 4991SOL    HW215873   6.268   5.226   4.053
 4992SOL     OW15874   5.153   0.426   2.140
 4992SOL    HW115875   5.247   0.461   2.132
 4992SOL    HW215876   5.127   0.421   2.236
 4993SOL     OW15877   3.538   6.531   4.974
 4993SOL    HW115878   3.561   6.485   4.888
 4993SOL    HW215879   3.515   6.462   5.043
 4994SOL     OW15880   2.157   6.960   4.461
 4994SOL    HW115881   2.146   6.938   4.364
 4994SOL    HW215882   2.201   0.021   4.471
 4995SOL     OW15883   0.948   2.078   5.645
 4995SOL    HW115884   0.881   2.095   5.572
 4995SOL    HW215885   0.929   1.990   5.688
 4996SOL     OW15886   0.017   0.902   3.080
 4996SOL    HW115887   0.090   0.862   3.134
 4996SOL    HW215888   7.027   0.845   3.000
 4997SOL     OW15889   4.457   2.294   2.268
 4997SOL    HW115890   4.532   2.228   2.258
 4997SOL    HW215891   4.493   2.387   2.253
 4998SOL     OW15892   1.862   4.043   4.585
 4998SOL    HW115893   1.799   3.967   4.603
 4998SOL    HW215894   1.910   4.028   4.499
 4999SOL     OW15895   6.789   3.291   4.871
 4999SOL    HW115896   6.839   3.368   4.833
 4999SOL    HW215897   6.772   3.223   4.800
 5000SOL     OW15898   2.921   0.203   3.627
 5000SOL    HW115899   3.006   0.150   3.624
 5000SOL    HW215900   2.879   0.206   3.536
 5001SOL     OW15901   0.880   5.309   2.049
 5001SOL    HW115902   0.878   5.407   2.032
 5001SOL    HW215903   0.973   5.280   2.072
 5002SOL     OW15904   0.692   3.664   2.089
 5002SOL    HW115905   0.598   3.679   2.120
 5002SOL    HW215906   0.753   3.656   2.167
 5003SOL     OW15907   3.023   5.965   3.290
 5003SOL    HW115908   2.946   5.977   3.227
 5003SOL    HW215909   2.998   5.901   3.362
 5004SOL     OW15910   2.509   4.719   5.668
 5004SOL    HW115911   2.502   4.803   5.615
 5004SOL    HW215912   2.483   4.641   5.609
 5005SOL     OW15913   3.596   3.174   0.057
 5005SOL    HW115914   3.595   3.273   0.073
 5005SOL    HW215915   3.508   3.145   0.018
 5006SOL     OW15916   5.567   0.725   1.866
 5006SOL    HW115917   5.555   0.813   1.821
 5006SOL    HW215918   5.663   0.713   1.890
 5007SOL     OW15919   0.203   6.667   1.601
 5007SOL    HW115920   0.212   6.755   1.554
 5007SOL    HW215921   0.239   6.594   1.542
 5008SOL     OW15922   5.872   5.932   2.139
 5008SOL    HW115923   5.784   5.948   2.093
 5008SOL    HW215924   5.861   5.859   2.207
 5009SOL     OW15925   0.119   2.189   0.236
 5009SOL    HW115926   0.113   2.179   0.137
 5009SOL    HW215927   0.212   2.168   0.266
 5010SOL     OW15928   4.293   2.896   1.109
 5010SOL    HW115929   4.348   2.857   1.035
 5010SOL    HW215930   4.319   2.855   1.196
 5011SOL     OW15931   1.260   4.833   1.719
 5011SOL    HW115932   1.349   4.786   1.711
 5011SOL    HW215933   1.236   4.874   1.631
 5012SOL     OW15934   5.659   3.103   5.064
 5012SOL    HW115935   5.593   3.060   5.125
 5012SOL    HW215936   5.752   3.087   5.100
 5013SOL     OW15937   5.196   1.591   6.449
 5013SOL    HW115938   5.295   1.605   6.445
 5013SOL    HW215939   5.150   1.679   6.459
 5014SOL     OW15940   5.625   4.155   1.193
 5014SOL    HW115941   5.696   4.189   1.132
 5014SOL    HW215942   5.664   4.134   1.282
 5015SOL     OW15943   5.037   1.685   4.986
 5015SOL    HW115944   5.093   1.663   4.907
 5015SOL    HW215945   5.077   1.763   5.034
 5016SOL     OW15946   1.993   3.074   5.238
 5016SOL    HW115947   1.932   3.102   5.312
 5016SOL    HW215948   2.088   3.081   5.268
 5017SOL     OW15949   2.397   2.518   1.225
 5017SOL    HW115950   2.328   2.446   1.225
 5017SOL    HW215951   2.471   2.494   1.288
 5018SOL     OW15952   1.146   4.813   2.359
 5018SOL    HW115953   1.206   4.753   2.307
 5018SOL    HW215954   1.142   4.781   2.454
 5019SOL     OW15955   1.495   5.824   5.682
 5019SOL    HW115956   1.480   5.725   5.692
 5019SOL    HW215957   1.462   5.872   5.763
 5020SOL     OW15958   5.494   0.176   6.203
 5020SOL    HW115959   5.436   0.105   6.242
 5020SOL    HW215960   5.564   0.135   6.146
 5021SOL     OW15961   0.913   1.354   0.349
 5021SOL    HW115962   0.955   1.398   0.428
 5021SOL    HW215963   0.862   1.273   0.379
 5022SOL     OW15964   2.658   2.496   0.871
 5022SOL    HW115965   2.569   2.538   0.854
 5022SOL    HW215966   2.646   2.412   0.923
 5023SOL     OW15967   0.337   3.335   1.578
 5023SOL    HW115968   0.376   3.278   1.506
 5023SOL    HW215969   0.259   3.288   1.619
 5024SOL     OW15970   6.056   5.732   1.325
 5024SOL    HW115971   6.124   5.676   1.278
 5024SOL    HW215972   6.067   5.723   1.424
 5025SOL     OW15973   4.464   1.893   3.469
 5025SOL    HW115974   4.484   1.804   3.427
 5025SOL    HW215975   4.396   1.880   3.542
 5026SOL     OW15976   6.654   6.245   5.224
 5026SOL    HW115977   6.586   6.180   5.258
 5026SOL    HW215978   6.742   6.228   5.269
 5027SOL     OW15979   6.539   6.561   1.595
 5027SOL    HW115980   6.471   6.509   1.645
 5027SOL    HW215981   6.593   6.499   1.537
 5028SOL     OW15982   0.508   2.039   2.734
 5028SOL    HW115983   0.507   2.096   2.652
 5028SOL    HW215984   0.602   2.011   2.753
 5029SOL     OW15985   6.460   2.475   2.443
 5029SOL    HW115986   6.494   2.487   2.350
 5029SOL    HW215987   6.368   2.513   2.450
 5030SOL     OW15988   0.466   6.202   6.364
 5030SOL    HW115989   0.399   6.239   6.428
 5030SOL    HW215990   0.489   6.108   6.391
 5031SOL     OW15991   6.601   0.952   6.225
 5031SOL    HW115992   6.639   0.860   6.230
 5031SOL    HW215993   6.527   0.954   6.157
 5032SOL     OW15994   2.355   2.514   5.906
 5032SOL    HW115995   2.292   2.438   5.891
 5032SOL    HW215996   2.443   2.494   5.862
 5033SOL     OW15997   2.130   6.836   5.966
 5033SOL    HW115998   2.206   6.893   5.999
 5033SOL    HW215999   2.046   6.891   5.966
 5034SOL     OW16000   6.092   6.928   3.396
 5034SOL    HW116001   6.060   6.977   3.315
 5034SOL    HW216002   6.088   6.830   3.379
 5035SOL     OW16003   0.351   4.220   6.224
 5035SOL    HW116004   0.377   4.125   6.239
 5035SOL    HW216005   0.355   4.269   6.312
 5036SOL     OW16006   0.191   5.107   6.582
 5036SOL    HW116007   0.105   5.128   6.628
 5036SOL    HW216008   0.249   5.188   6.581
 5037SOL     OW16009   4.838   4.389   1.781
 5037SOL    HW116010   4.918   4.332   1.763
 5037SOL    HW216011   4.779   4.343   1.848
 5038SOL     OW16012   3.036   3.657   5.535
 5038SOL    HW116013   2.949   3.706   5.550
 5038SOL    HW216014   3.112   3.714   5.566
 5039SOL     OW16015   2.352   4.489   5.846
 5039SOL    HW116016   2.360   4.390   5.847
 5039SOL    HW216017   2.256   4.515   5.854
 5040SOL     OW16018   1.231   6.930   6.150
 5040SOL    HW116019   1.235   6.926   6.250
 5040SOL    HW216020   1.172   6.856   6.116
 5041SOL     OW16021   1.234   1.835   2.526
 5041SOL    HW116022   1.318   1.820   2.579
 5041SOL    HW216023   1.202   1.749   2.488
 5042SOL     OW16024   6.371   3.495   6.899
 5042SOL    HW116025   6.293   3.489   6.960
 5042SOL    HW216026   6.455   3.475   6.949
 5043SOL     OW16027   3.478   6.801   6.472
 5043SOL    HW116028   3.535   6.800   6.390
 5043SOL    HW216029   3.536   6.818   6.552
 5044SOL     OW16030   0.785   6.473   0.327
 5044SOL    HW116031   0.845   6.523   0.265
 5044SOL    HW216032   0.744   6.395   0.279
 5045SOL     OW16033   5.709   0.083   6.064
 5045SOL    HW116034   5.742   0.173   6.037
 5045SOL    HW216035   5.723   0.018   5.989
 5046SOL     OW16036   3.416   4.144   2.888
 5046SOL    HW116037   3.418   4.168   2.986
 5046SOL    HW216038   3.322   4.153   2.854
 5047SOL     OW16039   0.988   4.388   2.356
 5047SOL    HW116040   0.912   4.330   2.328
 5047SOL    HW216041   1.024   4.436   2.275
 5048SOL     OW16042   1.170   1.593   2.465
 5048SOL    HW116043   1.178   1.535   2.546
 5048SOL    HW216044   1.238   1.566   2.398
 5049SOL     OW16045   5.007   2.085   6.823
 5049SOL    HW116046   4.922   2.052   6.782
 5049SOL    HW216047   5.085   2.045   6.776
 5050SOL     OW16048   2.007   0.687   1.390
 5050SOL    HW116049   1.947   0.710   1.467
 5050SOL    HW216050   1.961   0.711   1.305
 5051SOL     OW16051   4.172   4.379   1.044
 5051SOL    HW116052   4.250   4.426   1.086
 5051SOL    HW216053   4.189   4.370   0.946
 5052SOL     OW16054   2.363   0.620   6.152
 5052SOL    HW116055   2.283   0.671   6.183
 5052SOL    HW216056   2.409   0.671   6.079
 5053SOL     OW16057   2.064   3.800   3.943
 5053SOL    HW116058   1.975   3.820   3.902
 5053SOL    HW216059   2.101   3.716   3.903
 5054SOL     OW16060   3.370   4.896   4.315
 5054SOL    HW116061   3.297   4.872   4.250
 5054SOL    HW216062   3.333   4.958   4.384
 5055SOL     OW16063   1.432   2.417   5.374
 5055SOL    HW116064   1.490   2.489   5.336
 5055SOL    HW216065   1.366   2.387   5.305
 5056SOL     OW16066   5.272   4.132   6.828
 5056SOL    HW116067   5.330   4.167   6.755
 5056SOL    HW216068   5.178   4.125   6.796
 5057SOL     OW16069   6.837   6.216   3.641
 5057SOL    HW116070   6.908   6.163   3.687
 5057SOL    HW216071   6.762   6.155   3.615
 5058SOL     OW16072   3.173   4.081   5.703
 5058SOL    HW116073   3.232   4.055   5.626
 5058SOL    HW216074   3.087   4.119   5.668
 5059SOL     OW16075   6.917   1.374   2.962
 5059SOL    HW116076   6.834   1.343   2.915
 5059SOL    HW216077   6.946   1.302   3.026
 5060SOL     OW16078   0.629   2.120   6.008
 5060SOL    HW116079   0.706   2.168   5.966
 5060SOL    HW216080   0.566   2.089   5.937
 5061SOL     OW16081   4.826   2.729   1.245
 5061SOL    HW116082   4.860   2.660   1.181
 5061SOL    HW216083   4.741   2.697   1.286
 5062SOL     OW16084   5.876   0.271   3.058
 5062SOL    HW116085   5.873   0.347   3.124
 5062SOL    HW216086   5.798   0.210   3.074
 5063SOL     OW16087   0.790   0.040   2.353
 5063SOL    HW116088   0.801   0.047   2.254
 5063SOL    HW216089   0.858   0.097   2.399
 5064SOL     OW16090   5.296   3.431   0.998
 5064SOL    HW116091   5.365   3.431   1.070
 5064SOL    HW216092   5.205   3.440   1.039
 5065SOL     OW16093   2.232   0.856   4.179
 5065SOL    HW116094   2.240   0.777   4.118
 5065SOL    HW216095   2.286   0.841   4.261
 5066SOL     OW16096   5.131   4.773   2.814
 5066SOL    HW116097   5.139   4.706   2.741
 5066SOL    HW216098   5.036   4.777   2.845
 5067SOL     OW16099   4.537   0.768   1.589
 5067SOL    HW116100   4.621   0.817   1.567
 5067SOL    HW216101   4.558   0.672   1.609
 5068SOL     OW16102   2.362   4.002   0.990
 5068SOL    HW116103   2.296   3.956   0.931
 5068SOL    HW216104   2.455   3.972   0.967
 5069SOL     OW16105   1.771   3.604   5.986
 5069SOL    HW116106   1.755   3.697   6.017
 5069SOL    HW216107   1.868   3.592   5.963
 5070SOL     OW16108   5.144   4.281   4.325
 5070SOL    HW116109   5.130   4.182   4.335
 5070SOL    HW216110   5.070   4.320   4.270
 5071SOL     OW16111   4.556   2.608   4.426
 5071SOL    HW116112   4.605   2.686   4.387
 5071SOL    HW216113   4.616   2.529   4.428
 5072SOL     OW16114   1.145   0.053   0.970
 5072SOL    HW116115   1.225   0.001   0.940
 5072SOL    HW216116   1.170   0.112   1.047
 5073SOL     OW16117   0.033   5.898   2.684
 5073SOL    HW116118   0.093   5.838   2.631
 5073SOL    HW216119   0.086   5.975   2.720
 5074SOL     OW16120   3.082   3.029   0.757
 5074SOL    HW116121   3.031   2.967   0.818
 5074SOL    HW216122   3.119   3.105   0.810
 5075SOL     OW16123   1.486   1.925   6.826
 5075SOL    HW116124   1.463   1.981   6.746
 5075SOL    HW216125   1.411   1.861   6.844
 5076SOL     OW16126   3.790   1.096   0.430
 5076SOL    HW116127   3.834   1.041   0.500
 5076SOL    HW216128   3.847   1.177   0.411
 5077SOL     OW16129   0.830   3.977   5.446
 5077SOL    HW116130   0.858   4.061   5.492
 5077SOL    HW216131   0.891   3.902   5.473
 5078SOL     OW16132   1.674   1.788   3.821
 5078SOL    HW116133   1.725   1.767   3.905
 5078SOL    HW216134   1.709   1.731   3.746
 5079SOL     OW16135   2.034   3.524   5.924
 5079SOL    HW116136   2.058   3.428   5.908
 5079SOL    HW216137   2.098   3.583   5.874
 5080SOL     OW16138   6.266   6.467   6.200
 5080SOL    HW116139   6.280   6.369   6.217
 5080SOL    HW216140   6.352   6.516   6.212
 5081SOL     OW16141   3.381   2.887   4.096
 5081SOL    HW116142   3.340   2.934   4.018
 5081SOL    HW216143   3.387   2.789   4.077
 5082SOL     OW16144   5.077   6.225   6.366
 5082SOL    HW116145   5.068   6.125   6.367
 5082SOL    HW216146   4.989   6.266   6.389
 5083SOL     OW16147   2.821   0.293   3.072
 5083SOL    HW116148   2.843   0.364   3.006
 5083SOL    HW216149   2.868   0.208   3.046
 5084SOL     OW16150   0.500   4.566   4.211
 5084SOL    HW116151   0.550   4.652   4.202
 5084SOL    HW216152   0.513   4.529   4.303
 5085SOL     OW16153   4.404   3.553   6.239
 5085SOL    HW116154   4.361   3.576   6.152
 5085SOL    HW216155   4.448   3.634   6.277
 5086SOL     OW16156   0.245   5.521   3.155
 5086SOL    HW116157   0.155   5.559   3.137
 5086SOL    HW216158   0.248   5.426   3.122
 5087SOL     OW16159   0.267   4.578   2.924
 5087SOL    HW116160   0.191   4.615   2.977
 5087SOL    HW216161   0.245   4.585   2.826
 5088SOL     OW16162   6.069   1.782   4.733
 5088SOL    HW116163   6.120   1.712   4.682
 5088SOL    HW216164   5.972   1.777   4.707
 5089SOL     OW16165   5.277   3.380   3.690
 5089SOL    HW116166   5.204   3.326   3.648
 5089SOL    HW216167   5.298   3.343   3.780
 5090SOL     OW16168   1.853   3.718   2.878
 5090SOL    HW116169   1.841   3.661   2.796
 5090SOL    HW216170   1.793   3.798   2.872
 5091SOL     OW16171   1.544   6.630   2.389
 5091SOL    HW116172   1.616   6.563   2.373
 5091SOL    HW216173   1.469   6.613   2.325
 5092SOL     OW16174   3.629   2.812   1.441
 5092SOL    HW116175   3.726   2.798   1.423
 5092SOL    HW216176   3.617   2.893   1.498
 5093SOL     OW16177   2.917   1.533   1.042
 5093SOL    HW116178   2.932   1.441   1.076
 5093SOL    HW216179   3.004   1.582   1.037
 5094SOL     OW16180   1.639   6.154   5.415
 5094SOL    HW116181   1.617   6.193   5.505
 5094SOL    HW216182   1.561   6.167   5.354
 5095SOL     OW16183   0.304   2.666   4.755
 5095SOL    HW116184   0.310   2.754   4.803
 5095SOL    HW216185   0.209   2.636   4.752
 5096SOL     OW16186   4.286   3.491   0.787
 5096SOL    HW116187   4.225   3.418   0.818
 5096SOL    HW216188   4.380   3.461   0.793
 5097SOL     OW16189   1.326   0.675   0.169
 5097SOL    HW116190   1.258   0.621   0.218
 5097SOL    HW216191   1.402   0.696   0.231
 5098SOL     OW16192   1.525   0.656   1.225
 5098SOL    HW116193   1.566   0.567   1.207
 5098SOL    HW216194   1.576   0.727   1.178
 5099SOL     OW16195   0.935   6.324   6.744
 5099SOL    HW116196   0.955   6.406   6.797
 5099SOL    HW216197   0.978   6.331   6.654
 5100SOL     OW16198   4.239   6.266   5.153
 5100SOL    HW116199   4.336   6.243   5.139
 5100SOL    HW216200   4.231   6.361   5.183
 5101SOL     OW16201   3.864   6.788   0.344
 5101SOL    HW116202   3.904   6.697   0.357
 5101SOL    HW216203   3.926   6.857   0.381
 5102SOL     OW16204   6.374   0.488   4.891
 5102SOL    HW116205   6.382   0.520   4.985
 5102SOL    HW216206   6.298   0.423   4.883
 5103SOL     OW16207   0.509   0.663   4.226
 5103SOL    HW116208   0.517   0.679   4.128
 5103SOL    HW216209   0.435   0.718   4.264
 5104SOL     OW16210   1.935   6.729   2.642
 5104SOL    HW116211   1.857   6.761   2.588
 5104SOL    HW216212   2.020   6.747   2.593
 5105SOL     OW16213   3.487   2.741   0.025
 5105SOL    HW116214   3.561   2.799   0.060
 5105SOL    HW216215   3.487   2.743   6.953
 5106SOL     OW16216   3.530   0.729   1.237
 5106SOL    HW116217   3.547   0.827   1.235
 5106SOL    HW216218   3.572   0.686   1.157
 5107SOL     OW16219   4.426   0.687   1.128
 5107SOL    HW116220   4.358   0.760   1.120
 5107SOL    HW216221   4.443   0.647   1.038
 5108SOL     OW16222   2.921   3.724   4.098
 5108SOL    HW116223   2.862   3.805   4.088
 5108SOL    HW216224   3.006   3.750   4.144
 5109SOL     OW16225   1.346   0.636   0.701
 5109SOL    HW116226   1.426   0.692   0.723
 5109SOL    HW216227   1.311   0.594   0.785
 5110SOL     OW16228   0.753   0.171   6.255
 5110SOL    HW116229   0.749   0.252   6.196
 5110SOL    HW216230   0.842   0.168   6.301
 5111SOL     OW16231   1.993   1.063   5.600
 5111SOL    HW116232   2.005   0.989   5.666
 5111SOL    HW216233   2.062   1.133   5.616
 5112SOL     OW16234   1.194   6.891   2.484
 5112SOL    HW116235   1.148   6.819   2.433
 5112SOL    HW216236   1.158   6.893   2.578
 5113SOL     OW16237   2.302   0.211   2.275
 5113SOL    HW116238   2.353   0.166   2.202
 5113SOL    HW216239   2.246   0.284   2.237
 5114SOL     OW16240   3.414   2.487   6.932
 5114SOL    HW116241   3.360   2.454   7.010
 5114SOL    HW216242   3.464   2.569   6.958
 5115SOL     OW16243   2.146   5.000   4.824
 5115SOL    HW116244   2.062   4.950   4.843
 5115SOL    HW216245   2.128   5.098   4.824
 5116SOL     OW16246   5.440   6.555   6.462
 5116SOL    HW116247   5.375   6.480   6.457
 5116SOL    HW216248   5.428   6.605   6.548
 5117SOL     OW16249   1.863   4.462   4.624
 5117SOL    HW116250   1.858   4.539   4.561
 5117SOL    HW216251   1.887   4.496   4.716
 5118SOL     OW16252   4.311   6.966   0.420
 5118SOL    HW116253   4.357   6.946   0.506
 5118SOL    HW216254   4.213   6.945   0.429
 5119SOL     OW16255   5.332   1.000   2.032
 5119SOL    HW116256   5.341   1.035   1.939
 5119SOL    HW216257   5.416   1.019   2.083
 5120SOL     OW16258   4.378   1.150   3.785
 5120SOL    HW116259   4.291   1.108   3.809
 5120SOL    HW216260   4.447   1.126   3.853
 5121SOL     OW16261   2.247   2.357   6.922
 5121SOL    HW116262   2.324   2.319   6.975
 5121SOL    HW216263   2.166   2.300   6.937
 5122SOL     OW16264   3.252   0.477   4.005
 5122SOL    HW116265   3.342   0.510   3.975
 5122SOL    HW216266   3.197   0.555   4.036
 5123SOL     OW16267   5.983   2.463   4.844
 5123SOL    HW116268   5.923   2.383   4.853
 5123SOL    HW216269   6.067   2.437   4.797
 5124SOL     OW16270   2.857   5.132   5.143
 5124SOL    HW116271   2.881   5.042   5.105
 5124SOL    HW216272   2.764   5.156   5.116
 5125SOL     OW16273   6.125   3.179   4.391
 5125SOL    HW116274   6.145   3.121   4.313
 5125SOL    HW216275   6.073   3.259   4.361
 5126SOL     OW16276   6.054   5.185   6.333
 5126SOL    HW116277   6.082   5.253   6.400
 5126SOL    HW216278   6.060   5.225   6.241
 5127SOL     OW16279   6.752   3.826   0.376
 5127SOL    HW116280   6.670   3.806   0.323
 5127SOL    HW216281   6.731   3.897   0.443
 5128SOL     OW16282   0.103   6.724   6.847
 5128SOL    HW116283   0.042   6.777   6.789
 5128SOL    HW216284   0.091   6.753   6.942
 5129SOL     OW16285   4.983   0.278   2.953
 5129SOL    HW116286   4.940   0.309   3.038
 5129SOL    HW216287   4.952   0.336   2.877
 5130SOL     OW16288   1.630   6.231   4.030
 5130SOL    HW116289   1.618   6.309   4.092
 5130SOL    HW216290   1.543   6.212   3.984
 5131SOL     OW16291   2.703   4.706   3.496
 5131SOL    HW116292   2.686   4.728   3.400
 5131SOL    HW216293   2.641   4.634   3.526
 5132SOL     OW16294   3.537   1.332   6.051
 5132SOL    HW116295   3.484   1.383   6.119
 5132SOL    HW216296   3.634   1.341   6.072
 5133SOL     OW16297   2.640   5.773   6.691
 5133SOL    HW116298   2.628   5.810   6.784
 5133SOL    HW216299   2.654   5.849   6.628
 5134SOL     OW16300   0.047   0.194   2.712
 5134SOL    HW116301   0.069   0.101   2.685
 5134SOL    HW216302   0.062   0.256   2.635
 5135SOL     OW16303   5.551   3.763   3.798
 5135SOL    HW116304   5.626   3.759   3.865
 5135SOL    HW216305   5.578   3.716   3.715
 5136SOL     OW16306   5.713   0.623   6.028
 5136SOL    HW116307   5.665   0.651   5.945
 5136SOL    HW216308   5.661   0.652   6.108
 5137SOL     OW16309   5.478   3.391   5.081
 5137SOL    HW116310   5.520   3.473   5.119
 5137SOL    HW216311   5.541   3.348   5.016
 5138SOL     OW16312   3.861   3.984   4.437
 5138SOL    HW116313   3.783   4.040   4.409
 5138SOL    HW216314   3.852   3.893   4.398
 5139SOL     OW16315   0.893   6.899   4.711
 5139SOL    HW116316   0.793   6.899   4.705
 5139SOL    HW216317   0.921   6.862   4.800
 5140SOL     OW16318   3.763   1.894   5.587
 5140SOL    HW116319   3.803   1.806   5.614
 5140SOL    HW216320   3.828   1.943   5.529
 5141SOL     OW16321   6.578   3.492   0.895
 5141SOL    HW116322   6.554   3.589   0.892
 5141SOL    HW216323   6.622   3.466   0.809
 5142SOL     OW16324   5.510   6.686   5.196
 5142SOL    HW116325   5.533   6.592   5.170
 5142SOL    HW216326   5.499   6.742   5.115
 5143SOL     OW16327   1.029   4.228   5.091
 5143SOL    HW116328   0.995   4.185   5.008
 5143SOL    HW216329   1.101   4.293   5.068
 5144SOL     OW16330   2.010   4.025   6.126
 5144SOL    HW116331   1.932   4.071   6.084
 5144SOL    HW216332   2.086   4.022   6.061
 5145SOL     OW16333   4.041   6.334   6.251
 5145SOL    HW116334   3.963   6.311   6.193
 5145SOL    HW216335   4.019   6.313   6.347
 5146SOL     OW16336   3.791   4.123   5.065
 5146SOL    HW116337   3.724   4.197   5.076
 5146SOL    HW216338   3.774   4.076   4.978
 5147SOL     OW16339   6.082   4.830   3.376
 5147SOL    HW116340   5.992   4.874   3.374
 5147SOL    HW216341   6.098   4.789   3.465
 5148SOL     OW16342   0.351   1.250   2.225
 5148SOL    HW116343   0.411   1.171   2.210
 5148SOL    HW216344   0.399   1.334   2.199
 5149SOL     OW16345   5.854   5.590   4.753
 5149SOL    HW116346   5.927   5.648   4.717
 5149SOL    HW216347   5.851   5.505   4.701
 5150SOL     OW16348   2.048   4.325   3.968
 5150SOL    HW116349   2.074   4.402   3.910
 5150SOL    HW216350   1.995   4.259   3.915
 5151SOL     OW16351   6.721   4.026   2.069
 5151SOL    HW116352   6.742   4.110   2.119
 5151SOL    HW216353   6.789   4.013   1.997
 5152SOL     OW16354   2.003   5.787   6.526
 5152SOL    HW116355   2.008   5.853   6.601
 5152SOL    HW216356   2.086   5.731   6.524
 5153SOL     OW16357   0.411   2.258   0.794
 5153SOL    HW116358   0.443   2.327   0.729
 5153SOL    HW216359   0.426   2.167   0.756
 5154SOL     OW16360   1.370   2.598   6.039
 5154SOL    HW116361   1.432   2.658   5.989
 5154SOL    HW216362   1.371   2.623   6.136
 5155SOL     OW16363   4.036   0.879   1.335
 5155SOL    HW116364   3.981   0.938   1.396
 5155SOL    HW216365   4.132   0.883   1.363
 5156SOL     OW16366   5.823   4.698   4.945
 5156SOL    HW116367   5.863   4.779   4.903
 5156SOL    HW216368   5.895   4.631   4.964
 5157SOL     OW16369   3.221   2.115   2.305
 5157SOL    HW116370   3.314   2.150   2.318
 5157SOL    HW216371   3.218   2.018   2.330
 5158SOL     OW16372   3.806   2.561   0.941
 5158SOL    HW116373   3.875   2.587   1.009
 5158SOL    HW216374   3.764   2.474   0.967
 5159SOL     OW16375   5.765   3.665   6.293
 5159SOL    HW116376   5.753   3.760   6.321
 5159SOL    HW216377   5.679   3.630   6.256
 5160SOL     OW16378   0.150   5.213   3.175
 5160SOL    HW116379   0.117   5.121   3.200
 5160SOL    HW216380   0.245   5.222   3.204
 5161SOL     OW16381   1.241   3.642   0.318
 5161SOL    HW116382   1.256   3.610   0.225
 5161SOL    HW216383   1.297   3.589   0.382
 5162SOL     OW16384   1.002   5.499   2.553
 5162SOL    HW116385   0.998   5.409   2.510
 5162SOL    HW216386   0.976   5.569   2.486
 5163SOL     OW16387   3.488   6.538   0.812
 5163SOL    HW116388   3.525   6.491   0.731
 5163SOL    HW216389   3.494   6.477   0.891
 5164SOL     OW16390   3.164   2.983   6.504
 5164SOL    HW116391   3.160   3.058   6.438
 5164SOL    HW216392   3.089   2.993   6.570
 5165SOL     OW16393   1.070   4.224   6.356
 5165SOL    HW116394   1.091   4.135   6.316
 5165SOL    HW216395   1.140   4.249   6.422
 5166SOL     OW16396   1.744   5.177   2.624
 5166SOL    HW116397   1.767   5.126   2.706
 5166SOL    HW216398   1.659   5.227   2.638
 5167SOL     OW16399   6.624   4.096   4.760
 5167SOL    HW116400   6.619   3.998   4.738
 5167SOL    HW216401   6.719   4.120   4.780
 5168SOL     OW16402   5.344   2.694   2.607
 5168SOL    HW116403   5.265   2.637   2.583
 5168SOL    HW216404   5.316   2.760   2.677
 5169SOL     OW16405   4.850   1.910   3.468
 5169SOL    HW116406   4.802   1.963   3.398
 5169SOL    HW216407   4.786   1.885   3.540
 5170SOL     OW16408   1.470   3.494   5.194
 5170SOL    HW116409   1.489   3.472   5.099
 5170SOL    HW216410   1.453   3.409   5.245
 5171SOL     OW16411   6.642   4.629   6.009
 5171SOL    HW116412   6.659   4.531   6.002
 5171SOL    HW216413   6.627   4.653   6.105
 5172SOL     OW16414   1.542   4.462   3.220
 5172SOL    HW116415   1.558   4.415   3.133
 5172SOL    HW216416   1.580   4.407   3.295
 5173SOL     OW16417   4.748   5.034   5.344
 5173SOL    HW116418   4.753   5.035   5.244
 5173SOL    HW216419   4.702   5.116   5.376
 5174SOL     OW16420   2.273   4.981   3.687
 5174SOL    HW116421   2.173   4.981   3.684
 5174SOL    HW216422   2.304   5.051   3.751
 5175SOL     OW16423   2.846   3.958   0.143
 5175SOL    HW116424   2.806   3.883   0.092
 5175SOL    HW216425   2.806   3.963   0.234
 5176SOL     OW16426   5.131   4.712   6.274
 5176SOL    HW116427   5.039   4.748   6.261
 5176SOL    HW216428   5.153   4.650   6.199
 5177SOL     OW16429   4.403   6.648   0.858
 5177SOL    HW116430   4.328   6.656   0.793
 5177SOL    HW216431   4.403   6.727   0.919
 5178SOL     OW16432   1.533   4.533   2.023
 5178SOL    HW116433   1.554   4.461   1.957
 5178SOL    HW216434   1.442   4.571   2.003
 5179SOL     OW16435   4.779   4.233   4.161
 5179SOL    HW116436   4.826   4.168   4.220
 5179SOL    HW216437   4.760   4.317   4.213
 5180SOL     OW16438   3.598   1.007   1.327
 5180SOL    HW116439   3.520   1.056   1.288
 5180SOL    HW216440   3.662   1.072   1.367
 5181SOL     OW16441   6.383   0.107   1.564
 5181SOL    HW116442   6.441   0.141   1.490
 5181SOL    HW216443   6.398   0.163   1.646
 5182SOL     OW16444   4.595   4.543   2.053
 5182SOL    HW116445   4.655   4.583   1.984
 5182SOL    HW216446   4.570   4.450   2.026
 5183SOL     OW16447   4.066   1.883   2.430
 5183SOL    HW116448   4.007   1.959   2.457
 5183SOL    HW216449   4.017   1.797   2.440
 5184SOL     OW16450   2.479   1.815   3.314
 5184SOL    HW116451   2.453   1.718   3.318
 5184SOL    HW216452   2.567   1.823   3.267
 5185SOL     OW16453   5.396   0.385   2.365
 5185SOL    HW116454   5.459   0.455   2.400
 5185SOL    HW216455   5.349   0.341   2.442
 5186SOL     OW16456   6.200   2.501   6.346
 5186SOL    HW116457   6.136   2.546   6.283
 5186SOL    HW216458   6.280   2.469   6.295
 5187SOL     OW16459   1.060   5.437   5.572
 5187SOL    HW116460   1.010   5.386   5.501
 5187SOL    HW216461   0.995   5.488   5.628
 5188SOL     OW16462   5.841   5.942   1.806
 5188SOL    HW116463   5.857   5.846   1.831
 5188SOL    HW216464   5.744   5.963   1.819
 5189SOL     OW16465   5.039   5.987   0.504
 5189SOL    HW116466   5.064   6.029   0.417
 5189SOL    HW216467   5.000   6.057   0.565
 5190SOL     OW16468   0.883   3.965   3.646
 5190SOL    HW116469   0.982   3.964   3.630
 5190SOL    HW216470   0.837   3.929   3.565
 5191SOL     OW16471   3.334   5.891   2.306
 5191SOL    HW116472   3.384   5.924   2.386
 5191SOL    HW216473   3.240   5.869   2.333
 5192SOL     OW16474   1.293   5.866   1.325
 5192SOL    HW116475   1.289   5.935   1.253
 5192SOL    HW216476   1.290   5.775   1.285
 5193SOL     OW16477   4.781   5.745   5.600
 5193SOL    HW116478   4.810   5.835   5.631
 5193SOL    HW216479   4.707   5.755   5.534
 5194SOL     OW16480   3.522   2.229   6.871
 5194SOL    HW116481   3.618   2.243   6.893
 5194SOL    HW216482   3.469   2.311   6.896
 5195SOL     OW16483   0.428   0.766   4.585
 5195SOL    HW116484   0.467   0.677   4.609
 5195SOL    HW216485   0.422   0.775   4.486
 5196SOL     OW16486   4.632   0.115   2.322
 5196SOL    HW116487   4.731   0.098   2.326
 5196SOL    HW216488   4.611   0.203   2.364
 5197SOL     OW16489   1.511   3.771   6.569
 5197SOL    HW116490   1.573   3.794   6.644
 5197SOL    HW216491   1.551   3.699   6.513
 5198SOL     OW16492   4.482   5.354   3.188
 5198SOL    HW116493   4.507   5.415   3.262
 5198SOL    HW216494   4.565   5.316   3.147
 5199SOL     OW16495   0.902   5.291   0.663
 5199SOL    HW116496   0.826   5.351   0.689
 5199SOL    HW216497   0.898   5.272   0.565
 5200SOL     OW16498   6.874   3.691   5.165
 5200SOL    HW116499   6.825   3.716   5.081
 5200SOL    HW216500   6.971   3.680   5.143
 5201SOL     OW16501   1.337   0.155   3.023
 5201SOL    HW116502   1.327   0.189   3.117
 5201SOL    HW216503   1.268   0.084   3.006
 5202SOL     OW16504   5.155   3.178   6.651
 5202SOL    HW116505   5.185   3.222   6.735
 5202SOL    HW216506   5.140   3.081   6.668
 5203SOL     OW16507   2.078   1.951   6.722
 5203SOL    HW116508   1.995   1.904   6.752
 5203SOL    HW216509   2.086   1.946   6.623
 5204SOL     OW16510   3.935   4.998   0.360
 5204SOL    HW116511   3.916   4.928   0.428
 5204SOL    HW216512   3.904   4.967   0.270
 5205SOL     OW16513   1.785   6.573   1.098
 5205SOL    HW116514   1.841   6.648   1.065
 5205SOL    HW216515   1.844   6.497   1.127
 5206SOL     OW16516   0.553   4.339   5.411
 5206SOL    HW116517   0.453   4.336   5.424
 5206SOL    HW216518   0.582   4.257   5.361
 5207SOL     OW16519   0.910   5.827   3.998
 5207SOL    HW116520   0.830   5.862   4.047
 5207SOL    HW216521   0.880   5.758   3.932
 5208SOL     OW16522   4.019   2.234   6.882
 5208SOL    HW116523   3.993   2.308   6.820
 5208SOL    HW216524   3.942   2.213   6.943
 5209SOL     OW16525   5.463   5.915   3.850
 5209SOL    HW116526   5.493   5.931   3.755
 5209SOL    HW216527   5.463   5.816   3.867
 5210SOL     OW16528   5.925   2.432   5.220
 5210SOL    HW116529   5.892   2.500   5.154
 5210SOL    HW216530   5.849   2.373   5.249
 5211SOL     OW16531   3.902   3.076   4.875
 5211SOL    HW116532   3.995   3.082   4.840
 5211SOL    HW216533   3.903   3.066   4.974
 5212SOL     OW16534   6.247   1.298   0.591
 5212SOL    HW116535   6.152   1.270   0.599
 5212SOL    HW216536   6.261   1.345   0.503
 5213SOL     OW16537   5.175   4.249   6.490
 5213SOL    HW116538   5.134   4.261   6.400
 5213SOL    HW216539   5.245   4.177   6.486
 5214SOL     OW16540   5.028   1.502   6.259
 5214SOL    HW116541   5.095   1.515   6.333
 5214SOL    HW216542   4.977   1.417   6.275
 5215SOL     OW16543   6.099   5.205   3.595
 5215SOL    HW116544   6.132   5.167   3.509
 5215SOL    HW216545   6.050   5.134   3.646
 5216SOL     OW16546   4.030   5.272   1.528
 5216SOL    HW116547   4.054   5.255   1.624
 5216SOL    HW216548   3.949   5.217   1.504
 5217SOL     OW16549   3.618   5.399   3.777
 5217SOL    HW116550   3.526   5.411   3.741
 5217SOL    HW216551   3.682   5.459   3.728
 5218SOL     OW16552   1.304   0.804   3.591
 5218SOL    HW116553   1.220   0.839   3.632
 5218SOL    HW216554   1.287   0.780   3.495
 5219SOL     OW16555   3.415   0.393   5.866
 5219SOL    HW116556   3.469   0.310   5.851
 5219SOL    HW216557   3.462   0.472   5.826
 5220SOL     OW16558   1.652   5.770   2.662
 5220SOL    HW116559   1.675   5.700   2.595
 5220SOL    HW216560   1.717   5.765   2.738
 5221SOL     OW16561   5.626   2.237   3.694
 5221SOL    HW116562   5.669   2.201   3.612
 5221SOL    HW216563   5.527   2.228   3.686
 5222SOL     OW16564   2.567   0.080   3.295
 5222SOL    HW116565   2.560   0.007   3.226
 5222SOL    HW216566   2.505   0.155   3.270
 5223SOL     OW16567   5.334   0.599   1.181
 5223SOL    HW116568   5.293   0.553   1.260
 5223SOL    HW216569   5.362   0.530   1.114
 5224SOL     OW16570   0.387   2.258   3.968
 5224SOL    HW116571   0.410   2.209   3.883
 5224SOL    HW216572   0.297   2.301   3.958
 5225SOL     OW16573   6.718   0.332   3.122
 5225SOL    HW116574   6.667   0.247   3.105
 5225SOL    HW216575   6.774   0.321   3.205
 5226SOL     OW16576   0.557   5.684   5.230
 5226SOL    HW116577   0.538   5.781   5.213
 5226SOL    HW216578   0.546   5.666   5.328
 5227SOL     OW16579   1.470   5.166   3.848
 5227SOL    HW116580   1.443   5.076   3.813
 5227SOL    HW216581   1.548   5.200   3.795
 5228SOL     OW16582   6.504   2.269   0.945
 5228SOL    HW116583   6.527   2.233   0.854
 5228SOL    HW216584   6.581   2.322   0.980
 5229SOL     OW16585   1.396   3.866   0.322
 5229SOL    HW116586   1.455   3.860   0.403
 5229SOL    HW216587   1.340   3.783   0.316
 5230SOL     OW16588   0.422   6.572   1.371
 5230SOL    HW116589   0.478   6.561   1.453
 5230SOL    HW216590   0.429   6.666   1.337
 5231SOL     OW16591   4.025   3.574   4.889
 5231SOL    HW116592   3.945   3.527   4.851
 5231SOL    HW216593   4.049   3.651   4.830
 5232SOL     OW16594   3.243   1.891   5.865
 5232SOL    HW116595   3.152   1.913   5.828
 5232SOL    HW216596   3.274   1.966   5.924
 5233SOL     OW16597   5.895   0.402   1.688
 5233SOL    HW116598   5.982   0.378   1.646
 5233SOL    HW216599   5.907   0.482   1.747
 5234SOL     OW16600   2.310   0.177   6.738
 5234SOL    HW116601   2.272   0.201   6.828
 5234SOL    HW216602   2.284   0.247   6.671
 5235SOL     OW16603   2.156   2.915   1.434
 5235SOL    HW116604   2.064   2.876   1.426
 5235SOL    HW216605   2.221   2.842   1.456
 5236SOL     OW16606   5.857   3.651   2.398
 5236SOL    HW116607   5.786   3.677   2.463
 5236SOL    HW216608   5.827   3.676   2.305
 5237SOL     OW16609   2.522   0.676   5.943
 5237SOL    HW116610   2.590   0.604   5.931
 5237SOL    HW216611   2.564   0.765   5.923
 5238SOL     OW16612   1.648   4.845   0.597
 5238SOL    HW116613   1.681   4.850   0.503
 5238SOL    HW216614   1.563   4.897   0.605
 5239SOL     OW16615   4.053   3.704   4.088
 5239SOL    HW116616   4.023   3.799   4.082
 5239SOL    HW216617   4.096   3.688   4.177
 5240SOL     OW16618   2.816   1.823   6.293
 5240SOL    HW116619   2.875   1.903   6.307
 5240SOL    HW216620   2.734   1.833   6.350
 5241SOL     OW16621   1.261   5.583   6.531
 5241SOL    HW116622   1.167   5.566   6.562
 5241SOL    HW216623   1.318   5.503   6.551
 5242SOL     OW16624   0.020   6.912   5.532
 5242SOL    HW116625   6.960   6.875   5.501
 5242SOL    HW216626   0.040   6.996   5.483
 5243SOL     OW16627   1.013   5.826   1.584
 5243SOL    HW116628   1.001   5.891   1.509
 5243SOL    HW216629   1.074   5.866   1.653
 5244SOL     OW16630   3.526   4.276   5.805
 5244SOL    HW116631   3.431   4.302   5.790
 5244SOL    HW216632   3.582   4.359   5.815
 5245SOL     OW16633   4.293   4.364   6.971
 5245SOL    HW116634   4.310   4.266   6.972
 5245SOL    HW216635   4.232   4.388   0.020
 5246SOL     OW16636   5.736   4.535   2.614
 5246SOL    HW116637   5.699   4.558   2.704
 5246SOL    HW216638   5.738   4.435   2.603
 5247SOL     OW16639   1.259   6.437   0.713
 5247SOL    HW116640   1.296   6.373   0.781
 5247SOL    HW216641   1.169   6.405   0.684
 5248SOL     OW16642   6.318   0.219   4.515
 5248SOL    HW116643   6.414   0.215   4.545
 5248SOL    HW216644   6.273   0.132   4.536
 5249SOL     OW16645   0.789   5.206   5.105
 5249SOL    HW116646   0.768   5.126   5.161
 5249SOL    HW216647   0.750   5.194   5.014
 5250SOL     OW16648   0.249   0.983   5.929
 5250SOL    HW116649   0.175   0.917   5.938
 5250SOL    HW216650   0.252   1.042   6.009
 5251SOL     OW16651   0.565   3.071   1.116
 5251SOL    HW116652   0.496   3.117   1.173
 5251SOL    HW216653   0.626   3.018   1.174
 5252SOL     OW16654   1.864   5.518   0.857
 5252SOL    HW116655   1.876   5.421   0.877
 5252SOL    HW216656   1.819   5.563   0.934
 5253SOL     OW16657   6.118   4.011   5.163
 5253SOL    HW116658   6.115   4.093   5.220
 5253SOL    HW216659   6.186   3.947   5.199
 5254SOL     OW16660   5.667   1.220   3.619
 5254SOL    HW116661   5.599   1.147   3.615
 5254SOL    HW216662   5.621   1.309   3.622
 5255SOL     OW16663   4.481   0.271   5.620
 5255SOL    HW116664   4.530   0.189   5.649
 5255SOL    HW216665   4.531   0.315   5.546
 5256SOL     OW16666   4.678   0.575   3.483
 5256SOL    HW116667   4.612   0.574   3.408
 5256SOL    HW216668   4.733   0.659   3.478
 5257SOL     OW16669   4.432   0.282   2.069
 5257SOL    HW116670   4.499   0.279   1.995
 5257SOL    HW216671   4.445   0.204   2.130
 5258SOL     OW16672   4.998   3.538   1.462
 5258SOL    HW116673   4.944   3.458   1.490
 5258SOL    HW216674   5.095   3.519   1.476
 5259SOL     OW16675   4.246   5.966   1.165
 5259SOL    HW116676   4.284   5.876   1.143
 5259SOL    HW216677   4.314   6.037   1.144
 5260SOL     OW16678   5.578   3.805   1.454
 5260SOL    HW116679   5.616   3.797   1.362
 5260SOL    HW216680   5.620   3.736   1.513
 5261SOL     OW16681   1.788   3.050   6.238
 5261SOL    HW116682   1.753   2.980   6.301
 5261SOL    HW216683   1.797   3.137   6.288
 5262SOL     OW16684   2.805   0.757   2.848
 5262SOL    HW116685   2.745   0.721   2.776
 5262SOL    HW216686   2.752   0.817   2.909
 5263SOL     OW16687   1.102   1.310   5.370
 5263SOL    HW116688   1.021   1.264   5.336
 5263SOL    HW216689   1.082   1.351   5.459
 5264SOL     OW16690   6.675   0.350   2.497
 5264SOL    HW116691   6.590   0.374   2.544
 5264SOL    HW216692   6.709   0.263   2.531
 5265SOL     OW16693   4.844   4.372   3.126
 5265SOL    HW116694   4.862   4.447   3.062
 5265SOL    HW216695   4.757   4.388   3.173
 5266SOL     OW16696   2.762   0.814   2.213
 5266SOL    HW116697   2.703   0.887   2.177
 5266SOL    HW216698   2.789   0.836   2.306
 5267SOL     OW16699   4.858   4.668   5.894
 5267SOL    HW116700   4.765   4.704   5.882
 5267SOL    HW216701   4.924   4.742   5.881
 5268SOL     OW16702   5.948   5.919   5.763
 5268SOL    HW116703   6.006   5.840   5.785
 5268SOL    HW216704   5.997   6.003   5.788
 5269SOL     OW16705   2.332   6.483   4.363
 5269SOL    HW116706   2.302   6.403   4.415
 5269SOL    HW216707   2.355   6.557   4.427
 5270SOL     OW16708   5.419   1.331   1.929
 5270SOL    HW116709   5.515   1.351   1.950
 5270SOL    HW216710   5.414   1.253   1.867
 5271SOL     OW16711   4.668   5.019   4.854
 5271SOL    HW116712   4.737   5.044   4.922
 5271SOL    HW216713   4.714   4.986   4.771
 5272SOL     OW16714   2.117   6.024   2.932
 5272SOL    HW116715   2.034   6.077   2.945
 5272SOL    HW216716   2.192   6.065   2.985
 5273SOL     OW16717   0.227   3.284   3.506
 5273SOL    HW116718   0.233   3.383   3.510
 5273SOL    HW216719   0.131   3.256   3.498
 5274SOL     OW16720   5.954   5.513   2.266
 5274SOL    HW116721   5.952   5.445   2.339
 5274SOL    HW216722   5.938   5.604   2.305
 5275SOL     OW16723   4.019   1.235   6.264
 5275SOL    HW116724   4.081   1.160   6.286
 5275SOL    HW216725   4.036   1.266   6.171
 5276SOL     OW16726   0.860   6.780   1.283
 5276SOL    HW116727   0.958   6.801   1.276
 5276SOL    HW216728   0.843   6.688   1.247
 5277SOL     OW16729   1.647   2.791   2.947
 5277SOL    HW116730   1.649   2.891   2.943
 5277SOL    HW216731   1.607   2.755   2.863
 5278SOL     OW16732   4.883   0.002   4.074
 5278SOL    HW116733   4.877   0.092   4.031
 5278SOL    HW216734   4.796   6.982   4.065
 5279SOL     OW16735   1.426   5.363   6.665
 5279SOL    HW116736   1.521   5.381   6.642
 5279SOL    HW216737   1.422   5.301   6.744
 5280SOL     OW16738   2.621   5.703   5.922
 5280SOL    HW116739   2.566   5.785   5.939
 5280SOL    HW216740   2.561   5.623   5.917
 5281SOL     OW16741   1.017   1.559   3.551
 5281SOL    HW116742   1.088   1.592   3.489
 5281SOL    HW216743   0.980   1.472   3.517
 5282SOL     OW16744   1.666   1.381   2.741
 5282SOL    HW116745   1.743   1.351   2.684
 5282SOL    HW216746   1.687   1.361   2.837
 5283SOL     OW16747   2.719   0.594   2.631
 5283SOL    HW116748   2.705   0.500   2.661
 5283SOL    HW216749   2.640   0.625   2.578
 5284SOL     OW16750   4.795   2.904   2.752
 5284SOL    HW116751   4.875   2.958   2.779
 5284SOL    HW216752   4.744   2.953   2.681
 5285SOL     OW16753   1.464   4.165   4.310
 5285SOL    HW116754   1.456   4.105   4.390
 5285SOL    HW216755   1.426   4.118   4.230
 5286SOL     OW16756   6.805   4.219   1.274
 5286SOL    HW116757   6.755   4.198   1.358
 5286SOL    HW216758   6.889   4.166   1.270
 5287SOL     OW16759   1.846   6.088   1.443
 5287SOL    HW116760   1.915   6.125   1.505
 5287SOL    HW216761   1.864   5.990   1.427
 5288SOL     OW16762   3.678   0.978   2.311
 5288SOL    HW116763   3.600   1.028   2.271
 5288SOL    HW216764   3.762   1.030   2.296
 5289SOL     OW16765   1.813   5.328   6.307
 5289SOL    HW116766   1.750   5.264   6.351
 5289SOL    HW216767   1.761   5.402   6.265
 5290SOL     OW16768   1.243   4.415   5.616
 5290SOL    HW116769   1.204   4.488   5.672
 5290SOL    HW216770   1.342   4.413   5.628
 5291SOL     OW16771   2.970   4.907   6.199
 5291SOL    HW116772   2.889   4.947   6.239
 5291SOL    HW216773   2.973   4.928   6.101
 5292SOL     OW16774   5.863   4.718   6.677
 5292SOL    HW116775   5.936   4.735   6.611
 5292SOL    HW216776   5.810   4.639   6.648
 5293SOL     OW16777   1.280   0.130   4.405
 5293SOL    HW116778   1.218   0.070   4.457
 5293SOL    HW216779   1.367   0.137   4.452
 5294SOL     OW16780   5.713   2.864   4.851
 5294SOL    HW116781   5.803   2.879   4.810
 5294SOL    HW216782   5.676   2.951   4.884
 5295SOL     OW16783   3.973   1.295   2.923
 5295SOL    HW116784   3.883   1.252   2.926
 5295SOL    HW216785   3.963   1.391   2.898
 5296SOL     OW16786   3.038   5.206   0.297
 5296SOL    HW116787   2.994   5.239   0.380
 5296SOL    HW216788   3.080   5.284   0.249
 5297SOL     OW16789   1.832   2.594   0.591
 5297SOL    HW116790   1.928   2.568   0.582
 5297SOL    HW216791   1.822   2.660   0.665
 5298SOL     OW16792   1.093   5.954   0.220
 5298SOL    HW116793   1.084   5.872   0.164
 5298SOL    HW216794   1.015   5.959   0.283
 5299SOL     OW16795   2.339   3.198   0.538
 5299SOL    HW116796   2.418   3.224   0.482
 5299SOL    HW216797   2.372   3.158   0.624
 5300SOL     OW16798   0.711   5.902   1.436
 5300SOL    HW116799   0.718   5.802   1.441
 5300SOL    HW216800   0.791   5.939   1.391
 5301SOL     OW16801   3.161   2.348   6.569
 5301SOL    HW116802   3.200   2.422   6.623
 5301SOL    HW216803   3.218   2.331   6.489
 5302SOL     OW16804   6.033   5.743   4.062
 5302SOL    HW116805   5.973   5.735   3.982
 5302SOL    HW216806   6.075   5.655   4.082
 5303SOL     OW16807   6.684   5.734   3.465
 5303SOL    HW116808   6.759   5.801   3.464
 5303SOL    HW216809   6.598   5.780   3.446
 5304SOL     OW16810   5.155   0.967   0.328
 5304SOL    HW116811   5.172   1.053   0.377
 5304SOL    HW216812   5.180   0.890   0.386
 5305SOL     OW16813   0.732   4.894   2.651
 5305SOL    HW116814   0.795   4.967   2.624
 5305SOL    HW216815   0.639   4.930   2.655
 5306SOL     OW16816   1.202   4.481   5.044
 5306SOL    HW116817   1.260   4.511   5.119
 5306SOL    HW216818   1.255   4.422   4.983
 5307SOL     OW16819   4.438   2.170   0.490
 5307SOL    HW116820   4.376   2.202   0.418
 5307SOL    HW216821   4.385   2.147   0.572
 5308SOL     OW16822   0.804   5.638   3.823
 5308SOL    HW116823   0.831   5.543   3.839
 5308SOL    HW216824   0.704   5.645   3.824
 5309SOL     OW16825   4.338   4.558   1.450
 5309SOL    HW116826   4.305   4.593   1.538
 5309SOL    HW216827   4.270   4.496   1.411
 5310SOL     OW16828   6.505   3.856   2.150
 5310SOL    HW116829   6.566   3.927   2.116
 5310SOL    HW216830   6.452   3.818   2.075
 5311SOL     OW16831   6.391   6.115   6.471
 5311SOL    HW116832   6.322   6.044   6.481
 5311SOL    HW216833   6.416   6.151   6.561
 5312SOL     OW16834   6.774   5.392   1.786
 5312SOL    HW116835   6.731   5.302   1.786
 5312SOL    HW216836   6.731   5.450   1.854
 5313SOL     OW16837   1.345   3.914   6.156
 5313SOL    HW116838   1.404   3.995   6.149
 5313SOL    HW216839   1.398   3.832   6.132
 5314SOL     OW16840   3.420   6.204   0.768
 5314SOL    HW116841   3.462   6.251   0.846
 5314SOL    HW216842   3.329   6.243   0.751
 5315SOL     OW16843   4.922   3.805   1.584
 5315SOL    HW116844   4.994   3.815   1.652
 5315SOL    HW216845   4.930   3.717   1.538
 5316SOL     OW16846   0.949   4.079   4.864
 5316SOL    HW116847   0.987   3.986   4.860
 5316SOL    HW216848   0.859   4.080   4.821
 5317SOL     OW16849   6.668   6.836   4.218
 5317SOL    HW116850   6.632   6.789   4.138
 5317SOL    HW216851   6.764   6.811   4.232
 5318SOL     OW16852   0.518   2.842   6.401
 5318SOL    HW116853   0.595   2.780   6.406
 5318SOL    HW216854   0.520   2.904   6.481
 5319SOL     OW16855   3.467   6.614   0.143
 5319SOL    HW116856   3.443   6.517   0.142
 5319SOL    HW216857   3.422   6.661   0.068
 5320SOL     OW16858   5.500   5.462   0.198
 5320SOL    HW116859   5.493   5.363   0.188
 5320SOL    HW216860   5.449   5.507   0.125
 5321SOL     OW16861   1.283   5.094   4.257
 5321SOL    HW116862   1.210   5.079   4.324
 5321SOL    HW216863   1.329   5.008   4.238
 5322SOL     OW16864   5.150   6.347   6.132
 5322SOL    HW116865   5.149   6.304   6.222
 5322SOL    HW216866   5.194   6.436   6.138
 5323SOL     OW16867   3.950   1.776   6.768
 5323SOL    HW116868   3.936   1.678   6.749
 5323SOL    HW216869   3.916   1.829   6.690
 5324SOL     OW16870   4.110   2.627   0.873
 5324SOL    HW116871   4.119   2.633   0.972
 5324SOL    HW216872   4.099   2.531   0.846
 5325SOL     OW16873   4.606   1.119   4.459
 5325SOL    HW116874   4.556   1.187   4.406
 5325SOL    HW216875   4.606   1.145   4.556
 5326SOL     OW16876   0.516   4.911   3.307
 5326SOL    HW116877   0.563   4.831   3.346
 5326SOL    HW216878   0.426   4.919   3.348
 5327SOL     OW16879   5.665   3.218   5.354
 5327SOL    HW116880   5.593   3.153   5.329
 5327SOL    HW216881   5.623   3.302   5.388
 5328SOL     OW16882   4.687   2.872   5.176
 5328SOL    HW116883   4.738   2.943   5.127
 5328SOL    HW216884   4.613   2.914   5.229
 5329SOL     OW16885   6.901   4.819   0.026
 5329SOL    HW116886   6.835   4.819   6.978
 5329SOL    HW216887   6.956   4.902   0.022
 5330SOL     OW16888   3.565   4.534   5.882
 5330SOL    HW116889   3.633   4.607   5.874
 5330SOL    HW216890   3.485   4.558   5.826
 5331SOL     OW16891   5.269   1.216   0.930
 5331SOL    HW116892   5.367   1.212   0.913
 5331SOL    HW216893   5.235   1.307   0.903
 5332SOL     OW16894   0.818   3.878   1.622
 5332SOL    HW116895   0.741   3.924   1.577
 5332SOL    HW216896   0.809   3.887   1.721
 5333SOL     OW16897   1.097   0.579   3.556
 5333SOL    HW116898   1.085   0.672   3.523
 5333SOL    HW216899   1.108   0.517   3.478
 5334SOL     OW16900   4.135   0.344   4.608
 5334SOL    HW116901   4.184   0.376   4.690
 5334SOL    HW216902   4.200   0.305   4.543
 5335SOL     OW16903   5.865   6.025   2.594
 5335SOL    HW116904   5.943   5.981   2.638
 5335SOL    HW216905   5.890   6.052   2.500
 5336SOL     OW16906   2.797   1.805   3.625
 5336SOL    HW116907   2.779   1.871   3.552
 5336SOL    HW216908   2.894   1.779   3.623
 5337SOL     OW16909   5.311   3.734   1.527
 5337SOL    HW116910   5.246   3.790   1.476
 5337SOL    HW216911   5.404   3.765   1.507
 5338SOL     OW16912   5.460   1.771   6.432
 5338SOL    HW116913   5.515   1.794   6.352
 5338SOL    HW216914   5.423   1.854   6.473
 5339SOL     OW16915   6.739   2.500   4.150
 5339SOL    HW116916   6.673   2.518   4.076
 5339SOL    HW216917   6.785   2.413   4.133
 5340SOL     OW16918   5.644   2.863   0.910
 5340SOL    HW116919   5.584   2.906   0.843
 5340SOL    HW216920   5.730   2.914   0.915
 5341SOL     OW16921   3.261   4.133   6.559
 5341SOL    HW116922   3.258   4.123   6.658
 5341SOL    HW216923   3.347   4.095   6.524
 5342SOL     OW16924   3.341   6.877   3.723
 5342SOL    HW116925   3.404   6.933   3.776
 5342SOL    HW216926   3.300   6.807   3.781
 5343SOL     OW16927   3.868   3.419   4.732
 5343SOL    HW116928   3.852   3.410   4.634
 5343SOL    HW216929   3.792   3.377   4.782
 5344SOL     OW16930   2.556   2.077   2.153
 5344SOL    HW116931   2.577   2.145   2.083
 5344SOL    HW216932   2.593   1.989   2.127
 5345SOL     OW16933   3.639   6.773   1.635
 5345SOL    HW116934   3.596   6.797   1.548
 5345SOL    HW216935   3.568   6.749   1.702
 5346SOL     OW16936   3.515   5.487   4.426
 5346SOL    HW116937   3.495   5.404   4.374
 5346SOL    HW216938   3.504   5.567   4.367
 5347SOL     OW16939   0.036   2.527   1.514
 5347SOL    HW116940   7.004   2.606   1.529
 5347SOL    HW216941   0.100   2.519   1.590
 5348SOL     OW16942   6.909   1.776   0.908
 5348SOL    HW116943   6.882   1.707   0.841
 5348SOL    HW216944   6.989   1.826   0.875
 5349SOL     OW16945   2.074   2.273   0.227
 5349SOL    HW116946   2.042   2.360   0.192
 5349SOL    HW216947   2.041   2.199   0.169
 5350SOL     OW16948   1.923   0.208   5.461
 5350SOL    HW116949   2.023   0.213   5.456
 5350SOL    HW216950   1.884   0.290   5.419
 5351SOL     OW16951   6.867   5.088   2.536
 5351SOL    HW116952   6.788   5.029   2.519
 5351SOL    HW216953   6.911   5.111   2.449
 5352SOL     OW16954   2.388   4.751   3.259
 5352SOL    HW116955   2.316   4.806   3.301
 5352SOL    HW216956   2.411   4.788   3.169
 5353SOL     OW16957   4.235   5.142   4.006
 5353SOL    HW116958   4.253   5.229   4.051
 5353SOL    HW216959   4.296   5.072   4.043
 5354SOL     OW16960   2.412   5.272   1.943
 5354SOL    HW116961   2.336   5.221   1.904
 5354SOL    HW216962   2.438   5.230   2.031
 5355SOL     OW16963   0.037   4.174   4.252
 5355SOL    HW116964   0.107   4.219   4.197
 5355SOL    HW216965   6.974   4.205   4.223
 5356SOL     OW16966   5.875   4.562   2.040
 5356SOL    HW116967   5.869   4.492   2.110
 5356SOL    HW216968   5.789   4.613   2.037
 5357SOL     OW16969   3.297   5.855   0.661
 5357SOL    HW116970   3.326   5.808   0.745
 5357SOL    HW216971   3.227   5.923   0.683
 5358SOL     OW16972   4.554   1.210   0.323
 5358SOL    HW116973   4.590   1.300   0.296
 5358SOL    HW216974   4.624   1.159   0.372
 5359SOL     OW16975   1.449   1.488   5.616
 5359SOL    HW116976   1.487   1.405   5.576
 5359SOL    HW216977   1.496   1.568   5.579
 5360SOL     OW16978   3.774   6.694   4.730
 5360SOL    HW116979   3.674   6.704   4.730
 5360SOL    HW216980   3.809   6.715   4.822
 5361SOL     OW16981   2.370   1.000   5.544
 5361SOL    HW116982   2.446   1.063   5.528
 5361SOL    HW216983   2.313   0.995   5.462
 5362SOL     OW16984   6.871   5.918   3.487
 5362SOL    HW116985   6.864   6.012   3.455
 5362SOL    HW216986   6.962   5.882   3.465
 5363SOL     OW16987   0.330   0.522   6.492
 5363SOL    HW116988   0.285   0.454   6.434
 5363SOL    HW216989   0.365   0.478   6.574
 5364SOL     OW16990   6.944   6.410   2.128
 5364SOL    HW116991   6.984   6.336   2.073
 5364SOL    HW216992   6.939   6.493   2.073
 5365SOL     OW16993   3.849   3.270   6.853
 5365SOL    HW116994   3.797   3.186   6.866
 5365SOL    HW216995   3.946   3.248   6.840
 5366SOL     OW16996   5.234   5.762   1.904
 5366SOL    HW116997   5.262   5.668   1.923
 5366SOL    HW216998   5.237   5.779   1.805
 5367SOL     OW16999   0.623   6.632   1.075
 5367SOL    HW117000   0.536   6.606   1.034
 5367SOL    HW217001   0.641   6.574   1.154
 5368SOL     OW17002   5.451   0.178   2.566
 5368SOL    HW117003   5.516   0.217   2.631
 5368SOL    HW217004   5.486   0.091   2.532
 5369SOL     OW17005   2.530   6.859   1.868
 5369SOL    HW117006   2.531   6.943   1.923
 5369SOL    HW217007   2.521   6.883   1.771
 5370SOL     OW17008   4.907   2.711   1.577
 5370SOL    HW117009   4.887   2.627   1.526
 5370SOL    HW217010   4.853   2.713   1.661
 5371SOL     OW17011   0.980   3.626   5.320
 5371SOL    HW117012   0.972   3.684   5.239
 5371SOL    HW217013   0.976   3.684   5.402
 5372SOL     OW17014   1.917   6.396   3.924
 5372SOL    HW117015   2.014   6.391   3.899
 5372SOL    HW217016   1.900   6.338   4.004
 5373SOL     OW17017   3.628   6.672   4.341
 5373SOL    HW117018   3.648   6.737   4.268
 5373SOL    HW217019   3.697   6.600   4.341
 5374SOL     OW17020   1.603   3.880   0.135
 5374SOL    HW117021   1.656   3.797   0.147
 5374SOL    HW217022   1.519   3.875   0.189
 5375SOL     OW17023   0.820   5.628   5.169
 5375SOL    HW117024   0.728   5.661   5.191
 5375SOL    HW217025   0.864   5.692   5.107
 5376SOL     OW17026   1.855   2.587   1.059
 5376SOL    HW117027   1.933   2.649   1.074
 5376SOL    HW217028   1.859   2.512   1.125
 5377SOL     OW17029   7.020   6.774   2.439
 5377SOL    HW117030   6.932   6.735   2.412
 5377SOL    HW217031   0.034   6.819   2.360
 5378SOL     OW17032   6.438   0.273   1.792
 5378SOL    HW117033   6.508   0.316   1.849
 5378SOL    HW217034   6.374   0.223   1.850
 5379SOL     OW17035   1.369   4.753   4.960
 5379SOL    HW117036   1.330   4.785   5.046
 5379SOL    HW217037   1.299   4.754   4.889
 5380SOL     OW17038   2.628   1.285   2.913
 5380SOL    HW117039   2.544   1.332   2.883
 5380SOL    HW217040   2.703   1.310   2.853
 5381SOL     OW17041   6.351   5.055   1.876
 5381SOL    HW117042   6.254   5.080   1.868
 5381SOL    HW217043   6.371   5.028   1.970
 5382SOL     OW17044   2.834   1.209   2.024
 5382SOL    HW117045   2.760   1.194   1.958
 5382SOL    HW217046   2.872   1.301   2.012
 5383SOL     OW17047   2.500   2.296   5.362
 5383SOL    HW117048   2.496   2.395   5.347
 5383SOL    HW217049   2.420   2.267   5.413
 5384SOL     OW17050   6.143   6.580   5.371
 5384SOL    HW117051   6.128   6.610   5.465
 5384SOL    HW217052   6.206   6.502   5.371
 5385SOL     OW17053   3.369   3.208   4.278
 5385SOL    HW117054   3.305   3.154   4.223
 5385SOL    HW217055   3.347   3.305   4.267
 5386SOL     OW17056   4.832   1.305   4.592
 5386SOL    HW117057   4.922   1.309   4.548
 5386SOL    HW217058   4.826   1.223   4.649
 5387SOL     OW17059   2.387   0.280   3.261
 5387SOL    HW117060   2.416   0.327   3.345
 5387SOL    HW217061   2.302   0.231   3.279
 5388SOL     OW17062   6.899   1.456   4.076
 5388SOL    HW117063   6.909   1.445   3.977
 5388SOL    HW217064   6.977   1.508   4.111
 5389SOL     OW17065   4.630   1.561   3.086
 5389SOL    HW117066   4.633   1.468   3.120
 5389SOL    HW217067   4.716   1.582   3.039
 5390SOL     OW17068   4.920   3.735   3.275
 5390SOL    HW117069   4.833   3.690   3.296
 5390SOL    HW217070   4.988   3.667   3.252
 5391SOL     OW17071   2.319   1.913   0.752
 5391SOL    HW117072   2.352   1.854   0.826
 5391SOL    HW217073   2.252   1.863   0.697
 5392SOL     OW17074   5.409   3.464   0.737
 5392SOL    HW117075   5.395   3.384   0.678
 5392SOL    HW217076   5.353   3.454   0.819
 5393SOL     OW17077   4.425   6.567   5.727
 5393SOL    HW117078   4.429   6.665   5.749
 5393SOL    HW217079   4.512   6.539   5.686
 5394SOL     OW17080   0.013   5.057   0.043
 5394SOL    HW117081   7.018   5.142   0.092
 5394SOL    HW217082   0.099   5.020   0.078
 5395SOL     OW17083   5.087   1.045   1.789
 5395SOL    HW117084   4.988   1.040   1.802
 5395SOL    HW217085   5.114   0.989   1.711
 5396SOL     OW17086   4.558   4.424   1.640
 5396SOL    HW117087   4.522   4.365   1.712
 5396SOL    HW217088   4.657   4.412   1.634
 5397SOL     OW17089   0.292   2.615   1.045
 5397SOL    HW117090   0.216   2.678   1.062
 5397SOL    HW217091   0.372   2.644   1.097
 5398SOL     OW17092   3.356   1.782   3.672
 5398SOL    HW117093   3.368   1.878   3.696
 5398SOL    HW217094   3.258   1.759   3.672
 5399SOL     OW17095   2.875   5.310   1.060
 5399SOL    HW117096   2.966   5.315   1.020
 5399SOL    HW217097   2.845   5.401   1.087
 5400SOL     OW17098   2.890   3.960   6.853
 5400SOL    HW117099   2.919   4.022   6.927
 5400SOL    HW217100   2.831   4.010   6.790
 5401SOL     OW17101   5.945   3.938   1.240
 5401SOL    HW117102   6.005   3.971   1.168
 5401SOL    HW217103   5.999   3.887   1.308
 5402SOL     OW17104   2.698   5.289   1.836
 5402SOL    HW117105   2.736   5.202   1.865
 5402SOL    HW217106   2.599   5.289   1.851
 5403SOL     OW17107   5.258   2.685   5.896
 5403SOL    HW117108   5.353   2.654   5.898
 5403SOL    HW217109   5.255   2.782   5.921
 5404SOL     OW17110   1.062   0.434   2.046
 5404SOL    HW117111   1.126   0.492   2.097
 5404SOL    HW217112   1.043   0.475   1.957
 5405SOL     OW17113   5.853   6.431   6.952
 5405SOL    HW117114   5.892   6.348   6.990
 5405SOL    HW217115   5.768   6.409   6.904
 5406SOL     OW17116   2.448   0.024   6.344
 5406SOL    HW117117   2.364   0.009   6.291
 5406SOL    HW217118   2.491   0.109   6.314
 5407SOL     OW17119   4.207   2.109   1.526
 5407SOL    HW117120   4.266   2.189   1.516
 5407SOL    HW217121   4.246   2.047   1.595
 5408SOL     OW17122   3.525   1.082   5.902
 5408SOL    HW117123   3.461   1.006   5.896
 5408SOL    HW217124   3.493   1.147   5.971
 5409SOL     OW17125   6.447   2.283   3.992
 5409SOL    HW117126   6.518   2.328   3.937
 5409SOL    HW217127   6.361   2.283   3.941
 5410SOL     OW17128   1.276   3.338   0.021
 5410SOL    HW117129   1.297   3.434   0.041
 5410SOL    HW217130   1.332   3.279   0.078
 5411SOL     OW17131   6.151   5.161   5.362
 5411SOL    HW117132   6.207   5.216   5.301
 5411SOL    HW217133   6.146   5.203   5.452
 5412SOL     OW17134   4.230   0.471   6.980
 5412SOL    HW117135   4.236   0.375   7.007
 5412SOL    HW217136   4.305   0.493   6.918
 5413SOL     OW17137   0.324   0.339   1.407
 5413SOL    HW117138   0.234   0.297   1.409
 5413SOL    HW217139   0.385   0.291   1.470
 5414SOL     OW17140   6.816   3.034   5.155
 5414SOL    HW117141   6.730   3.083   5.173
 5414SOL    HW217142   6.819   2.951   5.210
 5415SOL     OW17143   1.330   6.261   1.332
 5415SOL    HW117144   1.411   6.318   1.331
 5415SOL    HW217145   1.292   6.258   1.425
 5416SOL     OW17146   3.717   4.888   6.339
 5416SOL    HW117147   3.633   4.849   6.302
 5416SOL    HW217148   3.736   4.847   6.428
 5417SOL     OW17149   4.507   6.856   4.588
 5417SOL    HW117150   4.566   6.925   4.631
 5417SOL    HW217151   4.419   6.853   4.636
 5418SOL     OW17152   5.079   0.498   4.563
 5418SOL    HW117153   5.169   0.481   4.603
 5418SOL    HW217154   5.020   0.419   4.577
 5419SOL     OW17155   3.207   5.558   0.615
 5419SOL    HW117156   3.141   5.539   0.688
 5419SOL    HW217157   3.175   5.637   0.562
 5420SOL     OW17158   1.781   2.813   2.210
 5420SOL    HW117159   1.874   2.783   2.233
 5420SOL    HW217160   1.757   2.781   2.118
 5421SOL     OW17161   2.118   4.331   3.131
 5421SOL    HW117162   2.165   4.346   3.045
 5421SOL    HW217163   2.026   4.296   3.113
 5422SOL     OW17164   1.076   5.878   5.885
 5422SOL    HW117165   1.084   5.951   5.817
 5422SOL    HW217166   1.121   5.795   5.851
 5423SOL     OW17167   5.447   3.575   0.088
 5423SOL    HW117168   5.444   3.507   0.014
 5423SOL    HW217169   5.493   3.535   0.167
 5424SOL     OW17170   6.151   3.797   4.169
 5424SOL    HW117171   6.238   3.756   4.142
 5424SOL    HW217172   6.081   3.726   4.173
 5425SOL     OW17173   5.511   1.464   3.665
 5425SOL    HW117174   5.512   1.546   3.723
 5425SOL    HW217175   5.438   1.403   3.695
 5426SOL     OW17176   6.945   5.222   3.919
 5426SOL    HW117177   7.019   5.181   3.973
 5426SOL    HW217178   6.873   5.155   3.903
 5427SOL     OW17179   5.370   4.868   1.300
 5427SOL    HW117180   5.328   4.849   1.212
 5427SOL    HW217181   5.327   4.812   1.371
 5428SOL     OW17182   6.987   0.461   2.170
 5428SOL    HW117183   6.922   0.481   2.244
 5428SOL    HW217184   6.999   0.362   2.161
 5429SOL     OW17185   1.316   0.925   5.093
 5429SOL    HW117186   1.269   0.911   5.007
 5429SOL    HW217187   1.278   0.864   5.163
 5430SOL     OW17188   1.840   2.724   5.315
 5430SOL    HW117189   1.851   2.766   5.405
 5430SOL    HW217190   1.862   2.791   5.244
 5431SOL     OW17191   3.876   5.255   6.642
 5431SOL    HW117192   3.921   5.168   6.624
 5431SOL    HW217193   3.945   5.327   6.648
 5432SOL     OW17194   3.901   6.292   5.791
 5432SOL    HW117195   3.936   6.198   5.786
 5432SOL    HW217196   3.978   6.356   5.794
 5433SOL     OW17197   0.281   1.751   3.603
 5433SOL    HW117198   0.299   1.724   3.508
 5433SOL    HW217199   0.345   1.703   3.664
 5434SOL     OW17200   3.927   0.824   4.999
 5434SOL    HW117201   3.879   0.879   4.931
 5434SOL    HW217202   4.025   0.843   4.994
 5435SOL     OW17203   6.078   1.736   1.148
 5435SOL    HW117204   6.044   1.661   1.091
 5435SOL    HW217205   6.126   1.802   1.090
 5436SOL     OW17206   5.727   4.031   4.751
 5436SOL    HW117207   5.720   4.036   4.851
 5436SOL    HW217208   5.668   4.101   4.710
 5437SOL     OW17209   2.774   4.827   5.763
 5437SOL    HW117210   2.675   4.833   5.756
 5437SOL    HW217211   2.815   4.829   5.672
 5438SOL     OW17212   5.506   4.029   2.332
 5438SOL    HW117213   5.604   4.023   2.314
 5438SOL    HW217214   5.477   3.950   2.386
 5439SOL     OW17215   6.915   2.486   0.187
 5439SOL    HW117216   7.010   2.504   0.210
 5439SOL    HW217217   6.865   2.457   0.269
 5440SOL     OW17218   0.631   0.010   2.656
 5440SOL    HW117219   0.571   0.022   2.735
 5440SOL    HW217220   0.722   7.010   2.687
 5441SOL     OW17221   4.816   2.999   3.523
 5441SOL    HW117222   4.733   2.946   3.508
 5441SOL    HW217223   4.895   2.938   3.530
 5442SOL     OW17224   2.963   6.933   3.272
 5442SOL    HW117225   3.037   6.867   3.283
 5442SOL    HW217226   2.955   6.989   3.355
 5443SOL     OW17227   2.752   5.993   3.936
 5443SOL    HW117228   2.758   5.925   3.864
 5443SOL    HW217229   2.780   5.953   4.023
 5444SOL     OW17230   0.577   0.715   3.253
 5444SOL    HW117231   0.580   0.628   3.203
 5444SOL    HW217232   0.573   0.791   3.188
 5445SOL     OW17233   6.674   4.637   4.220
 5445SOL    HW117234   6.602   4.668   4.159
 5445SOL    HW217235   6.729   4.716   4.249
 5446SOL     OW17236   5.455   4.903   4.749
 5446SOL    HW117237   5.357   4.888   4.738
 5446SOL    HW217238   5.488   4.856   4.831
 5447SOL     OW17239   1.392   1.728   0.817
 5447SOL    HW117240   1.303   1.726   0.772
 5447SOL    HW217241   1.395   1.803   0.883
 5448SOL     OW17242   6.060   4.045   4.778
 5448SOL    HW117243   6.124   4.080   4.846
 5448SOL    HW217244   5.988   4.113   4.762
 5449SOL     OW17245   1.509   1.923   0.209
 5449SOL    HW117246   1.545   2.011   0.238
 5449SOL    HW217247   1.551   1.850   0.263
 5450SOL     OW17248   2.527   0.233   1.677
 5450SOL    HW117249   2.528   0.292   1.596
 5450SOL    HW217250   2.480   0.147   1.654
 5451SOL     OW17251   1.876   5.571   3.289
 5451SOL    HW117252   1.817   5.645   3.257
 5451SOL    HW217253   1.864   5.560   3.387
 5452SOL     OW17254   2.392   3.496   0.525
 5452SOL    HW117255   2.447   3.545   0.592
 5452SOL    HW217256   2.349   3.417   0.568
 5453SOL     OW17257   5.155   4.317   1.228
 5453SOL    HW117258   5.228   4.380   1.201
 5453SOL    HW217259   5.143   4.321   1.327
 5454SOL     OW17260   6.189   4.518   5.742
 5454SOL    HW117261   6.246   4.436   5.743
 5454SOL    HW217262   6.232   4.588   5.686
 5455SOL     OW17263   6.652   2.268   2.044
 5455SOL    HW117264   6.703   2.329   2.105
 5455SOL    HW217265   6.660   2.302   1.950
 5456SOL     OW17266   2.797   0.200   0.536
 5456SOL    HW117267   2.716   0.152   0.501
 5456SOL    HW217268   2.879   0.149   0.513
 5457SOL     OW17269   0.175   2.398   0.920
 5457SOL    HW117270   0.236   2.327   0.883
 5457SOL    HW217271   0.229   2.479   0.943
 5458SOL     OW17272   0.345   4.717   0.477
 5458SOL    HW117273   0.263   4.661   0.469
 5458SOL    HW217274   0.327   4.809   0.443
 5459SOL     OW17275   2.860   3.582   6.485
 5459SOL    HW117276   2.788   3.606   6.420
 5459SOL    HW217277   2.876   3.660   6.546
 5460SOL     OW17278   3.995   0.172   2.841
 5460SOL    HW117279   4.085   0.195   2.805
 5460SOL    HW217280   3.990   0.196   2.937
 5461SOL     OW17281   0.501   0.501   6.059
 5461SOL    HW117282   0.517   0.549   6.145
 5461SOL    HW217283   0.514   0.565   5.983
 5462SOL     OW17284   6.324   6.560   1.220
 5462SOL    HW117285   6.274   6.498   1.280
 5462SOL    HW217286   6.374   6.626   1.276
 5463SOL     OW17287   7.024   1.483   0.595
 5463SOL    HW117288   0.077   1.440   0.636
 5463SOL    HW217289   6.992   1.428   0.518
 5464SOL     OW17290   6.630   0.469   4.536
 5464SOL    HW117291   6.557   0.515   4.587
 5464SOL    HW217292   6.613   0.371   4.535
 5465SOL     OW17293   4.963   0.817   4.481
 5465SOL    HW117294   4.866   0.827   4.461
 5465SOL    HW217295   4.978   0.730   4.529
 5466SOL     OW17296   5.385   2.924   4.749
 5466SOL    HW117297   5.379   2.881   4.839
 5466SOL    HW217298   5.398   2.854   4.679
 5467SOL     OW17299   4.856   3.969   3.455
 5467SOL    HW117300   4.903   3.902   3.399
 5467SOL    HW217301   4.838   3.931   3.546
 5468SOL     OW17302   6.796   2.876   3.583
 5468SOL    HW117303   6.889   2.873   3.620
 5468SOL    HW217304   6.769   2.783   3.556
 5469SOL     OW17305   2.895   5.701   5.859
 5469SOL    HW117306   2.796   5.703   5.871
 5469SOL    HW217307   2.920   5.621   5.804
 5470SOL     OW17308   3.375   5.196   3.484
 5470SOL    HW117309   3.456   5.187   3.541
 5470SOL    HW217310   3.325   5.110   3.483
 5471SOL     OW17311   5.512   6.733   3.146
 5471SOL    HW117312   5.591   6.691   3.099
 5471SOL    HW217313   5.504   6.828   3.119
 5472SOL     OW17314   2.871   4.235   6.715
 5472SOL    HW117315   2.935   4.297   6.670
 5472SOL    HW217316   2.904   4.216   6.808
 5473SOL     OW17317   0.800   3.473   2.480
 5473SOL    HW117318   0.753   3.419   2.410
 5473SOL    HW217319   0.736   3.537   2.521
 5474SOL     OW17320   1.149   4.959   3.852
 5474SOL    HW117321   1.052   4.947   3.828
 5474SOL    HW217322   1.159   5.040   3.910
 5475SOL     OW17323   2.266   2.920   1.112
 5475SOL    HW117324   2.285   3.008   1.156
 5475SOL    HW217325   2.352   2.870   1.099
 5476SOL     OW17326   2.608   4.362   5.734
 5476SOL    HW117327   2.527   4.336   5.681
 5476SOL    HW217328   2.586   4.440   5.792
 5477SOL     OW17329   1.824   4.418   2.516
 5477SOL    HW117330   1.912   4.413   2.564
 5477SOL    HW217331   1.840   4.429   2.418
 5478SOL     OW17332   2.896   5.796   4.436
 5478SOL    HW117333   2.989   5.833   4.428
 5478SOL    HW217334   2.898   5.715   4.494
 5479SOL     OW17335   5.494   1.508   6.490
 5479SOL    HW117336   5.478   1.490   6.587
 5479SOL    HW217337   5.501   1.606   6.475
 5480SOL     OW17338   5.751   4.793   3.835
 5480SOL    HW117339   5.778   4.728   3.906
 5480SOL    HW217340   5.682   4.750   3.776
 5481SOL     OW17341   4.358   1.716   4.198
 5481SOL    HW117342   4.264   1.681   4.204
 5481SOL    HW217343   4.421   1.650   4.240
 5482SOL     OW17344   3.537   4.393   1.697
 5482SOL    HW117345   3.558   4.485   1.729
 5482SOL    HW217346   3.493   4.341   1.771
 5483SOL     OW17347   0.292   1.799   5.604
 5483SOL    HW117348   0.309   1.816   5.507
 5483SOL    HW217349   0.202   1.759   5.616
 5484SOL     OW17350   4.138   1.304   4.577
 5484SOL    HW117351   4.154   1.333   4.671
 5484SOL    HW217352   4.206   1.346   4.517
 5485SOL     OW17353   3.895   0.490   4.572
 5485SOL    HW117354   3.836   0.451   4.501
 5485SOL    HW217355   3.979   0.436   4.578
 5486SOL     OW17356   2.311   6.303   5.275
 5486SOL    HW117357   2.389   6.276   5.332
 5486SOL    HW217358   2.328   6.277   5.180
 5487SOL     OW17359   5.026   2.497   6.804
 5487SOL    HW117360   4.933   2.498   6.842
 5487SOL    HW217361   5.092   2.484   6.877
 5488SOL     OW17362   6.134   0.493   0.912
 5488SOL    HW117363   6.199   0.475   0.838
 5488SOL    HW217364   6.170   0.455   0.997
 5489SOL     OW17365   0.123   4.106   1.740
 5489SOL    HW117366   0.192   4.037   1.717
 5489SOL    HW217367   0.067   4.073   1.816
 5490SOL     OW17368   3.148   0.248   2.237
 5490SOL    HW117369   3.063   0.248   2.289
 5490SOL    HW217370   3.217   0.301   2.287
 5491SOL     OW17371   0.900   3.295   0.130
 5491SOL    HW117372   0.865   3.202   0.121
 5491SOL    HW217373   0.960   3.316   0.053
 5492SOL     OW17374   0.691   3.838   6.154
 5492SOL    HW117375   0.603   3.885   6.152
 5492SOL    HW217376   0.744   3.863   6.073
 5493SOL     OW17377   3.266   4.080   4.396
 5493SOL    HW117378   3.345   4.094   4.456
 5493SOL    HW217379   3.189   4.047   4.450
 5494SOL     OW17380   0.811   3.709   6.347
 5494SOL    HW117381   0.763   3.621   6.350
 5494SOL    HW217382   0.769   3.767   6.277
 5495SOL     OW17383   5.267   1.064   1.180
 5495SOL    HW117384   5.341   0.997   1.172
 5495SOL    HW217385   5.271   1.127   1.102
 5496SOL     OW17386   4.242   0.760   3.527
 5496SOL    HW117387   4.283   0.757   3.436
 5496SOL    HW217388   4.275   0.683   3.582
 5497SOL     OW17389   6.900   0.987   4.933
 5497SOL    HW117390   6.887   1.023   5.025
 5497SOL    HW217391   6.811   0.972   4.890
 5498SOL     OW17392   6.908   5.647   1.362
 5498SOL    HW117393   6.978   5.718   1.349
 5498SOL    HW217394   6.925   5.601   1.449
 5499SOL     OW17395   0.219   0.480   4.612
 5499SOL    HW117396   0.193   0.395   4.659
 5499SOL    HW217397   0.277   0.459   4.534
 5500SOL     OW17398   0.857   0.343   0.116
 5500SOL    HW117399   0.895   0.287   0.043
 5500SOL    HW217400   0.924   0.410   0.145
 5501SOL     OW17401   3.567   1.822   6.772
 5501SOL    HW117402   3.628   1.830   6.851
 5501SOL    HW217403   3.610   1.865   6.693
 5502SOL     OW17404   4.741   3.837   0.445
 5502SOL    HW117405   4.835   3.869   0.453
 5502SOL    HW217406   4.740   3.738   0.436
 5503SOL     OW17407   6.696   4.202   1.536
 5503SOL    HW117408   6.602   4.182   1.564
 5503SOL    HW217409   6.745   4.246   1.611
 5504SOL     OW17410   4.828   1.579   5.350
 5504SOL    HW117411   4.794   1.664   5.310
 5504SOL    HW217412   4.904   1.544   5.295
 5505SOL     OW17413   1.980   4.967   3.717
 5505SOL    HW117414   1.913   4.933   3.651
 5505SOL    HW217415   1.940   4.967   3.808
 5506SOL     OW17416   0.213   3.490   0.753
 5506SOL    HW117417   0.166   3.430   0.818
 5506SOL    HW217418   0.238   3.576   0.798
 5507SOL     OW17419   4.168   1.036   4.599
 5507SOL    HW117420   4.191   0.996   4.510
 5507SOL    HW217421   4.148   1.133   4.587
 5508SOL     OW17422   1.216   0.919   0.130
 5508SOL    HW117423   1.246   0.828   0.157
 5508SOL    HW217424   1.116   0.921   0.124
 5509SOL     OW17425   0.628   6.271   6.147
 5509SOL    HW117426   0.554   6.243   6.208
 5509SOL    HW217427   0.614   6.229   6.057
 5510SOL     OW17428   4.810   5.287   0.366
 5510SOL    HW117429   4.741   5.360   0.364
 5510SOL    HW217430   4.901   5.327   0.366
 5511SOL     OW17431   1.040   0.223   3.820
 5511SOL    HW117432   1.079   0.144   3.773
 5511SOL    HW217433   0.940   0.216   3.818
 5512SOL     OW17434   5.203   2.381   0.696
 5512SOL    HW117435   5.264   2.322   0.749
 5512SOL    HW217436   5.111   2.377   0.735
 5513SOL     OW17437   3.812   5.023   6.000
 5513SOL    HW117438   3.856   5.047   6.086
 5513SOL    HW217439   3.718   5.059   6.000
 5514SOL     OW17440   3.575   0.272   4.581
 5514SOL    HW117441   3.500   0.244   4.521
 5514SOL    HW217442   3.614   0.358   4.548
 5515SOL     OW17443   0.798   5.955   2.093
 5515SOL    HW117444   0.835   5.878   2.042
 5515SOL    HW217445   0.742   6.011   2.033
 5516SOL     OW17446   1.976   3.269   6.081
 5516SOL    HW117447   1.957   3.356   6.128
 5516SOL    HW217448   1.891   3.231   6.046
 5517SOL     OW17449   2.088   3.333   2.187
 5517SOL    HW117450   2.085   3.237   2.159
 5517SOL    HW217451   2.152   3.383   2.127
 5518SOL     OW17452   5.558   6.032   6.656
 5518SOL    HW117453   5.503   6.108   6.690
 5518SOL    HW217454   5.550   6.027   6.556
 5519SOL     OW17455   5.399   3.099   2.914
 5519SOL    HW117456   5.472   3.031   2.908
 5519SOL    HW217457   5.358   3.111   2.824
 5520SOL     OW17458   6.602   0.037   2.433
 5520SOL    HW117459   6.513   0.057   2.473
 5520SOL    HW217460   6.671   0.032   2.505
 5521SOL     OW17461   4.996   6.563   2.126
 5521SOL    HW117462   4.915   6.616   2.100
 5521SOL    HW217463   4.978   6.466   2.112
 5522SOL     OW17464   6.308   4.653   0.497
 5522SOL    HW117465   6.273   4.729   0.442
 5522SOL    HW217466   6.239   4.627   0.565
 5523SOL     OW17467   4.030   1.645   1.742
 5523SOL    HW117468   3.957   1.583   1.770
 5523SOL    HW217469   4.016   1.734   1.783
 5524SOL     OW17470   4.531   0.513   4.552
 5524SOL    HW117471   4.560   0.461   4.632
 5524SOL    HW217472   4.476   0.591   4.581
 5525SOL     OW17473   0.398   2.077   0.328
 5525SOL    HW117474   0.416   2.026   0.244
 5525SOL    HW217475   0.395   2.013   0.406
 5526SOL     OW17476   4.852   5.068   2.975
 5526SOL    HW117477   4.815   5.142   3.032
 5526SOL    HW217478   4.923   5.105   2.915
 5527SOL     OW17479   4.932   3.699   4.059
 5527SOL    HW117480   5.003   3.724   4.125
 5527SOL    HW217481   4.920   3.600   4.060
 5528SOL     OW17482   1.682   0.977   0.602
 5528SOL    HW117483   1.776   0.996   0.631
 5528SOL    HW217484   1.680   0.959   0.504
 5529SOL     OW17485   3.385   6.954   4.996
 5529SOL    HW117486   3.341   6.978   5.082
 5529SOL    HW217487   3.359   6.861   4.970
 5530SOL     OW17488   6.255   1.992   0.976
 5530SOL    HW117489   6.201   1.980   0.893
 5530SOL    HW217490   6.255   2.088   1.002
 5531SOL     OW17491   3.647   3.700   1.725
 5531SOL    HW117492   3.735   3.672   1.763
 5531SOL    HW217493   3.583   3.623   1.727
 5532SOL     OW17494   1.040   3.393   1.058
 5532SOL    HW117495   1.042   3.395   0.958
 5532SOL    HW217496   0.995   3.309   1.088
 5533SOL     OW17497   4.034   1.977   3.025
 5533SOL    HW117498   4.066   1.906   3.087
 5533SOL    HW217499   4.101   2.052   3.022
 5534SOL     OW17500   1.161   1.652   6.907
 5534SOL    HW117501   1.094   1.719   6.937
 5534SOL    HW217502   1.230   1.639   6.978
 5535SOL     OW17503   1.205   1.699   3.431
 5535SOL    HW117504   1.200   1.798   3.446
 5535SOL    HW217505   1.262   1.680   3.352
 5536SOL     OW17506   3.764   0.846   4.265
 5536SOL    HW117507   3.863   0.842   4.274
 5536SOL    HW217508   3.731   0.936   4.293
 5537SOL     OW17509   2.782   1.188   2.285
 5537SOL    HW117510   2.862   1.147   2.329
 5537SOL    HW217511   2.802   1.205   2.189
 5538SOL     OW17512   3.094   5.527   5.291
 5538SOL    HW117513   3.193   5.538   5.302
 5538SOL    HW217514   3.072   5.429   5.285
 5539SOL     OW17515   1.082   3.780   1.671
 5539SOL    HW117516   0.990   3.820   1.671
 5539SOL    HW217517   1.149   3.850   1.696
 5540SOL     OW17518   4.583   4.458   4.072
 5540SOL    HW117519   4.574   4.358   4.072
 5540SOL    HW217520   4.669   4.484   4.115
 5541SOL     OW17521   4.919   0.320   6.592
 5541SOL    HW117522   4.915   0.399   6.653
 5541SOL    HW217523   4.844   0.257   6.613
 5542SOL     OW17524   4.781   3.606   5.978
 5542SOL    HW117525   4.793   3.587   6.076
 5542SOL    HW217526   4.787   3.520   5.927
 5543SOL     OW17527   4.151   3.835   6.446
 5543SOL    HW117528   4.151   3.752   6.503
 5543SOL    HW217529   4.071   3.890   6.467
 5544SOL     OW17530   4.987   5.447   6.681
 5544SOL    HW117531   4.950   5.531   6.643
 5544SOL    HW217532   5.082   5.436   6.650
 5545SOL     OW17533   4.681   1.140   3.018
 5545SOL    HW117534   4.729   1.077   2.956
 5545SOL    HW217535   4.612   1.190   2.966
 5546SOL     OW17536   0.493   4.664   4.637
 5546SOL    HW117537   0.437   4.741   4.610
 5546SOL    HW217538   0.569   4.652   4.573
 5547SOL     OW17539   3.081   6.638   5.416
 5547SOL    HW117540   3.043   6.578   5.486
 5547SOL    HW217541   3.014   6.709   5.393
 5548SOL     OW17542   6.163   2.347   5.350
 5548SOL    HW117543   6.166   2.368   5.448
 5548SOL    HW217544   6.082   2.386   5.309
 5549SOL     OW17545   4.426   4.929   6.635
 5549SOL    HW117546   4.503   4.990   6.651
 5549SOL    HW217547   4.438   4.883   6.547
 5550SOL     OW17548   2.805   5.226   2.646
 5550SOL    HW117549   2.876   5.216   2.576
 5550SOL    HW217550   2.832   5.297   2.711
 5551SOL     OW17551   2.210   1.143   2.757
 5551SOL    HW117552   2.176   1.085   2.831
 5551SOL    HW217553   2.185   1.102   2.669
 5552SOL     OW17554   0.271   0.818   6.948
 5552SOL    HW117555   0.298   0.914   6.951
 5552SOL    HW217556   0.195   0.803   7.011
 5553SOL     OW17557   3.636   6.583   0.352
 5553SOL    HW117558   3.569   6.608   0.282
 5553SOL    HW217559   3.693   6.661   0.373
 5554SOL     OW17560   3.203   1.542   5.256
 5554SOL    HW117561   3.130   1.489   5.212
 5554SOL    HW217562   3.270   1.479   5.296
 5555SOL     OW17563   0.509   5.095   4.007
 5555SOL    HW117564   0.608   5.095   3.998
 5555SOL    HW217565   0.469   5.034   3.939
 5556SOL     OW17566   0.216   3.062   4.091
 5556SOL    HW117567   0.178   3.055   4.184
 5556SOL    HW217568   0.153   3.020   4.026
 5557SOL     OW17569   3.249   4.965   3.482
 5557SOL    HW117570   3.209   4.924   3.564
 5557SOL    HW217571   3.211   4.921   3.400
 5558SOL     OW17572   5.308   3.518   5.513
 5558SOL    HW117573   5.222   3.569   5.520
 5558SOL    HW217574   5.307   3.461   5.431
 5559SOL     OW17575   2.704   6.964   2.159
 5559SOL    HW117576   2.716   6.979   2.257
 5559SOL    HW217577   2.701   6.866   2.141
 5560SOL     OW17578   0.417   6.755   2.724
 5560SOL    HW117579   0.405   6.850   2.752
 5560SOL    HW217580   0.506   6.722   2.756
 5561SOL     OW17581   2.256   2.390   3.905
 5561SOL    HW117582   2.205   2.304   3.912
 5561SOL    HW217583   2.354   2.371   3.901
 5562SOL     OW17584   1.817   2.117   6.633
 5562SOL    HW117585   1.861   2.061   6.563
 5562SOL    HW217586   1.831   2.214   6.613
 5563SOL     OW17587   4.364   6.554   2.777
 5563SOL    HW117588   4.406   6.465   2.763
 5563SOL    HW217589   4.413   6.623   2.724
 5564SOL     OW17590   5.313   1.971   1.705
 5564SOL    HW117591   5.241   1.934   1.762
 5564SOL    HW217592   5.359   1.897   1.655
 5565SOL     OW17593   5.040   1.959   6.034
 5565SOL    HW117594   5.040   2.055   6.008
 5565SOL    HW217595   4.996   1.905   5.963
 5566SOL     OW17596   1.424   5.589   1.407
 5566SOL    HW117597   1.491   5.662   1.420
 5566SOL    HW217598   1.372   5.576   1.492
 5567SOL     OW17599   0.818   4.909   0.661
 5567SOL    HW117600   0.846   4.896   0.756
 5567SOL    HW217601   0.752   4.838   0.636
 5568SOL     OW17602   4.725   2.349   2.021
 5568SOL    HW117603   4.701   2.435   2.066
 5568SOL    HW217604   4.825   2.339   2.019
 5569SOL     OW17605   3.986   1.895   1.865
 5569SOL    HW117606   4.037   1.908   1.950
 5569SOL    HW217607   3.946   1.982   1.837
 5570SOL     OW17608   6.186   4.921   4.641
 5570SOL    HW117609   6.279   4.889   4.659
 5570SOL    HW217610   6.133   4.918   4.726
 5571SOL     OW17611   0.440   6.396   0.238
 5571SOL    HW117612   0.396   6.374   0.151
 5571SOL    HW217613   0.461   6.311   0.286
 5572SOL     OW17614   2.514   2.627   6.753
 5572SOL    HW117615   2.483   2.702   6.812
 5572SOL    HW217616   2.454   2.621   6.674
 5573SOL     OW17617   1.026   2.832   0.696
 5573SOL    HW117618   1.040   2.833   0.795
 5573SOL    HW217619   0.978   2.749   0.670
 5574SOL     OW17620   6.917   1.414   4.517
 5574SOL    HW117621   6.945   1.480   4.587
 5574SOL    HW217622   6.994   1.354   4.494
 5575SOL     OW17623   1.619   0.818   1.794
 5575SOL    HW117624   1.611   0.823   1.894
 5575SOL    HW217625   1.528   0.821   1.753
 5576SOL     OW17626   6.291   5.350   1.963
 5576SOL    HW117627   6.265   5.351   1.866
 5576SOL    HW217628   6.241   5.278   2.010
 5577SOL     OW17629   2.467   3.381   5.483
 5577SOL    HW117630   2.483   3.342   5.573
 5577SOL    HW217631   2.381   3.433   5.484
 5578SOL     OW17632   3.807   2.713   0.523
 5578SOL    HW117633   3.762   2.742   0.439
 5578SOL    HW217634   3.739   2.692   0.592
 5579SOL     OW17635   6.016   3.767   5.865
 5579SOL    HW117636   5.989   3.862   5.845
 5579SOL    HW217637   5.934   3.713   5.886
 5580SOL     OW17638   4.685   2.200   0.594
 5580SOL    HW117639   4.679   2.265   0.670
 5580SOL    HW217640   4.592   2.180   0.561
 5581SOL     OW17641   2.826   0.076   0.903
 5581SOL    HW117642   2.854   0.166   0.869
 5581SOL    HW217643   2.839   0.008   0.831
 5582SOL     OW17644   3.300   3.492   4.307
 5582SOL    HW117645   3.264   3.584   4.291
 5582SOL    HW217646   3.286   3.467   4.403
 5583SOL     OW17647   4.010   6.898   2.471
 5583SOL    HW117648   3.980   6.880   2.565
 5583SOL    HW217649   3.981   6.990   2.445
 5584SOL     OW17650   5.807   3.862   3.633
 5584SOL    HW117651   5.897   3.818   3.625
 5584SOL    HW217652   5.737   3.802   3.594
 5585SOL     OW17653   5.657   0.535   4.189
 5585SOL    HW117654   5.568   0.498   4.163
 5585SOL    HW217655   5.679   0.613   4.131
 5586SOL     OW17656   1.730   2.653   6.501
 5586SOL    HW117657   1.785   2.577   6.534
 5586SOL    HW217658   1.790   2.727   6.469
 5587SOL     OW17659   3.835   0.067   2.447
 5587SOL    HW117660   3.781   0.011   2.510
 5587SOL    HW217661   3.803   0.162   2.450
 5588SOL     OW17662   1.516   6.804   4.523
 5588SOL    HW117663   1.445   6.788   4.455
 5588SOL    HW217664   1.562   6.891   4.505
 5589SOL     OW17665   5.102   2.991   5.603
 5589SOL    HW117666   5.128   2.895   5.612
 5589SOL    HW217667   5.093   3.032   5.694
 5590SOL     OW17668   6.518   5.413   3.238
 5590SOL    HW117669   6.501   5.510   3.220
 5590SOL    HW217670   6.441   5.359   3.206
 5591SOL     OW17671   5.685   0.807   0.322
 5591SOL    HW117672   5.671   0.840   0.229
 5591SOL    HW217673   5.774   0.761   0.328
 5592SOL     OW17674   2.130   3.622   3.700
 5592SOL    HW117675   2.045   3.603   3.749
 5592SOL    HW217676   2.159   3.541   3.650
 5593SOL     OW17677   0.162   2.620   5.813
 5593SOL    HW117678   0.203   2.608   5.904
 5593SOL    HW217679   0.152   2.717   5.794
 5594SOL     OW17680   2.291   1.109   6.910
 5594SOL    HW117681   2.290   1.195   6.962
 5594SOL    HW217682   2.356   1.046   6.951
 5595SOL     OW17683   6.722   0.707   5.715
 5595SOL    HW117684   6.698   0.746   5.626
 5595SOL    HW217685   6.770   0.776   5.770
 5596SOL     OW17686   5.674   6.958   2.704
 5596SOL    HW117687   5.706   0.007   2.761
 5596SOL    HW217688   5.693   6.978   2.608
 5597SOL     OW17689   5.175   2.502   5.512
 5597SOL    HW117690   5.087   2.547   5.496
 5597SOL    HW217691   5.195   2.440   5.437
 5598SOL     OW17692   5.136   2.518   3.544
 5598SOL    HW117693   5.047   2.517   3.590
 5598SOL    HW217694   5.208   2.498   3.610
 5599SOL     OW17695   5.545   4.104   1.764
 5599SOL    HW117696   5.492   4.180   1.800
 5599SOL    HW217697   5.485   4.026   1.749
 5600SOL     OW17698   2.699   0.081   2.819
 5600SOL    HW117699   2.673   0.173   2.790
 5600SOL    HW217700   2.713   0.080   2.918
 5601SOL     OW17701   4.975   2.851   5.303
 5601SOL    HW117702   4.982   2.792   5.384
 5601SOL    HW217703   4.886   2.836   5.259
 5602SOL     OW17704   0.228   1.917   3.788
 5602SOL    HW117705   0.247   1.865   3.705
 5602SOL    HW217706   0.129   1.931   3.798
 5603SOL     OW17707   4.511   2.647   5.117
 5603SOL    HW117708   4.580   2.720   5.121
 5603SOL    HW217709   4.496   2.620   5.022
 5604SOL     OW17710   0.690   0.874   4.268
 5604SOL    HW117711   0.626   0.801   4.242
 5604SOL    HW217712   0.639   0.947   4.314
 5605SOL     OW17713   0.885   0.213   4.893
 5605SOL    HW117714   0.798   0.165   4.890
 5605SOL    HW217715   0.886   0.286   4.825
 5606SOL     OW17716   4.563   1.640   0.445
 5606SOL    HW117717   4.604   1.597   0.365
 5606SOL    HW217718   4.535   1.733   0.422
 5607SOL     OW17719   6.433   2.470   3.095
 5607SOL    HW117720   6.485   2.431   3.171
 5607SOL    HW217721   6.396   2.396   3.038
 5608SOL     OW17722   6.144   0.440   3.012
 5608SOL    HW117723   6.053   0.418   2.977
 5608SOL    HW217724   6.213   0.390   2.959
 5609SOL     OW17725   4.390   6.429   0.316
 5609SOL    HW117726   4.336   6.345   0.323
 5609SOL    HW217727   4.483   6.412   0.346
 5610SOL     OW17728   5.632   3.943   0.008
 5610SOL    HW117729   5.628   3.908   0.101
 5610SOL    HW217730   5.587   3.879   6.973
 5611SOL     OW17731   0.073   4.374   1.948
 5611SOL    HW117732   0.002   4.433   1.911
 5611SOL    HW217733   0.153   4.430   1.970
 5612SOL     OW17734   3.166   3.115   0.316
 5612SOL    HW117735   3.125   3.146   0.402
 5612SOL    HW217736   3.231   3.042   0.334
 5613SOL     OW17737   6.668   5.158   4.144
 5613SOL    HW117738   6.578   5.176   4.182
 5613SOL    HW217739   6.728   5.237   4.160
 5614SOL     OW17740   6.527   1.844   4.344
 5614SOL    HW117741   6.554   1.920   4.284
 5614SOL    HW217742   6.553   1.865   4.438
 5615SOL     OW17743   0.159   2.144   2.249
 5615SOL    HW117744   0.206   2.105   2.170
 5615SOL    HW217745   0.194   2.102   2.333
 5616SOL     OW17746   2.374   1.692   4.490
 5616SOL    HW117747   2.369   1.694   4.390
 5616SOL    HW217748   2.295   1.642   4.526
 5617SOL     OW17749   1.996   5.244   4.807
 5617SOL    HW117750   1.906   5.203   4.795
 5617SOL    HW217751   2.005   5.324   4.748
 5618SOL     OW17752   6.384   5.539   3.736
 5618SOL    HW117753   6.339   5.598   3.669
 5618SOL    HW217754   6.483   5.548   3.727
 5619SOL     OW17755   2.923   3.316   3.912
 5619SOL    HW117756   2.858   3.250   3.950
 5619SOL    HW217757   2.987   3.269   3.852
 5620SOL     OW17758   4.308   4.061   5.781
 5620SOL    HW117759   4.245   4.126   5.739
 5620SOL    HW217760   4.394   4.107   5.803
 5621SOL     OW17761   1.902   2.841   6.421
 5621SOL    HW117762   1.949   2.804   6.341
 5621SOL    HW217763   1.960   2.908   6.466
 5622SOL     OW17764   4.215   5.789   5.200
 5622SOL    HW117765   4.154   5.804   5.122
 5622SOL    HW217766   4.303   5.833   5.183
 5623SOL     OW17767   5.122   6.844   4.518
 5623SOL    HW117768   5.062   6.911   4.563
 5623SOL    HW217769   5.105   6.846   4.419
 5624SOL     OW17770   0.407   5.321   3.268
 5624SOL    HW117771   0.332   5.338   3.333
 5624SOL    HW217772   0.479   5.389   3.281
 5625SOL     OW17773   1.046   5.831   4.253
 5625SOL    HW117774   1.136   5.786   4.260
 5625SOL    HW217775   0.999   5.796   4.172
 5626SOL     OW17776   1.901   4.655   4.351
 5626SOL    HW117777   1.896   4.581   4.284
 5626SOL    HW217778   1.953   4.731   4.312
 5627SOL     OW17779   0.466   5.643   6.107
 5627SOL    HW117780   0.451   5.741   6.119
 5627SOL    HW217781   0.406   5.609   6.035
 5628SOL     OW17782   2.831   3.386   0.537
 5628SOL    HW117783   2.783   3.411   0.622
 5628SOL    HW217784   2.879   3.299   0.551
 5629SOL     OW17785   3.995   3.129   1.281
 5629SOL    HW117786   4.064   3.104   1.349
 5629SOL    HW217787   3.918   3.173   1.327
 5630SOL     OW17788   1.779   3.807   6.315
 5630SOL    HW117789   1.732   3.881   6.363
 5630SOL    HW217790   1.875   3.805   6.344
 5631SOL     OW17791   4.677   0.966   2.490
 5631SOL    HW117792   4.769   1.002   2.497
 5631SOL    HW217793   4.659   0.906   2.568
 5632SOL     OW17794   5.181   0.881   6.293
 5632SOL    HW117795   5.189   0.979   6.278
 5632SOL    HW217796   5.085   0.853   6.282
 5633SOL     OW17797   0.630   4.881   4.250
 5633SOL    HW117798   0.660   4.843   4.338
 5633SOL    HW217799   0.553   4.943   4.266
 5634SOL     OW17800   2.527   5.331   5.398
 5634SOL    HW117801   2.433   5.365   5.403
 5634SOL    HW217802   2.545   5.294   5.306
 5635SOL     OW17803   2.975   6.749   6.975
 5635SOL    HW117804   2.965   6.767   6.877
 5635SOL    HW217805   3.043   6.678   6.989
 5636SOL     OW17806   6.095   1.528   6.029
 5636SOL    HW117807   6.137   1.538   6.119
 5636SOL    HW217808   6.116   1.609   5.974
 5637SOL     OW17809   5.811   6.998   4.180
 5637SOL    HW117810   5.852   0.044   4.126
 5637SOL    HW217811   5.883   6.948   4.228
 5638SOL     OW17812   5.648   6.025   1.361
 5638SOL    HW117813   5.671   5.953   1.295
 5638SOL    HW217814   5.556   6.059   1.343
 5639SOL     OW17815   1.377   0.886   1.413
 5639SOL    HW117816   1.440   0.833   1.356
 5639SOL    HW217817   1.430   0.940   1.478
 5640SOL     OW17818   2.454   6.960   2.699
 5640SOL    HW117819   2.525   7.018   2.739
 5640SOL    HW217820   2.432   6.991   2.607
 5641SOL     OW17821   1.026   4.306   5.841
 5641SOL    HW117822   0.965   4.325   5.917
 5641SOL    HW217823   1.018   4.379   5.773
 5642SOL     OW17824   0.654   5.202   6.151
 5642SOL    HW117825   0.744   5.171   6.120
 5642SOL    HW217826   0.599   5.123   6.176
 5643SOL     OW17827   3.329   1.124   4.718
 5643SOL    HW117828   3.259   1.138   4.787
 5643SOL    HW217829   3.392   1.052   4.748
 5644SOL     OW17830   5.010   1.281   4.057
 5644SOL    HW117831   5.102   1.300   4.024
 5644SOL    HW217832   5.015   1.238   4.147
 5645SOL     OW17833   6.097   4.303   2.466
 5645SOL    HW117834   6.028   4.231   2.460
 5645SOL    HW217835   6.056   4.385   2.505
 5646SOL     OW17836   1.595   5.768   3.615
 5646SOL    HW117837   1.579   5.724   3.703
 5646SOL    HW217838   1.508   5.802   3.579
 5647SOL     OW17839   6.593   6.204   6.297
 5647SOL    HW117840   6.633   6.275   6.354
 5647SOL    HW217841   6.551   6.134   6.354
 5648SOL     OW17842   1.919   1.203   2.850
 5648SOL    HW117843   1.959   1.278   2.797
 5648SOL    HW217844   1.905   1.123   2.790
 5649SOL     OW17845   1.396   6.904   5.457
 5649SOL    HW117846   1.482   6.898   5.406
 5649SOL    HW217847   1.342   6.821   5.442
 5650SOL     OW17848   0.320   4.992   1.306
 5650SOL    HW117849   0.269   4.908   1.323
 5650SOL    HW217850   0.359   4.991   1.214
 5651SOL     OW17851   0.165   1.541   1.654
 5651SOL    HW117852   0.152   1.467   1.720
 5651SOL    HW217853   0.163   1.503   1.561
 5652SOL     OW17854   4.917   6.312   2.096
 5652SOL    HW117855   4.837   6.253   2.093
 5652SOL    HW217856   4.997   6.262   2.063
 5653SOL     OW17857   0.296   6.289   6.550
 5653SOL    HW117858   0.307   6.364   6.615
 5653SOL    HW217859   0.217   6.234   6.575
 5654SOL     OW17860   0.168   6.942   6.261
 5654SOL    HW117861   0.155   7.019   6.199
 5654SOL    HW217862   0.089   6.934   6.321
 5655SOL     OW17863   0.955   3.278   4.385
 5655SOL    HW117864   0.984   3.195   4.338
 5655SOL    HW217865   0.877   3.258   4.445
 5656SOL     OW17866   2.999   4.871   0.618
 5656SOL    HW117867   2.902   4.892   0.602
 5656SOL    HW217868   3.027   4.795   0.558
 5657SOL     OW17869   4.605   6.812   1.305
 5657SOL    HW117870   4.580   6.716   1.317
 5657SOL    HW217871   4.531   6.870   1.339
 5658SOL     OW17872   2.976   6.601   5.926
 5658SOL    HW117873   2.894   6.655   5.945
 5658SOL    HW217874   3.049   6.629   5.988
 5659SOL     OW17875   2.927   3.626   3.005
 5659SOL    HW117876   2.866   3.663   2.935
 5659SOL    HW217877   3.001   3.691   3.022
 5660SOL     OW17878   5.355   0.589   6.497
 5660SOL    HW117879   5.344   0.596   6.398
 5660SOL    HW217880   5.294   0.655   6.542
 5661SOL     OW17881   0.132   5.239   6.045
 5661SOL    HW117882   0.208   5.265   6.104
 5661SOL    HW217883   0.101   5.146   6.069
 5662SOL     OW17884   2.419   4.832   4.335
 5662SOL    HW117885   2.425   4.777   4.418
 5662SOL    HW217886   2.503   4.818   4.281
 5663SOL     OW17887   1.181   3.920   6.753
 5663SOL    HW117888   1.088   3.946   6.728
 5663SOL    HW217889   1.184   3.897   6.850
 5664SOL     OW17890   6.948   3.853   4.056
 5664SOL    HW117891   6.939   3.788   3.981
 5664SOL    HW217892   6.898   3.937   4.034
 5665SOL     OW17893   1.804   1.077   6.343
 5665SOL    HW117894   1.901   1.097   6.333
 5665SOL    HW217895   1.751   1.157   6.316
 5666SOL     OW17896   5.084   5.996   1.204
 5666SOL    HW117897   5.073   5.897   1.214
 5666SOL    HW217898   5.113   6.017   1.110
 5667SOL     OW17899   0.768   5.123   3.829
 5667SOL    HW117900   0.692   5.143   3.767
 5667SOL    HW217901   0.852   5.163   3.792
 5668SOL     OW17902   5.210   2.344   6.655
 5668SOL    HW117903   5.134   2.361   6.718
 5668SOL    HW217904   5.280   2.290   6.701
 5669SOL     OW17905   0.385   3.706   6.637
 5669SOL    HW117906   0.485   3.714   6.633
 5669SOL    HW217907   0.357   3.683   6.730
 5670SOL     OW17908   0.574   3.065   3.447
 5670SOL    HW117909   0.527   3.058   3.358
 5670SOL    HW217910   0.580   2.974   3.488
 5671SOL     OW17911   0.890   6.873   6.340
 5671SOL    HW117912   0.869   6.904   6.247
 5671SOL    HW217913   0.986   6.892   6.361
 5672SOL     OW17914   4.129   5.105   6.362
 5672SOL    HW117915   4.178   5.124   6.447
 5672SOL    HW217916   4.189   5.123   6.285
 5673SOL     OW17917   1.208   6.711   1.862
 5673SOL    HW117918   1.120   6.666   1.842
 5673SOL    HW217919   1.194   6.782   1.931
 5674SOL     OW17920   6.799   3.486   2.443
 5674SOL    HW117921   6.790   3.574   2.397
 5674SOL    HW217922   6.755   3.491   2.533
 5675SOL     OW17923   4.248   2.286   5.783
 5675SOL    HW117924   4.301   2.286   5.698
 5675SOL    HW217925   4.217   2.379   5.803
 5676SOL     OW17926   2.094   1.777   1.605
 5676SOL    HW117927   2.030   1.717   1.655
 5676SOL    HW217928   2.053   1.868   1.596
 5677SOL     OW17929   0.814   2.077   3.135
 5677SOL    HW117930   0.845   2.065   3.041
 5677SOL    HW217931   0.727   2.029   3.149
 5678SOL     OW17932   2.721   6.754   3.207
 5678SOL    HW117933   2.796   6.818   3.222
 5678SOL    HW217934   2.650   6.798   3.152
 5679SOL     OW17935   1.331   0.007   3.945
 5679SOL    HW117936   1.346   0.045   3.854
 5679SOL    HW217937   1.259   0.058   3.992
 5680SOL     OW17938   1.582   5.260   0.934
 5680SOL    HW117939   1.571   5.252   1.033
 5680SOL    HW217940   1.515   5.325   0.898
 5681SOL     OW17941   1.105   3.657   6.935
 5681SOL    HW117942   1.081   3.668   6.838
 5681SOL    HW217943   1.029   3.687   6.992
 5682SOL     OW17944   2.111   4.849   6.205
 5682SOL    HW117945   2.160   4.931   6.234
 5682SOL    HW217946   2.097   4.789   6.284
 5683SOL     OW17947   4.630   1.805   6.157
 5683SOL    HW117948   4.724   1.772   6.146
 5683SOL    HW217949   4.589   1.763   6.237
 5684SOL     OW17950   4.181   3.567   4.604
 5684SOL    HW117951   4.122   3.647   4.602
 5684SOL    HW217952   4.251   3.579   4.674
 5685SOL     OW17953   0.424   4.645   1.716
 5685SOL    HW117954   0.399   4.560   1.669
 5685SOL    HW217955   0.436   4.627   1.813
 5686SOL     OW17956   3.146   0.619   0.236
 5686SOL    HW117957   3.048   0.623   0.256
 5686SOL    HW217958   3.170   0.692   0.173
 5687SOL     OW17959   6.719   3.768   4.942
 5687SOL    HW117960   6.794   3.834   4.953
 5687SOL    HW217961   6.720   3.732   4.848
 5688SOL     OW17962   6.358   1.175   7.012
 5688SOL    HW117963   6.422   1.215   0.051
 5688SOL    HW217964   6.298   1.246   6.976
 5689SOL     OW17965   3.933   1.144   6.999
 5689SOL    HW117966   3.984   1.064   0.005
 5689SOL    HW217967   3.997   1.213   6.966
 5690SOL     OW17968   2.693   6.403   1.332
 5690SOL    HW117969   2.695   6.315   1.379
 5690SOL    HW217970   2.761   6.464   1.372
 5691SOL     OW17971   3.087   6.287   2.223
 5691SOL    HW117972   3.122   6.380   2.213
 5691SOL    HW217973   3.152   6.223   2.181
 5692SOL     OW17974   0.120   2.902   5.769
 5692SOL    HW117975   0.130   2.939   5.677
 5692SOL    HW217976   0.201   2.923   5.823
 5693SOL     OW17977   5.483   3.044   2.131
 5693SOL    HW117978   5.519   2.951   2.132
 5693SOL    HW217979   5.387   3.043   2.102
 5694SOL     OW17980   0.440   1.086   3.972
 5694SOL    HW117981   0.514   1.097   4.039
 5694SOL    HW217982   0.451   0.998   3.925
 5695SOL     OW17983   0.973   2.607   3.125
 5695SOL    HW117984   0.922   2.691   3.147
 5695SOL    HW217985   0.909   2.530   3.121
 5696SOL     OW17986   1.581   0.543   3.043
 5696SOL    HW117987   1.556   0.455   3.002
 5696SOL    HW217988   1.497   0.594   3.064
 5697SOL     OW17989   6.214   1.908   0.631
 5697SOL    HW117990   6.238   2.002   0.658
 5697SOL    HW217991   6.157   1.867   0.702
 5698SOL     OW17992   0.322   2.463   1.968
 5698SOL    HW117993   0.322   2.542   2.029
 5698SOL    HW217994   0.416   2.437   1.947
 5699SOL     OW17995   6.577   2.381   3.314
 5699SOL    HW117996   6.668   2.346   3.288
 5699SOL    HW217997   6.509   2.308   3.302
 5700SOL     OW17998   6.745   6.203   4.533
 5700SOL    HW117999   6.654   6.196   4.574
 5700SOL    HW218000   6.813   6.168   4.597
 5701SOL     OW18001   1.092   5.885   3.185
 5701SOL    HW118002   1.158   5.851   3.118
 5701SOL    HW218003   1.008   5.830   3.181
 5702SOL     OW18004   1.865   0.209   5.758
 5702SOL    HW118005   1.844   0.295   5.805
 5702SOL    HW218006   1.887   0.228   5.663
 5703SOL     OW18007   5.021   4.634   0.403
 5703SOL    HW118008   5.065   4.607   0.488
 5703SOL    HW218009   5.030   4.733   0.390
 5704SOL     OW18010   4.081   5.212   2.408
 5704SOL    HW118011   4.068   5.294   2.464
 5704SOL    HW218012   4.168   5.169   2.432
 5705SOL     OW18013   6.098   0.920   0.592
 5705SOL    HW118014   6.022   0.859   0.616
 5705SOL    HW218015   6.070   1.015   0.606
 5706SOL     OW18016   1.119   1.654   0.761
 5706SOL    HW118017   1.078   1.740   0.731
 5706SOL    HW218018   1.106   1.585   0.689
 5707SOL     OW18019   0.499   6.636   0.383
 5707SOL    HW118020   0.549   6.613   0.467
 5707SOL    HW218021   0.495   6.555   0.324
 5708SOL     OW18022   5.481   6.441   1.383
 5708SOL    HW118023   5.513   6.535   1.374
 5708SOL    HW218024   5.524   6.384   1.313
 5709SOL     OW18025   1.096   6.744   3.659
 5709SOL    HW118026   1.040   6.662   3.647
 5709SOL    HW218027   1.062   6.796   3.737
 5710SOL     OW18028   2.450   3.278   5.756
 5710SOL    HW118029   2.486   3.342   5.824
 5710SOL    HW218030   2.359   3.246   5.785
 5711SOL     OW18031   5.256   0.934   3.236
 5711SOL    HW118032   5.229   1.023   3.273
 5711SOL    HW218033   5.191   0.907   3.165
 5712SOL     OW18034   0.662   6.105   5.644
 5712SOL    HW118035   0.760   6.110   5.663
 5712SOL    HW218036   0.646   6.039   5.571
 5713SOL     OW18037   1.098   1.982   1.082
 5713SOL    HW118038   1.012   1.986   1.133
 5713SOL    HW218039   1.121   1.887   1.063
 5714SOL     OW18040   1.274   6.368   7.023
 5714SOL    HW118041   1.226   6.280   7.018
 5714SOL    HW218042   1.371   6.353   0.014
 5715SOL     OW18043   1.271   6.211   3.587
 5715SOL    HW118044   1.196   6.177   3.529
 5715SOL    HW218045   1.286   6.147   3.662
 5716SOL     OW18046   1.022   3.830   5.580
 5716SOL    HW118047   1.100   3.886   5.606
 5716SOL    HW218048   0.996   3.770   5.656
 5717SOL     OW18049   1.906   5.406   0.236
 5717SOL    HW118050   1.979   5.468   0.264
 5717SOL    HW218051   1.823   5.426   0.288
 5718SOL     OW18052   1.127   4.057   5.929
 5718SOL    HW118053   1.109   4.150   5.900
 5718SOL    HW218054   1.041   4.008   5.941
 5719SOL     OW18055   2.483   1.609   6.140
 5719SOL    HW118056   2.407   1.649   6.089
 5719SOL    HW218057   2.494   1.513   6.114
 5720SOL     OW18058   0.983   4.798   4.307
 5720SOL    HW118059   1.009   4.892   4.330
 5720SOL    HW218060   1.024   4.774   4.219
 5721SOL     OW18061   0.251   3.751   0.872
 5721SOL    HW118062   0.229   3.798   0.958
 5721SOL    HW218063   0.339   3.785   0.838
 5722SOL     OW18064   5.677   1.597   5.042
 5722SOL    HW118065   5.658   1.679   4.988
 5722SOL    HW218066   5.750   1.544   4.998
 5723SOL     OW18067   4.065   3.936   0.218
 5723SOL    HW118068   4.067   3.859   0.282
 5723SOL    HW218069   3.971   3.968   0.208
 5724SOL     OW18070   3.952   2.409   5.324
 5724SOL    HW118071   3.960   2.423   5.423
 5724SOL    HW218072   4.019   2.467   5.277
 5725SOL     OW18073   5.194   5.825   3.290
 5725SOL    HW118074   5.250   5.826   3.207
 5725SOL    HW218075   5.121   5.893   3.281
 5726SOL     OW18076   6.415   3.404   3.507
 5726SOL    HW118077   6.455   3.379   3.419
 5726SOL    HW218078   6.468   3.363   3.581
 5727SOL     OW18079   0.207   3.114   3.740
 5727SOL    HW118080   0.215   3.172   3.658
 5727SOL    HW218081   0.246   3.162   3.818
 5728SOL     OW18082   4.681   1.500   6.239
 5728SOL    HW118083   4.743   1.424   6.221
 5728SOL    HW218084   4.675   1.516   6.337
 5729SOL     OW18085   0.978   1.217   0.714
 5729SOL    HW118086   1.035   1.137   0.694
 5729SOL    HW218087   0.969   1.228   0.813
 5730SOL     OW18088   4.292   5.412   5.712
 5730SOL    HW118089   4.345   5.413   5.627
 5730SOL    HW218090   4.244   5.499   5.722
 5731SOL     OW18091   2.021   6.700   3.962
 5731SOL    HW118092   2.051   6.643   4.039
 5731SOL    HW218093   1.962   6.646   3.902
 5732SOL     OW18094   6.464   4.174   4.957
 5732SOL    HW118095   6.505   4.124   5.033
 5732SOL    HW218096   6.525   4.170   4.878
 5733SOL     OW18097   3.251   0.373   5.461
 5733SOL    HW118098   3.344   0.411   5.451
 5733SOL    HW218099   3.209   0.411   5.543
 5734SOL     OW18100   1.489   6.574   6.396
 5734SOL    HW118101   1.414   6.509   6.385
 5734SOL    HW218102   1.562   6.530   6.450
 5735SOL     OW18103   3.868   1.514   2.845
 5735SOL    HW118104   3.824   1.448   2.784
 5735SOL    HW218105   3.828   1.605   2.832
 5736SOL     OW18106   5.507   4.886   0.385
 5736SOL    HW118107   5.482   4.854   0.294
 5736SOL    HW218108   5.509   4.809   0.448
 5737SOL     OW18109   5.321   6.118   0.193
 5737SOL    HW118110   5.411   6.107   0.149
 5737SOL    HW218111   5.275   6.198   0.155
 5738SOL     OW18112   3.761   1.760   6.960
 5738SOL    HW118113   3.760   1.664   6.986
 5738SOL    HW218114   3.830   1.774   6.888
 5739SOL     OW18115   1.319   6.449   5.435
 5739SOL    HW118116   1.276   6.460   5.524
 5739SOL    HW218117   1.380   6.526   5.418
 5740SOL     OW18118   4.565   3.541   1.361
 5740SOL    HW118119   4.591   3.618   1.419
 5740SOL    HW218120   4.516   3.574   1.280
 5741SOL     OW18121   0.183   3.898   4.080
 5741SOL    HW118122   0.231   3.811   4.064
 5741SOL    HW218123   0.085   3.883   4.073
 5742SOL     OW18124   4.457   6.144   3.123
 5742SOL    HW118125   4.464   6.126   3.025
 5742SOL    HW218126   4.493   6.235   3.142
 5743SOL     OW18127   2.821   5.930   5.229
 5743SOL    HW118128   2.831   5.988   5.148
 5743SOL    HW218129   2.774   5.845   5.204
 5744SOL     OW18130   5.575   1.070   2.135
 5744SOL    HW118131   5.600   1.160   2.169
 5744SOL    HW218132   5.653   1.008   2.145
 5745SOL     OW18133   2.548   0.881   4.026
 5745SOL    HW118134   2.462   0.872   4.076
 5745SOL    HW218135   2.543   0.827   3.942
 5746SOL     OW18136   4.820   6.851   1.472
 5746SOL    HW118137   4.884   6.775   1.458
 5746SOL    HW218138   4.742   6.840   1.410
 5747SOL     OW18139   0.802   5.374   1.619
 5747SOL    HW118140   0.850   5.315   1.684
 5747SOL    HW218141   0.763   5.318   1.546
 5748SOL     OW18142   1.699   6.937   0.871
 5748SOL    HW118143   1.697   0.004   0.838
 5748SOL    HW218144   1.752   6.931   0.955
 5749SOL     OW18145   1.643   6.750   4.929
 5749SOL    HW118146   1.730   6.755   4.879
 5749SOL    HW218147   1.572   6.715   4.868
 5750SOL     OW18148   6.231   6.290   5.536
 5750SOL    HW118149   6.295   6.360   5.568
 5750SOL    HW218150   6.142   6.303   5.580
 5751SOL     OW18151   2.284   2.776   4.835
 5751SOL    HW118152   2.232   2.706   4.884
 5751SOL    HW218153   2.303   2.853   4.896
 5752SOL     OW18154   5.760   0.101   0.561
 5752SOL    HW118155   5.675   0.137   0.523
 5752SOL    HW218156   5.783   0.015   0.516
 5753SOL     OW18157   3.490   4.173   4.786
 5753SOL    HW118158   3.399   4.145   4.817
 5753SOL    HW218159   3.510   4.265   4.819
 5754SOL     OW18160   0.862   5.628   1.711
 5754SOL    HW118161   0.917   5.688   1.653
 5754SOL    HW218162   0.855   5.538   1.668
 5755SOL     OW18163   1.566   2.080   6.251
 5755SOL    HW118164   1.511   2.069   6.167
 5755SOL    HW218165   1.592   2.176   6.260
 5756SOL     OW18166   0.702   0.510   2.567
 5756SOL    HW118167   0.796   0.487   2.543
 5756SOL    HW218168   0.650   0.426   2.582
 5757SOL     OW18169   0.427   5.462   4.318
 5757SOL    HW118170   0.449   5.510   4.232
 5757SOL    HW218171   0.420   5.364   4.301
 5758SOL     OW18172   2.313   1.520   2.601
 5758SOL    HW118173   2.254   1.442   2.581
 5758SOL    HW218174   2.272   1.603   2.564
 5759SOL     OW18175   4.821   0.682   0.301
 5759SOL    HW118176   4.900   0.677   0.240
 5759SOL    HW218177   4.853   0.690   0.396
 5760SOL     OW18178   6.249   2.162   0.740
 5760SOL    HW118179   6.246   2.191   0.835
 5760SOL    HW218180   6.225   2.238   0.680
 5761SOL     OW18181   6.095   5.105   5.676
 5761SOL    HW118182   6.114   5.096   5.774
 5761SOL    HW218183   6.069   5.016   5.639
 5762SOL     OW18184   5.048   4.561   1.178
 5762SOL    HW118185   5.073   4.465   1.190
 5762SOL    HW218186   5.085   4.595   1.092
 5763SOL     OW18187   5.834   6.047   0.832
 5763SOL    HW118188   5.794   6.094   0.753
 5763SOL    HW218189   5.899   6.108   0.878
 5764SOL     OW18190   4.521   4.752   4.600
 5764SOL    HW118191   4.483   4.738   4.691
 5764SOL    HW218192   4.474   4.828   4.555
 5765SOL     OW18193   6.224   3.424   0.130
 5765SOL    HW118194   6.214   3.325   0.124
 5765SOL    HW218195   6.295   3.447   0.197
 5766SOL     OW18196   1.503   1.845   5.107
 5766SOL    HW118197   1.437   1.840   5.182
 5766SOL    HW218198   1.533   1.752   5.084
 5767SOL     OW18199   2.542   0.057   1.066
 5767SOL    HW118200   2.494   7.018   1.123
 5767SOL    HW218201   2.595   0.009   0.996
 5768SOL     OW18202   0.533   6.909   3.730
 5768SOL    HW118203   0.453   6.951   3.687
 5768SOL    HW218204   0.508   6.821   3.770
 5769SOL     OW18205   2.636   5.029   4.292
 5769SOL    HW118206   2.617   4.970   4.371
 5769SOL    HW218207   2.595   5.119   4.307
 5770SOL     OW18208   6.820   6.415   5.982
 5770SOL    HW118209   6.804   6.339   6.044
 5770SOL    HW218210   6.780   6.394   5.893
 5771SOL     OW18211   0.936   6.992   4.216
 5771SOL    HW118212   0.886   6.911   4.184
 5771SOL    HW218213   0.895   7.025   4.301
 5772SOL     OW18214   5.083   1.260   1.288
 5772SOL    HW118215   5.179   1.242   1.309
 5772SOL    HW218216   5.067   1.246   1.190
 5773SOL     OW18217   4.377   1.130   3.526
 5773SOL    HW118218   4.402   1.116   3.622
 5773SOL    HW218219   4.280   1.109   3.513
 5774SOL     OW18220   3.193   0.052   4.147
 5774SOL    HW118221   3.140   0.060   4.232
 5774SOL    HW218222   3.144   7.020   4.083
 5775SOL     OW18223   1.067   0.159   2.056
 5775SOL    HW118224   1.063   0.259   2.062
 5775SOL    HW218225   1.152   0.132   2.011
 5776SOL     OW18226   0.502   0.070   3.924
 5776SOL    HW118227   0.582   0.122   3.952
 5776SOL    HW218228   0.528   0.004   3.854
 5777SOL     OW18229   6.653   0.254   5.203
 5777SOL    HW118230   6.599   0.206   5.134
 5777SOL    HW218231   6.603   0.335   5.234
 5778SOL     OW18232   1.349   0.344   0.355
 5778SOL    HW118233   1.375   0.258   0.310
 5778SOL    HW218234   1.422   0.373   0.416
 5779SOL     OW18235   5.069   2.086   0.926
 5779SOL    HW118236   5.042   2.169   0.877
 5779SOL    HW218237   4.998   2.015   0.913
 5780SOL     OW18238   6.339   6.173   3.816
 5780SOL    HW118239   6.427   6.204   3.853
 5780SOL    HW218240   6.321   6.080   3.847
 5781SOL     OW18241   0.028   5.175   4.325
 5781SOL    HW118242   0.049   5.272   4.317
 5781SOL    HW218243   0.059   5.128   4.242
 5782SOL     OW18244   2.009   1.833   1.069
 5782SOL    HW118245   2.022   1.912   1.009
 5782SOL    HW218246   2.074   1.839   1.145
 5783SOL     OW18247   0.941   1.035   1.300
 5783SOL    HW118248   1.037   1.009   1.290
 5783SOL    HW218249   0.892   0.962   1.348
 5784SOL     OW18250   6.922   6.156   5.330
 5784SOL    HW118251   6.950   6.157   5.426
 5784SOL    HW218252   6.962   6.235   5.283
 5785SOL     OW18253   2.462   2.024   0.154
 5785SOL    HW118254   2.491   2.003   0.061
 5785SOL    HW218255   2.411   2.110   0.155
 5786SOL     OW18256   0.515   4.475   0.366
 5786SOL    HW118257   0.468   4.497   0.451
 5786SOL    HW218258   0.478   4.531   0.292
 5787SOL     OW18259   2.622   1.628   4.543
 5787SOL    HW118260   2.526   1.655   4.532
 5787SOL    HW218261   2.644   1.555   4.478
 5788SOL     OW18262   3.025   1.599   1.752
 5788SOL    HW118263   3.069   1.533   1.692
 5788SOL    HW218264   3.034   1.691   1.714
 5789SOL     OW18265   3.546   4.810   0.177
 5789SOL    HW118266   3.572   4.857   0.262
 5789SOL    HW218267   3.531   4.877   0.105
 5790SOL     OW18268   1.417   4.208   5.253
 5790SOL    HW118269   1.392   4.130   5.195
 5790SOL    HW218270   1.517   4.216   5.256
 5791SOL     OW18271   3.958   1.402   2.417
 5791SOL    HW118272   3.960   1.480   2.480
 5791SOL    HW218273   3.944   1.434   2.324
 5792SOL     OW18274   6.024   3.485   2.285
 5792SOL    HW118275   6.048   3.408   2.345
 5792SOL    HW218276   5.965   3.548   2.334
 5793SOL     OW18277   5.278   1.267   3.733
 5793SOL    HW118278   5.265   1.294   3.829
 5793SOL    HW218279   5.319   1.176   3.730
 5794SOL     OW18280   2.656   1.565   0.335
 5794SOL    HW118281   2.639   1.648   0.390
 5794SOL    HW218282   2.733   1.514   0.375
 5795SOL     OW18283   6.246   6.964   6.878
 5795SOL    HW118284   6.232   0.009   6.812
 5795SOL    HW218285   6.337   6.925   6.867
 5796SOL     OW18286   4.555   1.513   6.742
 5796SOL    HW118287   4.617   1.536   6.667
 5796SOL    HW218288   4.543   1.593   6.801
 5797SOL     OW18289   4.579   2.751   6.119
 5797SOL    HW118290   4.556   2.664   6.163
 5797SOL    HW218291   4.531   2.826   6.165
 5798SOL     OW18292   0.706   4.694   5.427
 5798SOL    HW118293   0.745   4.783   5.454
 5798SOL    HW218294   0.780   4.634   5.395
 5799SOL     OW18295   0.401   0.518   2.933
 5799SOL    HW118296   0.355   0.594   2.888
 5799SOL    HW218297   0.348   0.435   2.921
 5800SOL     OW18298   6.549   6.481   2.001
 5800SOL    HW118299   6.560   6.388   1.965
 5800SOL    HW218300   6.453   6.499   2.019
 5801SOL     OW18301   2.182   2.127   3.251
 5801SOL    HW118302   2.230   2.094   3.170
 5801SOL    HW218303   2.166   2.225   3.242
 5802SOL     OW18304   0.771   4.551   2.157
 5802SOL    HW118305   0.858   4.574   2.114
 5802SOL    HW218306   0.752   4.616   2.230
 5803SOL     OW18307   2.210   4.484   2.350
 5803SOL    HW118308   2.154   4.560   2.382
 5803SOL    HW218309   2.277   4.459   2.420
 5804SOL     OW18310   0.558   5.314   3.846
 5804SOL    HW118311   0.491   5.365   3.792
 5804SOL    HW218312   0.512   5.272   3.925
 5805SOL     OW18313   3.058   3.385   6.672
 5805SOL    HW118314   3.048   3.399   6.770
 5805SOL    HW218315   3.141   3.333   6.653
 5806SOL     OW18316   0.369   5.799   4.817
 5806SOL    HW118317   0.465   5.810   4.795
 5806SOL    HW218318   0.342   5.703   4.804
 5807SOL     OW18319   0.464   3.904   2.492
 5807SOL    HW118320   0.414   3.914   2.406
 5807SOL    HW218321   0.411   3.945   2.566
 5808SOL     OW18322   5.574   5.560   4.942
 5808SOL    HW118323   5.632   5.600   5.013
 5808SOL    HW218324   5.592   5.604   4.854
 5809SOL     OW18325   5.437   1.440   4.630
 5809SOL    HW118326   5.474   1.391   4.550
 5809SOL    HW218327   5.377   1.378   4.680
 5810SOL     OW18328   3.555   1.711   4.657
 5810SOL    HW118329   3.498   1.757   4.725
 5810SOL    HW218330   3.559   1.768   4.574
 5811SOL     OW18331   2.789   0.705   5.768
 5811SOL    HW118332   2.753   0.660   5.686
 5811SOL    HW218333   2.865   0.765   5.742
 5812SOL     OW18334   6.413   2.800   4.202
 5812SOL    HW118335   6.481   2.835   4.267
 5812SOL    HW218336   6.341   2.753   4.252
 5813SOL     OW18337   1.999   2.280   0.976
 5813SOL    HW118338   1.949   2.366   0.985
 5813SOL    HW218339   2.076   2.279   1.040
 5814SOL     OW18340   6.161   4.902   1.249
 5814SOL    HW118341   6.229   4.964   1.287
 5814SOL    HW218342   6.073   4.949   1.239
 5815SOL     OW18343   4.067   2.198   4.291
 5815SOL    HW118344   4.124   2.248   4.356
 5815SOL    HW218345   4.114   2.194   4.202
 5816SOL     OW18346   4.390   5.449   0.187
 5816SOL    HW118347   4.367   5.366   0.136
 5816SOL    HW218348   4.311   5.510   0.187
 5817SOL     OW18349   5.563   3.473   6.162
 5817SOL    HW118350   5.617   3.396   6.128
 5817SOL    HW218351   5.519   3.519   6.086
 5818SOL     OW18352   6.485   6.368   4.681
 5818SOL    HW118353   6.397   6.413   4.698
 5818SOL    HW218354   6.489   6.282   4.733
 5819SOL     OW18355   4.065   6.850   6.977
 5819SOL    HW118356   4.061   6.822   6.881
 5819SOL    HW218357   3.972   6.870   7.009
 5820SOL     OW18358   4.137   5.704   4.032
 5820SOL    HW118359   4.223   5.711   4.082
 5820SOL    HW218360   4.143   5.630   3.965
 5821SOL     OW18361   0.219   6.879   1.423
 5821SOL    HW118362   0.179   6.968   1.404
 5821SOL    HW218363   0.192   6.814   1.351
 5822SOL     OW18364   1.165   2.126   1.934
 5822SOL    HW118365   1.127   2.195   1.873
 5822SOL    HW218366   1.254   2.158   1.969
 5823SOL     OW18367   1.683   1.338   5.491
 5823SOL    HW118368   1.683   1.240   5.473
 5823SOL    HW218369   1.711   1.355   5.585
 5824SOL     OW18370   6.582   5.370   2.633
 5824SOL    HW118371   6.659   5.386   2.695
 5824SOL    HW218372   6.616   5.346   2.542
 5825SOL     OW18373   1.937   1.644   5.529
 5825SOL    HW118374   1.927   1.600   5.440
 5825SOL    HW218375   1.998   1.723   5.520
 5826SOL     OW18376   0.077   4.687   5.395
 5826SOL    HW118377   7.010   4.713   5.409
 5826SOL    HW218378   0.081   4.604   5.338
 5827SOL     OW18379   1.821   4.574   4.895
 5827SOL    HW118380   1.728   4.570   4.932
 5827SOL    HW218381   1.866   4.486   4.908
 5828SOL     OW18382   6.544   2.107   1.174
 5828SOL    HW118383   6.616   2.046   1.142
 5828SOL    HW218384   6.504   2.155   1.096
 5829SOL     OW18385   1.352   0.708   3.035
 5829SOL    HW118386   1.272   0.664   2.995
 5829SOL    HW218387   1.332   0.805   3.051
 5830SOL     OW18388   5.289   6.487   4.983
 5830SOL    HW118389   5.330   6.578   4.993
 5830SOL    HW218390   5.238   6.464   5.066
 5831SOL     OW18391   0.339   0.854   5.546
 5831SOL    HW118392   0.375   0.935   5.592
 5831SOL    HW218393   0.269   0.881   5.480
 5832SOL     OW18394   3.096   5.016   6.417
 5832SOL    HW118395   3.155   5.084   6.374
 5832SOL    HW218396   3.042   4.969   6.347
 5833SOL     OW18397   3.398   3.511   4.748
 5833SOL    HW118398   3.416   3.413   4.739
 5833SOL    HW218399   3.337   3.527   4.825
 5834SOL     OW18400   0.311   3.011   6.929
 5834SOL    HW118401   0.286   3.106   6.946
 5834SOL    HW218402   0.331   2.966   7.016
 5835SOL     OW18403   5.336   3.286   3.947
 5835SOL    HW118404   5.398   3.294   4.025
 5835SOL    HW218405   5.309   3.190   3.936
 5836SOL     OW18406   2.737   6.917   2.441
 5836SOL    HW118407   2.707   6.822   2.433
 5836SOL    HW218408   2.824   6.920   2.491
 5837SOL     OW18409   3.851   4.374   5.949
 5837SOL    HW118410   3.792   4.428   5.889
 5837SOL    HW218411   3.850   4.278   5.920
 5838SOL     OW18412   3.203   2.549   6.769
 5838SOL    HW118413   3.242   2.624   6.715
 5838SOL    HW218414   3.270   2.518   6.836
 5839SOL     OW18415   0.535   1.947   2.243
 5839SOL    HW118416   0.578   1.895   2.316
 5839SOL    HW218417   0.559   1.908   2.154
 5840SOL     OW18418   0.502   5.427   6.363
 5840SOL    HW118419   0.507   5.516   6.408
 5840SOL    HW218420   0.595   5.397   6.338
 5841SOL     OW18421   5.314   2.020   2.440
 5841SOL    HW118422   5.272   1.929   2.447
 5841SOL    HW218423   5.245   2.090   2.462
 5842SOL     OW18424   4.669   3.057   1.462
 5842SOL    HW118425   4.745   3.029   1.404
 5842SOL    HW218426   4.705   3.106   1.542
 5843SOL     OW18427   1.878   4.195   3.094
 5843SOL    HW118428   1.881   4.098   3.117
 5843SOL    HW218429   1.784   4.222   3.074
 5844SOL     OW18430   1.794   6.362   6.476
 5844SOL    HW118431   1.722   6.298   6.448
 5844SOL    HW218432   1.775   6.395   6.569
 5845SOL     OW18433   0.186   0.805   2.348
 5845SOL    HW118434   0.165   0.902   2.359
 5845SOL    HW218435   0.251   0.793   2.273
 5846SOL     OW18436   0.538   2.665   4.180
 5846SOL    HW118437   0.516   2.699   4.271
 5846SOL    HW218438   0.596   2.584   4.187
 5847SOL     OW18439   2.541   2.159   1.862
 5847SOL    HW118440   2.502   2.069   1.845
 5847SOL    HW218441   2.622   2.172   1.806
 5848SOL     OW18442   2.363   5.446   3.538
 5848SOL    HW118443   2.270   5.413   3.552
 5848SOL    HW218444   2.428   5.380   3.576
 5849SOL     OW18445   0.054   0.256   6.481
 5849SOL    HW118446   6.998   0.214   6.447
 5849SOL    HW218447   0.043   0.355   6.484
 5850SOL     OW18448   6.912   2.754   1.620
 5850SOL    HW118449   6.891   2.751   1.522
 5850SOL    HW218450   6.835   2.793   1.669
 5851SOL     OW18451   5.248   3.783   3.338
 5851SOL    HW118452   5.200   3.696   3.330
 5851SOL    HW218453   5.249   3.829   3.249
 5852SOL     OW18454   6.675   5.926   3.220
 5852SOL    HW118455   6.760   5.938   3.168
 5852SOL    HW218456   6.697   5.898   3.314
 5853SOL     OW18457   3.895   6.152   4.234
 5853SOL    HW118458   3.897   6.155   4.334
 5853SOL    HW218459   3.951   6.076   4.202
 5854SOL     OW18460   5.836   5.080   5.984
 5854SOL    HW118461   5.835   4.980   5.994
 5854SOL    HW218462   5.758   5.107   5.927
 5855SOL     OW18463   0.315   1.597   4.825
 5855SOL    HW118464   0.314   1.652   4.741
 5855SOL    HW218465   0.243   1.529   4.821
 5856SOL     OW18466   1.747   5.988   4.043
 5856SOL    HW118467   1.761   5.967   4.140
 5856SOL    HW218468   1.724   6.084   4.032
 5857SOL     OW18469   6.403   2.112   5.979
 5857SOL    HW118470   6.441   2.141   5.892
 5857SOL    HW218471   6.312   2.151   5.991
 5858SOL     OW18472   2.417   2.534   2.501
 5858SOL    HW118473   2.507   2.504   2.531
 5858SOL    HW218474   2.411   2.528   2.402
 5859SOL     OW18475   5.648   6.191   1.805
 5859SOL    HW118476   5.648   6.287   1.833
 5859SOL    HW218477   5.584   6.178   1.729
 5860SOL     OW18478   0.833   4.284   1.712
 5860SOL    HW118479   0.846   4.259   1.616
 5860SOL    HW218480   0.921   4.284   1.758
 5861SOL     OW18481   4.495   1.592   4.733
 5861SOL    HW118482   4.496   1.526   4.807
 5861SOL    HW218483   4.479   1.684   4.770
 5862SOL     OW18484   5.101   5.136   1.876
 5862SOL    HW118485   5.033   5.205   1.851
 5862SOL    HW218486   5.081   5.050   1.829
 5863SOL     OW18487   3.176   1.096   4.971
 5863SOL    HW118488   3.095   1.113   5.027
 5863SOL    HW218489   3.246   1.050   5.026
 5864SOL     OW18490   3.705   3.970   1.721
 5864SOL    HW118491   3.678   4.015   1.806
 5864SOL    HW218492   3.677   3.874   1.724
 5865SOL     OW18493   5.860   0.861   5.264
 5865SOL    HW118494   5.805   0.898   5.338
 5865SOL    HW218495   5.933   0.925   5.240
 5866SOL     OW18496   4.214   4.333   0.779
 5866SOL    HW118497   4.294   4.352   0.722
 5866SOL    HW218498   4.140   4.298   0.722
 5867SOL     OW18499   1.037   3.815   0.683
 5867SOL    HW118500   1.094   3.800   0.763
 5867SOL    HW218501   1.040   3.912   0.657
 5868SOL     OW18502   0.430   1.509   5.540
 5868SOL    HW118503   0.409   1.515   5.443
 5868SOL    HW218504   0.516   1.461   5.553
 5869SOL     OW18505   2.103   6.558   4.174
 5869SOL    HW118506   2.054   6.471   4.166
 5869SOL    HW218507   2.190   6.543   4.221
 5870SOL     OW18508   5.269   5.993   4.727
 5870SOL    HW118509   5.281   5.989   4.627
 5870SOL    HW218510   5.268   6.088   4.757
 5871SOL     OW18511   4.029   2.881   1.195
 5871SOL    HW118512   4.014   2.971   1.235
 5871SOL    HW218513   4.114   2.881   1.143
 5872SOL     OW18514   3.852   5.901   1.707
 5872SOL    HW118515   3.842   5.976   1.773
 5872SOL    HW218516   3.938   5.853   1.724
 5873SOL     OW18517   3.296   2.075   1.370
 5873SOL    HW118518   3.218   2.011   1.371
 5873SOL    HW218519   3.261   2.169   1.363
 5874SOL     OW18520   3.437   4.372   0.057
 5874SOL    HW118521   3.380   4.412   7.014
 5874SOL    HW218522   3.510   4.436   0.082
 5875SOL     OW18523   4.561   1.047   6.636
 5875SOL    HW118524   4.634   1.010   6.694
 5875SOL    HW218525   4.479   1.062   6.691
 5876SOL     OW18526   3.328   3.255   0.574
 5876SOL    HW118527   3.275   3.329   0.533
 5876SOL    HW218528   3.288   3.231   0.663
 5877SOL     OW18529   0.308   0.250   0.672
 5877SOL    HW118530   0.406   0.268   0.680
 5877SOL    HW218531   0.278   0.263   0.577
 5878SOL     OW18532   5.480   5.329   4.064
 5878SOL    HW118533   5.450   5.387   4.139
 5878SOL    HW218534   5.570   5.291   4.084
 5879SOL     OW18535   1.663   3.394   6.653
 5879SOL    HW118536   1.621   3.454   6.585
 5879SOL    HW218537   1.593   3.363   6.718
 5880SOL     OW18538   5.140   4.448   6.679
 5880SOL    HW118539   5.177   4.517   6.617
 5880SOL    HW218540   5.144   4.358   6.636
 5881SOL     OW18541   1.109   0.024   1.665
 5881SOL    HW118542   1.086   6.995   1.745
 5881SOL    HW218543   1.044   0.006   1.592
 5882SOL     OW18544   0.919   6.436   5.889
 5882SOL    HW118545   0.844   6.374   5.865
 5882SOL    HW218546   0.883   6.519   5.930
 5883SOL     OW18547   1.077   1.338   0.104
 5883SOL    HW118548   1.052   1.250   0.064
 5883SOL    HW218549   1.010   1.363   0.175
 5884SOL     OW18550   4.574   1.199   4.717
 5884SOL    HW118551   4.507   1.265   4.749
 5884SOL    HW218552   4.661   1.215   4.765
 5885SOL     OW18553   0.274   5.456   2.607
 5885SOL    HW118554   0.208   5.407   2.550
 5885SOL    HW218555   0.326   5.391   2.662
 5886SOL     OW18556   1.096   2.114   4.142
 5886SOL    HW118557   1.142   2.197   4.174
 5886SOL    HW218558   1.163   2.040   4.133
 5887SOL     OW18559   2.637   1.886   1.610
 5887SOL    HW118560   2.551   1.846   1.577
 5887SOL    HW218561   2.699   1.898   1.532
 5888SOL     OW18562   2.395   6.887   1.196
 5888SOL    HW118563   2.459   6.812   1.216
 5888SOL    HW218564   2.343   6.866   1.113
 5889SOL     OW18565   6.148   1.786   6.284
 5889SOL    HW118566   6.097   1.861   6.242
 5889SOL    HW218567   6.113   1.769   6.376
 5890SOL     OW18568   2.365   0.139   2.952
 5890SOL    HW118569   2.445   0.197   2.970
 5890SOL    HW218570   2.290   0.166   3.013
 5891SOL     OW18571   2.362   3.915   0.640
 5891SOL    HW118572   2.297   3.900   0.565
 5891SOL    HW218573   2.401   4.007   0.632
 5892SOL     OW18574   0.450   5.294   1.836
 5892SOL    HW118575   0.527   5.337   1.883
 5892SOL    HW218576   0.484   5.248   1.754
 5893SOL     OW18577   2.166   4.704   2.080
 5893SOL    HW118578   2.214   4.657   2.007
 5893SOL    HW218579   2.187   4.662   2.168
 5894SOL     OW18580   0.774   6.082   5.186
 5894SOL    HW118581   0.860   6.046   5.221
 5894SOL    HW218582   0.778   6.182   5.185
 5895SOL     OW18583   6.009   3.688   3.584
 5895SOL    HW118584   6.078   3.736   3.639
 5895SOL    HW218585   6.002   3.593   3.616
 5896SOL     OW18586   4.844   1.754   1.222
 5896SOL    HW118587   4.768   1.713   1.272
 5896SOL    HW218588   4.930   1.729   1.266
 5897SOL     OW18589   3.913   0.775   1.059
 5897SOL    HW118590   3.949   0.688   1.027
 5897SOL    HW218591   3.903   0.772   1.159
 5898SOL     OW18592   2.664   0.867   5.188
 5898SOL    HW118593   2.635   0.936   5.121
 5898SOL    HW218594   2.696   0.785   5.139
 5899SOL     OW18595   5.642   6.439   6.311
 5899SOL    HW118596   5.612   6.351   6.275
 5899SOL    HW218597   5.565   6.486   6.355
 5900SOL     OW18598   6.842   4.469   3.063
 5900SOL    HW118599   6.787   4.405   3.009
 5900SOL    HW218600   6.787   4.550   3.085
 5901SOL     OW18601   3.246   0.876   1.357
 5901SOL    HW118602   3.285   0.784   1.357
 5901SOL    HW218603   3.289   0.931   1.429
 5902SOL     OW18604   5.539   3.330   5.788
 5902SOL    HW118605   5.537   3.430   5.778
 5902SOL    HW218606   5.479   3.303   5.863
 5903SOL     OW18607   4.470   3.794   6.394
 5903SOL    HW118608   4.498   3.863   6.327
 5903SOL    HW218609   4.373   3.809   6.418
 5904SOL     OW18610   1.199   4.325   1.211
 5904SOL    HW118611   1.196   4.313   1.111
 5904SOL    HW218612   1.141   4.402   1.237
 5905SOL     OW18613   6.559   0.507   3.510
 5905SOL    HW118614   6.605   0.519   3.422
 5905SOL    HW218615   6.616   0.547   3.583
 5906SOL     OW18616   4.615   2.114   4.676
 5906SOL    HW118617   4.698   2.063   4.700
 5906SOL    HW218618   4.537   2.052   4.672
 5907SOL     OW18619   1.304   6.775   1.043
 5907SOL    HW118620   1.242   6.729   0.979
 5907SOL    HW218621   1.348   6.852   0.996
 5908SOL     OW18622   6.763   4.026   0.061
 5908SOL    HW118623   6.854   4.066   0.048
 5908SOL    HW218624   6.759   3.937   0.014
 5909SOL     OW18625   6.342   5.178   6.400
 5909SOL    HW118626   6.244   5.194   6.390
 5909SOL    HW218627   6.379   5.238   6.471
 5910SOL     OW18628   0.382   4.404   1.584
 5910SOL    HW118629   0.366   4.459   1.502
 5910SOL    HW218630   0.455   4.338   1.565
 5911SOL     OW18631   6.479   4.970   6.514
 5911SOL    HW118632   6.416   4.896   6.538
 5911SOL    HW218633   6.438   5.027   6.443
 5912SOL     OW18634   6.006   3.200   6.880
 5912SOL    HW118635   6.021   3.287   6.928
 5912SOL    HW218636   6.083   3.138   6.898
 5913SOL     OW18637   3.592   3.271   6.321
 5913SOL    HW118638   3.508   3.323   6.315
 5913SOL    HW218639   3.610   3.224   6.235
 5914SOL     OW18640   3.164   5.790   6.222
 5914SOL    HW118641   3.092   5.738   6.174
 5914SOL    HW218642   3.216   5.727   6.280
 5915SOL     OW18643   5.791   4.052   1.658
 5915SOL    HW118644   5.794   4.089   1.565
 5915SOL    HW218645   5.705   4.077   1.701
 5916SOL     OW18646   4.065   6.073   5.603
 5916SOL    HW118647   4.124   6.104   5.678
 5916SOL    HW218648   4.120   6.021   5.538
 5917SOL     OW18649   3.463   3.415   3.917
 5917SOL    HW118650   3.371   3.420   3.878
 5917SOL    HW218651   3.523   3.369   3.853
 5918SOL     OW18652   2.359   3.780   5.372
 5918SOL    HW118653   2.426   3.711   5.397
 5918SOL    HW218654   2.401   3.846   5.310
 5919SOL     OW18655   3.371   2.381   0.733
 5919SOL    HW118656   3.459   2.364   0.778
 5919SOL    HW218657   3.298   2.336   0.785
 5920SOL     OW18658   3.479   0.106   0.382
 5920SOL    HW118659   3.387   0.112   0.342
 5920SOL    HW218660   3.509   0.196   0.411
 5921SOL     OW18661   3.381   5.247   5.834
 5921SOL    HW118662   3.478   5.270   5.835
 5921SOL    HW218663   3.369   5.149   5.852
 5922SOL     OW18664   6.744   5.498   3.385
 5922SOL    HW118665   6.669   5.462   3.330
 5922SOL    HW218666   6.717   5.587   3.423
 5923SOL     OW18667   5.164   0.227   1.141
 5923SOL    HW118668   5.117   0.304   1.098
 5923SOL    HW218669   5.258   0.223   1.108
 5924SOL     OW18670   6.554   1.930   4.858
 5924SOL    HW118671   6.609   1.998   4.809
 5924SOL    HW218672   6.459   1.936   4.828
 5925SOL     OW18673   4.244   5.650   3.465
 5925SOL    HW118674   4.223   5.739   3.424
 5925SOL    HW218675   4.172   5.585   3.444
 5926SOL     OW18676   4.124   5.028   1.984
 5926SOL    HW118677   4.182   4.966   2.036
 5926SOL    HW218678   4.028   5.008   2.003
 5927SOL     OW18679   1.710   4.427   3.509
 5927SOL    HW118680   1.644   4.446   3.582
 5927SOL    HW218681   1.794   4.388   3.548
 5928SOL     OW18682   3.219   0.539   1.616
 5928SOL    HW118683   3.263   0.622   1.651
 5928SOL    HW218684   3.288   0.476   1.581
 5929SOL     OW18685   0.650   6.376   5.789
 5929SOL    HW118686   0.588   6.444   5.750
 5929SOL    HW218687   0.649   6.294   5.733
 5930SOL     OW18688   0.325   1.735   3.335
 5930SOL    HW118689   0.372   1.663   3.284
 5930SOL    HW218690   0.226   1.727   3.320
 5931SOL     OW18691   6.100   5.423   3.303
 5931SOL    HW118692   6.033   5.495   3.284
 5931SOL    HW218693   6.053   5.344   3.342
 5932SOL     OW18694   2.257   6.367   1.204
 5932SOL    HW118695   2.231   6.288   1.149
 5932SOL    HW218696   2.355   6.386   1.191
 5933SOL     OW18697   0.709   5.936   3.069
 5933SOL    HW118698   0.761   6.021   3.081
 5933SOL    HW218699   0.611   5.956   3.078
 5934SOL     OW18700   3.866   3.486   4.286
 5934SOL    HW118701   3.964   3.507   4.289
 5934SOL    HW218702   3.826   3.528   4.205
 5935SOL     OW18703   4.287   3.358   5.266
 5935SOL    HW118704   4.361   3.420   5.291
 5935SOL    HW218705   4.258   3.376   5.172
 5936SOL     OW18706   4.125   3.654   0.667
 5936SOL    HW118707   4.203   3.622   0.721
 5936SOL    HW218708   4.066   3.577   0.643
 5937SOL     OW18709   0.544   4.804   2.404
 5937SOL    HW118710   0.521   4.832   2.497
 5937SOL    HW218711   0.519   4.708   2.391
 5938SOL     OW18712   1.195   5.510   3.930
 5938SOL    HW118713   1.121   5.550   3.985
 5938SOL    HW218714   1.157   5.448   3.862
 5939SOL     OW18715   3.604   0.008   3.232
 5939SOL    HW118716   3.536   6.971   3.267
 5939SOL    HW218717   3.598   0.094   3.284
 5940SOL     OW18718   4.229   5.543   1.267
 5940SOL    HW118719   4.244   5.458   1.318
 5940SOL    HW218720   4.230   5.620   1.330
 5941SOL     OW18721   6.390   3.041   1.788
 5941SOL    HW118722   6.355   3.132   1.810
 5941SOL    HW218723   6.484   3.049   1.753
 5942SOL     OW18724   4.552   2.927   6.535
 5942SOL    HW118725   4.517   2.979   6.613
 5942SOL    HW218726   4.534   2.977   6.451
 5943SOL     OW18727   3.525   5.130   1.021
 5943SOL    HW118728   3.474   5.052   0.987
 5943SOL    HW218729   3.562   5.183   0.945
 5944SOL     OW18730   5.749   2.354   1.143
 5944SOL    HW118731   5.844   2.384   1.154
 5944SOL    HW218732   5.738   2.264   1.186
 5945SOL     OW18733   6.403   5.394   5.331
 5945SOL    HW118734   6.403   5.361   5.425
 5945SOL    HW218735   6.496   5.420   5.305
 5946SOL     OW18736   3.200   3.348   5.804
 5946SOL    HW118737   3.294   3.381   5.808
 5946SOL    HW218738   3.187   3.293   5.722
 5947SOL     OW18739   4.194   3.210   1.953
 5947SOL    HW118740   4.276   3.163   1.985
 5947SOL    HW218741   4.158   3.267   2.027
 5948SOL     OW18742   3.768   4.924   3.577
 5948SOL    HW118743   3.775   4.825   3.567
 5948SOL    HW218744   3.850   4.967   3.541
 5949SOL     OW18745   3.703   3.032   1.622
 5949SOL    HW118746   3.796   2.996   1.629
 5949SOL    HW218747   3.705   3.132   1.624
 5950SOL     OW18748   5.249   2.753   5.627
 5950SOL    HW118749   5.256   2.745   5.726
 5950SOL    HW218750   5.226   2.664   5.588
 5951SOL     OW18751   0.215   5.541   4.742
 5951SOL    HW118752   0.129   5.562   4.695
 5951SOL    HW218753   0.195   5.505   4.833
 5952SOL     OW18754   5.742   5.530   4.208
 5952SOL    HW118755   5.686   5.477   4.272
 5952SOL    HW218756   5.764   5.619   4.247
 5953SOL     OW18757   6.596   2.687   5.519
 5953SOL    HW118758   6.644   2.599   5.519
 5953SOL    HW218759   6.554   2.701   5.430
 5954SOL     OW18760   0.130   4.454   5.749
 5954SOL    HW118761   0.073   4.460   5.667
 5954SOL    HW218762   0.217   4.501   5.732
 5955SOL     OW18763   5.025   5.776   2.538
 5955SOL    HW118764   5.038   5.693   2.593
 5955SOL    HW218765   5.078   5.851   2.577
 5956SOL     OW18766   3.499   1.772   6.389
 5956SOL    HW118767   3.447   1.722   6.458
 5956SOL    HW218768   3.566   1.831   6.434
 5957SOL     OW18769   4.421   0.452   5.815
 5957SOL    HW118770   4.446   0.379   5.752
 5957SOL    HW218771   4.502   0.504   5.840
 5958SOL     OW18772   6.444   5.893   2.382
 5958SOL    HW118773   6.356   5.904   2.428
 5958SOL    HW218774   6.483   5.805   2.407
 5959SOL     OW18775   3.791   1.991   5.248
 5959SOL    HW118776   3.848   1.926   5.300
 5959SOL    HW218777   3.846   2.068   5.219
 5960SOL     OW18778   4.427   6.354   4.858
 5960SOL    HW118779   4.435   6.277   4.795
 5960SOL    HW218780   4.354   6.415   4.826
 5961SOL     OW18781   5.206   1.427   3.502
 5961SOL    HW118782   5.234   1.373   3.423
 5961SOL    HW218783   5.220   1.373   3.585
 5962SOL     OW18784   4.356   5.735   1.052
 5962SOL    HW118785   4.287   5.674   1.013
 5962SOL    HW218786   4.418   5.683   1.110
 5963SOL     OW18787   3.503   2.948   4.673
 5963SOL    HW118788   3.556   2.923   4.754
 5963SOL    HW218789   3.559   2.937   4.591
 5964SOL     OW18790   0.475   5.325   5.439
 5964SOL    HW118791   0.555   5.351   5.493
 5964SOL    HW218792   0.500   5.250   5.378
 5965SOL     OW18793   1.253   2.619   6.880
 5965SOL    HW118794   1.186   2.635   6.806
 5965SOL    HW218795   1.333   2.678   6.865
 5966SOL     OW18796   2.429   5.714   5.166
 5966SOL    HW118797   2.343   5.708   5.117
 5966SOL    HW218798   2.436   5.804   5.210
 5967SOL     OW18799   4.082   6.029   0.806
 5967SOL    HW118800   4.068   6.015   0.904
 5967SOL    HW218801   4.032   5.958   0.755
 5968SOL     OW18802   4.552   1.090   2.293
 5968SOL    HW118803   4.600   1.041   2.366
 5968SOL    HW218804   4.574   1.047   2.205
 5969SOL     OW18805   6.737   0.706   6.256
 5969SOL    HW118806   6.832   0.727   6.235
 5969SOL    HW218807   6.698   0.652   6.181
 5970SOL     OW18808   0.763   4.167   2.609
 5970SOL    HW118809   0.836   4.161   2.677
 5970SOL    HW218810   0.675   4.151   2.654
 5971SOL     OW18811   1.660   1.177   3.369
 5971SOL    HW118812   1.639   1.203   3.274
 5971SOL    HW218813   1.609   1.095   3.393
 5972SOL     OW18814   5.284   6.825   6.961
 5972SOL    HW118815   5.236   6.912   6.949
 5972SOL    HW218816   5.246   6.776   0.012
 5973SOL     OW18817   1.684   4.431   2.244
 5973SOL    HW118818   1.782   4.425   2.225
 5973SOL    HW218819   1.638   4.473   2.166
 5974SOL     OW18820   5.525   4.184   6.691
 5974SOL    HW118821   5.599   4.249   6.674
 5974SOL    HW218822   5.529   4.112   6.622
 5975SOL     OW18823   3.126   1.678   0.774
 5975SOL    HW118824   3.082   1.732   0.702
 5975SOL    HW218825   3.082   1.589   0.781
 5976SOL     OW18826   3.336   3.321   5.112
 5976SOL    HW118827   3.295   3.405   5.146
 5976SOL    HW218828   3.433   3.336   5.094
 5977SOL     OW18829   1.740   4.697   1.419
 5977SOL    HW118830   1.757   4.707   1.321
 5977SOL    HW218831   1.828   4.695   1.468
 5978SOL     OW18832   4.882   5.803   3.583
 5978SOL    HW118833   4.961   5.827   3.527
 5978SOL    HW218834   4.825   5.737   3.534
 5979SOL     OW18835   6.547   6.937   2.761
 5979SOL    HW118836   6.516   0.005   2.763
 5979SOL    HW218837   6.487   6.884   2.700
 5980SOL     OW18838   3.899   3.540   0.261
 5980SOL    HW118839   3.991   3.567   0.289
 5980SOL    HW218840   3.900   3.514   0.164
 5981SOL     OW18841   6.260   0.777   2.458
 5981SOL    HW118842   6.213   0.728   2.530
 5981SOL    HW218843   6.223   0.750   2.369
 5982SOL     OW18844   6.528   2.825   0.558
 5982SOL    HW118845   6.561   2.832   0.652
 5982SOL    HW218846   6.568   2.744   0.515
 5983SOL     OW18847   1.341   0.774   4.619
 5983SOL    HW118848   1.388   0.835   4.556
 5983SOL    HW218849   1.400   0.754   4.697
 5984SOL     OW18850   6.703   6.678   5.091
 5984SOL    HW118851   6.664   6.630   5.012
 5984SOL    HW218852   6.801   6.658   5.096
 5985SOL     OW18853   6.473   3.398   3.989
 5985SOL    HW118854   6.505   3.433   4.076
 5985SOL    HW218855   6.374   3.383   3.992
 5986SOL     OW18856   3.566   3.586   4.332
 5986SOL    HW118857   3.635   3.525   4.292
 5986SOL    HW218858   3.478   3.569   4.287
 5987SOL     OW18859   4.447   0.824   5.253
 5987SOL    HW118860   4.399   0.866   5.176
 5987SOL    HW218861   4.440   0.724   5.246
 5988SOL     OW18862   4.649   6.756   5.188
 5988SOL    HW118863   4.579   6.693   5.154
 5988SOL    HW218864   4.613   6.849   5.187
 5989SOL     OW18865   2.802   5.471   0.343
 5989SOL    HW118866   2.858   5.554   0.348
 5989SOL    HW218867   2.706   5.496   0.332
 5990SOL     OW18868   4.232   4.470   0.519
 5990SOL    HW118869   4.200   4.473   0.424
 5990SOL    HW218870   4.331   4.460   0.521
 5991SOL     OW18871   3.953   5.324   5.640
 5991SOL    HW118872   3.963   5.356   5.546
 5991SOL    HW218873   4.041   5.328   5.687
 5992SOL     OW18874   3.549   0.452   3.892
 5992SOL    HW118875   3.503   0.407   3.815
 5992SOL    HW218876   3.636   0.406   3.911
 5993SOL     OW18877   3.184   6.306   5.396
 5993SOL    HW118878   3.201   6.405   5.398
 5993SOL    HW218879   3.269   6.259   5.372
 5994SOL     OW18880   6.346   2.256   1.790
 5994SOL    HW118881   6.382   2.175   1.744
 5994SOL    HW218882   6.372   2.255   1.887
 5995SOL     OW18883   5.830   5.042   2.937
 5995SOL    HW118884   5.927   5.029   2.915
 5995SOL    HW218885   5.789   5.102   2.868
 5996SOL     OW18886   0.831   6.043   0.922
 5996SOL    HW118887   0.841   6.131   0.969
 5996SOL    HW218888   0.916   5.992   0.930
 5997SOL     OW18889   1.232   6.098   2.971
 5997SOL    HW118890   1.166   6.155   3.020
 5997SOL    HW218891   1.184   6.044   2.901
 5998SOL     OW18892   6.267   1.927   1.486
 5998SOL    HW118893   6.210   1.974   1.419
 5998SOL    HW218894   6.310   1.993   1.547
 5999SOL     OW18895   1.614   2.011   2.725
 5999SOL    HW118896   1.573   1.921   2.713
 5999SOL    HW218897   1.609   2.062   2.638
 6000SOL     OW18898   4.126   6.863   2.045
 6000SOL    HW118899   4.139   6.929   1.971
 6000SOL    HW218900   4.040   6.883   2.092
 6001SOL     OW18901   0.805   4.211   6.456
 6001SOL    HW118902   0.895   4.221   6.413
 6001SOL    HW218903   0.763   4.301   6.467
 6002SOL     OW18904   6.709   0.273   0.866
 6002SOL    HW118905   6.725   0.281   0.964
 6002SOL    HW218906   6.786   0.315   0.816
 6003SOL     OW18907   6.984   2.096   4.425
 6003SOL    HW118908   0.006   2.085   4.511
 6003SOL    HW218909   6.922   2.018   4.412
 6004SOL     OW18910   0.384   4.284   2.985
 6004SOL    HW118911   0.330   4.363   2.953
 6004SOL    HW218912   0.323   4.219   3.030
 6005SOL     OW18913   4.786   5.295   4.664
 6005SOL    HW118914   4.840   5.265   4.585
 6005SOL    HW218915   4.691   5.268   4.651
 6006SOL     OW18916   3.169   0.184   6.766
 6006SOL    HW118917   3.230   0.237   6.825
 6006SOL    HW218918   3.222   0.112   6.721
 6007SOL     OW18919   4.962   3.672   4.686
 6007SOL    HW118920   4.936   3.720   4.770
 6007SOL    HW218921   4.939   3.575   4.694
 6008SOL     OW18922   2.433   5.513   5.898
 6008SOL    HW118923   2.487   5.433   5.925
 6008SOL    HW218924   2.356   5.483   5.842
 6009SOL     OW18925   4.137   0.930   4.854
 6009SOL    HW118926   4.151   0.983   4.770
 6009SOL    HW218927   4.094   0.989   4.923
 6010SOL     OW18928   1.348   4.130   3.253
 6010SOL    HW118929   1.407   4.074   3.195
 6010SOL    HW218930   1.297   4.071   3.316
 6011SOL     OW18931   4.593   2.517   2.841
 6011SOL    HW118932   4.517   2.486   2.783
 6011SOL    HW218933   4.577   2.486   2.935
 6012SOL     OW18934   5.983   1.346   0.267
 6012SOL    HW118935   5.930   1.324   0.350
 6012SOL    HW218936   5.979   1.268   0.204
 6013SOL     OW18937   5.835   2.180   2.610
 6013SOL    HW118938   5.832   2.278   2.588
 6013SOL    HW218939   5.843   2.127   2.526
 6014SOL     OW18940   4.328   2.800   0.807
 6014SOL    HW118941   4.376   2.746   0.738
 6014SOL    HW218942   4.235   2.764   0.818
 6015SOL     OW18943   5.526   2.032   5.124
 6015SOL    HW118944   5.478   2.102   5.176
 6015SOL    HW218945   5.516   1.943   5.169
 6016SOL     OW18946   0.245   1.486   6.420
 6016SOL    HW118947   0.205   1.437   6.342
 6016SOL    HW218948   0.335   1.446   6.441
 6017SOL     OW18949   6.612   4.362   2.662
 6017SOL    HW118950   6.518   4.394   2.649
 6017SOL    HW218951   6.649   4.402   2.746
 6018SOL     OW18952   3.359   1.590   0.095
 6018SOL    HW118953   3.423   1.622   0.165
 6018SOL    HW218954   3.384   1.498   0.067
 6019SOL     OW18955   6.637   1.672   4.097
 6019SOL    HW118956   6.601   1.708   4.184
 6019SOL    HW218957   6.730   1.637   4.113
 6020SOL     OW18958   2.166   5.154   1.824
 6020SOL    HW118959   2.189   5.073   1.878
 6020SOL    HW218960   2.099   5.209   1.874
 6021SOL     OW18961   3.763   0.966   2.580
 6021SOL    HW118962   3.725   0.938   2.492
 6021SOL    HW218963   3.850   1.013   2.565
 6022SOL     OW18964   4.730   1.251   4.952
 6022SOL    HW118965   4.735   1.205   5.041
 6022SOL    HW218966   4.765   1.345   4.961
 6023SOL     OW18967   6.138   1.358   2.268
 6023SOL    HW118968   6.137   1.421   2.191
 6023SOL    HW218969   6.048   1.357   2.312
 6024SOL     OW18970   0.665   4.377   3.487
 6024SOL    HW118971   0.670   4.317   3.407
 6024SOL    HW218972   0.739   4.445   3.482
 6025SOL     OW18973   3.552   1.677   2.210
 6025SOL    HW118974   3.625   1.667   2.142
 6025SOL    HW218975   3.481   1.737   2.173
 6026SOL     OW18976   0.165   4.555   4.523
 6026SOL    HW118977   0.198   4.544   4.429
 6026SOL    HW218978   0.184   4.648   4.555
 6027SOL     OW18979   1.348   3.827   5.873
 6027SOL    HW118980   1.313   3.857   5.785
 6027SOL    HW218981   1.308   3.882   5.946
 6028SOL     OW18982   0.876   4.004   0.355
 6028SOL    HW118983   0.957   3.959   0.318
 6028SOL    HW218984   0.798   3.941   0.349
 6029SOL     OW18985   1.892   6.557   4.797
 6029SOL    HW118986   1.847   6.472   4.770
 6029SOL    HW218987   1.904   6.559   4.896
 6030SOL     OW18988   3.643   6.543   3.342
 6030SOL    HW118989   3.725   6.572   3.293
 6030SOL    HW218990   3.663   6.534   3.439
 6031SOL     OW18991   3.384   4.998   3.992
 6031SOL    HW118992   3.444   4.962   3.920
 6031SOL    HW218993   3.428   5.076   4.036
 6032SOL     OW18994   2.002   3.539   3.404
 6032SOL    HW118995   2.037   3.464   3.460
 6032SOL    HW218996   2.073   3.609   3.394
 6033SOL     OW18997   3.235   1.857   2.316
 6033SOL    HW118998   3.284   1.822   2.395
 6033SOL    HW218999   3.272   1.816   2.232
 6034SOL     OW19000   1.613   5.811   4.794
 6034SOL    HW119001   1.650   5.801   4.886
 6034SOL    HW219002   1.574   5.902   4.783
 6035SOL     OW19003   0.443   0.466   3.188
 6035SOL    HW119004   0.540   0.443   3.199
 6035SOL    HW219005   0.419   0.463   3.091
 6036SOL     OW19006   6.519   6.453   4.205
 6036SOL    HW119007   6.436   6.508   4.213
 6036SOL    HW219008   6.526   6.391   4.284
 6037SOL     OW19009   4.277   4.620   5.620
 6037SOL    HW119010   4.284   4.640   5.717
 6037SOL    HW219011   4.369   4.612   5.581
 6038SOL     OW19012   1.365   2.748   6.256
 6038SOL    HW119013   1.390   2.717   6.348
 6038SOL    HW219014   1.380   2.847   6.250
 6039SOL     OW19015   3.538   2.868   2.298
 6039SOL    HW119016   3.496   2.783   2.267
 6039SOL    HW219017   3.589   2.852   2.382
 6040SOL     OW19018   0.450   2.265   6.562
 6040SOL    HW119019   0.392   2.347   6.553
 6040SOL    HW219020   0.399   2.185   6.531
 6041SOL     OW19021   2.002   0.442   4.887
 6041SOL    HW119022   2.068   0.479   4.821
 6041SOL    HW219023   2.018   0.344   4.900
 6042SOL     OW19024   5.172   5.775   2.270
 6042SOL    HW119025   5.161   5.814   2.361
 6042SOL    HW219026   5.216   5.842   2.211
 6043SOL     OW19027   0.938   4.188   5.604
 6043SOL    HW119028   0.981   4.246   5.535
 6043SOL    HW219029   0.997   4.182   5.684
 6044SOL     OW19030   1.616   2.614   1.596
 6044SOL    HW119031   1.678   2.627   1.673
 6044SOL    HW219032   1.653   2.661   1.515
 6045SOL     OW19033   6.082   5.366   1.205
 6045SOL    HW119034   6.035   5.439   1.156
 6045SOL    HW219035   6.171   5.399   1.237
 6046SOL     OW19036   3.083   1.769   0.064
 6046SOL    HW119037   2.990   1.805   0.055
 6046SOL    HW219038   3.143   1.814   7.025
 6047SOL     OW19039   6.223   2.200   2.137
 6047SOL    HW119040   6.161   2.277   2.157
 6047SOL    HW219041   6.171   2.115   2.139
 6048SOL     OW19042   4.332   6.304   3.742
 6048SOL    HW119043   4.326   6.380   3.677
 6048SOL    HW219044   4.427   6.275   3.751
 6049SOL     OW19045   5.902   3.716   5.570
 6049SOL    HW119046   5.852   3.796   5.603
 6049SOL    HW219047   5.866   3.634   5.614
 6050SOL     OW19048   3.370   4.715   5.278
 6050SOL    HW119049   3.431   4.792   5.256
 6050SOL    HW219050   3.276   4.739   5.253
 6051SOL     OW19051   1.963   1.750   4.352
 6051SOL    HW119052   2.002   1.662   4.321
 6051SOL    HW219053   2.007   1.778   4.437
 6052SOL     OW19054   6.226   6.408   0.396
 6052SOL    HW119055   6.281   6.364   0.325
 6052SOL    HW219056   6.130   6.382   0.384
 6053SOL     OW19057   3.000   0.749   6.258
 6053SOL    HW119058   2.995   0.845   6.283
 6053SOL    HW219059   2.951   0.733   6.172
 6054SOL     OW19060   2.921   4.129   0.441
 6054SOL    HW119061   3.010   4.083   0.433
 6054SOL    HW219062   2.849   4.065   0.413
 6055SOL     OW19063   5.469   1.497   5.652
 6055SOL    HW119064   5.555   1.449   5.665
 6055SOL    HW219065   5.459   1.567   5.724
 6056SOL     OW19066   5.156   3.255   4.761
 6056SOL    HW119067   5.245   3.222   4.730
 6056SOL    HW219068   5.169   3.321   4.835
 6057SOL     OW19069   5.226   3.020   4.525
 6057SOL    HW119070   5.274   2.991   4.442
 6057SOL    HW219071   5.278   2.991   4.605
 6058SOL     OW19072   5.249   2.970   2.037
 6058SOL    HW119073   5.197   2.912   2.099
 6058SOL    HW219074   5.197   3.053   2.017
 6059SOL     OW19075   4.588   5.673   5.349
 6059SOL    HW119076   4.497   5.633   5.341
 6059SOL    HW219077   4.642   5.652   5.267
 6060SOL     OW19078   3.051   4.178   6.415
 6060SOL    HW119079   3.132   4.169   6.473
 6060SOL    HW219080   3.059   4.262   6.361
 6061SOL     OW19081   4.261   1.742   1.187
 6061SOL    HW119082   4.204   1.695   1.120
 6061SOL    HW219083   4.216   1.742   1.276
 6062SOL     OW19084   1.406   1.429   4.761
 6062SOL    HW119085   1.417   1.340   4.807
 6062SOL    HW219086   1.447   1.424   4.670
 6063SOL     OW19087   3.522   1.471   6.584
 6063SOL    HW119088   3.503   1.499   6.678
 6063SOL    HW219089   3.438   1.444   6.539
 6064SOL     OW19090   2.583   5.882   2.045
 6064SOL    HW119091   2.630   5.961   2.005
 6064SOL    HW219092   2.499   5.864   1.993
 6065SOL     OW19093   5.770   6.819   1.742
 6065SOL    HW119094   5.726   6.731   1.724
 6065SOL    HW219095   5.703   6.884   1.778
 6066SOL     OW19096   4.360   1.490   0.053
 6066SOL    HW119097   4.322   1.494   0.145
 6066SOL    HW219098   4.352   1.579   0.009
 6067SOL     OW19099   5.431   2.089   6.524
 6067SOL    HW119100   5.441   2.181   6.486
 6067SOL    HW219101   5.505   2.072   6.590
 6068SOL     OW19102   5.608   2.903   4.379
 6068SOL    HW119103   5.589   2.887   4.476
 6068SOL    HW219104   5.624   2.816   4.333
 6069SOL     OW19105   0.001   3.254   5.179
 6069SOL    HW119106   0.041   3.323   5.119
 6069SOL    HW219107   6.941   3.224   5.141
 6070SOL     OW19108   2.549   1.442   6.392
 6070SOL    HW119109   2.533   1.521   6.333
 6070SOL    HW219110   2.644   1.444   6.424
 6071SOL     OW19111   5.506   4.998   4.341
 6071SOL    HW119112   5.525   5.065   4.413
 6071SOL    HW219113   5.420   4.951   4.361
 6072SOL     OW19114   6.860   0.381   2.773
 6072SOL    HW119115   6.887   0.441   2.699
 6072SOL    HW219116   6.932   0.314   2.790
 6073SOL     OW19117   6.569   4.188   0.138
 6073SOL    HW119118   6.624   4.106   0.125
 6073SOL    HW219119   6.569   4.213   0.235
 6074SOL     OW19120   0.925   6.503   4.262
 6074SOL    HW119121   0.939   6.567   4.337
 6074SOL    HW219122   0.863   6.430   4.291
 6075SOL     OW19123   6.864   2.163   6.784
 6075SOL    HW119124   6.921   2.245   6.785
 6075SOL    HW219125   6.843   2.138   6.690
 6076SOL     OW19126   2.593   5.931   4.762
 6076SOL    HW119127   2.571   5.845   4.808
 6076SOL    HW219128   2.607   5.914   4.665
 6077SOL     OW19129   4.339   6.024   1.975
 6077SOL    HW119130   4.328   6.018   2.074
 6077SOL    HW219131   4.250   6.026   1.931
 6078SOL     OW19132   3.909   4.779   1.771
 6078SOL    HW119133   3.987   4.837   1.794
 6078SOL    HW219134   3.859   4.755   1.855
 6079SOL     OW19135   3.370   3.041   6.211
 6079SOL    HW119136   3.326   3.086   6.288
 6079SOL    HW219137   3.329   2.951   6.197
 6080SOL     OW19138   6.722   1.236   1.864
 6080SOL    HW119139   6.777   1.166   1.910
 6080SOL    HW219140   6.683   1.197   1.780
 6081SOL     OW19141   6.129   3.052   4.831
 6081SOL    HW119142   6.221   3.059   4.870
 6081SOL    HW219143   6.104   3.139   4.788
 6082SOL     OW19144   2.878   1.606   3.343
 6082SOL    HW119145   2.969   1.573   3.367
 6082SOL    HW219146   2.813   1.530   3.346
 6083SOL     OW19147   0.688   5.483   6.134
 6083SOL    HW119148   0.616   5.551   6.149
 6083SOL    HW219149   0.648   5.392   6.132
 6084SOL     OW19150   0.253   5.724   3.702
 6084SOL    HW119151   0.301   5.797   3.751
 6084SOL    HW219152   0.192   5.765   3.634
 6085SOL     OW19153   0.512   4.234   0.020
 6085SOL    HW119154   0.548   4.288   0.096
 6085SOL    HW219155   0.519   4.286   6.963
 6086SOL     OW19156   2.968   1.132   5.134
 6086SOL    HW119157   2.935   1.070   5.206
 6086SOL    HW219158   2.891   1.161   5.078
 6087SOL     OW19159   4.159   5.666   0.158
 6087SOL    HW119160   4.201   5.751   0.190
 6087SOL    HW219161   4.164   5.662   0.058
 6088SOL     OW19162   5.965   6.840   4.557
 6088SOL    HW119163   5.948   6.748   4.591
 6088SOL    HW219164   5.896   6.902   4.592
 6089SOL     OW19165   0.369   3.164   1.349
 6089SOL    HW119166   0.305   3.089   1.365
 6089SOL    HW219167   0.332   3.224   1.279
 6090SOL     OW19168   1.875   6.400   6.144
 6090SOL    HW119169   1.871   6.428   6.048
 6090SOL    HW219170   1.912   6.474   6.200
 6091SOL     OW19171   2.009   1.845   2.234
 6091SOL    HW119172   2.017   1.827   2.136
 6091SOL    HW219173   1.918   1.883   2.254
 6092SOL     OW19174   2.865   0.595   3.549
 6092SOL    HW119175   2.808   0.627   3.473
 6092SOL    HW219176   2.813   0.531   3.605
 6093SOL     OW19177   1.233   2.815   2.783
 6093SOL    HW119178   1.304   2.828   2.713
 6093SOL    HW219179   1.149   2.862   2.754
 6094SOL     OW19180   3.861   0.555   0.646
 6094SOL    HW119181   3.792   0.602   0.590
 6094SOL    HW219182   3.815   0.501   0.717
 6095SOL     OW19183   4.340   3.396   6.679
 6095SOL    HW119184   4.376   3.369   6.590
 6095SOL    HW219185   4.264   3.337   6.704
 6096SOL     OW19186   6.060   0.292   3.540
 6096SOL    HW119187   6.041   0.305   3.443
 6096SOL    HW219188   6.094   0.200   3.556
 6097SOL     OW19189   1.669   0.141   2.005
 6097SOL    HW119190   1.631   0.234   2.009
 6097SOL    HW219191   1.599   0.075   2.035
 6098SOL     OW19192   1.257   2.149   6.410
 6098SOL    HW119193   1.329   2.218   6.408
 6098SOL    HW219194   1.246   2.109   6.319
 6099SOL     OW19195   0.221   5.937   0.375
 6099SOL    HW119196   0.242   5.958   0.280
 6099SOL    HW219197   0.304   5.903   0.420
 6100SOL     OW19198   4.581   3.368   6.877
 6100SOL    HW119199   4.533   3.437   6.932
 6100SOL    HW219200   4.623   3.411   6.798
 6101SOL     OW19201   6.229   1.890   5.211
 6101SOL    HW119202   6.173   1.965   5.245
 6101SOL    HW219203   6.310   1.927   5.165
 6102SOL     OW19204   3.498   0.723   4.161
 6102SOL    HW119205   3.438   0.663   4.214
 6102SOL    HW219206   3.579   0.745   4.215
 6103SOL     OW19207   0.468   2.287   2.830
 6103SOL    HW119208   0.483   2.194   2.798
 6103SOL    HW219209   0.383   2.322   2.789
 6104SOL     OW19210   6.147   2.546   5.930
 6104SOL    HW119211   6.127   2.601   5.849
 6104SOL    HW219212   6.101   2.587   6.010
 6105SOL     OW19213   2.336   0.460   5.639
 6105SOL    HW119214   2.364   0.554   5.659
 6105SOL    HW219215   2.249   0.461   5.589
 6106SOL     OW19216   1.580   4.002   5.513
 6106SOL    HW119217   1.555   3.947   5.593
 6106SOL    HW219218   1.520   3.977   5.437
 6107SOL     OW19219   2.441   4.419   4.706
 6107SOL    HW119220   2.509   4.347   4.692
 6107SOL    HW219221   2.353   4.390   4.667
 6108SOL     OW19222   0.642   2.744   2.594
 6108SOL    HW119223   0.549   2.712   2.574
 6108SOL    HW219224   0.656   2.834   2.553
 6109SOL     OW19225   4.943   3.058   6.250
 6109SOL    HW119226   4.920   3.136   6.192
 6109SOL    HW219227   5.038   3.065   6.280
 6110SOL     OW19228   3.835   2.751   7.009
 6110SOL    HW119229   3.891   2.709   6.937
 6110SOL    HW219230   3.887   2.756   0.066
 6111SOL     OW19231   1.518   4.482   2.458
 6111SOL    HW119232   1.571   4.481   2.373
 6111SOL    HW219233   1.507   4.388   2.491
 6112SOL     OW19234   3.573   0.726   3.889
 6112SOL    HW119235   3.562   0.753   3.985
 6112SOL    HW219236   3.547   0.630   3.879
 6113SOL     OW19237   0.748   1.146   5.759
 6113SOL    HW119238   0.842   1.120   5.778
 6113SOL    HW219239   0.719   1.217   5.824
 6114SOL     OW19240   5.171   4.675   0.969
 6114SOL    HW119241   5.227   4.757   0.981
 6114SOL    HW219242   5.225   4.606   0.921
 6115SOL     OW19243   5.448   6.190   3.203
 6115SOL    HW119244   5.491   6.104   3.231
 6115SOL    HW219245   5.519   6.258   3.185
 6116SOL     OW19246   2.831   1.383   0.603
 6116SOL    HW119247   2.814   1.448   0.677
 6116SOL    HW219248   2.881   1.428   0.530
 6117SOL     OW19249   6.124   0.557   5.915
 6117SOL    HW119250   6.211   0.561   5.864
 6117SOL    HW219251   6.103   0.462   5.936
 6118SOL     OW19252   7.018   0.313   1.560
 6118SOL    HW119253   0.023   0.405   1.541
 6118SOL    HW219254   6.993   0.306   1.657
 6119SOL     OW19255   0.765   3.767   4.618
 6119SOL    HW119256   0.809   3.745   4.531
 6119SOL    HW219257   0.714   3.852   4.608
 6120SOL     OW19258   4.338   6.901   3.437
 6120SOL    HW119259   4.429   6.899   3.477
 6120SOL    HW219260   4.318   6.994   3.406
 6121SOL     OW19261   0.033   3.203   4.763
 6121SOL    HW119262   7.014   3.148   4.833
 6121SOL    HW219263   0.068   3.143   4.691
 6122SOL     OW19264   3.870   6.707   1.783
 6122SOL    HW119265   3.847   6.747   1.871
 6122SOL    HW219266   3.796   6.722   1.718
 6123SOL     OW19267   6.555   0.101   6.500
 6123SOL    HW119268   6.533   0.195   6.527
 6123SOL    HW219269   6.637   0.071   6.549
 6124SOL     OW19270   2.624   0.543   6.245
 6124SOL    HW119271   2.669   0.547   6.334
 6124SOL    HW219272   2.537   0.591   6.250
 6125SOL     OW19273   3.432   5.548   0.491
 6125SOL    HW119274   3.335   5.537   0.514
 6125SOL    HW219275   3.465   5.635   0.526
 6126SOL     OW19276   6.628   6.745   3.747
 6126SOL    HW119277   6.725   6.754   3.770
 6126SOL    HW219278   6.575   6.737   3.832
 6127SOL     OW19279   2.620   0.343   2.722
 6127SOL    HW119280   2.558   0.392   2.660
 6127SOL    HW219281   2.578   0.339   2.813
 6128SOL     OW19282   6.584   3.784   0.616
 6128SOL    HW119283   6.519   3.721   0.572
 6128SOL    HW219284   6.677   3.756   0.595
 6129SOL     OW19285   6.205   4.453   3.282
 6129SOL    HW119286   6.299   4.475   3.309
 6129SOL    HW219287   6.188   4.355   3.297
 6130SOL     OW19288   6.216   1.802   3.954
 6130SOL    HW119289   6.248   1.799   4.049
 6130SOL    HW219290   6.201   1.708   3.922
 6131SOL     OW19291   6.459   1.242   5.273
 6131SOL    HW119292   6.453   1.149   5.310
 6131SOL    HW219293   6.428   1.242   5.178
 6132SOL     OW19294   5.025   1.493   0.201
 6132SOL    HW119295   5.095   1.467   0.267
 6132SOL    HW219296   4.965   1.563   0.241
 6133SOL     OW19297   1.158   2.398   2.748
 6133SOL    HW119298   1.225   2.324   2.752
 6133SOL    HW219299   1.160   2.450   2.833
 6134SOL     OW19300   3.934   4.382   6.969
 6134SOL    HW119301   3.963   4.330   6.888
 6134SOL    HW219302   3.856   4.440   6.945
 6135SOL     OW19303   0.480   6.910   1.616
 6135SOL    HW119304   0.547   6.984   1.614
 6135SOL    HW219305   0.388   6.948   1.625
 6136SOL     OW19306   0.984   2.776   1.862
 6136SOL    HW119307   0.985   2.677   1.872
 6136SOL    HW219308   1.068   2.815   1.902
 6137SOL     OW19309   5.632   1.702   4.251
 6137SOL    HW119310   5.612   1.712   4.348
 6137SOL    HW219311   5.579   1.769   4.199
 6138SOL     OW19312   4.010   6.280   2.393
 6138SOL    HW119313   4.088   6.303   2.335
 6138SOL    HW219314   4.005   6.347   2.468
 6139SOL     OW19315   1.845   2.539   4.902
 6139SOL    HW119316   1.898   2.607   4.953
 6139SOL    HW219317   1.875   2.538   4.806
 6140SOL     OW19318   0.160   5.941   2.081
 6140SOL    HW119319   0.060   5.937   2.089
 6140SOL    HW219320   0.201   5.889   2.156
 6141SOL     OW19321   5.554   6.016   5.484
 6141SOL    HW119322   5.459   6.036   5.463
 6141SOL    HW219323   5.558   5.937   5.545
 6142SOL     OW19324   6.701   5.439   0.620
 6142SOL    HW119325   6.628   5.507   0.615
 6142SOL    HW219326   6.703   5.399   0.712
 6143SOL     OW19327   6.124   5.118   0.284
 6143SOL    HW119328   6.208   5.172   0.285
 6143SOL    HW219329   6.062   5.155   0.215
 6144SOL     OW19330   6.021   4.822   2.377
 6144SOL    HW119331   5.941   4.763   2.373
 6144SOL    HW219332   5.993   4.918   2.367
 6145SOL     OW19333   4.896   5.948   4.396
 6145SOL    HW119334   4.815   5.914   4.349
 6145SOL    HW219335   4.921   6.038   4.359
 6146SOL     OW19336   3.825   1.328   3.519
 6146SOL    HW119337   3.818   1.313   3.618
 6146SOL    HW219338   3.884   1.259   3.479
 6147SOL     OW19339   1.370   3.971   4.132
 6147SOL    HW119340   1.409   3.903   4.071
 6147SOL    HW219341   1.272   3.982   4.110
 6148SOL     OW19342   6.926   0.364   4.842
 6148SOL    HW119343   6.987   0.366   4.762
 6148SOL    HW219344   6.860   0.290   4.832
 6149SOL     OW19345   3.578   5.170   2.769
 6149SOL    HW119346   3.572   5.215   2.858
 6149SOL    HW219347   3.661   5.199   2.722
 6150SOL     OW19348   3.592   4.850   6.883
 6150SOL    HW119349   3.502   4.892   6.875
 6150SOL    HW219350   3.660   4.919   6.906
 6151SOL     OW19351   5.963   3.882   4.992
 6151SOL    HW119352   5.982   3.919   4.902
 6151SOL    HW219353   6.012   3.934   5.061
 6152SOL     OW19354   5.746   5.340   5.513
 6152SOL    HW119355   5.741   5.264   5.577
 6152SOL    HW219356   5.841   5.364   5.495
 6153SOL     OW19357   4.829   3.586   1.977
 6153SOL    HW119358   4.800   3.639   1.897
 6153SOL    HW219359   4.748   3.549   2.023
 6154SOL     OW19360   5.970   1.546   3.114
 6154SOL    HW119361   6.028   1.624   3.138
 6154SOL    HW219362   5.963   1.484   3.193
 6155SOL     OW19363   1.897   2.026   4.648
 6155SOL    HW119364   1.953   2.030   4.730
 6155SOL    HW219365   1.800   2.025   4.674
 6156SOL     OW19366   4.792   4.752   2.519
 6156SOL    HW119367   4.857   4.726   2.448
 6156SOL    HW219368   4.735   4.673   2.543
 6157SOL     OW19369   1.297   1.641   4.438
 6157SOL    HW119370   1.377   1.701   4.446
 6157SOL    HW219371   1.321   1.562   4.380
 6158SOL     OW19372   4.690   0.832   5.627
 6158SOL    HW119373   4.678   0.896   5.552
 6158SOL    HW219374   4.600   0.801   5.660
 6159SOL     OW19375   4.891   2.352   1.213
 6159SOL    HW119376   4.852   2.422   1.152
 6159SOL    HW219377   4.904   2.391   1.304
 6160SOL     OW19378   4.933   6.667   6.956
 6160SOL    HW119379   4.946   6.719   6.872
 6160SOL    HW219380   5.021   6.654   7.001
 6161SOL     OW19381   6.221   1.709   5.424
 6161SOL    HW119382   6.236   1.770   5.346
 6161SOL    HW219383   6.161   1.634   5.397
 6162SOL     OW19384   1.030   6.019   3.828
 6162SOL    HW119385   1.001   6.032   3.733
 6162SOL    HW219386   0.981   5.941   3.868
 6163SOL     OW19387   5.430   6.236   1.561
 6163SOL    HW119388   5.456   6.314   1.504
 6163SOL    HW219389   5.401   6.160   1.503
 6164SOL     OW19390   2.639   3.071   1.675
 6164SOL    HW119391   2.578   3.120   1.613
 6164SOL    HW219392   2.668   3.132   1.749
 6165SOL     OW19393   4.459   6.996   6.124
 6165SOL    HW119394   4.440   0.035   6.051
 6165SOL    HW219395   4.376   6.982   6.178
 6166SOL     OW19396   3.734   0.921   6.025
 6166SOL    HW119397   3.756   0.844   5.966
 6166SOL    HW219398   3.661   0.976   5.984
 6167SOL     OW19399   0.826   4.740   2.418
 6167SOL    HW119400   0.920   4.744   2.383
 6167SOL    HW219401   0.814   4.809   2.489
 6168SOL     OW19402   0.661   3.232   0.915
 6168SOL    HW119403   0.661   3.221   0.816
 6168SOL    HW219404   0.628   3.148   0.958
 6169SOL     OW19405   1.112   3.177   1.798
 6169SOL    HW119406   1.160   3.097   1.762
 6169SOL    HW219407   1.018   3.177   1.764
 6170SOL     OW19408   0.660   3.752   5.450
 6170SOL    HW119409   0.588   3.752   5.520
 6170SOL    HW219410   0.718   3.833   5.462
 6171SOL     OW19411   0.902   1.735   0.189
 6171SOL    HW119412   0.851   1.791   0.254
 6171SOL    HW219413   0.996   1.723   0.221
 6172SOL     OW19414   1.360   3.294   2.556
 6172SOL    HW119415   1.459   3.306   2.558
 6172SOL    HW219416   1.335   3.235   2.479
 6173SOL     OW19417   6.669   5.015   3.098
 6173SOL    HW119418   6.605   4.962   3.042
 6173SOL    HW219419   6.682   5.106   3.058
 6174SOL     OW19420   5.062   5.625   4.242
 6174SOL    HW119421   5.013   5.603   4.327
 6174SOL    HW219422   5.135   5.691   4.262
 6175SOL     OW19423   3.956   0.408   4.218
 6175SOL    HW119424   3.872   0.429   4.269
 6175SOL    HW219425   3.997   0.324   4.255
 6176SOL     OW19426   5.300   3.883   5.959
 6176SOL    HW119427   5.302   3.982   5.975
 6176SOL    HW219428   5.272   3.865   5.865
 6177SOL     OW19429   5.929   1.780   1.902
 6177SOL    HW119430   5.875   1.781   1.817
 6177SOL    HW219431   6.022   1.810   1.882
 6178SOL     OW19432   5.009   4.498   2.614
 6178SOL    HW119433   5.072   4.567   2.579
 6178SOL    HW219434   5.037   4.408   2.581
 6179SOL     OW19435   6.427   4.675   2.470
 6179SOL    HW119436   6.370   4.641   2.394
 6179SOL    HW219437   6.396   4.766   2.497
 6180SOL     OW19438   2.689   4.611   1.352
 6180SOL    HW119439   2.780   4.653   1.346
 6180SOL    HW219440   2.699   4.515   1.375
 6181SOL     OW19441   4.883   6.422   6.079
 6181SOL    HW119442   4.863   6.394   5.985
 6181SOL    HW219443   4.981   6.411   6.096
 6182SOL     OW19444   4.345   3.423   5.927
 6182SOL    HW119445   4.342   3.377   5.838
 6182SOL    HW219446   4.403   3.504   5.921
 6183SOL     OW19447   1.596   1.988   1.987
 6183SOL    HW119448   1.656   1.926   2.036
 6183SOL    HW219449   1.511   1.999   2.039
 6184SOL     OW19450   3.014   6.793   6.182
 6184SOL    HW119451   2.997   6.798   6.280
 6184SOL    HW219452   3.112   6.781   6.165
 6185SOL     OW19453   1.164   4.609   6.235
 6185SOL    HW119454   1.201   4.550   6.163
 6185SOL    HW219455   1.215   4.595   6.320
 6186SOL     OW19456   5.967   0.823   1.051
 6186SOL    HW119457   5.906   0.745   1.065
 6186SOL    HW219458   6.031   0.802   0.977
 6187SOL     OW19459   4.799   3.032   4.205
 6187SOL    HW119460   4.819   3.073   4.116
 6187SOL    HW219461   4.822   3.097   4.277
 6188SOL     OW19462   1.547   1.715   5.943
 6188SOL    HW119463   1.596   1.741   5.860
 6188SOL    HW219464   1.575   1.624   5.972
 6189SOL     OW19465   3.807   4.916   3.238
 6189SOL    HW119466   3.882   4.958   3.289
 6189SOL    HW219467   3.720   4.937   3.283
 6190SOL     OW19468   0.244   3.515   5.256
 6190SOL    HW119469   0.328   3.557   5.291
 6190SOL    HW219470   0.214   3.563   5.174
 6191SOL     OW19471   2.952   3.389   6.309
 6191SOL    HW119472   2.911   3.416   6.223
 6191SOL    HW219473   2.912   3.442   6.384
 6192SOL     OW19474   2.423   1.755   6.646
 6192SOL    HW119475   2.514   1.715   6.652
 6192SOL    HW219476   2.398   1.796   6.734
 6193SOL     OW19477   4.596   6.026   1.548
 6193SOL    HW119478   4.625   5.991   1.459
 6193SOL    HW219479   4.562   6.120   1.538
 6194SOL     OW19480   6.388   0.494   6.344
 6194SOL    HW119481   6.434   0.457   6.425
 6194SOL    HW219482   6.391   0.427   6.270
 6195SOL     OW19483   5.417   6.070   4.238
 6195SOL    HW119484   5.345   6.111   4.182
 6195SOL    HW219485   5.478   6.142   4.271
 6196SOL     OW19486   4.708   4.146   2.734
 6196SOL    HW119487   4.707   4.238   2.774
 6196SOL    HW219488   4.754   4.148   2.645
 6197SOL     OW19489   2.655   5.476   2.066
 6197SOL    HW119490   2.698   5.392   2.099
 6197SOL    HW219491   2.690   5.497   1.974
 6198SOL     OW19492   4.122   6.499   1.284
 6198SOL    HW119493   4.069   6.465   1.206
 6198SOL    HW219494   4.121   6.430   1.357
 6199SOL     OW19495   0.775   1.168   0.503
 6199SOL    HW119496   0.699   1.218   0.545
 6199SOL    HW219497   0.844   1.149   0.573
 6200SOL     OW19498   1.246   2.026   4.775
 6200SOL    HW119499   1.161   2.071   4.745
 6200SOL    HW219500   1.229   1.929   4.791
 6201SOL     OW19501   1.072   3.576   4.565
 6201SOL    HW119502   1.029   3.622   4.487
 6201SOL    HW219503   1.025   3.489   4.583
 6202SOL     OW19504   5.889   1.021   1.833
 6202SOL    HW119505   5.917   1.028   1.929
 6202SOL    HW219506   5.969   1.004   1.776
 6203SOL     OW19507   5.405   5.492   1.991
 6203SOL    HW119508   5.478   5.471   2.055
 6203SOL    HW219509   5.411   5.432   1.911
 6204SOL     OW19510   1.080   6.134   5.056
 6204SOL    HW119511   1.092   6.137   5.156
 6204SOL    HW219512   1.161   6.095   5.014
 6205SOL     OW19513   6.059   4.533   1.022
 6205SOL    HW119514   6.010   4.619   1.008
 6205SOL    HW219515   6.145   4.551   1.070
 6206SOL     OW19516   5.556   1.359   2.585
 6206SOL    HW119517   5.626   1.342   2.654
 6206SOL    HW219518   5.474   1.396   2.630
 6207SOL     OW19519   1.540   6.595   5.408
 6207SOL    HW119520   1.615   6.557   5.463
 6207SOL    HW219521   1.568   6.603   5.313
 6208SOL     OW19522   3.460   2.220   5.528
 6208SOL    HW119523   3.534   2.277   5.493
 6208SOL    HW219524   3.378   2.234   5.473
 6209SOL     OW19525   3.470   5.455   0.230
 6209SOL    HW119526   3.540   5.385   0.218
 6209SOL    HW219527   3.454   5.471   0.328
 6210SOL     OW19528   5.179   3.554   2.999
 6210SOL    HW119529   5.238   3.553   2.918
 6210SOL    HW219530   5.102   3.491   2.986
 6211SOL     OW19531   3.357   6.650   5.412
 6211SOL    HW119532   3.257   6.649   5.414
 6211SOL    HW219533   3.389   6.639   5.318
 6212SOL     OW19534   2.387   4.364   3.849
 6212SOL    HW119535   2.290   4.385   3.858
 6212SOL    HW219536   2.411   4.291   3.913
 6213SOL     OW19537   4.314   6.907   6.730
 6213SOL    HW119538   4.287   6.842   6.801
 6213SOL    HW219539   4.407   6.940   6.749
 6214SOL     OW19540   5.967   5.839   5.292
 6214SOL    HW119541   6.019   5.917   5.328
 6214SOL    HW219542   5.911   5.800   5.365
 6215SOL     OW19543   3.505   2.730   6.769
 6215SOL    HW119544   3.431   2.763   6.711
 6215SOL    HW219545   3.577   2.689   6.712
 6216SOL     OW19546   6.116   2.042   2.442
 6216SOL    HW119547   6.152   1.970   2.500
 6216SOL    HW219548   6.178   2.058   2.365
 6217SOL     OW19549   0.810   4.444   2.579
 6217SOL    HW119550   0.779   4.482   2.491
 6217SOL    HW219551   0.796   4.345   2.579
 6218SOL     OW19552   3.845   6.921   0.093
 6218SOL    HW119553   3.828   6.859   0.170
 6218SOL    HW219554   3.827   7.015   0.122
 6219SOL     OW19555   1.310   0.598   4.897
 6219SOL    HW119556   1.302   0.545   4.982
 6219SOL    HW219557   1.293   0.538   4.819
 6220SOL     OW19558   3.769   1.505   6.092
 6220SOL    HW119559   3.700   1.575   6.074
 6220SOL    HW219560   3.774   1.488   6.191
 6221SOL     OW19561   6.329   6.395   6.761
 6221SOL    HW119562   6.234   6.403   6.732
 6221SOL    HW219563   6.385   6.458   6.707
 6222SOL     OW19564   0.076   0.326   2.469
 6222SOL    HW119565   0.013   0.285   2.404
 6222SOL    HW219566   0.074   0.425   2.460
 6223SOL     OW19567   1.436   5.584   3.299
 6223SOL    HW119568   1.373   5.653   3.263
 6223SOL    HW219569   1.502   5.629   3.359
 6224SOL     OW19570   3.982   1.728   5.967
 6224SOL    HW119571   3.886   1.706   5.949
 6224SOL    HW219572   4.039   1.652   5.937
 6225SOL     OW19573   4.059   2.234   6.162
 6225SOL    HW119574   4.002   2.307   6.201
 6225SOL    HW219575   4.136   2.216   6.223
 6226SOL     OW19576   1.197   1.422   3.773
 6226SOL    HW119577   1.291   1.440   3.802
 6226SOL    HW219578   1.162   1.502   3.723
 6227SOL     OW19579   3.403   5.129   5.548
 6227SOL    HW119580   3.317   5.130   5.598
 6227SOL    HW219581   3.413   5.214   5.496
 6228SOL     OW19582   0.605   2.591   3.240
 6228SOL    HW119583   0.521   2.569   3.290
 6228SOL    HW219584   0.600   2.551   3.148
 6229SOL     OW19585   0.625   2.818   4.864
 6229SOL    HW119586   0.692   2.751   4.831
 6229SOL    HW219587   0.572   2.853   4.787
 6230SOL     OW19588   1.115   2.342   3.157
 6230SOL    HW119589   1.030   2.330   3.107
 6230SOL    HW219590   1.150   2.435   3.143
 6231SOL     OW19591   5.364   5.585   0.738
 6231SOL    HW119592   5.457   5.614   0.761
 6231SOL    HW219593   5.368   5.506   0.676
 6232SOL     OW19594   6.237   1.438   0.357
 6232SOL    HW119595   6.146   1.402   0.337
 6232SOL    HW219596   6.237   1.537   0.341
 6233SOL     OW19597   0.129   2.918   1.631
 6233SOL    HW119598   0.055   2.853   1.647
 6233SOL    HW219599   0.119   2.959   1.540
 6234SOL     OW19600   0.126   0.070   5.341
 6234SOL    HW119601   0.094   0.135   5.272
 6234SOL    HW219602   0.188   0.004   5.299
 6235SOL     OW19603   0.252   0.616   1.964
 6235SOL    HW119604   0.341   0.639   1.926
 6235SOL    HW219605   0.255   0.524   2.002
 6236SOL     OW19606   7.010   4.908   0.322
 6236SOL    HW119607   6.975   4.829   0.271
 6236SOL    HW219608   6.933   4.961   0.358
 6237SOL     OW19609   3.375   7.024   0.071
 6237SOL    HW119610   3.348   6.989   0.161
 6237SOL    HW219611   3.337   6.964   0.000
 6238SOL     OW19612   4.610   6.511   3.450
 6238SOL    HW119613   4.649   6.599   3.479
 6238SOL    HW219614   4.514   6.507   3.476
 6239SOL     OW19615   3.675   0.571   0.942
 6239SOL    HW119616   3.761   0.542   0.984
 6239SOL    HW219617   3.681   0.668   0.918
 6240SOL     OW19618   3.105   3.678   5.147
 6240SOL    HW119619   3.190   3.695   5.196
 6240SOL    HW219620   3.059   3.599   5.185
 6241SOL     OW19621   4.143   0.171   3.927
 6241SOL    HW119622   4.216   0.238   3.915
 6241SOL    HW219623   4.056   0.218   3.940
 6242SOL     OW19624   3.080   0.772   3.513
 6242SOL    HW119625   2.998   0.716   3.522
 6242SOL    HW219626   3.056   0.860   3.471
 6243SOL     OW19627   6.611   0.525   6.101
 6243SOL    HW119628   6.523   0.566   6.125
 6243SOL    HW219629   6.620   0.521   6.002
 6244SOL     OW19630   5.123   3.545   3.283
 6244SOL    HW119631   5.156   3.552   3.189
 6244SOL    HW219632   5.074   3.458   3.295
 6245SOL     OW19633   0.562   4.519   1.978
 6245SOL    HW119634   0.639   4.541   2.038
 6245SOL    HW219635   0.583   4.435   1.927
 6246SOL     OW19636   0.647   0.985   4.695
 6246SOL    HW119637   0.708   0.964   4.618
 6246SOL    HW219638   0.557   0.946   4.678
 6247SOL     OW19639   1.500   6.365   3.168
 6247SOL    HW119640   1.592   6.404   3.160
 6247SOL    HW219641   1.478   6.351   3.264
 6248SOL     OW19642   3.775   4.081   0.108
 6248SOL    HW119643   3.757   3.989   0.142
 6248SOL    HW219644   3.765   4.082   0.009
 6249SOL     OW19645   6.999   2.919   0.898
 6249SOL    HW119646   0.037   2.863   0.845
 6249SOL    HW219647   7.017   3.016   0.880
 6250SOL     OW19648   6.858   6.617   0.698
 6250SOL    HW119649   6.877   6.522   0.672
 6250SOL    HW219650   6.777   6.619   0.757
 6251SOL     OW19651   3.716   5.734   4.646
 6251SOL    HW119652   3.682   5.775   4.561
 6251SOL    HW219653   3.668   5.648   4.663
 6252SOL     OW19654   2.863   4.730   0.264
 6252SOL    HW119655   2.906   4.776   0.186
 6252SOL    HW219656   2.855   4.632   0.244
 6253SOL     OW19657   2.415   5.031   4.716
 6253SOL    HW119658   2.473   5.019   4.797
 6253SOL    HW219659   2.319   5.031   4.743
 6254SOL     OW19660   0.203   6.837   1.139
 6254SOL    HW119661   0.299   6.846   1.164
 6254SOL    HW219662   0.163   6.928   1.128
 6255SOL     OW19663   2.101   2.557   0.599
 6255SOL    HW119664   2.176   2.603   0.645
 6255SOL    HW219665   2.131   2.466   0.568
 6256SOL     OW19666   4.023   4.859   2.318
 6256SOL    HW119667   3.969   4.848   2.234
 6256SOL    HW219668   4.120   4.843   2.297
 6257SOL     OW19669   3.984   2.734   0.196
 6257SOL    HW119670   4.075   2.777   0.199
 6257SOL    HW219671   3.919   2.790   0.246
 6258SOL     OW19672   3.102   0.191   5.325
 6258SOL    HW119673   3.078   0.230   5.236
 6258SOL    HW219674   3.155   0.257   5.378
 6259SOL     OW19675   1.980   0.699   6.083
 6259SOL    HW119676   2.059   0.732   6.135
 6259SOL    HW219677   1.975   0.748   5.996
 6260SOL     OW19678   2.296   0.618   0.788
 6260SOL    HW119679   2.366   0.561   0.831
 6260SOL    HW219680   2.241   0.563   0.725
 6261SOL     OW19681   4.040   6.525   0.990
 6261SOL    HW119682   3.965   6.537   0.925
 6261SOL    HW219683   4.079   6.433   0.978
 6262SOL     OW19684   1.523   5.881   2.419
 6262SOL    HW119685   1.573   5.885   2.505
 6262SOL    HW219686   1.465   5.800   2.418
 6263SOL     OW19687   0.504   6.175   5.370
 6263SOL    HW119688   0.582   6.232   5.399
 6263SOL    HW219689   0.428   6.235   5.345
 6264SOL     OW19690   1.251   0.012   1.420
 6264SOL    HW119691   1.218   0.002   1.514
 6264SOL    HW219692   1.351   0.014   1.420
 6265SOL     OW19693   3.957   2.882   0.914
 6265SOL    HW119694   3.977   2.873   1.011
 6265SOL    HW219695   3.974   2.795   0.867
 6266SOL     OW19696   3.998   6.978   3.134
 6266SOL    HW119697   4.085   6.963   3.089
 6266SOL    HW219698   3.927   6.997   3.066
 6267SOL     OW19699   1.496   6.997   4.836
 6267SOL    HW119700   1.549   6.912   4.829
 6267SOL    HW219701   1.558   0.047   4.845
 6268SOL     OW19702   2.925   0.971   1.965
 6268SOL    HW119703   2.909   1.066   1.990
 6268SOL    HW219704   2.870   0.911   2.024
 6269SOL     OW19705   5.818   6.773   1.465
 6269SOL    HW119706   5.808   6.704   1.536
 6269SOL    HW219707   5.844   6.860   1.506
 6270SOL     OW19708   0.751   6.856   0.322
 6270SOL    HW119709   0.771   6.887   0.415
 6270SOL    HW219710   0.665   6.804   0.323
 6271SOL     OW19711   5.975   2.740   6.477
 6271SOL    HW119712   5.902   2.783   6.425
 6271SOL    HW219713   6.064   2.765   6.438
 6272SOL     OW19714   0.902   0.802   0.563
 6272SOL    HW119715   0.820   0.844   0.524
 6272SOL    HW219716   0.908   0.707   0.533
 6273SOL     OW19717   0.116   5.372   2.859
 6273SOL    HW119718   0.213   5.392   2.874
 6273SOL    HW219719   0.105   5.274   2.845
 6274SOL     OW19720   3.052   6.953   4.944
 6274SOL    HW119721   3.151   6.955   4.959
 6274SOL    HW219722   3.018   6.861   4.962
 6275SOL     OW19723   2.366   5.670   0.872
 6275SOL    HW119724   2.271   5.689   0.848
 6275SOL    HW219725   2.394   5.584   0.828
 6276SOL     OW19726   3.494   5.700   3.578
 6276SOL    HW119727   3.505   5.751   3.493
 6276SOL    HW219728   3.583   5.686   3.620
 6277SOL     OW19729   5.431   2.273   0.784
 6277SOL    HW119730   5.420   2.216   0.866
 6277SOL    HW219731   5.492   2.349   0.805
 6278SOL     OW19732   3.489   0.605   5.706
 6278SOL    HW119733   3.529   0.535   5.646
 6278SOL    HW219734   3.436   0.670   5.650
 6279SOL     OW19735   4.117   5.562   0.708
 6279SOL    HW119736   4.024   5.543   0.675
 6279SOL    HW219737   4.119   5.551   0.808
 6280SOL     OW19738   0.226   1.006   6.545
 6280SOL    HW119739   0.141   0.968   6.507
 6280SOL    HW219740   0.289   0.931   6.566
 6281SOL     OW19741   6.202   4.748   3.934
 6281SOL    HW119742   6.301   4.747   3.920
 6281SOL    HW219743   6.173   4.661   3.973
 6282SOL     OW19744   6.257   3.185   5.434
 6282SOL    HW119745   6.275   3.246   5.511
 6282SOL    HW219746   6.188   3.226   5.374
 6283SOL     OW19747   0.693   4.333   4.142
 6283SOL    HW119748   0.640   4.417   4.156
 6283SOL    HW219749   0.783   4.343   4.185
 6284SOL     OW19750   1.209   5.795   6.761
 6284SOL    HW119751   1.268   5.768   6.837
 6284SOL    HW219752   1.259   5.856   6.699
 6285SOL     OW19753   1.282   3.355   3.576
 6285SOL    HW119754   1.223   3.351   3.657
 6285SOL    HW219755   1.271   3.443   3.531
 6286SOL     OW19756   6.508   3.633   3.877
 6286SOL    HW119757   6.476   3.547   3.917
 6286SOL    HW219758   6.587   3.666   3.929
 6287SOL     OW19759   4.016   5.012   5.125
 6287SOL    HW119760   3.961   5.095   5.119
 6287SOL    HW219761   4.074   5.016   5.206
 6288SOL     OW19762   4.842   4.570   1.530
 6288SOL    HW119763   4.761   4.606   1.483
 6288SOL    HW219764   4.814   4.533   1.619
 6289SOL     OW19765   2.788   4.741   6.612
 6289SOL    HW119766   2.783   4.671   6.541
 6289SOL    HW219767   2.868   4.724   6.670
 6290SOL     OW19768   5.612   5.554   6.394
 6290SOL    HW119769   5.650   5.495   6.465
 6290SOL    HW219770   5.635   5.517   6.304
 6291SOL     OW19771   3.900   3.230   3.588
 6291SOL    HW119772   3.953   3.170   3.647
 6291SOL    HW219773   3.911   3.202   3.493
 6292SOL     OW19774   2.398   2.253   4.497
 6292SOL    HW119775   2.338   2.308   4.554
 6292SOL    HW219776   2.354   2.165   4.477
 6293SOL     OW19777   4.562   1.853   0.723
 6293SOL    HW119778   4.563   1.782   0.794
 6293SOL    HW219779   4.615   1.932   0.754
 6294SOL     OW19780   4.313   0.382   3.127
 6294SOL    HW119781   4.344   0.420   3.215
 6294SOL    HW219782   4.213   0.382   3.124
 6295SOL     OW19783   5.172   4.907   4.787
 6295SOL    HW119784   5.156   4.830   4.849
 6295SOL    HW219785   5.190   4.989   4.841
 6296SOL     OW19786   0.454   4.295   5.804
 6296SOL    HW119787   0.376   4.244   5.766
 6296SOL    HW219788   0.500   4.345   5.731
 6297SOL     OW19789   6.526   0.159   5.532
 6297SOL    HW119790   6.503   0.118   5.443
 6297SOL    HW219791   6.623   0.181   5.534
 6298SOL     OW19792   6.289   4.466   6.420
 6298SOL    HW119793   6.190   4.452   6.418
 6298SOL    HW219794   6.328   4.420   6.499
 6299SOL     OW19795   6.196   2.810   2.045
 6299SOL    HW119796   6.256   2.739   2.079
 6299SOL    HW219797   6.204   2.817   1.945
 6300SOL     OW19798   4.878   0.535   6.754
 6300SOL    HW119799   4.960   0.591   6.756
 6300SOL    HW219800   4.798   0.593   6.743
 6301SOL     OW19801   3.244   6.889   6.372
 6301SOL    HW119802   3.332   6.853   6.403
 6301SOL    HW219803   3.247   6.989   6.376
 6302SOL     OW19804   2.371   1.265   5.801
 6302SOL    HW119805   2.323   1.319   5.731
 6302SOL    HW219806   2.331   1.174   5.807
 6303SOL     OW19807   0.373   6.243   5.745
 6303SOL    HW119808   0.297   6.195   5.788
 6303SOL    HW219809   0.403   6.319   5.804
 6304SOL     OW19810   3.862   1.796   3.749
 6304SOL    HW119811   3.908   1.883   3.761
 6304SOL    HW219812   3.804   1.799   3.668
 6305SOL     OW19813   6.000   5.835   0.168
 6305SOL    HW119814   5.911   5.873   0.142
 6305SOL    HW219815   6.001   5.737   0.150
 6306SOL     OW19816   0.355   3.576   4.049
 6306SOL    HW119817   0.369   3.563   4.148
 6306SOL    HW219818   0.261   3.552   4.026
 6307SOL     OW19819   3.305   2.935   4.401
 6307SOL    HW119820   3.339   2.845   4.425
 6307SOL    HW219821   3.368   2.978   4.335
 6308SOL     OW19822   0.824   2.237   5.883
 6308SOL    HW119823   0.841   2.335   5.868
 6308SOL    HW219824   0.888   2.183   5.828
 6309SOL     OW19825   0.196   0.197   4.324
 6309SOL    HW119826   0.134   0.242   4.259
 6309SOL    HW219827   0.283   0.177   4.278
 6310SOL     OW19828   1.990   6.480   2.793
 6310SOL    HW119829   2.054   6.413   2.757
 6310SOL    HW219830   2.007   6.569   2.751
 6311SOL     OW19831   4.932   1.526   6.617
 6311SOL    HW119832   4.974   1.515   6.708
 6311SOL    HW219833   5.001   1.508   6.547
 6312SOL     OW19834   1.663   7.003   6.331
 6312SOL    HW119835   1.638   0.045   6.265
 6312SOL    HW219836   1.634   0.003   6.422
 6313SOL     OW19837   5.685   6.387   3.160
 6313SOL    HW119838   5.694   6.447   3.080
 6313SOL    HW219839   5.680   6.443   3.243
 6314SOL     OW19840   3.813   0.840   1.815
 6314SOL    HW119841   3.887   0.869   1.756
 6314SOL    HW219842   3.820   0.887   1.903
 6315SOL     OW19843   2.136   1.881   4.615
 6315SOL    HW119844   2.050   1.933   4.612
 6315SOL    HW219845   2.119   1.789   4.648
 6316SOL     OW19846   4.974   1.884   5.772
 6316SOL    HW119847   4.980   1.856   5.676
 6316SOL    HW219848   4.931   1.975   5.777
 6317SOL     OW19849   4.939   4.016   2.614
 6317SOL    HW119850   4.871   4.067   2.561
 6317SOL    HW219851   4.904   3.924   2.632
 6318SOL     OW19852   4.588   6.901   6.689
 6318SOL    HW119853   4.654   6.971   6.717
 6318SOL    HW219854   4.591   6.890   6.590
 6319SOL     OW19855   6.292   1.941   4.740
 6319SOL    HW119856   6.234   2.022   4.728
 6319SOL    HW219857   6.234   1.861   4.757
 6320SOL     OW19858   6.956   6.942   4.101
 6320SOL    HW119859   6.861   6.967   4.117
 6320SOL    HW219860   6.983   6.970   4.009
 6321SOL     OW19861   4.792   3.586   0.186
 6321SOL    HW119862   4.870   3.649   0.177
 6321SOL    HW219863   4.826   3.493   0.198
 6322SOL     OW19864   3.190   1.828   0.312
 6322SOL    HW119865   3.146   1.805   0.225
 6322SOL    HW219866   3.271   1.770   0.324
 6323SOL     OW19867   1.613   1.737   1.475
 6323SOL    HW119868   1.623   1.647   1.517
 6323SOL    HW219869   1.637   1.732   1.378
 6324SOL     OW19870   3.986   1.835   0.912
 6324SOL    HW119871   4.035   1.921   0.926
 6324SOL    HW219872   4.050   1.758   0.923
 6325SOL     OW19873   2.272   2.935   3.128
 6325SOL    HW119874   2.341   2.993   3.085
 6325SOL    HW219875   2.249   2.972   3.218
 6326SOL     OW19876   5.568   5.766   5.659
 6326SOL    HW119877   5.469   5.763   5.672
 6326SOL    HW219878   5.608   5.677   5.679
 6327SOL     OW19879   6.724   1.306   4.191
 6327SOL    HW119880   6.794   1.365   4.150
 6327SOL    HW219881   6.725   1.317   4.290
 6328SOL     OW19882   4.705   3.707   6.839
 6328SOL    HW119883   4.664   3.654   6.913
 6328SOL    HW219884   4.754   3.785   6.877
 6329SOL     OW19885   1.000   2.814   5.062
 6329SOL    HW119886   1.041   2.822   4.971
 6329SOL    HW219887   1.069   2.832   5.132
 6330SOL     OW19888   5.535   6.860   2.190
 6330SOL    HW119889   5.471   6.902   2.255
 6330SOL    HW219890   5.491   6.781   2.147
 6331SOL     OW19891   6.612   2.940   4.967
 6331SOL    HW119892   6.665   2.954   5.051
 6331SOL    HW219893   6.620   3.020   4.908
 6332SOL     OW19894   1.281   2.709   1.245
 6332SOL    HW119895   1.368   2.661   1.254
 6332SOL    HW219896   1.229   2.670   1.169
 6333SOL     OW19897   4.807   6.782   6.140
 6333SOL    HW119898   4.768   6.873   6.152
 6333SOL    HW219899   4.794   6.729   6.224
 6334SOL     OW19900   2.545   1.324   1.962
 6334SOL    HW119901   2.543   1.326   2.062
 6334SOL    HW219902   2.612   1.391   1.929
 6335SOL     OW19903   4.755   0.999   0.474
 6335SOL    HW119904   4.759   0.900   0.487
 6335SOL    HW219905   4.795   1.022   0.385
 6336SOL     OW19906   0.561   4.063   6.475
 6336SOL    HW119907   0.498   4.126   6.520
 6336SOL    HW219908   0.640   4.114   6.440
 6337SOL     OW19909   4.280   5.581   4.738
 6337SOL    HW119910   4.338   5.574   4.656
 6337SOL    HW219911   4.285   5.673   4.774
 6338SOL     OW19912   3.138   1.836   4.477
 6338SOL    HW119913   3.137   1.846   4.576
 6338SOL    HW219914   3.103   1.920   4.434
 6339SOL     OW19915   1.159   3.922   3.641
 6339SOL    HW119916   1.168   3.900   3.544
 6339SOL    HW219917   1.221   3.997   3.664
 6340SOL     OW19918   2.464   3.648   1.190
 6340SOL    HW119919   2.538   3.615   1.249
 6340SOL    HW219920   2.426   3.732   1.230
 6341SOL     OW19921   0.642   3.803   3.518
 6341SOL    HW119922   0.700   3.848   3.450
 6341SOL    HW219923   0.666   3.706   3.523
 6342SOL     OW19924   3.095   1.395   0.764
 6342SOL    HW119925   3.080   1.379   0.667
 6342SOL    HW219926   3.027   1.344   0.817
 6343SOL     OW19927   4.053   6.790   6.328
 6343SOL    HW119928   3.985   6.721   6.301
 6343SOL    HW219929   4.089   6.835   6.246
 6344SOL     OW19930   5.771   2.200   3.925
 6344SOL    HW119931   5.831   2.125   3.953
 6344SOL    HW219932   5.725   2.178   3.840
 6345SOL     OW19933   4.670   2.739   1.883
 6345SOL    HW119934   4.647   2.834   1.904
 6345SOL    HW219935   4.593   2.696   1.836
 6346SOL     OW19936   6.940   4.414   4.867
 6346SOL    HW119937   0.003   4.453   4.882
 6346SOL    HW219938   6.881   4.483   4.825
 6347SOL     OW19939   2.559   1.503   1.540
 6347SOL    HW119940   2.486   1.562   1.574
 6347SOL    HW219941   2.520   1.431   1.482
 6348SOL     OW19942   0.912   2.211   6.206
 6348SOL    HW119943   0.893   2.118   6.174
 6348SOL    HW219944   0.981   2.253   6.148
 6349SOL     OW19945   1.540   0.477   0.505
 6349SOL    HW119946   1.607   0.439   0.568
 6349SOL    HW219947   1.464   0.516   0.557
 6350SOL     OW19948   0.837   5.185   2.792
 6350SOL    HW119949   0.783   5.217   2.870
 6350SOL    HW219950   0.927   5.156   2.825
 6351SOL     OW19951   6.679   4.326   3.762
 6351SOL    HW119952   6.772   4.362   3.768
 6351SOL    HW219953   6.639   4.322   3.854
 6352SOL     OW19954   2.609   0.528   4.103
 6352SOL    HW119955   2.624   0.431   4.084
 6352SOL    HW219956   2.561   0.570   4.026
 6353SOL     OW19957   2.489   5.510   0.066
 6353SOL    HW119958   2.398   5.485   0.099
 6353SOL    HW219959   2.522   5.440   0.002
 6354SOL     OW19960   3.482   6.094   3.269
 6354SOL    HW119961   3.453   6.180   3.311
 6354SOL    HW219962   3.407   6.057   3.214
 6355SOL     OW19963   2.673   5.747   0.545
 6355SOL    HW119964   2.733   5.759   0.466
 6355SOL    HW219965   2.705   5.669   0.599
 6356SOL     OW19966   5.212   5.724   0.421
 6356SOL    HW119967   5.275   5.699   0.494
 6356SOL    HW219968   5.227   5.664   0.342
 6357SOL     OW19969   5.578   2.737   2.082
 6357SOL    HW119970   5.631   2.780   2.009
 6357SOL    HW219971   5.499   2.691   2.043
 6358SOL     OW19972   0.772   2.026   6.905
 6358SOL    HW119973   0.821   2.069   6.829
 6358SOL    HW219974   0.734   2.097   6.965
 6359SOL     OW19975   6.074   6.269   0.808
 6359SOL    HW119976   5.994   6.328   0.815
 6359SOL    HW219977   6.153   6.323   0.777
 6360SOL     OW19978   0.697   3.418   4.162
 6360SOL    HW119979   0.681   3.375   4.074
 6360SOL    HW219980   0.666   3.357   4.235
 6361SOL     OW19981   0.918   0.441   0.869
 6361SOL    HW119982   0.990   0.394   0.818
 6361SOL    HW219983   0.956   0.522   0.913
 6362SOL     OW19984   1.738   6.058   6.829
 6362SOL    HW119985   1.824   6.063   6.880
 6362SOL    HW219986   1.710   5.963   6.821
 6363SOL     OW19987   2.982   4.870   4.306
 6363SOL    HW119988   3.058   4.860   4.241
 6363SOL    HW219989   2.907   4.810   4.278
 6364SOL     OW19990   2.487   2.572   5.372
 6364SOL    HW119991   2.423   2.642   5.341
 6364SOL    HW219992   2.547   2.610   5.442
 6365SOL     OW19993   5.875   6.166   4.904
 6365SOL    HW119994   5.864   6.074   4.943
 6365SOL    HW219995   5.898   6.231   4.977
 6366SOL     OW19996   6.933   6.441   4.714
 6366SOL    HW119997   6.998   6.383   4.663
 6366SOL    HW219998   6.935   6.533   4.675
 6367SOL     OW19999   3.174   2.041   2.695
 6367SOL    HW120000   3.192   2.054   2.792
 6367SOL    HW220001   3.162   1.943   2.676
 6368SOL     OW20002   3.981   4.862   4.436
 6368SOL    HW120003   4.044   4.880   4.512
 6368SOL    HW220004   3.889   4.892   4.462
 6369SOL     OW20005   1.971   0.265   4.316
 6369SOL    HW120006   1.964   0.328   4.393
 6369SOL    HW220007   2.064   0.228   4.311
 6370SOL     OW20008   5.488   4.221   3.496
 6370SOL    HW120009   5.471   4.197   3.591
 6370SOL    HW220010   5.475   4.319   3.483
 6371SOL     OW20011   5.261   4.020   1.881
 6371SOL    HW120012   5.269   4.117   1.903
 6371SOL    HW220013   5.306   3.966   1.952
 6372SOL     OW20014   0.746   1.423   1.815
 6372SOL    HW120015   0.745   1.436   1.716
 6372SOL    HW220016   0.756   1.512   1.860
 6373SOL     OW20017   5.762   3.966   2.253
 6373SOL    HW120018   5.705   3.909   2.195
 6373SOL    HW220019   5.824   4.021   2.196
 6374SOL     OW20020   4.359   3.040   0.620
 6374SOL    HW120021   4.456   3.056   0.636
 6374SOL    HW220022   4.322   2.980   0.690
 6375SOL     OW20023   0.729   2.448   1.523
 6375SOL    HW120024   0.719   2.526   1.584
 6375SOL    HW220025   0.648   2.441   1.465
 6376SOL     OW20026   3.864   1.652   5.616
 6376SOL    HW120027   3.791   1.584   5.617
 6376SOL    HW220028   3.944   1.617   5.664
 6377SOL     OW20029   6.680   1.374   5.471
 6377SOL    HW120030   6.626   1.300   5.510
 6377SOL    HW220031   6.673   1.373   5.371
 6378SOL     OW20032   4.958   5.657   3.278
 6378SOL    HW120033   4.959   5.574   3.223
 6378SOL    HW220034   5.045   5.704   3.270
 6379SOL     OW20035   0.819   4.907   5.576
 6379SOL    HW120036   0.901   4.941   5.530
 6379SOL    HW220037   0.840   4.887   5.672
 6380SOL     OW20038   0.080   3.075   4.357
 6380SOL    HW120039   0.008   3.073   4.288
 6380SOL    HW220040   0.050   3.023   4.438
 6381SOL     OW20041   4.169   2.933   0.454
 6381SOL    HW120042   4.240   2.980   0.506
 6381SOL    HW220043   4.188   2.942   0.356
 6382SOL     OW20044   3.513   1.731   1.251
 6382SOL    HW120045   3.432   1.730   1.309
 6382SOL    HW220046   3.495   1.787   1.170
 6383SOL     OW20047   1.788   2.317   2.320
 6383SOL    HW120048   1.851   2.239   2.323
 6383SOL    HW220049   1.698   2.288   2.351
 6384SOL     OW20050   5.817   2.917   2.032
 6384SOL    HW120051   5.855   2.957   2.115
 6384SOL    HW220052   5.782   2.990   1.973
 6385SOL     OW20053   6.578   3.861   1.756
 6385SOL    HW120054   6.501   3.806   1.724
 6385SOL    HW220055   6.544   3.946   1.796
 6386SOL     OW20056   2.017   3.504   0.388
 6386SOL    HW120057   2.096   3.556   0.354
 6386SOL    HW220058   2.038   3.466   0.478
 6387SOL     OW20059   5.744   1.317   0.572
 6387SOL    HW120060   5.654   1.273   0.577
 6387SOL    HW220061   5.739   1.393   0.507
 6388SOL     OW20062   5.919   4.868   1.963
 6388SOL    HW120063   5.834   4.913   1.989
 6388SOL    HW220064   5.915   4.772   1.989
 6389SOL     OW20065   1.364   6.625   1.421
 6389SOL    HW120066   1.415   6.594   1.340
 6389SOL    HW220067   1.402   6.580   1.502
 6390SOL     OW20068   6.419   0.284   6.127
 6390SOL    HW120069   6.519   0.283   6.134
 6390SOL    HW220070   6.392   0.309   6.034
 6391SOL     OW20071   1.433   1.421   5.882
 6391SOL    HW120072   1.416   1.456   5.790
 6391SOL    HW220073   1.368   1.464   5.946
 6392SOL     OW20074   3.043   6.111   3.649
 6392SOL    HW120075   3.039   6.164   3.733
 6392SOL    HW220076   3.123   6.051   3.651
 6393SOL     OW20077   5.817   6.112   1.559
 6393SOL    HW120078   5.754   6.065   1.497
 6393SOL    HW220079   5.824   6.061   1.645
 6394SOL     OW20080   1.532   4.902   1.340
 6394SOL    HW120081   1.520   4.884   1.243
 6394SOL    HW220082   1.592   4.833   1.380
 6395SOL     OW20083   0.347   3.110   2.201
 6395SOL    HW120084   0.367   3.017   2.234
 6395SOL    HW220085   0.249   3.128   2.210
 6396SOL     OW20086   6.495   4.139   5.873
 6396SOL    HW120087   6.397   4.119   5.874
 6396SOL    HW220088   6.543   4.071   5.930
 6397SOL     OW20089   6.501   1.280   2.194
 6397SOL    HW120090   6.560   1.276   2.113
 6397SOL    HW220091   6.542   1.225   2.267
 6398SOL     OW20092   1.595   6.852   1.723
 6398SOL    HW120093   1.512   6.844   1.669
 6398SOL    HW220094   1.606   6.771   1.780
 6399SOL     OW20095   1.540   0.102   6.910
 6399SOL    HW120096   1.458   0.075   6.961
 6399SOL    HW220097   1.587   0.021   6.876
 6400SOL     OW20098   1.936   4.892   2.880
 6400SOL    HW120099   1.929   4.798   2.845
 6400SOL    HW220100   2.031   4.911   2.905
 6401SOL     OW20101   5.506   4.877   3.193
 6401SOL    HW120102   5.582   4.849   3.134
 6401SOL    HW220103   5.419   4.853   3.149
 6402SOL     OW20104   1.770   3.161   3.609
 6402SOL    HW120105   1.795   3.257   3.625
 6402SOL    HW220106   1.672   3.155   3.590
 6403SOL     OW20107   5.996   6.428   5.952
 6403SOL    HW120108   5.910   6.459   5.993
 6403SOL    HW220109   6.066   6.498   5.968
 6404SOL     OW20110   4.136   1.637   2.715
 6404SOL    HW120111   4.090   1.584   2.786
 6404SOL    HW220112   4.075   1.649   2.637
 6405SOL     OW20113   4.372   1.439   3.783
 6405SOL    HW120114   4.299   1.414   3.721
 6405SOL    HW220115   4.335   1.455   3.875
 6406SOL     OW20116   1.568   3.225   2.021
 6406SOL    HW120117   1.609   3.239   1.931
 6406SOL    HW220118   1.564   3.312   2.070
 6407SOL     OW20119   2.092   0.090   3.064
 6407SOL    HW120120   2.100   0.096   3.164
 6407SOL    HW220121   2.002   0.123   3.036
 6408SOL     OW20122   6.185   0.560   0.611
 6408SOL    HW120123   6.213   0.465   0.626
 6408SOL    HW220124   6.201   0.585   0.516
 6409SOL     OW20125   0.073   4.688   3.087
 6409SOL    HW120126   0.082   4.699   3.186
 6409SOL    HW220127   0.019   4.764   3.051
 6410SOL     OW20128   2.127   0.943   6.780
 6410SOL    HW120129   2.131   0.854   6.825
 6410SOL    HW220130   2.185   1.008   6.829
 6411SOL     OW20131   1.293   3.155   2.333
 6411SOL    HW120132   1.254   3.063   2.327
 6411SOL    HW220133   1.306   3.192   2.241
 6412SOL     OW20134   2.778   0.694   0.174
 6412SOL    HW120135   2.834   0.762   0.222
 6412SOL    HW220136   2.682   0.709   0.195
 6413SOL     OW20137   3.741   5.003   4.849
 6413SOL    HW120138   3.647   4.971   4.839
 6413SOL    HW220139   3.770   4.991   4.944
 6414SOL     OW20140   6.062   6.375   6.665
 6414SOL    HW120141   6.000   6.298   6.677
 6414SOL    HW220142   6.018   6.458   6.699
 6415SOL     OW20143   1.457   3.364   3.866
 6415SOL    HW120144   1.488   3.276   3.901
 6415SOL    HW220145   1.365   3.355   3.830
 6416SOL     OW20146   2.923   6.962   6.384
 6416SOL    HW120147   2.981   0.009   6.354
 6416SOL    HW220148   2.916   6.962   6.484
 6417SOL     OW20149   5.124   2.676   0.791
 6417SOL    HW120150   5.131   2.585   0.749
 6417SOL    HW220151   5.182   2.679   0.873
 6418SOL     OW20152   5.302   4.285   2.832
 6418SOL    HW120153   5.387   4.327   2.864
 6418SOL    HW220154   5.280   4.206   2.890
 6419SOL     OW20155   0.457   5.299   4.862
 6419SOL    HW120156   0.502   5.340   4.783
 6419SOL    HW220157   0.474   5.355   4.943
 6420SOL     OW20158   1.777   1.620   3.619
 6420SOL    HW120159   1.781   1.565   3.703
 6420SOL    HW220160   1.687   1.610   3.577
 6421SOL     OW20161   4.325   0.330   1.119
 6421SOL    HW120162   4.304   0.427   1.109
 6421SOL    HW220163   4.419   0.313   1.088
 6422SOL     OW20164   6.699   1.418   5.173
 6422SOL    HW120165   6.600   1.430   5.166
 6422SOL    HW220166   6.729   1.351   5.106
 6423SOL     OW20167   4.674   5.602   4.647
 6423SOL    HW120168   4.604   5.531   4.659
 6423SOL    HW220169   4.763   5.558   4.631
 6424SOL     OW20170   1.636   3.703   5.075
 6424SOL    HW120171   1.658   3.790   5.119
 6424SOL    HW220172   1.605   3.638   5.144
 6425SOL     OW20173   6.995   5.542   2.675
 6425SOL    HW120174   0.014   5.622   2.636
 6425SOL    HW220175   0.036   5.476   2.705
 6426SOL     OW20176   5.347   5.325   3.679
 6426SOL    HW120177   5.441   5.354   3.660
 6426SOL    HW220178   5.345   5.272   3.763
 6427SOL     OW20179   3.007   3.746   3.348
 6427SOL    HW120180   3.006   3.828   3.405
 6427SOL    HW220181   3.044   3.769   3.258
 6428SOL     OW20182   5.657   3.367   0.543
 6428SOL    HW120183   5.580   3.325   0.591
 6428SOL    HW220184   5.708   3.296   0.494
 6429SOL     OW20185   1.176   0.525   5.450
 6429SOL    HW120186   1.203   0.467   5.373
 6429SOL    HW220187   1.188   0.622   5.425
 6430SOL     OW20188   6.609   0.935   5.098
 6430SOL    HW120189   6.620   0.990   5.180
 6430SOL    HW220190   6.633   0.840   5.118
 6431SOL     OW20191   4.465   5.422   2.856
 6431SOL    HW120192   4.412   5.507   2.850
 6431SOL    HW220193   4.495   5.408   2.950
 6432SOL     OW20194   3.741   4.359   6.417
 6432SOL    HW120195   3.769   4.427   6.349
 6432SOL    HW220196   3.649   4.381   6.448
 6433SOL     OW20197   3.573   5.100   0.140
 6433SOL    HW120198   3.502   5.119   0.207
 6433SOL    HW220199   3.663   5.111   0.182
 6434SOL     OW20200   2.681   6.606   5.776
 6434SOL    HW120201   2.753   6.546   5.741
 6434SOL    HW220202   2.604   6.605   5.714
 6435SOL     OW20203   6.499   6.942   0.921
 6435SOL    HW120204   6.503   7.024   0.979
 6435SOL    HW220205   6.417   6.890   0.942
 6436SOL     OW20206   1.154   3.551   3.320
 6436SOL    HW120207   1.242   3.551   3.272
 6436SOL    HW220208   1.082   3.521   3.257
 6437SOL     OW20209   1.610   2.564   6.237
 6437SOL    HW120210   1.539   2.494   6.247
 6437SOL    HW220211   1.625   2.608   6.325
 6438SOL     OW20212   1.341   4.942   6.530
 6438SOL    HW120213   1.342   5.038   6.504
 6438SOL    HW220214   1.258   4.923   6.583
 6439SOL     OW20215   5.871   0.795   2.964
 6439SOL    HW120216   5.933   0.799   2.886
 6439SOL    HW220217   5.915   0.836   3.044
 6440SOL     OW20218   2.885   0.684   6.010
 6440SOL    HW120219   2.831   0.693   5.927
 6440SOL    HW220220   2.913   0.589   6.023
 6441SOL     OW20221   0.154   0.998   1.891
 6441SOL    HW120222   0.137   0.903   1.868
 6441SOL    HW220223   0.171   1.007   1.989
 6442SOL     OW20224   2.285   1.801   4.843
 6442SOL    HW120225   2.381   1.824   4.828
 6442SOL    HW220226   2.228   1.852   4.779
 6443SOL     OW20227   3.429   2.263   5.793
 6443SOL    HW120228   3.351   2.320   5.819
 6443SOL    HW220229   3.430   2.251   5.694
 6444SOL     OW20230   6.448   2.760   4.853
 6444SOL    HW120231   6.460   2.808   4.940
 6444SOL    HW220232   6.538   2.744   4.812
 6445SOL     OW20233   3.997   3.562   3.277
 6445SOL    HW120234   3.911   3.514   3.291
 6445SOL    HW220235   4.017   3.620   3.356
 6446SOL     OW20236   0.754   2.206   0.315
 6446SOL    HW120237   0.831   2.241   0.262
 6446SOL    HW220238   0.733   2.271   0.388
 6447SOL     OW20239   6.278   4.321   1.923
 6447SOL    HW120240   6.352   4.335   1.858
 6447SOL    HW220241   6.193   4.301   1.874
 6448SOL     OW20242   5.089   4.935   1.378
 6448SOL    HW120243   5.029   4.907   1.303
 6448SOL    HW220244   5.131   4.855   1.419
 6449SOL     OW20245   2.795   5.069   1.996
 6449SOL    HW120246   2.827   4.975   2.009
 6449SOL    HW220247   2.795   5.118   2.083
 6450SOL     OW20248   1.066   3.922   0.148
 6450SOL    HW120249   1.026   3.953   0.061
 6450SOL    HW220250   1.068   3.822   0.150
 6451SOL     OW20251   2.936   1.684   5.886
 6451SOL    HW120252   3.032   1.689   5.915
 6451SOL    HW220253   2.879   1.669   5.966
 6452SOL     OW20254   4.853   3.697   2.810
 6452SOL    HW120255   4.868   3.601   2.830
 6452SOL    HW220256   4.936   3.737   2.772
 6453SOL     OW20257   2.717   6.970   1.402
 6453SOL    HW120258   2.739   6.879   1.366
 6453SOL    HW220259   2.732   0.011   1.331
 6454SOL     OW20260   0.666   1.316   2.150
 6454SOL    HW120261   0.652   1.272   2.239
 6454SOL    HW220262   0.757   1.358   2.147
 6455SOL     OW20263   6.723   3.562   3.655
 6455SOL    HW120264   6.674   3.475   3.651
 6455SOL    HW220265   6.756   3.586   3.564
 6456SOL     OW20266   1.303   1.020   2.804
 6456SOL    HW120267   1.278   1.114   2.827
 6456SOL    HW220268   1.329   0.971   2.887
 6457SOL     OW20269   4.658   6.280   1.324
 6457SOL    HW120270   4.697   6.348   1.263
 6457SOL    HW220271   4.655   6.317   1.417
 6458SOL     OW20272   1.658   5.247   5.103
 6458SOL    HW120273   1.655   5.201   5.192
 6458SOL    HW220274   1.748   5.288   5.090
 6459SOL     OW20275   6.287   2.512   2.713
 6459SOL    HW120276   6.325   2.596   2.752
 6459SOL    HW220277   6.188   2.521   2.703
 6460SOL     OW20278   5.766   5.986   6.099
 6460SOL    HW120279   5.836   5.917   6.114
 6460SOL    HW220280   5.750   5.995   6.000
 6461SOL     OW20281   2.693   4.481   0.240
 6461SOL    HW120282   2.638   4.517   0.165
 6461SOL    HW220283   2.651   4.397   0.274
 6462SOL     OW20284   0.429   2.949   4.678
 6462SOL    HW120285   0.353   2.981   4.734
 6462SOL    HW220286   0.396   2.924   4.587
 6463SOL     OW20287   4.912   6.746   0.662
 6463SOL    HW120288   4.828   6.705   0.627
 6463SOL    HW220289   4.913   6.740   0.762
 6464SOL     OW20290   1.729   5.897   5.333
 6464SOL    HW120291   1.718   5.996   5.338
 6464SOL    HW220292   1.686   5.855   5.413
 6465SOL     OW20293   6.779   2.620   2.420
 6465SOL    HW120294   6.704   2.617   2.486
 6465SOL    HW220295   6.865   2.598   2.467
 6466SOL     OW20296   6.883   1.851   6.764
 6466SOL    HW120297   6.934   1.887   6.687
 6466SOL    HW220298   6.858   1.925   6.826
 6467SOL     OW20299   3.904   0.444   1.109
 6467SOL    HW120300   3.917   0.483   1.201
 6467SOL    HW220301   3.983   0.389   1.084
 6468SOL     OW20302   3.361   6.420   1.914
 6468SOL    HW120303   3.392   6.452   2.004
 6468SOL    HW220304   3.438   6.382   1.864
 6469SOL     OW20305   3.504   2.106   4.116
 6469SOL    HW120306   3.450   2.062   4.188
 6469SOL    HW220307   3.450   2.111   4.032
 6470SOL     OW20308   6.170   2.232   0.110
 6470SOL    HW120309   6.140   2.320   0.147
 6470SOL    HW220310   6.257   2.206   0.151
 6471SOL     OW20311   1.156   6.183   5.330
 6471SOL    HW120312   1.134   6.263   5.386
 6471SOL    HW220313   1.255   6.174   5.322
 6472SOL     OW20314   6.124   5.525   2.772
 6472SOL    HW120315   6.063   5.600   2.745
 6472SOL    HW220316   6.176   5.495   2.692
 6473SOL     OW20317   2.040   1.780   5.048
 6473SOL    HW120318   2.023   1.879   5.045
 6473SOL    HW220319   2.099   1.754   4.971
 6474SOL     OW20320   3.823   5.460   5.857
 6474SOL    HW120321   3.867   5.386   5.807
 6474SOL    HW220322   3.795   5.532   5.793
 6475SOL     OW20323   5.936   4.974   3.670
 6475SOL    HW120324   5.997   4.894   3.676
 6475SOL    HW220325   5.841   4.943   3.672
 6476SOL     OW20326   4.595   3.147   6.208
 6476SOL    HW120327   4.625   3.200   6.287
 6476SOL    HW220328   4.673   3.124   6.151
 6477SOL     OW20329   6.185   5.332   0.745
 6477SOL    HW120330   6.245   5.402   0.784
 6477SOL    HW220331   6.090   5.363   0.750
 6478SOL     OW20332   3.416   6.731   2.505
 6478SOL    HW120333   3.412   6.785   2.421
 6478SOL    HW220334   3.508   6.696   2.518
 6479SOL     OW20335   3.254   5.118   4.495
 6479SOL    HW120336   3.315   5.119   4.574
 6479SOL    HW220337   3.167   5.076   4.520
 6480SOL     OW20338   2.052   1.540   0.315
 6480SOL    HW120339   2.133   1.554   0.259
 6480SOL    HW220340   2.010   1.452   0.292
 6481SOL     OW20341   3.387   2.496   1.735
 6481SOL    HW120342   3.409   2.404   1.768
 6481SOL    HW220343   3.471   2.550   1.730
 6482SOL     OW20344   6.481   2.600   6.155
 6482SOL    HW120345   6.413   2.664   6.119
 6482SOL    HW220346   6.549   2.580   6.084
 6483SOL     OW20347   0.630   6.292   4.117
 6483SOL    HW120348   0.646   6.283   4.216
 6483SOL    HW220349   0.639   6.388   4.091
 6484SOL     OW20350   2.994   1.352   2.595
 6484SOL    HW120351   3.052   1.280   2.557
 6484SOL    HW220352   2.936   1.389   2.522
 6485SOL     OW20353   1.732   5.964   3.741
 6485SOL    HW120354   1.727   5.956   3.841
 6485SOL    HW220355   1.682   5.888   3.699
 6486SOL     OW20356   0.708   5.340   2.620
 6486SOL    HW120357   0.718   5.311   2.525
 6486SOL    HW220358   0.747   5.271   2.680
 6487SOL     OW20359   1.010   6.436   5.387
 6487SOL    HW120360   0.932   6.384   5.353
 6487SOL    HW220361   0.997   6.533   5.365
 6488SOL     OW20362   4.323   5.839   4.798
 6488SOL    HW120363   4.263   5.909   4.836
 6488SOL    HW220364   4.418   5.870   4.801
 6489SOL     OW20365   3.581   3.513   6.113
 6489SOL    HW120366   3.494   3.550   6.080
 6489SOL    HW220367   3.571   3.414   6.128
 6490SOL     OW20368   3.157   1.364   6.203
 6490SOL    HW120369   3.197   1.380   6.113
 6490SOL    HW220370   3.065   1.403   6.207
 6491SOL     OW20371   2.778   1.152   1.706
 6491SOL    HW120372   2.791   1.250   1.692
 6491SOL    HW220373   2.690   1.125   1.666
 6492SOL     OW20374   4.136   3.357   5.015
 6492SOL    HW120375   4.157   3.303   4.933
 6492SOL    HW220376   4.104   3.448   4.987
 6493SOL     OW20377   1.310   4.547   6.440
 6493SOL    HW120378   1.343   4.598   6.519
 6493SOL    HW220379   1.311   4.449   6.460
 6494SOL     OW20380   6.766   6.607   2.478
 6494SOL    HW120381   6.713   6.645   2.402
 6494SOL    HW220382   6.703   6.575   2.549
 6495SOL     OW20383   6.485   0.555   4.283
 6495SOL    HW120384   6.400   0.502   4.290
 6495SOL    HW220385   6.542   0.538   4.364
 6496SOL     OW20386   5.914   0.000   1.460
 6496SOL    HW120387   5.971   0.082   1.451
 6496SOL    HW220388   5.846   7.027   1.386
 6497SOL     OW20389   1.203   0.203   1.194
 6497SOL    HW120390   1.231   0.134   1.260
 6497SOL    HW220391   1.235   0.293   1.224
 6498SOL     OW20392   0.691   4.028   4.499
 6498SOL    HW120393   0.778   4.034   4.451
 6498SOL    HW220394   0.618   4.064   4.441
 6499SOL     OW20395   5.734   3.755   4.670
 6499SOL    HW120396   5.659   3.736   4.734
 6499SOL    HW220397   5.746   3.854   4.660
 6500SOL     OW20398   0.255   4.021   2.720
 6500SOL    HW120399   0.236   4.002   2.816
 6500SOL    HW220400   0.175   4.000   2.665
 6501SOL     OW20401   0.275   1.115   1.453
 6501SOL    HW120402   0.248   1.174   1.529
 6501SOL    HW220403   0.375   1.107   1.451
 6502SOL     OW20404   6.841   3.747   1.432
 6502SOL    HW120405   6.772   3.787   1.371
 6502SOL    HW220406   6.842   3.796   1.519
 6503SOL     OW20407   5.498   1.016   3.575
 6503SOL    HW120408   5.489   1.024   3.674
 6503SOL    HW220409   5.544   0.930   3.553
 6504SOL     OW20410   3.662   6.318   0.242
 6504SOL    HW120411   3.603   6.310   0.163
 6504SOL    HW220412   3.633   6.395   0.299
 6505SOL     OW20413   4.311   6.262   6.152
 6505SOL    HW120414   4.222   6.289   6.188
 6505SOL    HW220415   4.336   6.321   6.076
 6506SOL     OW20416   0.047   2.904   3.625
 6506SOL    HW120417   0.111   2.959   3.678
 6506SOL    HW220418   0.094   2.823   3.590
 6507SOL     OW20419   2.961   5.640   6.123
 6507SOL    HW120420   2.919   5.664   6.035
 6507SOL    HW220421   2.892   5.601   6.183
 6508SOL     OW20422   1.849   0.492   2.493
 6508SOL    HW120423   1.784   0.430   2.450
 6508SOL    HW220424   1.933   0.494   2.438
 6509SOL     OW20425   4.797   1.524   4.987
 6509SOL    HW120426   4.723   1.591   4.994
 6509SOL    HW220427   4.883   1.571   4.967
 6510SOL     OW20428   4.946   5.274   6.375
 6510SOL    HW120429   4.903   5.340   6.438
 6510SOL    HW220430   4.935   5.182   6.411
 6511SOL     OW20431   4.301   1.177   5.145
 6511SOL    HW120432   4.330   1.098   5.090
 6511SOL    HW220433   4.206   1.199   5.124
 6512SOL     OW20434   3.263   6.872   2.658
 6512SOL    HW120435   3.187   6.824   2.701
 6512SOL    HW220436   3.309   6.812   2.594
 6513SOL     OW20437   2.114   6.102   3.981
 6513SOL    HW120438   2.071   6.150   4.057
 6513SOL    HW220439   2.205   6.140   3.965
 6514SOL     OW20440   5.958   0.807   4.394
 6514SOL    HW120441   6.054   0.792   4.372
 6514SOL    HW220442   5.948   0.818   4.493
 6515SOL     OW20443   1.415   3.657   2.575
 6515SOL    HW120444   1.346   3.586   2.558
 6515SOL    HW220445   1.422   3.715   2.494
 6516SOL     OW20446   6.788   3.273   1.294
 6516SOL    HW120447   6.781   3.341   1.367
 6516SOL    HW220448   6.753   3.312   1.209
 6517SOL     OW20449   0.232   1.901   1.268
 6517SOL    HW120450   0.202   1.980   1.213
 6517SOL    HW220451   0.154   1.865   1.320
 6518SOL     OW20452   0.238   0.443   2.192
 6518SOL    HW120453   0.141   0.464   2.196
 6518SOL    HW220454   0.284   0.477   2.274
 6519SOL     OW20455   0.287   1.910   2.832
 6519SOL    HW120456   0.343   1.848   2.887
 6519SOL    HW220457   0.343   1.950   2.760
 6520SOL     OW20458   6.772   5.583   6.729
 6520SOL    HW120459   6.786   5.666   6.783
 6520SOL    HW220460   6.680   5.583   6.691
 6521SOL     OW20461   2.238   2.812   3.847
 6521SOL    HW120462   2.204   2.862   3.926
 6521SOL    HW220463   2.193   2.722   3.842
 6522SOL     OW20464   2.353   4.647   5.427
 6522SOL    HW120465   2.294   4.671   5.350
 6522SOL    HW220466   2.299   4.644   5.511
 6523SOL     OW20467   3.769   0.754   6.725
 6523SOL    HW120468   3.695   0.822   6.727
 6523SOL    HW220469   3.734   0.669   6.685
 6524SOL     OW20470   2.823   2.612   1.471
 6524SOL    HW120471   2.793   2.615   1.376
 6524SOL    HW220472   2.905   2.668   1.481
 6525SOL     OW20473   2.165   5.220   3.192
 6525SOL    HW120474   2.128   5.256   3.107
 6525SOL    HW220475   2.091   5.207   3.258
 6526SOL     OW20476   0.767   0.536   1.298
 6526SOL    HW120477   0.771   0.492   1.387
 6526SOL    HW220478   0.764   0.466   1.226
 6527SOL     OW20479   6.729   2.134   0.231
 6527SOL    HW120480   6.705   2.142   0.134
 6527SOL    HW220481   6.810   2.076   0.239
 6528SOL     OW20482   6.466   1.702   5.254
 6528SOL    HW120483   6.383   1.704   5.309
 6528SOL    HW220484   6.546   1.693   5.313
 6529SOL     OW20485   1.121   0.864   2.437
 6529SOL    HW120486   1.192   0.840   2.503
 6529SOL    HW220487   1.039   0.810   2.455
 6530SOL     OW20488   0.306   1.557   0.853
 6530SOL    HW120489   0.337   1.599   0.938
 6530SOL    HW220490   0.254   1.624   0.800
 6531SOL     OW20491   5.021   3.518   5.144
 6531SOL    HW120492   4.961   3.560   5.076
 6531SOL    HW220493   5.044   3.585   5.215
 6532SOL     OW20494   2.092   1.312   1.188
 6532SOL    HW120495   2.125   1.393   1.235
 6532SOL    HW220496   2.018   1.337   1.126
 6533SOL     OW20497   3.907   5.834   0.437
 6533SOL    HW120498   3.916   5.738   0.462
 6533SOL    HW220499   3.894   5.842   0.338
 6534SOL     OW20500   4.918   5.282   1.745
 6534SOL    HW120501   4.917   5.237   1.657
 6534SOL    HW220502   4.832   5.331   1.760
 6535SOL     OW20503   6.299   4.663   4.525
 6535SOL    HW120504   6.256   4.702   4.444
 6535SOL    HW220505   6.230   4.645   4.595
 6536SOL     OW20506   0.605   1.800   5.181
 6536SOL    HW120507   0.619   1.899   5.178
 6536SOL    HW220508   0.645   1.763   5.265
 6537SOL     OW20509   6.644   4.500   5.037
 6537SOL    HW120510   6.623   4.451   4.953
 6537SOL    HW220511   6.577   4.477   5.107
 6538SOL     OW20512   1.242   3.600   5.685
 6538SOL    HW120513   1.150   3.586   5.721
 6538SOL    HW220514   1.302   3.631   5.758
 6539SOL     OW20515   4.654   0.687   6.759
 6539SOL    HW120516   4.662   0.730   6.849
 6539SOL    HW220517   4.579   0.621   6.760
 6540SOL     OW20518   3.681   2.654   6.259
 6540SOL    HW120519   3.656   2.741   6.301
 6540SOL    HW220520   3.598   2.601   6.240
 6541SOL     OW20521   5.641   2.139   6.170
 6541SOL    HW120522   5.573   2.210   6.153
 6541SOL    HW220523   5.733   2.177   6.160
 6542SOL     OW20524   1.191   3.331   4.119
 6542SOL    HW120525   1.211   3.411   4.176
 6542SOL    HW220526   1.261   3.262   4.132
 6543SOL     OW20527   4.018   2.691   5.651
 6543SOL    HW120528   4.073   2.709   5.569
 6543SOL    HW220529   3.921   2.697   5.628
 6544SOL     OW20530   0.900   6.479   2.959
 6544SOL    HW120531   0.880   6.407   2.893
 6544SOL    HW220532   0.997   6.501   2.956
 6545SOL     OW20533   3.870   0.587   0.205
 6545SOL    HW120534   3.786   0.589   0.150
 6545SOL    HW220535   3.949   0.602   0.145
 6546SOL     OW20536   3.786   4.154   6.210
 6546SOL    HW120537   3.795   4.214   6.288
 6546SOL    HW220538   3.689   4.141   6.187
 6547SOL     OW20539   4.859   0.763   6.471
 6547SOL    HW120540   4.881   0.749   6.374
 6547SOL    HW220541   4.805   0.685   6.504
 6548SOL     OW20542   1.574   2.783   0.557
 6548SOL    HW120543   1.505   2.806   0.626
 6548SOL    HW220544   1.536   2.717   0.492
 6549SOL     OW20545   4.554   0.329   2.474
 6549SOL    HW120546   4.531   0.313   2.570
 6549SOL    HW220547   4.472   0.355   2.424
 6550SOL     OW20548   0.598   6.503   3.901
 6550SOL    HW120549   0.680   6.545   3.862
 6550SOL    HW220550   0.517   6.542   3.858
 6551SOL     OW20551   2.302   3.590   1.655
 6551SOL    HW120552   2.227   3.528   1.631
 6551SOL    HW220553   2.336   3.567   1.746
 6552SOL     OW20554   2.267   6.630   0.706
 6552SOL    HW120555   2.232   6.539   0.730
 6552SOL    HW220556   2.193   6.696   0.711
 6553SOL     OW20557   0.862   2.339   3.072
 6553SOL    HW120558   0.846   2.251   3.116
 6553SOL    HW220559   0.777   2.372   3.031
 6554SOL     OW20560   2.060   0.545   4.427
 6554SOL    HW120561   2.097   0.524   4.518
 6554SOL    HW220562   1.971   0.590   4.438
 6555SOL     OW20563   5.985   2.115   3.674
 6555SOL    HW120564   6.036   2.086   3.755
 6555SOL    HW220565   6.047   2.159   3.609
 6556SOL     OW20566   6.157   3.278   3.033
 6556SOL    HW120567   6.085   3.343   3.008
 6556SOL    HW220568   6.235   3.288   2.972
 6557SOL     OW20569   2.482   0.887   3.430
 6557SOL    HW120570   2.476   0.799   3.382
 6557SOL    HW220571   2.416   0.888   3.505
 6558SOL     OW20572   6.066   5.931   0.407
 6558SOL    HW120573   6.041   5.860   0.473
 6558SOL    HW220574   6.047   5.898   0.315
 6559SOL     OW20575   0.105   4.343   6.534
 6559SOL    HW120576   0.048   4.275   6.487
 6559SOL    HW220577   0.046   4.405   6.586
 6560SOL     OW20578   3.558   4.651   1.315
 6560SOL    HW120579   3.620   4.644   1.394
 6560SOL    HW220580   3.575   4.736   1.267
 6561SOL     OW20581   3.193   4.351   1.186
 6561SOL    HW120582   3.284   4.372   1.223
 6561SOL    HW220583   3.123   4.382   1.251
 6562SOL     OW20584   5.757   2.205   0.764
 6562SOL    HW120585   5.709   2.201   0.676
 6562SOL    HW220586   5.703   2.257   0.829
 6563SOL     OW20587   5.336   6.123   5.761
 6563SOL    HW120588   5.273   6.174   5.820
 6563SOL    HW220589   5.413   6.182   5.736
 6564SOL     OW20590   6.505   3.426   1.626
 6564SOL    HW120591   6.593   3.386   1.601
 6564SOL    HW220592   6.431   3.367   1.596
 6565SOL     OW20593   6.255   6.947   2.856
 6565SOL    HW120594   6.310   6.952   2.939
 6565SOL    HW220595   6.165   6.986   2.874
 6566SOL     OW20596   3.509   6.318   2.859
 6566SOL    HW120597   3.544   6.232   2.896
 6566SOL    HW220598   3.422   6.340   2.904
 6567SOL     OW20599   5.073   1.048   2.112
 6567SOL    HW120600   5.165   1.048   2.073
 6567SOL    HW220601   5.064   0.971   2.175
 6568SOL     OW20602   3.655   1.847   3.566
 6568SOL    HW120603   3.571   1.839   3.620
 6568SOL    HW220604   3.698   1.936   3.585
 6569SOL     OW20605   2.198   2.463   6.682
 6569SOL    HW120606   2.213   2.435   6.777
 6569SOL    HW220607   2.146   2.548   6.680
 6570SOL     OW20608   3.045   1.092   2.422
 6570SOL    HW120609   3.105   1.047   2.489
 6570SOL    HW220610   3.101   1.131   2.349
 6571SOL     OW20611   2.849   4.961   2.444
 6571SOL    HW120612   2.911   5.028   2.402
 6571SOL    HW220613   2.794   5.005   2.515
 6572SOL     OW20614   0.233   4.518   4.260
 6572SOL    HW120615   0.308   4.549   4.202
 6572SOL    HW220616   0.152   4.503   4.204
 6573SOL     OW20617   0.748   1.923   2.788
 6573SOL    HW120618   0.826   1.959   2.840
 6573SOL    HW220619   0.767   1.830   2.759
 6574SOL     OW20620   2.495   5.628   2.869
 6574SOL    HW120621   2.438   5.699   2.912
 6574SOL    HW220622   2.462   5.610   2.777
 6575SOL     OW20623   0.274   6.508   3.238
 6575SOL    HW120624   0.276   6.604   3.209
 6575SOL    HW220625   0.180   6.476   3.241
 6576SOL     OW20626   2.992   6.083   0.985
 6576SOL    HW120627   2.976   6.179   0.961
 6576SOL    HW220628   2.969   6.069   1.082
 6577SOL     OW20629   1.611   1.834   3.332
 6577SOL    HW120630   1.554   1.915   3.347
 6577SOL    HW220631   1.708   1.861   3.335
 6578SOL     OW20632   0.934   6.436   1.969
 6578SOL    HW120633   0.937   6.420   1.870
 6578SOL    HW220634   0.856   6.386   2.008
 6579SOL     OW20635   6.561   3.066   3.968
 6579SOL    HW120636   6.559   3.066   4.068
 6579SOL    HW220637   6.468   3.080   3.934
 6580SOL     OW20638   0.691   1.915   0.311
 6580SOL    HW120639   0.721   2.010   0.305
 6580SOL    HW220640   0.616   1.900   0.246
 6581SOL     OW20641   2.134   0.807   0.888
 6581SOL    HW120642   2.181   0.728   0.849
 6581SOL    HW220643   2.139   0.884   0.824
 6582SOL     OW20644   0.112   1.148   2.996
 6582SOL    HW120645   0.085   1.191   2.910
 6582SOL    HW220646   0.071   1.057   3.002
 6583SOL     OW20647   4.574   6.082   5.201
 6583SOL    HW120648   4.511   6.021   5.249
 6583SOL    HW220649   4.661   6.036   5.185
 6584SOL     OW20650   4.312   1.787   0.076
 6584SOL    HW120651   4.261   1.765   0.159
 6584SOL    HW220652   4.251   1.828   0.008
 6585SOL     OW20653   5.974   6.055   6.908
 6585SOL    HW120654   5.919   5.978   6.875
 6585SOL    HW220655   5.945   6.139   6.860
 6586SOL     OW20656   6.168   1.821   5.650
 6586SOL    HW120657   6.175   1.920   5.665
 6586SOL    HW220658   6.199   1.798   5.558
 6587SOL     OW20659   1.371   4.679   6.682
 6587SOL    HW120660   1.467   4.705   6.675
 6587SOL    HW220661   1.317   4.760   6.707
 6588SOL     OW20662   0.667   2.655   1.720
 6588SOL    HW120663   0.752   2.705   1.702
 6588SOL    HW220664   0.602   2.716   1.766
 6589SOL     OW20665   4.708   0.812   2.220
 6589SOL    HW120666   4.697   0.859   2.308
 6589SOL    HW220667   4.727   0.879   2.149
 6590SOL     OW20668   0.898   0.927   6.384
 6590SOL    HW120669   0.973   0.882   6.335
 6590SOL    HW220670   0.827   0.860   6.404
 6591SOL     OW20671   5.197   6.017   3.890
 6591SOL    HW120672   5.130   5.944   3.877
 6591SOL    HW220673   5.288   5.977   3.900
 6592SOL     OW20674   5.202   5.998   2.951
 6592SOL    HW120675   5.236   6.091   2.938
 6592SOL    HW220676   5.105   5.994   2.928
 6593SOL     OW20677   2.460   2.446   2.238
 6593SOL    HW120678   2.502   2.366   2.281
 6593SOL    HW220679   2.484   2.449   2.141
 6594SOL     OW20680   3.645   1.316   5.610
 6594SOL    HW120681   3.691   1.350   5.528
 6594SOL    HW220682   3.575   1.382   5.639
 6595SOL     OW20683   1.076   3.983   6.237
 6595SOL    HW120684   1.156   3.966   6.180
 6595SOL    HW220685   1.032   3.896   6.259
 6596SOL     OW20686   3.674   7.022   4.228
 6596SOL    HW120687   3.641   0.088   4.217
 6596SOL    HW220688   3.706   6.987   4.140
 6597SOL     OW20689   1.419   5.140   1.869
 6597SOL    HW120690   1.325   5.121   1.839
 6597SOL    HW220691   1.483   5.097   1.806
 6598SOL     OW20692   1.937   4.808   3.401
 6598SOL    HW120693   1.867   4.787   3.469
 6598SOL    HW220694   1.956   4.906   3.403
 6599SOL     OW20695   4.468   6.230   6.613
 6599SOL    HW120696   4.404   6.176   6.668
 6599SOL    HW220697   4.489   6.180   6.528
 6600SOL     OW20698   3.875   6.339   4.705
 6600SOL    HW120699   3.882   6.410   4.635
 6600SOL    HW220700   3.928   6.365   4.785
 6601SOL     OW20701   0.983   2.242   3.951
 6601SOL    HW120702   1.027   2.204   4.032
 6601SOL    HW220703   0.909   2.182   3.921
 6602SOL     OW20704   1.611   0.408   1.207
 6602SOL    HW120705   1.643   0.373   1.295
 6602SOL    HW220706   1.687   0.410   1.143
 6603SOL     OW20707   0.855   3.183   3.543
 6603SOL    HW120708   0.902   3.269   3.527
 6603SOL    HW220709   0.765   3.185   3.500
 6604SOL     OW20710   2.052   6.202   1.579
 6604SOL    HW120711   2.134   6.173   1.530
 6604SOL    HW220712   2.041   6.301   1.571
 6605SOL     OW20713   5.404   5.078   2.148
 6605SOL    HW120714   5.337   5.146   2.119
 6605SOL    HW220715   5.428   5.095   2.244
 6606SOL     OW20716   6.680   5.286   2.386
 6606SOL    HW120717   6.740   5.207   2.369
 6606SOL    HW220718   6.733   5.370   2.377
 6607SOL     OW20719   0.840   4.568   3.373
 6607SOL    HW120720   0.933   4.530   3.370
 6607SOL    HW220721   0.844   4.668   3.366
 6608SOL     OW20722   0.079   6.444   6.892
 6608SOL    HW120723   0.114   6.527   6.848
 6608SOL    HW220724   0.033   6.469   6.977
 6609SOL     OW20725   5.674   1.350   0.069
 6609SOL    HW120726   5.739   1.290   0.022
 6609SOL    HW220727   5.722   1.426   0.111
 6610SOL     OW20728   2.476   6.634   0.306
 6610SOL    HW120729   2.552   6.666   0.249
 6610SOL    HW220730   2.512   6.597   0.391
 6611SOL     OW20731   4.707   2.754   3.215
 6611SOL    HW120732   4.703   2.739   3.117
 6611SOL    HW220733   4.800   2.739   3.248
 6612SOL     OW20734   6.724   2.378   6.440
 6612SOL    HW120735   6.742   2.310   6.369
 6612SOL    HW220736   6.663   2.338   6.509
 6613SOL     OW20737   6.397   6.545   5.500
 6613SOL    HW120738   6.449   6.574   5.419
 6613SOL    HW220739   6.442   6.580   5.582
 6614SOL     OW20740   4.571   6.403   6.978
 6614SOL    HW120741   4.518   6.344   0.012
 6614SOL    HW220742   4.571   6.496   7.014
 6615SOL     OW20743   1.344   5.554   1.702
 6615SOL    HW120744   1.327   5.630   1.764
 6615SOL    HW220745   1.263   5.495   1.699
 6616SOL     OW20746   4.477   0.136   6.467
 6616SOL    HW120747   4.484   0.190   6.383
 6616SOL    HW220748   4.391   0.085   6.467
 6617SOL     OW20749   4.423   6.137   3.445
 6617SOL    HW120750   4.453   6.183   3.528
 6617SOL    HW220751   4.469   6.049   3.436
 6618SOL     OW20752   1.758   1.635   2.578
 6618SOL    HW120753   1.738   1.560   2.641
 6618SOL    HW220754   1.787   1.715   2.630
 6619SOL     OW20755   5.091   0.347   4.174
 6619SOL    HW120756   5.117   0.261   4.218
 6619SOL    HW220757   5.107   0.423   4.238
 6620SOL     OW20758   2.109   3.370   5.275
 6620SOL    HW120759   2.095   3.359   5.177
 6620SOL    HW220760   2.168   3.297   5.309
 6621SOL     OW20761   3.865   3.070   5.433
 6621SOL    HW120762   3.811   2.992   5.465
 6621SOL    HW220763   3.808   3.152   5.431
 6622SOL     OW20764   5.968   6.077   2.351
 6622SOL    HW120765   5.930   6.020   2.278
 6622SOL    HW220766   6.007   6.160   2.312
 6623SOL     OW20767   4.038   3.565   5.399
 6623SOL    HW120768   4.013   3.653   5.441
 6623SOL    HW220769   4.059   3.580   5.302
 6624SOL     OW20770   0.902   4.308   5.337
 6624SOL    HW120771   0.948   4.268   5.258
 6624SOL    HW220772   0.805   4.284   5.335
 6625SOL     OW20773   5.181   1.587   4.781
 6625SOL    HW120774   5.124   1.573   4.700
 6625SOL    HW220775   5.277   1.596   4.754
 6626SOL     OW20776   3.019   6.868   5.731
 6626SOL    HW120777   3.067   6.912   5.655
 6626SOL    HW220778   3.082   6.853   5.807
 6627SOL     OW20779   1.806   6.608   3.754
 6627SOL    HW120780   1.855   6.615   3.667
 6627SOL    HW220781   1.837   6.527   3.803
 6628SOL     OW20782   5.788   5.032   4.673
 6628SOL    HW120783   5.724   4.959   4.650
 6628SOL    HW220784   5.849   5.049   4.595
 6629SOL     OW20785   5.026   5.922   6.250
 6629SOL    HW120786   5.030   5.824   6.271
 6629SOL    HW220787   4.946   5.941   6.193
 6630SOL     OW20788   3.758   1.971   1.374
 6630SOL    HW120789   3.805   2.044   1.425
 6630SOL    HW220790   3.666   1.959   1.412
 6631SOL     OW20791   2.431   5.986   4.253
 6631SOL    HW120792   2.434   5.896   4.296
 6631SOL    HW220793   2.336   6.011   4.235
 6632SOL     OW20794   0.739   0.738   1.025
 6632SOL    HW120795   0.766   0.831   1.051
 6632SOL    HW220796   0.820   0.679   1.026
 6633SOL     OW20797   2.107   5.471   6.311
 6633SOL    HW120798   2.026   5.500   6.260
 6633SOL    HW220799   2.156   5.402   6.259
 6634SOL     OW20800   5.564   1.750   5.243
 6634SOL    HW120801   5.494   1.689   5.280
 6634SOL    HW220802   5.609   1.707   5.165
 6635SOL     OW20803   5.095   4.630   4.007
 6635SOL    HW120804   5.152   4.686   3.947
 6635SOL    HW220805   5.034   4.688   4.060
 6636SOL     OW20806   4.539   1.909   0.449
 6636SOL    HW120807   4.519   2.007   0.446
 6636SOL    HW220808   4.534   1.877   0.544
 6637SOL     OW20809   1.658   6.876   6.854
 6637SOL    HW120810   1.596   6.800   6.838
 6637SOL    HW220811   1.735   6.845   6.911
 6638SOL     OW20812   2.927   3.504   3.264
 6638SOL    HW120813   2.883   3.527   3.176
 6638SOL    HW220814   2.959   3.587   3.308
 6639SOL     OW20815   4.192   4.170   0.154
 6639SOL    HW120816   4.151   4.086   0.187
 6639SOL    HW220817   4.278   4.149   0.106
 6640SOL     OW20818   0.231   1.868   5.299
 6640SOL    HW120819   0.146   1.826   5.332
 6640SOL    HW220820   0.256   1.827   5.212
 6641SOL     OW20821   3.237   1.827   6.839
 6641SOL    HW120822   3.240   1.728   6.824
 6641SOL    HW220823   3.313   1.855   6.897
 6642SOL     OW20824   2.989   5.943   6.382
 6642SOL    HW120825   3.058   5.891   6.331
 6642SOL    HW220826   2.898   5.916   6.352
 6643SOL     OW20827   5.683   6.616   0.025
 6643SOL    HW120828   5.618   6.653   6.985
 6643SOL    HW220829   5.745   6.553   7.007
 6644SOL     OW20830   2.355   5.696   2.148
 6644SOL    HW120831   2.445   5.700   2.191
 6644SOL    HW220832   2.360   5.733   2.056
 6645SOL     OW20833   5.225   3.719   0.864
 6645SOL    HW120834   5.183   3.681   0.947
 6645SOL    HW220835   5.199   3.663   0.785
 6646SOL     OW20836   5.048   1.514   5.213
 6646SOL    HW120837   5.050   1.582   5.140
 6646SOL    HW220838   5.063   1.423   5.175
 6647SOL     OW20839   4.590   7.003   0.000
 6647SOL    HW120840   4.502   6.964   0.028
 6647SOL    HW220841   4.641   0.004   0.082
 6648SOL     OW20842   3.052   6.803   4.674
 6648SOL    HW120843   3.021   6.710   4.696
 6648SOL    HW220844   3.065   6.854   4.759
 6649SOL     OW20845   5.911   1.871   5.971
 6649SOL    HW120846   6.006   1.849   5.948
 6649SOL    HW220847   5.852   1.797   5.940
 6650SOL     OW20848   3.597   1.623   4.962
 6650SOL    HW120849   3.620   1.713   4.926
 6650SOL    HW220850   3.500   1.620   4.988
 6651SOL     OW20851   1.686   1.341   5.770
 6651SOL    HW120852   1.705   1.245   5.790
 6651SOL    HW220853   1.603   1.370   5.819
 6652SOL     OW20854   0.171   4.729   6.529
 6652SOL    HW120855   0.252   4.781   6.500
 6652SOL    HW220856   0.141   4.669   6.456
 6653SOL     OW20857   4.473   2.880   1.353
 6653SOL    HW120858   4.430   2.967   1.331
 6653SOL    HW220859   4.564   2.896   1.391
 6654SOL     OW20860   1.676   5.476   2.090
 6654SOL    HW120861   1.702   5.466   2.186
 6654SOL    HW220862   1.720   5.557   2.052
 6655SOL     OW20863   6.638   6.305   2.889
 6655SOL    HW120864   6.587   6.223   2.915
 6655SOL    HW220865   6.697   6.284   2.812
 6656SOL     OW20866   6.049   1.900   2.969
 6656SOL    HW120867   6.146   1.924   2.971
 6656SOL    HW220868   5.995   1.980   2.943
 6657SOL     OW20869   6.261   3.493   4.915
 6657SOL    HW120870   6.352   3.458   4.938
 6657SOL    HW220871   6.230   3.555   4.987
 6658SOL     OW20872   5.281   0.056   5.553
 6658SOL    HW120873   5.218   0.110   5.499
 6658SOL    HW220874   5.238   6.996   5.577
 6659SOL     OW20875   1.983   2.675   1.382
 6659SOL    HW120876   1.890   2.713   1.392
 6659SOL    HW220877   2.004   2.620   1.463
 6660SOL     OW20878   1.194   5.163   1.581
 6660SOL    HW120879   1.132   5.224   1.629
 6660SOL    HW220880   1.287   5.198   1.587
 6661SOL     OW20881   2.364   0.226   5.205
 6661SOL    HW120882   2.391   0.268   5.118
 6661SOL    HW220883   2.415   0.141   5.218
 6662SOL     OW20884   1.209   1.283   0.411
 6662SOL    HW120885   1.227   1.188   0.437
 6662SOL    HW220886   1.155   1.284   0.327
 6663SOL     OW20887   6.662   6.545   4.859
 6663SOL    HW120888   6.618   6.455   4.859
 6663SOL    HW220889   6.761   6.534   4.860
 6664SOL     OW20890   2.028   6.745   0.732
 6664SOL    HW120891   2.004   6.839   0.757
 6664SOL    HW220892   1.955   6.683   0.762
 6665SOL     OW20893   1.823   6.806   4.737
 6665SOL    HW120894   1.826   6.843   4.644
 6665SOL    HW220895   1.858   6.712   4.736
 6666SOL     OW20896   6.527   6.002   5.542
 6666SOL    HW120897   6.457   5.951   5.492
 6666SOL    HW220898   6.555   5.950   5.622
 6667SOL     OW20899   6.920   6.672   5.454
 6667SOL    HW120900   6.856   6.613   5.503
 6667SOL    HW220901   7.014   6.650   5.480
 6668SOL     OW20902   6.539   6.221   1.037
 6668SOL    HW120903   6.516   6.173   1.122
 6668SOL    HW220904   6.591   6.303   1.059
 6669SOL     OW20905   3.138   2.161   2.031
 6669SOL    HW120906   3.177   2.160   2.123
 6669SOL    HW220907   3.063   2.226   2.027
 6670SOL     OW20908   3.084   1.174   5.769
 6670SOL    HW120909   3.177   1.169   5.732
 6670SOL    HW220910   3.063   1.089   5.818
 6671SOL     OW20911   5.011   6.874   0.181
 6671SOL    HW120912   5.076   6.856   0.254
 6671SOL    HW220913   4.956   6.792   0.164
 6672SOL     OW20914   6.520   1.925   0.576
 6672SOL    HW120915   6.423   1.948   0.586
 6672SOL    HW220916   6.542   1.849   0.637
 6673SOL     OW20917   4.739   4.216   3.657
 6673SOL    HW120918   4.741   4.205   3.756
 6673SOL    HW220919   4.713   4.129   3.615
 6674SOL     OW20920   6.981   4.227   0.408
 6674SOL    HW120921   0.000   4.284   0.475
 6674SOL    HW220922   7.005   4.258   0.316
 6675SOL     OW20923   6.412   2.993   0.098
 6675SOL    HW120924   6.346   3.062   0.125
 6675SOL    HW220925   6.433   2.934   0.176
 6676SOL     OW20926   0.522   3.638   4.989
 6676SOL    HW120927   0.560   3.545   4.982
 6676SOL    HW220928   0.529   3.669   5.084
 6677SOL     OW20929   0.595   1.509   6.579
 6677SOL    HW120930   0.619   1.472   6.489
 6677SOL    HW220931   0.649   1.591   6.597
 6678SOL     OW20932   3.169   4.004   0.460
 6678SOL    HW120933   3.174   3.981   0.363
 6678SOL    HW220934   3.213   4.092   0.476
 6679SOL     OW20935   3.885   0.266   4.004
 6679SOL    HW120936   3.854   0.320   3.926
 6679SOL    HW220937   3.920   0.327   4.075
 6680SOL     OW20938   4.465   6.621   6.389
 6680SOL    HW120939   4.457   6.624   6.489
 6680SOL    HW220940   4.391   6.565   6.351
 6681SOL     OW20941   4.777   5.878   0.477
 6681SOL    HW120942   4.863   5.928   0.484
 6681SOL    HW220943   4.702   5.943   0.462
 6682SOL     OW20944   2.113   5.003   0.196
 6682SOL    HW120945   2.150   5.006   0.289
 6682SOL    HW220946   2.181   5.039   0.132
 6683SOL     OW20947   5.928   3.297   5.313
 6683SOL    HW120948   5.949   3.285   5.410
 6683SOL    HW220949   5.834   3.267   5.295
 6684SOL     OW20950   3.654   6.634   2.571
 6684SOL    HW120951   3.704   6.588   2.644
 6684SOL    HW220952   3.646   6.573   2.492
 6685SOL     OW20953   4.428   2.945   6.273
 6685SOL    HW120954   4.330   2.952   6.251
 6685SOL    HW220955   4.477   3.020   6.228
 6686SOL     OW20956   5.466   5.661   3.958
 6686SOL    HW120957   5.376   5.624   3.983
 6686SOL    HW220958   5.529   5.652   4.035
 6687SOL     OW20959   0.860   3.275   2.233
 6687SOL    HW120960   0.915   3.302   2.154
 6687SOL    HW220961   0.764   3.275   2.208
 6688SOL     OW20962   3.972   4.788   1.232
 6688SOL    HW120963   3.986   4.689   1.221
 6688SOL    HW220964   3.982   4.813   1.328
 6689SOL     OW20965   4.983   4.202   5.850
 6689SOL    HW120966   4.954   4.123   5.902
 6689SOL    HW220967   4.931   4.283   5.879
 6690SOL     OW20968   0.644   0.006   0.799
 6690SOL    HW120969   0.568   7.024   0.863
 6690SOL    HW220970   0.728   0.025   0.850
 6691SOL     OW20971   2.060   0.524   2.355
 6691SOL    HW120972   2.157   0.536   2.375
 6691SOL    HW220973   2.048   0.453   2.285
 6692SOL     OW20974   3.997   3.932   3.403
 6692SOL    HW120975   4.031   3.859   3.462
 6692SOL    HW220976   4.059   4.011   3.410
 6693SOL     OW20977   4.319   2.207   4.998
 6693SOL    HW120978   4.243   2.144   4.981
 6693SOL    HW220979   4.284   2.300   5.006
 6694SOL     OW20980   4.180   5.991   1.574
 6694SOL    HW120981   4.264   6.042   1.553
 6694SOL    HW220982   4.108   6.056   1.599
 6695SOL     OW20983   3.035   2.568   6.292
 6695SOL    HW120984   2.970   2.501   6.255
 6695SOL    HW220985   3.030   2.652   6.237
 6696SOL     OW20986   3.789   2.894   4.190
 6696SOL    HW120987   3.733   2.907   4.108
 6696SOL    HW220988   3.885   2.913   4.168
 6697SOL     OW20989   5.022   1.872   2.938
 6697SOL    HW120990   5.100   1.864   2.876
 6697SOL    HW220991   5.049   1.928   3.017
 6698SOL     OW20992   2.985   2.863   0.967
 6698SOL    HW120993   3.001   2.851   1.065
 6698SOL    HW220994   2.941   2.780   0.931
 6699SOL     OW20995   2.102   6.570   5.517
 6699SOL    HW120996   2.176   6.521   5.563
 6699SOL    HW220997   2.124   6.668   5.513
 6700SOL     OW20998   6.979   1.686   1.171
 6700SOL    HW120999   6.961   1.722   1.080
 6700SOL    HW221000   6.897   1.693   1.227
 6701SOL     OW21001   5.080   5.357   1.192
 6701SOL    HW121002   5.138   5.425   1.146
 6701SOL    HW221003   5.030   5.304   1.123
 6702SOL     OW21004   2.036   2.313   1.441
 6702SOL    HW121005   1.978   2.294   1.520
 6702SOL    HW221006   2.097   2.389   1.462
 6703SOL     OW21007   6.498   0.131   0.730
 6703SOL    HW121008   6.561   0.191   0.780
 6703SOL    HW221009   6.490   0.044   0.779
 6704SOL     OW21010   3.931   2.176   3.464
 6704SOL    HW121011   3.957   2.079   3.468
 6704SOL    HW221012   3.991   2.223   3.399
 6705SOL     OW21013   5.828   2.883   0.311
 6705SOL    HW121014   5.862   2.953   0.248
 6705SOL    HW221015   5.848   2.792   0.274
 6706SOL     OW21016   0.630   5.924   1.067
 6706SOL    HW121017   0.697   5.996   1.045
 6706SOL    HW221018   0.546   5.966   1.099
 6707SOL     OW21019   5.682   6.493   3.428
 6707SOL    HW121020   5.699   6.488   3.527
 6707SOL    HW221021   5.671   6.589   3.402
 6708SOL     OW21022   5.607   5.268   1.128
 6708SOL    HW121023   5.660   5.271   1.213
 6708SOL    HW221024   5.583   5.173   1.108
 6709SOL     OW21025   1.339   5.833   3.029
 6709SOL    HW121026   1.314   5.928   3.047
 6709SOL    HW221027   1.312   5.809   2.935
 6710SOL     OW21028   3.376   0.938   6.256
 6710SOL    HW121029   3.332   0.986   6.179
 6710SOL    HW221030   3.411   1.005   6.321
 6711SOL     OW21031   5.194   6.583   5.498
 6711SOL    HW121032   5.204   6.493   5.542
 6711SOL    HW221033   5.273   6.640   5.521
 6712SOL     OW21034   5.440   3.424   1.248
 6712SOL    HW121035   5.364   3.432   1.313
 6712SOL    HW221036   5.526   3.424   1.298
 6713SOL     OW21037   0.992   0.919   3.624
 6713SOL    HW121038   0.901   0.927   3.583
 6713SOL    HW221039   1.034   1.009   3.630
 6714SOL     OW21040   6.863   1.663   6.252
 6714SOL    HW121041   6.787   1.640   6.191
 6714SOL    HW221042   6.831   1.656   6.347
 6715SOL     OW21043   1.826   0.428   1.002
 6715SOL    HW121044   1.852   0.522   0.981
 6715SOL    HW221045   1.907   0.369   0.994
 6716SOL     OW21046   0.292   5.513   1.819
 6716SOL    HW121047   0.351   5.581   1.776
 6716SOL    HW221048   0.329   5.422   1.805
 6717SOL     OW21049   3.186   3.226   6.359
 6717SOL    HW121050   3.099   3.275   6.359
 6717SOL    HW221051   3.262   3.291   6.351
 6718SOL     OW21052   4.540   7.016   0.862
 6718SOL    HW121053   4.484   0.066   0.832
 6718SOL    HW221054   4.492   6.968   0.936
 6719SOL     OW21055   2.582   0.105   0.406
 6719SOL    HW121056   2.494   0.128   0.446
 6719SOL    HW221057   2.599   0.007   0.415
 6720SOL     OW21058   1.960   0.644   3.455
 6720SOL    HW121059   1.944   0.660   3.358
 6720SOL    HW221060   1.889   0.584   3.491
 6721SOL     OW21061   0.197   6.568   0.360
 6721SOL    HW121062   0.256   6.611   0.292
 6721SOL    HW221063   0.234   6.581   0.451
 6722SOL     OW21064   6.405   2.547   0.539
 6722SOL    HW121065   6.490   2.569   0.492
 6722SOL    HW221066   6.332   2.608   0.507
 6723SOL     OW21067   1.298   0.136   4.782
 6723SOL    HW121068   1.223   0.118   4.846
 6723SOL    HW221069   1.372   0.071   4.799
 6724SOL     OW21070   2.115   3.102   6.235
 6724SOL    HW121071   2.069   3.090   6.323
 6724SOL    HW221072   2.056   3.155   6.174
 6725SOL     OW21073   6.629   2.161   1.438
 6725SOL    HW121074   6.612   2.127   1.346
 6725SOL    HW221075   6.630   2.261   1.437
 6726SOL     OW21076   0.784   2.854   3.780
 6726SOL    HW121077   0.719   2.866   3.855
 6726SOL    HW221078   0.827   2.942   3.759
 6727SOL     OW21079   0.296   4.846   5.499
 6727SOL    HW121080   0.230   4.780   5.461
 6727SOL    HW221081   0.255   4.938   5.498
 6728SOL     OW21082   3.824   2.116   2.860
 6728SOL    HW121083   3.872   2.142   2.777
 6728SOL    HW221084   3.888   2.073   2.924
 6729SOL     OW21085   0.118   1.041   0.849
 6729SOL    HW121086   0.205   1.064   0.893
 6729SOL    HW221087   0.124   1.059   0.751
 6730SOL     OW21088   1.662   6.796   1.296
 6730SOL    HW121089   1.756   6.764   1.283
 6730SOL    HW221090   1.606   6.766   1.219
 6731SOL     OW21091   1.476   6.596   1.159
 6731SOL    HW121092   1.404   6.657   1.126
 6731SOL    HW221093   1.510   6.540   1.083
 6732SOL     OW21094   6.265   4.307   4.522
 6732SOL    HW121095   6.278   4.297   4.423
 6732SOL    HW221096   6.200   4.238   4.554
 6733SOL     OW21097   3.699   5.677   6.707
 6733SOL    HW121098   3.670   5.582   6.700
 6733SOL    HW221099   3.631   5.736   6.663
 6734SOL     OW21100   5.845   2.624   5.049
 6734SOL    HW121101   5.884   2.597   4.960
 6734SOL    HW221102   5.882   2.713   5.075
 6735SOL     OW21103   6.344   3.551   4.333
 6735SOL    HW121104   6.292   3.470   4.306
 6735SOL    HW221105   6.306   3.587   4.418
 6736SOL     OW21106   2.604   3.534   6.756
 6736SOL    HW121107   2.595   3.446   6.708
 6736SOL    HW221108   2.681   3.529   6.819
 6737SOL     OW21109   1.839   3.300   1.148
 6737SOL    HW121110   1.875   3.207   1.140
 6737SOL    HW221111   1.887   3.359   1.082
 6738SOL     OW21112   1.673   5.775   3.366
 6738SOL    HW121113   1.716   5.859   3.332
 6738SOL    HW221114   1.667   5.778   3.465
 6739SOL     OW21115   4.921   6.622   4.379
 6739SOL    HW121116   4.932   6.698   4.443
 6739SOL    HW221117   4.967   6.644   4.293
 6740SOL     OW21118   6.926   0.170   5.611
 6740SOL    HW121119   6.942   0.109   5.533
 6740SOL    HW221120   6.856   0.238   5.587
 6741SOL     OW21121   3.223   2.945   5.544
 6741SOL    HW121122   3.185   2.856   5.517
 6741SOL    HW221123   3.227   2.950   5.644
 6742SOL     OW21124   5.802   5.626   3.016
 6742SOL    HW121125   5.817   5.591   3.108
 6742SOL    HW221126   5.850   5.713   3.004
 6743SOL     OW21127   3.565   4.576   6.499
 6743SOL    HW121128   3.641   4.602   6.559
 6743SOL    HW221129   3.573   4.625   6.412
 6744SOL     OW21130   6.806   5.232   5.485
 6744SOL    HW121131   6.901   5.209   5.461
 6744SOL    HW221132   6.805   5.313   5.543
 6745SOL     OW21133   6.939   6.534   3.492
 6745SOL    HW121134   6.968   6.615   3.544
 6745SOL    HW221135   6.857   6.495   3.535
 6746SOL     OW21136   0.681   0.457   3.872
 6746SOL    HW121137   0.761   0.482   3.927
 6746SOL    HW221138   0.703   0.380   3.813
 6747SOL     OW21139   5.866   1.467   6.326
 6747SOL    HW121140   5.843   1.390   6.386
 6747SOL    HW221141   5.848   1.442   6.231
 6748SOL     OW21142   3.797   1.822   3.346
 6748SOL    HW121143   3.765   1.767   3.268
 6748SOL    HW221144   3.744   1.798   3.427
 6749SOL     OW21145   3.810   4.157   0.765
 6749SOL    HW121146   3.713   4.132   0.764
 6749SOL    HW221147   3.821   4.247   0.807
 6750SOL     OW21148   3.633   2.135   4.408
 6750SOL    HW121149   3.560   2.174   4.351
 6750SOL    HW221150   3.615   2.155   4.504
 6751SOL     OW21151   5.310   0.214   3.381
 6751SOL    HW121152   5.381   0.280   3.406
 6751SOL    HW221153   5.228   0.262   3.351
 6752SOL     OW21154   1.926   6.817   2.887
 6752SOL    HW121155   1.946   6.789   2.793
 6752SOL    HW221156   2.010   6.849   2.930
 6753SOL     OW21157   3.217   1.097   6.064
 6753SOL    HW121158   3.146   1.094   6.135
 6753SOL    HW221159   3.199   1.175   6.003
 6754SOL     OW21160   0.011   0.666   0.514
 6754SOL    HW121161   6.991   0.656   0.601
 6754SOL    HW221162   0.109   0.647   0.527
 6755SOL     OW21163   4.578   2.016   1.784
 6755SOL    HW121164   4.634   1.934   1.774
 6755SOL    HW221165   4.481   1.992   1.770
 6756SOL     OW21166   3.586   6.320   4.802
 6756SOL    HW121167   3.676   6.288   4.775
 6756SOL    HW221168   3.517   6.284   4.740
 6757SOL     OW21169   3.037   2.297   0.137
 6757SOL    HW121170   2.973   2.350   0.082
 6757SOL    HW221171   3.058   2.211   0.090
 6758SOL     OW21172   6.192   1.969   1.791
 6758SOL    HW121173   6.279   1.920   1.797
 6758SOL    HW221174   6.188   2.039   1.862
 6759SOL     OW21175   1.489   3.870   2.762
 6759SOL    HW121176   1.461   3.778   2.731
 6759SOL    HW221177   1.533   3.918   2.686
 6760SOL     OW21178   0.145   3.461   2.226
 6760SOL    HW121179   0.148   3.561   2.227
 6760SOL    HW221180   0.124   3.427   2.318
 6761SOL     OW21181   6.649   2.435   5.193
 6761SOL    HW121182   6.701   2.520   5.180
 6761SOL    HW221183   6.552   2.457   5.204
 6762SOL     OW21184   0.953   4.569   4.962
 6762SOL    HW121185   1.040   4.544   5.005
 6762SOL    HW221186   0.957   4.664   4.930
 6763SOL     OW21187   6.611   5.772   3.990
 6763SOL    HW121188   6.667   5.817   3.920
 6763SOL    HW221189   6.514   5.782   3.967
 6764SOL     OW21190   2.045   5.508   1.434
 6764SOL    HW121191   2.044   5.444   1.511
 6764SOL    HW221192   1.951   5.534   1.411
 6765SOL     OW21193   5.631   5.061   3.915
 6765SOL    HW121194   5.647   5.114   3.998
 6765SOL    HW221195   5.667   4.968   3.927
 6766SOL     OW21196   4.787   6.732   5.463
 6766SOL    HW121197   4.741   6.720   5.375
 6766SOL    HW221198   4.868   6.790   5.451
 6767SOL     OW21199   2.013   1.055   1.148
 6767SOL    HW121200   2.051   1.147   1.144
 6767SOL    HW221201   1.940   1.051   1.216
 6768SOL     OW21202   1.664   0.203   4.810
 6768SOL    HW121203   1.674   0.290   4.859
 6768SOL    HW221204   1.751   0.154   4.811
 6769SOL     OW21205   2.893   0.805   6.710
 6769SOL    HW121206   2.950   0.723   6.705
 6769SOL    HW221207   2.859   0.828   6.619
 6770SOL     OW21208   6.963   0.835   2.792
 6770SOL    HW121209   6.954   0.794   2.701
 6770SOL    HW221210   6.996   0.929   2.783
 6771SOL     OW21211   5.113   1.853   3.480
 6771SOL    HW121212   5.138   1.836   3.385
 6771SOL    HW221213   5.015   1.873   3.486
 6772SOL     OW21214   4.010   2.150   2.665
 6772SOL    HW121215   4.101   2.108   2.655
 6772SOL    HW221216   3.958   2.136   2.581
 6773SOL     OW21217   6.419   5.211   2.313
 6773SOL    HW121218   6.383   5.256   2.231
 6773SOL    HW221219   6.515   5.236   2.325
 6774SOL     OW21220   1.150   3.394   5.300
 6774SOL    HW121221   1.108   3.339   5.228
 6774SOL    HW221222   1.099   3.480   5.310
 6775SOL     OW21223   2.580   2.402   1.951
 6775SOL    HW121224   2.677   2.425   1.941
 6775SOL    HW221225   2.564   2.310   1.915
 6776SOL     OW21226   4.979   4.173   6.848
 6776SOL    HW121227   4.959   4.258   6.799
 6776SOL    HW221228   4.978   4.096   6.784
 6777SOL     OW21229   4.841   4.595   0.851
 6777SOL    HW121230   4.855   4.639   0.940
 6777SOL    HW221231   4.755   4.628   0.811
 6778SOL     OW21232   5.958   5.437   2.002
 6778SOL    HW121233   6.040   5.397   1.961
 6778SOL    HW221234   5.973   5.453   2.100
 6779SOL     OW21235   5.392   5.564   6.970
 6779SOL    HW121236   5.402   5.466   6.958
 6779SOL    HW221237   5.299   5.591   6.945
 6780SOL     OW21238   1.300   2.588   2.024
 6780SOL    HW121239   1.389   2.610   2.065
 6780SOL    HW221240   1.231   2.581   2.097
 6781SOL     OW21241   6.850   1.863   4.377
 6781SOL    HW121242   6.839   1.771   4.339
 6781SOL    HW221243   6.783   1.877   4.449
 6782SOL     OW21244   0.283   0.767   3.179
 6782SOL    HW121245   0.350   0.827   3.135
 6782SOL    HW221246   0.301   0.672   3.153
 6783SOL     OW21247   6.292   1.416   5.442
 6783SOL    HW121248   6.196   1.434   5.423
 6783SOL    HW221249   6.335   1.373   5.363
 6784SOL     OW21250   1.760   2.949   0.604
 6784SOL    HW121251   1.695   2.874   0.595
 6784SOL    HW221252   1.812   2.939   0.688
 6785SOL     OW21253   5.964   5.606   4.388
 6785SOL    HW121254   6.023   5.535   4.424
 6785SOL    HW221255   5.933   5.581   4.297
 6786SOL     OW21256   1.590   2.179   0.305
 6786SOL    HW121257   1.578   2.236   0.386
 6786SOL    HW221258   1.592   2.236   0.223
 6787SOL     OW21259   2.156   2.674   0.181
 6787SOL    HW121260   2.170   2.704   0.275
 6787SOL    HW221261   2.094   2.596   0.180
 6788SOL     OW21262   1.074   4.136   1.361
 6788SOL    HW121263   1.126   4.057   1.395
 6788SOL    HW221264   1.128   4.183   1.292
 6789SOL     OW21265   0.371   5.206   2.744
 6789SOL    HW121266   0.310   5.138   2.784
 6789SOL    HW221267   0.440   5.233   2.811
 6790SOL     OW21268   0.066   3.416   0.996
 6790SOL    HW121269   0.114   3.409   1.084
 6790SOL    HW221270   0.007   3.496   0.997
 6791SOL     OW21271   4.222   2.251   2.084
 6791SOL    HW121272   4.310   2.249   2.036
 6791SOL    HW221273   4.239   2.265   2.182
 6792SOL     OW21274   6.428   6.430   5.028
 6792SOL    HW121275   6.421   6.467   5.121
 6792SOL    HW221276   6.407   6.503   4.962
 6793SOL     OW21277   1.702   1.949   0.638
 6793SOL    HW121278   1.752   1.999   0.567
 6793SOL    HW221279   1.620   2.000   0.663
 6794SOL     OW21280   4.857   1.231   5.902
 6794SOL    HW121281   4.846   1.328   5.882
 6794SOL    HW221282   4.799   1.206   5.980
 6795SOL     OW21283   2.486   6.579   0.880
 6795SOL    HW121284   2.501   6.548   0.974
 6795SOL    HW221285   2.389   6.601   0.866
 6796SOL     OW21286   6.972   0.193   2.270
 6796SOL    HW121287   6.876   0.168   2.277
 6796SOL    HW221288   0.001   0.110   2.275
 6797SOL     OW21289   6.661   1.829   1.715
 6797SOL    HW121290   6.632   1.782   1.632
 6797SOL    HW221291   6.736   1.891   1.694
 6798SOL     OW21292   5.141   6.976   2.241
 6798SOL    HW121293   5.128   6.945   2.335
 6798SOL    HW221294   5.170   6.899   2.184
 6799SOL     OW21295   6.922   6.673   1.973
 6799SOL    HW121296   6.863   6.673   1.892
 6799SOL    HW221297   6.905   6.756   2.026
 6800SOL     OW21298   2.042   3.694   2.011
 6800SOL    HW121299   2.098   3.612   2.010
 6800SOL    HW221300   2.090   3.768   1.964
 6801SOL     OW21301   1.102   0.131   2.705
 6801SOL    HW121302   1.172   0.202   2.689
 6801SOL    HW221303   1.136   0.066   2.773
 6802SOL     OW21304   2.909   6.076   1.242
 6802SOL    HW121305   2.921   6.029   1.330
 6802SOL    HW221306   2.811   6.082   1.220
 6803SOL     OW21307   4.610   3.265   5.512
 6803SOL    HW121308   4.667   3.287   5.433
 6803SOL    HW221309   4.538   3.201   5.484
 6804SOL     OW21310   3.156   5.169   3.745
 6804SOL    HW121311   3.096   5.223   3.805
 6804SOL    HW221312   3.183   5.225   3.667
 6805SOL     OW21313   0.330   5.313   6.196
 6805SOL    HW121314   0.372   5.342   6.281
 6805SOL    HW221315   0.393   5.331   6.120
 6806SOL     OW21316   5.763   0.628   3.499
 6806SOL    HW121317   5.698   0.588   3.563
 6806SOL    HW221318   5.855   0.622   3.537
 6807SOL     OW21319   3.322   3.527   1.160
 6807SOL    HW121320   3.295   3.441   1.116
 6807SOL    HW221321   3.305   3.520   1.258
 6808SOL     OW21322   6.796   2.359   5.413
 6808SOL    HW121323   6.722   2.355   5.346
 6808SOL    HW221324   6.859   2.432   5.389
 6809SOL     OW21325   0.892   2.818   1.421
 6809SOL    HW121326   0.978   2.860   1.390
 6809SOL    HW221327   0.876   2.843   1.516
 6810SOL     OW21328   1.539   1.079   2.547
 6810SOL    HW121329   1.467   1.081   2.617
 6810SOL    HW221330   1.535   1.163   2.493
 6811SOL     OW21331   5.875   3.537   1.192
 6811SOL    HW121332   5.800   3.598   1.214
 6811SOL    HW221333   5.883   3.527   1.093
 6812SOL     OW21334   2.969   3.821   4.416
 6812SOL    HW121335   2.956   3.818   4.515
 6812SOL    HW221336   2.929   3.739   4.375
 6813SOL     OW21337   5.335   2.576   2.227
 6813SOL    HW121338   5.302   2.612   2.140
 6813SOL    HW221339   5.381   2.649   2.278
 6814SOL     OW21340   3.643   1.839   6.155
 6814SOL    HW121341   3.603   1.807   6.241
 6814SOL    HW221342   3.693   1.924   6.171
 6815SOL     OW21343   3.378   6.584   1.211
 6815SOL    HW121344   3.364   6.485   1.223
 6815SOL    HW221345   3.474   6.605   1.225
 6816SOL     OW21346   6.564   6.844   6.311
 6816SOL    HW121347   6.500   6.915   6.283
 6816SOL    HW221348   6.542   6.814   6.404
 6817SOL     OW21349   2.504   2.445   2.971
 6817SOL    HW121350   2.491   2.438   2.873
 6817SOL    HW221351   2.594   2.409   2.996
 6818SOL     OW21352   2.506   6.207   2.059
 6818SOL    HW121353   2.444   6.214   1.980
 6818SOL    HW221354   2.510   6.295   2.106
 6819SOL     OW21355   5.243   1.842   3.214
 6819SOL    HW121356   5.271   1.759   3.261
 6819SOL    HW221357   5.301   1.856   3.134
 6820SOL     OW21358   2.404   5.412   2.276
 6820SOL    HW121359   2.465   5.490   2.291
 6820SOL    HW221360   2.447   5.348   2.212
 6821SOL     OW21361   3.768   2.129   4.916
 6821SOL    HW121362   3.859   2.148   4.953
 6821SOL    HW221363   3.699   2.149   4.986
 6822SOL     OW21364   5.054   2.626   6.359
 6822SOL    HW121365   4.981   2.684   6.324
 6822SOL    HW221366   5.101   2.582   6.283
 6823SOL     OW21367   4.547   3.536   5.567
 6823SOL    HW121368   4.466   3.511   5.621
 6823SOL    HW221369   4.607   3.456   5.560
 6824SOL     OW21370   1.030   2.073   0.172
 6824SOL    HW121371   0.996   1.981   0.187
 6824SOL    HW221372   1.127   2.077   0.196
 6825SOL     OW21373   5.071   6.254   1.328
 6825SOL    HW121374   5.103   6.161   1.308
 6825SOL    HW221375   5.017   6.253   1.412
 6826SOL     OW21376   1.759   3.422   3.431
 6826SOL    HW121377   1.742   3.350   3.363
 6826SOL    HW221378   1.847   3.464   3.414
 6827SOL     OW21379   4.605   5.838   6.029
 6827SOL    HW121380   4.567   5.809   6.117
 6827SOL    HW221381   4.536   5.886   5.976
 6828SOL     OW21382   3.024   1.873   1.675
 6828SOL    HW121383   3.099   1.867   1.741
 6828SOL    HW221384   2.968   1.953   1.695
 6829SOL     OW21385   4.830   6.378   5.241
 6829SOL    HW121386   4.774   6.346   5.164
 6829SOL    HW221387   4.777   6.374   5.325
 6830SOL     OW21388   4.993   1.044   3.452
 6830SOL    HW121389   4.960   1.080   3.539
 6830SOL    HW221390   5.018   1.120   3.392
 6831SOL     OW21391   1.403   0.672   6.623
 6831SOL    HW121392   1.338   0.708   6.690
 6831SOL    HW221393   1.362   0.595   6.574
 6832SOL     OW21394   2.692   3.918   0.958
 6832SOL    HW121395   2.765   3.858   0.991
 6832SOL    HW221396   2.730   4.007   0.936
 6833SOL     OW21397   3.147   4.732   6.401
 6833SOL    HW121398   3.071   4.671   6.378
 6833SOL    HW221399   3.162   4.796   6.326
 6834SOL     OW21400   4.525   6.462   1.061
 6834SOL    HW121401   4.501   6.482   0.966
 6834SOL    HW221402   4.491   6.536   1.119
 6835SOL     OW21403   3.782   0.744   4.586
 6835SOL    HW121404   3.856   0.677   4.576
 6835SOL    HW221405   3.718   0.734   4.510
 6836SOL     OW21406   2.654   4.705   0.431
 6836SOL    HW121407   2.736   4.697   0.374
 6836SOL    HW221408   2.619   4.614   0.452
 6837SOL     OW21409   0.309   1.973   2.094
 6837SOL    HW121410   0.386   1.957   2.155
 6837SOL    HW221411   0.322   1.924   2.008
 6838SOL     OW21412   3.428   6.345   0.091
 6838SOL    HW121413   3.368   6.339   0.011
 6838SOL    HW221414   3.385   6.297   0.168
 6839SOL     OW21415   5.291   1.203   6.776
 6839SOL    HW121416   5.344   1.236   6.854
 6839SOL    HW221417   5.329   1.116   6.744
 6840SOL     OW21418   3.497   0.919   4.793
 6840SOL    HW121419   3.571   0.973   4.833
 6840SOL    HW221420   3.462   0.854   4.861
 6841SOL     OW21421   4.212   4.608   6.827
 6841SOL    HW121422   4.185   4.690   6.878
 6841SOL    HW221423   4.263   4.547   6.888
 6842SOL     OW21424   2.338   4.363   0.857
 6842SOL    HW121425   2.328   4.462   0.862
 6842SOL    HW221426   2.430   4.337   0.886
 6843SOL     OW21427   6.433   6.755   1.404
 6843SOL    HW121428   6.358   6.795   1.458
 6843SOL    HW221429   6.489   6.697   1.463
 6844SOL     OW21430   5.474   0.727   3.897
 6844SOL    HW121431   5.398   0.679   3.942
 6844SOL    HW221432   5.561   0.691   3.930
 6845SOL     OW21433   6.345   3.863   2.922
 6845SOL    HW121434   6.344   3.822   2.831
 6845SOL    HW221435   6.267   3.829   2.974
 6846SOL     OW21436   3.765   3.021   6.937
 6846SOL    HW121437   3.794   2.930   6.968
 6846SOL    HW221438   3.722   3.069   7.013
 6847SOL     OW21439   0.334   3.165   4.443
 6847SOL    HW121440   0.242   3.145   4.408
 6847SOL    HW221441   0.397   3.094   4.410
 6848SOL     OW21442   4.935   5.505   3.693
 6848SOL    HW121443   4.860   5.456   3.737
 6848SOL    HW221444   4.942   5.597   3.730
 6849SOL     OW21445   4.414   5.124   5.143
 6849SOL    HW121446   4.319   5.154   5.153
 6849SOL    HW221447   4.439   5.126   5.046
 6850SOL     OW21448   5.580   3.398   2.251
 6850SOL    HW121449   5.648   3.468   2.233
 6850SOL    HW221450   5.602   3.350   2.336
 6851SOL     OW21451   0.454   1.743   2.973
 6851SOL    HW121452   0.425   1.665   3.029
 6851SOL    HW221453   0.550   1.730   2.945
 6852SOL     OW21454   2.605   4.190   1.044
 6852SOL    HW121455   2.515   4.219   1.073
 6852SOL    HW221456   2.645   4.131   1.114
 6853SOL     OW21457   5.802   4.867   0.335
 6853SOL    HW121458   5.706   4.845   0.355
 6853SOL    HW221459   5.860   4.791   0.364
 6854SOL     OW21460   5.179   0.973   5.995
 6854SOL    HW121461   5.123   1.034   5.940
 6854SOL    HW221462   5.261   1.020   6.027
 6855SOL     OW21463   4.210   6.701   4.187
 6855SOL    HW121464   4.303   6.685   4.155
 6855SOL    HW221465   4.161   6.759   4.121
 6856SOL     OW21466   6.888   2.781   5.300
 6856SOL    HW121467   6.894   2.716   5.376
 6856SOL    HW221468   6.977   2.787   5.255
 6857SOL     OW21469   2.684   2.220   6.663
 6857SOL    HW121470   2.643   2.265   6.742
 6857SOL    HW221471   2.776   2.257   6.647
 6858SOL     OW21472   4.124   3.648   2.721
 6858SOL    HW121473   4.188   3.722   2.698
 6858SOL    HW221474   4.110   3.646   2.820
 6859SOL     OW21475   1.288   1.473   1.055
 6859SOL    HW121476   1.364   1.496   0.994
 6859SOL    HW221477   1.259   1.379   1.039
 6860SOL     OW21478   6.751   5.286   0.850
 6860SOL    HW121479   6.797   5.328   0.928
 6860SOL    HW221480   6.666   5.242   0.879
 6861SOL     OW21481   4.186   4.862   6.987
 6861SOL    HW121482   4.278   4.842   7.020
 6861SOL    HW221483   4.119   4.814   0.017
 6862SOL     OW21484   1.358   5.284   6.006
 6862SOL    HW121485   1.310   5.216   5.951
 6862SOL    HW221486   1.316   5.291   6.097
 6863SOL     OW21487   5.309   6.982   6.009
 6863SOL    HW121488   5.229   0.013   5.999
 6863SOL    HW221489   5.297   6.923   6.089
 6864SOL     OW21490   2.427   4.558   4.946
 6864SOL    HW121491   2.409   4.476   5.000
 6864SOL    HW221492   2.446   4.532   4.851
 6865SOL     OW21493   1.024   6.249   4.554
 6865SOL    HW121494   0.947   6.298   4.596
 6865SOL    HW221495   1.090   6.315   4.518
 6866SOL     OW21496   5.875   5.540   3.258
 6866SOL    HW121497   5.888   5.623   3.312
 6866SOL    HW221498   5.826   5.472   3.313
 6867SOL     OW21499   2.202   3.982   2.159
 6867SOL    HW121500   2.195   3.945   2.066
 6867SOL    HW221501   2.167   3.915   2.225
 6868SOL     OW21502   1.754   6.011   6.546
 6868SOL    HW121503   1.725   5.915   6.546
 6868SOL    HW221504   1.742   6.050   6.637
 6869SOL     OW21505   5.238   1.313   6.472
 6869SOL    HW121506   5.302   1.264   6.531
 6869SOL    HW221507   5.252   1.412   6.483
 6870SOL     OW21508   6.922   4.619   1.397
 6870SOL    HW121509   6.999   4.681   1.383
 6870SOL    HW221510   6.934   4.571   1.484
 6871SOL     OW21511   6.182   4.150   3.328
 6871SOL    HW121512   6.210   4.117   3.238
 6871SOL    HW221513   6.177   4.073   3.392
 6872SOL     OW21514   0.509   2.234   1.087
 6872SOL    HW121515   0.500   2.269   0.994
 6872SOL    HW221516   0.562   2.298   1.142
 6873SOL     OW21517   6.653   3.820   3.682
 6873SOL    HW121518   6.658   3.720   3.680
 6873SOL    HW221519   6.607   3.852   3.600
 6874SOL     OW21520   6.786   5.418   2.814
 6874SOL    HW121521   6.757   5.450   2.905
 6874SOL    HW221522   6.869   5.467   2.787
 6875SOL     OW21523   2.201   3.036   2.737
 6875SOL    HW121524   2.220   2.942   2.767
 6875SOL    HW221525   2.203   3.040   2.637
 6876SOL     OW21526   4.207   0.502   4.139
 6876SOL    HW121527   4.122   0.463   4.176
 6876SOL    HW221528   4.259   0.545   4.213
 6877SOL     OW21529   2.926   4.104   0.847
 6877SOL    HW121530   3.001   4.097   0.913
 6877SOL    HW221531   2.965   4.110   0.754
 6878SOL     OW21532   3.868   0.752   3.806
 6878SOL    HW121533   3.795   0.742   3.872
 6878SOL    HW221534   3.858   0.839   3.757
 6879SOL     OW21535   1.167   2.664   1.014
 6879SOL    HW121536   1.131   2.756   0.998
 6879SOL    HW221537   1.244   2.648   0.953
 6880SOL     OW21538   2.359   5.757   5.467
 6880SOL    HW121539   2.408   5.679   5.504
 6880SOL    HW221540   2.274   5.727   5.424
 6881SOL     OW21541   1.915   4.009   1.283
 6881SOL    HW121542   1.841   4.077   1.285
 6881SOL    HW221543   1.959   4.010   1.194
 6882SOL     OW21544   2.907   0.956   0.284
 6882SOL    HW121545   2.958   0.963   0.198
 6882SOL    HW221546   2.969   0.975   0.360
 6883SOL     OW21547   4.965   1.643   6.898
 6883SOL    HW121548   4.986   1.687   6.986
 6883SOL    HW221549   5.046   1.594   6.866
 6884SOL     OW21550   1.135   4.273   3.552
 6884SOL    HW121551   1.043   4.275   3.590
 6884SOL    HW221552   1.152   4.356   3.499
 6885SOL     OW21553   4.374   4.663   4.339
 6885SOL    HW121554   4.434   4.647   4.417
 6885SOL    HW221555   4.415   4.627   4.256
 6886SOL     OW21556   6.931   1.066   4.373
 6886SOL    HW121557   6.863   1.102   4.437
 6886SOL    HW221558   6.933   0.966   4.380
 6887SOL     OW21559   5.358   5.442   5.737
 6887SOL    HW121560   5.341   5.400   5.826
 6887SOL    HW221561   5.339   5.540   5.742
 6888SOL     OW21562   5.367   5.383   6.075
 6888SOL    HW121563   5.433   5.454   6.051
 6888SOL    HW221564   5.395   5.339   6.161
 6889SOL     OW21565   1.488   2.960   5.998
 6889SOL    HW121566   1.551   2.882   6.005
 6889SOL    HW221567   1.507   3.009   5.913
 6890SOL     OW21568   3.686   6.398   2.437
 6890SOL    HW121569   3.646   6.317   2.481
 6890SOL    HW221570   3.781   6.380   2.414
 6891SOL     OW21571   2.152   3.897   2.638
 6891SOL    HW121572   2.189   3.987   2.662
 6891SOL    HW221573   2.198   3.827   2.693
 6892SOL     OW21574   3.749   2.090   3.674
 6892SOL    HW121575   3.819   2.109   3.742
 6892SOL    HW221576   3.764   2.147   3.593
 6893SOL     OW21577   4.511   4.441   6.820
 6893SOL    HW121578   4.452   4.394   6.886
 6893SOL    HW221579   4.518   4.385   6.737
 6894SOL     OW21580   5.882   5.313   0.263
 6894SOL    HW121581   5.858   5.300   0.360
 6894SOL    HW221582   5.832   5.247   0.207
 6895SOL     OW21583   2.455   4.747   1.305
 6895SOL    HW121584   2.406   4.728   1.390
 6895SOL    HW221585   2.534   4.685   1.298
 6896SOL     OW21586   2.459   1.025   3.806
 6896SOL    HW121587   2.521   0.986   3.873
 6896SOL    HW221588   2.511   1.073   3.735
 6897SOL     OW21589   4.924   3.822   4.936
 6897SOL    HW121590   4.862   3.745   4.952
 6897SOL    HW221591   5.011   3.804   4.982
 6898SOL     OW21592   3.982   1.496   1.282
 6898SOL    HW121593   3.992   1.586   1.239
 6898SOL    HW221594   3.887   1.467   1.277
 6899SOL     OW21595   4.725   6.336   1.663
 6899SOL    HW121596   4.627   6.330   1.679
 6899SOL    HW221597   4.754   6.432   1.663
 6900SOL     OW21598   6.085   5.865   5.061
 6900SOL    HW121599   6.007   5.860   4.999
 6900SOL    HW221600   6.055   5.843   5.154
 6901SOL     OW21601   6.212   5.965   6.034
 6901SOL    HW121602   6.132   5.948   6.092
 6901SOL    HW221603   6.256   5.877   6.013
 6902SOL     OW21604   6.752   6.185   6.622
 6902SOL    HW121605   6.654   6.188   6.607
 6902SOL    HW221606   6.776   6.249   6.696
 6903SOL     OW21607   3.230   5.352   5.624
 6903SOL    HW121608   3.141   5.305   5.626
 6903SOL    HW221609   3.284   5.322   5.702
 6904SOL     OW21610   6.180   0.540   5.201
 6904SOL    HW121611   6.192   0.451   5.157
 6904SOL    HW221612   6.088   0.546   5.240
 6905SOL     OW21613   5.764   5.890   6.825
 6905SOL    HW121614   5.689   5.855   6.881
 6905SOL    HW221615   5.726   5.945   6.750
 6906SOL     OW21616   3.727   1.417   4.402
 6906SOL    HW121617   3.738   1.451   4.496
 6906SOL    HW221618   3.673   1.333   4.403
 6907SOL     OW21619   5.536   2.344   1.574
 6907SOL    HW121620   5.569   2.249   1.577
 6907SOL    HW221621   5.611   2.406   1.599
 6908SOL     OW21622   1.554   5.479   0.047
 6908SOL    HW121623   1.508   5.413   7.015
 6908SOL    HW221624   1.495   5.558   0.061
 6909SOL     OW21625   4.905   4.024   1.420
 6909SOL    HW121626   4.919   3.979   1.508
 6909SOL    HW221627   4.840   4.100   1.431
 6910SOL     OW21628   0.942   2.973   3.340
 6910SOL    HW121629   1.017   2.922   3.382
 6910SOL    HW221630   0.895   3.026   3.410
 6911SOL     OW21631   4.072   6.757   4.402
 6911SOL    HW121632   4.014   6.832   4.371
 6911SOL    HW221633   4.136   6.732   4.329
 6912SOL     OW21634   3.356   3.638   5.996
 6912SOL    HW121635   3.381   3.592   5.911
 6912SOL    HW221636   3.272   3.691   5.982
 6913SOL     OW21637   5.637   6.305   3.822
 6913SOL    HW121638   5.624   6.403   3.803
 6913SOL    HW221639   5.547   6.262   3.833
 6914SOL     OW21640   6.061   4.690   3.693
 6914SOL    HW121641   6.097   4.698   3.787
 6914SOL    HW221642   5.974   4.640   3.695
 6915SOL     OW21643   6.044   2.269   1.767
 6915SOL    HW121644   6.141   2.258   1.748
 6915SOL    HW221645   5.991   2.207   1.709
 6916SOL     OW21646   5.297   1.851   6.943
 6916SOL    HW121647   5.287   1.891   6.852
 6916SOL    HW221648   5.208   1.853   6.989
 6917SOL     OW21649   3.342   6.685   1.615
 6917SOL    HW121650   3.366   6.751   1.544
 6917SOL    HW221651   3.366   6.722   1.704
 6918SOL     OW21652   0.933   2.417   4.546
 6918SOL    HW121653   0.895   2.423   4.454
 6918SOL    HW221654   0.863   2.444   4.613
 6919SOL     OW21655   5.652   5.980   4.048
 6919SOL    HW121656   5.575   5.939   3.999
 6919SOL    HW221657   5.621   6.064   4.094
 6920SOL     OW21658   4.138   6.439   5.788
 6920SOL    HW121659   4.170   6.469   5.877
 6920SOL    HW221660   4.188   6.357   5.760
 6921SOL     OW21661   4.659   5.891   4.263
 6921SOL    HW121662   4.577   5.936   4.229
 6921SOL    HW221663   4.642   5.793   4.272
 6922SOL     OW21664   1.410   6.718   4.759
 6922SOL    HW121665   1.375   6.627   4.740
 6922SOL    HW221666   1.458   6.753   4.679
 6923SOL     OW21667   5.160   5.667   2.966
 6923SOL    HW121668   5.201   5.633   3.051
 6923SOL    HW221669   5.213   5.633   2.888
 6924SOL     OW21670   2.063   4.390   6.692
 6924SOL    HW121671   2.085   4.304   6.739
 6924SOL    HW221672   2.033   4.370   6.599
 6925SOL     OW21673   4.983   5.898   4.084
 6925SOL    HW121674   4.957   5.870   4.176
 6925SOL    HW221675   4.977   5.998   4.077
 6926SOL     OW21676   2.758   2.669   0.600
 6926SOL    HW121677   2.847   2.715   0.601
 6926SOL    HW221678   2.771   2.570   0.611
 6927SOL     OW21679   3.697   2.933   5.661
 6927SOL    HW121680   3.619   2.995   5.670
 6927SOL    HW221681   3.779   2.977   5.699
 6928SOL     OW21682   5.603   6.176   0.935
 6928SOL    HW121683   5.672   6.113   0.901
 6928SOL    HW221684   5.570   6.233   0.860
 6929SOL     OW21685   5.020   5.822   1.598
 6929SOL    HW121686   4.999   5.905   1.650
 6929SOL    HW221687   4.936   5.787   1.557
 6930SOL     OW21688   1.164   0.785   1.536
 6930SOL    HW121689   1.249   0.820   1.497
 6930SOL    HW221690   1.182   0.749   1.628
 6931SOL     OW21691   1.792   1.424   2.343
 6931SOL    HW121692   1.802   1.390   2.249
 6931SOL    HW221693   1.756   1.518   2.340
 6932SOL     OW21694   4.121   0.140   6.705
 6932SOL    HW121695   4.163   0.055   6.738
 6932SOL    HW221696   4.043   0.164   6.763
 6933SOL     OW21697   3.587   6.010   5.476
 6933SOL    HW121698   3.594   5.943   5.550
 6933SOL    HW221699   3.651   5.986   5.403
 6934SOL     OW21700   4.214   3.227   6.102
 6934SOL    HW121701   4.277   3.294   6.063
 6934SOL    HW221702   4.143   3.275   6.154
 6935SOL     OW21703   4.640   5.692   2.409
 6935SOL    HW121704   4.609   5.695   2.314
 6935SOL    HW221705   4.570   5.731   2.468
 6936SOL     OW21706   6.339   2.459   3.484
 6936SOL    HW121707   6.414   2.419   3.430
 6936SOL    HW221708   6.320   2.551   3.451
 6937SOL     OW21709   6.127   6.528   0.065
 6937SOL    HW121710   6.184   6.455   0.028
 6937SOL    HW221711   6.034   6.518   0.030
 6938SOL     OW21712   6.484   2.751   5.275
 6938SOL    HW121713   6.421   2.673   5.270
 6938SOL    HW221714   6.431   2.835   5.282
 6939SOL     OW21715   0.453   5.370   2.330
 6939SOL    HW121716   0.509   5.322   2.263
 6939SOL    HW221717   0.512   5.422   2.391
 6940SOL     OW21718   3.723   0.422   5.986
 6940SOL    HW121719   3.796   0.474   6.030
 6940SOL    HW221720   3.641   0.424   6.042
 6941SOL     OW21721   3.063   4.122   1.784
 6941SOL    HW121722   2.983   4.068   1.760
 6941SOL    HW221723   3.118   4.073   1.852
 6942SOL     OW21724   5.813   6.646   2.085
 6942SOL    HW121725   5.825   6.598   2.172
 6942SOL    HW221726   5.727   6.697   2.086
 6943SOL     OW21727   3.472   5.445   0.907
 6943SOL    HW121728   3.391   5.420   0.854
 6943SOL    HW221729   3.551   5.396   0.873
 6944SOL     OW21730   0.483   4.768   6.614
 6944SOL    HW121731   0.471   4.794   6.710
 6944SOL    HW221732   0.444   4.838   6.555
 6945SOL     OW21733   6.543   1.517   0.405
 6945SOL    HW121734   6.621   1.455   0.408
 6945SOL    HW221735   6.465   1.469   0.365
 6946SOL     OW21736   3.916   6.682   1.414
 6946SOL    HW121737   3.967   6.628   1.480
 6946SOL    HW221738   3.821   6.649   1.411
 6947SOL     OW21739   3.578   5.585   0.016
 6947SOL    HW121740   3.531   5.669   7.019
 6947SOL    HW221741   3.551   5.558   0.109
 6948SOL     OW21742   0.761   6.715   0.830
 6948SOL    HW121743   0.697   6.703   0.906
 6948SOL    HW221744   0.823   6.791   0.850
 6949SOL     OW21745   4.049   0.393   3.588
 6949SOL    HW121746   4.066   0.295   3.582
 6949SOL    HW221747   3.974   0.418   3.527
 6950SOL     OW21748   1.109   1.821   4.900
 6950SOL    HW121749   1.072   1.762   4.972
 6950SOL    HW221750   1.159   1.765   4.834
 6951SOL     OW21751   6.561   5.334   5.568
 6951SOL    HW121752   6.567   5.256   5.632
 6951SOL    HW221753   6.616   5.314   5.487
 6952SOL     OW21754   0.822   6.186   3.040
 6952SOL    HW121755   0.768   6.252   3.093
 6952SOL    HW221756   0.915   6.220   3.031
 6953SOL     OW21757   4.001   6.263   1.706
 6953SOL    HW121758   4.071   6.281   1.775
 6953SOL    HW221759   3.933   6.199   1.744
 6954SOL     OW21760   0.154   3.760   2.233
 6954SOL    HW121761   0.100   3.783   2.151
 6954SOL    HW221762   0.138   3.830   2.303
 6955SOL     OW21763   5.428   0.296   1.741
 6955SOL    HW121764   5.332   0.295   1.714
 6955SOL    HW221765   5.439   0.249   1.829
 6956SOL     OW21766   5.427   5.937   3.538
 6956SOL    HW121767   5.384   6.027   3.537
 6956SOL    HW221768   5.358   5.866   3.523
 6957SOL     OW21769   6.409   5.825   0.991
 6957SOL    HW121770   6.380   5.899   0.931
 6957SOL    HW221771   6.330   5.775   1.024
 6958SOL     OW21772   3.797   3.325   4.482
 6958SOL    HW121773   3.698   3.315   4.480
 6958SOL    HW221774   3.826   3.386   4.408
 6959SOL     OW21775   2.165   3.365   3.550
 6959SOL    HW121776   2.204   3.334   3.637
 6959SOL    HW221777   2.102   3.296   3.515
 6960SOL     OW21778   1.467   4.370   1.178
 6960SOL    HW121779   1.411   4.308   1.233
 6960SOL    HW221780   1.408   4.437   1.133
 6961SOL     OW21781   5.918   0.969   4.178
 6961SOL    HW121782   5.937   0.928   4.268
 6961SOL    HW221783   5.943   0.904   4.106
 6962SOL     OW21784   4.744   6.078   1.778
 6962SOL    HW121785   4.689   6.019   1.719
 6962SOL    HW221786   4.777   6.156   1.725
 6963SOL     OW21787   5.283   5.773   1.576
 6963SOL    HW121788   5.310   5.818   1.491
 6963SOL    HW221789   5.184   5.780   1.588
 6964SOL     OW21790   3.944   1.199   5.633
 6964SOL    HW121791   3.985   1.266   5.571
 6964SOL    HW221792   3.976   1.108   5.609
 6965SOL     OW21793   1.727   0.818   6.882
 6965SOL    HW121794   1.645   0.867   6.910
 6965SOL    HW221795   1.808   0.873   6.905
 6966SOL     OW21796   1.011   2.043   2.231
 6966SOL    HW121797   1.101   2.040   2.276
 6966SOL    HW221798   0.993   1.954   2.188
 6967SOL     OW21799   2.735   1.174   6.005
 6967SOL    HW121800   2.709   1.208   6.095
 6967SOL    HW221801   2.755   1.251   5.945
 6968SOL     OW21802   3.838   0.468   3.431
 6968SOL    HW121803   3.898   0.521   3.370
 6968SOL    HW221804   3.752   0.518   3.445
 6969SOL     OW21805   3.115   2.283   1.769
 6969SOL    HW121806   3.038   2.343   1.792
 6969SOL    HW221807   3.146   2.236   1.851
 6970SOL     OW21808   3.906   4.110   5.858
 6970SOL    HW121809   3.951   4.139   5.773
 6970SOL    HW221810   3.974   4.071   5.919
 6971SOL     OW21811   6.267   4.752   0.839
 6971SOL    HW121812   6.218   4.680   0.789
 6971SOL    HW221813   6.297   4.717   0.927
 6972SOL     OW21814   5.640   4.249   2.926
 6972SOL    HW121815   5.644   4.349   2.928
 6972SOL    HW221816   5.680   4.212   3.010
 6973SOL     OW21817   1.090   3.270   3.103
 6973SOL    HW121818   1.041   3.205   3.045
 6973SOL    HW221819   1.101   3.232   3.195
 6974SOL     OW21820   2.968   3.796   2.714
 6974SOL    HW121821   2.957   3.828   2.620
 6974SOL    HW221822   3.022   3.712   2.715
 6975SOL     OW21823   1.453   6.616   5.800
 6975SOL    HW121824   1.526   6.600   5.734
 6975SOL    HW221825   1.491   6.612   5.893
 6976SOL     OW21826   6.186   5.263   6.080
 6976SOL    HW121827   6.182   5.175   6.034
 6976SOL    HW221828   6.256   5.320   6.037
 6977SOL     OW21829   3.884   2.748   1.385
 6977SOL    HW121830   3.903   2.650   1.387
 6977SOL    HW221831   3.926   2.789   1.304
 6978SOL     OW21832   6.094   1.965   2.106
 6978SOL    HW121833   5.994   1.958   2.095
 6978SOL    HW221834   6.130   1.877   2.137
 6979SOL     OW21835   0.837   4.589   1.547
 6979SOL    HW121836   0.930   4.622   1.534
 6979SOL    HW221837   0.837   4.510   1.609
 6980SOL     OW21838   1.461   1.021   3.489
 6980SOL    HW121839   1.431   1.115   3.505
 6980SOL    HW221840   1.393   0.957   3.525
 6981SOL     OW21841   3.746   3.359   5.816
 6981SOL    HW121842   3.809   3.417   5.765
 6981SOL    HW221843   3.795   3.280   5.853
 6982SOL     OW21844   1.139   1.140   4.893
 6982SOL    HW121845   1.128   1.041   4.897
 6982SOL    HW221846   1.054   1.184   4.920
 6983SOL     OW21847   3.935   2.125   3.870
 6983SOL    HW121848   3.874   2.124   3.949
 6983SOL    HW221849   4.022   2.166   3.896
 6984SOL     OW21850   1.958   1.969   3.264
 6984SOL    HW121851   1.955   1.943   3.360
 6984SOL    HW221852   2.036   2.030   3.248
 6985SOL     OW21853   5.859   4.907   1.293
 6985SOL    HW121854   5.774   4.940   1.253
 6985SOL    HW221855   5.915   4.985   1.322
 6986SOL     OW21856   2.663   6.852   6.345
 6986SOL    HW121857   2.759   6.874   6.361
 6986SOL    HW221858   2.606   6.933   6.360
 6987SOL     OW21859   5.837   0.942   6.263
 6987SOL    HW121860   5.869   1.020   6.210
 6987SOL    HW221861   5.883   0.940   6.352
 6988SOL     OW21862   1.074   6.649   6.764
 6988SOL    HW121863   0.992   6.669   6.710
 6988SOL    HW221864   1.050   6.651   6.861
 6989SOL     OW21865   1.164   4.379   2.947
 6989SOL    HW121866   1.217   4.400   3.029
 6989SOL    HW221867   1.226   4.356   2.872
 6990SOL     OW21868   4.889   2.978   1.316
 6990SOL    HW121869   4.878   2.884   1.283
 6990SOL    HW221870   4.982   3.009   1.298
 6991SOL     OW21871   4.599   4.437   3.581
 6991SOL    HW121872   4.560   4.474   3.665
 6991SOL    HW221873   4.641   4.348   3.599
 6992SOL     OW21874   5.194   0.306   6.238
 6992SOL    HW121875   5.135   0.323   6.317
 6992SOL    HW221876   5.285   0.280   6.269
 6993SOL     OW21877   5.995   0.061   2.850
 6993SOL    HW121878   5.950   0.028   2.933
 6993SOL    HW221879   5.973   0.157   2.836
 6994SOL     OW21880   0.357   2.591   3.905
 6994SOL    HW121881   0.374   2.505   3.856
 6994SOL    HW221882   0.443   2.625   3.943
 6995SOL     OW21883   0.766   4.802   6.524
 6995SOL    HW121884   0.673   4.831   6.548
 6995SOL    HW221885   0.764   4.756   6.435
 6996SOL     OW21886   1.537   0.381   6.958
 6996SOL    HW121887   1.551   0.290   6.921
 6996SOL    HW221888   1.557   0.449   6.888
 6997SOL     OW21889   0.345   5.250   5.653
 6997SOL    HW121890   0.407   5.303   5.595
 6997SOL    HW221891   0.395   5.218   5.733
 6998SOL     OW21892   1.616   0.992   1.524
 6998SOL    HW121893   1.661   0.955   1.605
 6998SOL    HW221894   1.685   1.013   1.455
 6999SOL     OW21895   2.554   2.627   6.289
 6999SOL    HW121896   2.598   2.562   6.227
 6999SOL    HW221897   2.469   2.660   6.247
 7000SOL     OW21898   5.649   6.587   1.667
 7000SOL    HW121899   5.706   6.530   1.608
 7000SOL    HW221900   5.562   6.605   1.622
 7001SOL     OW21901   1.693   3.347   6.026
 7001SOL    HW121902   1.718   3.289   5.949
 7001SOL    HW221903   1.710   3.442   6.004
 7002SOL     OW21904   1.494   5.655   3.867
 7002SOL    HW121905   1.403   5.613   3.875
 7002SOL    HW221906   1.545   5.641   3.952
 7003SOL     OW21907   4.488   5.197   0.855
 7003SOL    HW121908   4.469   5.294   0.870
 7003SOL    HW221909   4.453   5.169   0.766
 7004SOL     OW21910   0.549   5.589   1.616
 7004SOL    HW121911   0.617   5.616   1.547
 7004SOL    HW221912   0.595   5.541   1.691
 7005SOL     OW21913   1.079   6.913   0.702
 7005SOL    HW121914   1.179   6.909   0.708
 7005SOL    HW221915   1.041   6.938   0.791
 7006SOL     OW21916   5.097   5.273   3.889
 7006SOL    HW121917   5.196   5.263   3.877
 7006SOL    HW221918   5.050   5.207   3.830
 7007SOL     OW21919   4.375   0.765   4.566
 7007SOL    HW121920   4.397   0.823   4.644
 7007SOL    HW221921   4.276   0.764   4.552
 7008SOL     OW21922   0.390   4.344   4.482
 7008SOL    HW121923   0.293   4.357   4.462
 7008SOL    HW221924   0.426   4.271   4.424
 7009SOL     OW21925   4.262   6.273   2.679
 7009SOL    HW121926   4.323   6.238   2.607
 7009SOL    HW221927   4.236   6.367   2.657
 7010SOL     OW21928   5.892   4.465   3.637
 7010SOL    HW121929   5.975   4.409   3.631
 7010SOL    HW221930   5.838   4.434   3.716
 7011SOL     OW21931   3.321   6.449   6.451
 7011SOL    HW121932   3.292   6.389   6.376
 7011SOL    HW221933   3.420   6.462   6.446
 7012SOL     OW21934   0.877   2.007   1.271
 7012SOL    HW121935   0.943   1.965   1.333
 7012SOL    HW221936   0.788   2.014   1.317
 7013SOL     OW21937   0.911   6.673   0.167
 7013SOL    HW121938   0.995   6.725   0.178
 7013SOL    HW221939   0.838   6.716   0.222
 7014SOL     OW21940   4.733   3.307   0.700
 7014SOL    HW121941   4.724   3.407   0.703
 7014SOL    HW221942   4.666   3.266   0.762
 7015SOL     OW21943   6.152   4.149   1.188
 7015SOL    HW121944   6.249   4.164   1.173
 7015SOL    HW221945   6.103   4.160   1.101
 7016SOL     OW21946   3.612   5.154   1.474
 7016SOL    HW121947   3.561   5.199   1.548
 7016SOL    HW221948   3.566   5.170   1.387
 7017SOL     OW21949   2.551   4.983   3.363
 7017SOL    HW121950   2.491   4.903   3.356
 7017SOL    HW221951   2.500   5.065   3.336
 7018SOL     OW21952   5.467   3.203   4.179
 7018SOL    HW121953   5.417   3.280   4.218
 7018SOL    HW221954   5.545   3.180   4.237
 7019SOL     OW21955   3.906   4.670   0.322
 7019SOL    HW121956   3.881   4.732   0.397
 7019SOL    HW221957   3.883   4.576   0.348
 7020SOL     OW21958   6.743   4.369   5.945
 7020SOL    HW121959   6.733   4.272   5.970
 7020SOL    HW221960   6.821   4.380   5.883
 7021SOL     OW21961   1.875   2.227   4.988
 7021SOL    HW121962   1.902   2.313   5.032
 7021SOL    HW221963   1.787   2.197   5.024
 7022SOL     OW21964   4.464   0.505   6.859
 7022SOL    HW121965   4.415   0.454   6.788
 7022SOL    HW221966   4.527   0.444   6.907
 7023SOL     OW21967   1.616   2.643   2.577
 7023SOL    HW121968   1.674   2.722   2.559
 7023SOL    HW221969   1.643   2.601   2.664
 7024SOL     OW21970   2.887   3.816   5.051
 7024SOL    HW121971   2.961   3.769   5.097
 7024SOL    HW221972   2.820   3.848   5.119
 7025SOL     OW21973   3.360   0.701   0.728
 7025SOL    HW121974   3.365   0.641   0.808
 7025SOL    HW221975   3.331   0.647   0.648
 7026SOL     OW21976   3.563   2.060   2.198
 7026SOL    HW121977   3.622   2.135   2.168
 7026SOL    HW221978   3.568   2.052   2.298
 7027SOL     OW21979   2.032   5.488   4.118
 7027SOL    HW121980   1.971   5.409   4.115
 7027SOL    HW221981   1.982   5.570   4.092
 7028SOL     OW21982   3.769   1.357   2.675
 7028SOL    HW121983   3.793   1.370   2.578
 7028SOL    HW221984   3.676   1.320   2.681
 7029SOL     OW21985   4.227   4.273   5.315
 7029SOL    HW121986   4.262   4.310   5.229
 7029SOL    HW221987   4.207   4.348   5.378
 7030SOL     OW21988   0.599   0.968   5.110
 7030SOL    HW121989   0.644   1.014   5.186
 7030SOL    HW221990   0.506   0.943   5.136
 7031SOL     OW21991   3.686   6.101   6.638
 7031SOL    HW121992   3.753   6.175   6.632
 7031SOL    HW221993   3.659   6.088   6.733
 7032SOL     OW21994   4.517   1.856   3.952
 7032SOL    HW121995   4.476   1.784   4.008
 7032SOL    HW221996   4.542   1.933   4.010
 7033SOL     OW21997   1.432   2.462   3.009
 7033SOL    HW121998   1.339   2.478   2.975
 7033SOL    HW221999   1.452   2.524   3.084
 7034SOL     OW22000   6.850   1.596   3.104
 7034SOL    HW122001   6.900   1.516   3.069
 7034SOL    HW222002   6.752   1.582   3.094
 7035SOL     OW22003   1.568   0.057   0.551
 7035SOL    HW122004   1.551   0.087   0.457
 7035SOL    HW222005   1.586   6.986   0.551
 7036SOL     OW22006   6.971   0.887   2.496
 7036SOL    HW122007   0.017   0.840   2.446
 7036SOL    HW222008   7.007   0.971   2.537
 7037SOL     OW22009   1.701   1.608   6.341
 7037SOL    HW122010   1.744   1.643   6.258
 7037SOL    HW222011   1.607   1.642   6.347
 7038SOL     OW22012   2.078   4.096   5.173
 7038SOL    HW122013   2.056   4.020   5.234
 7038SOL    HW222014   2.147   4.066   5.106
 7039SOL     OW22015   0.692   5.795   2.818
 7039SOL    HW122016   0.678   5.696   2.814
 7039SOL    HW222017   0.713   5.822   2.912
 7040SOL     OW22018   5.655   2.650   5.572
 7040SOL    HW122019   5.589   2.585   5.609
 7040SOL    HW222020   5.690   2.708   5.645
 7041SOL     OW22021   6.413   1.253   1.849
 7041SOL    HW122022   6.424   1.352   1.858
 7041SOL    HW222023   6.501   1.208   1.863
 7042SOL     OW22024   3.984   5.864   4.650
 7042SOL    HW122025   4.069   5.859   4.702
 7042SOL    HW222026   3.916   5.802   4.690
 7043SOL     OW22027   2.133   4.623   3.532
 7043SOL    HW122028   2.179   4.570   3.461
 7043SOL    HW222029   2.079   4.696   3.491
 7044SOL     OW22030   5.862   5.250   5.084
 7044SOL    HW122031   5.824   5.175   5.029
 7044SOL    HW222032   5.790   5.318   5.101
 7045SOL     OW22033   4.990   5.121   2.503
 7045SOL    HW122034   5.049   5.119   2.583
 7045SOL    HW222035   4.898   5.089   2.527
 7046SOL     OW22036   3.078   1.758   3.643
 7046SOL    HW122037   3.078   1.848   3.686
 7046SOL    HW222038   3.075   1.687   3.714
 7047SOL     OW22039   6.362   0.626   2.029
 7047SOL    HW122040   6.455   0.610   2.065
 7047SOL    HW222041   6.304   0.659   2.103
 7048SOL     OW22042   6.317   6.896   3.900
 7048SOL    HW122043   6.302   6.986   3.942
 7048SOL    HW222044   6.320   6.905   3.801
 7049SOL     OW22045   3.768   1.625   0.883
 7049SOL    HW122046   3.840   1.692   0.865
 7049SOL    HW222047   3.716   1.654   0.963
 7050SOL     OW22048   4.227   3.399   1.337
 7050SOL    HW122049   4.163   3.413   1.413
 7050SOL    HW222050   4.302   3.340   1.367
 7051SOL     OW22051   6.948   6.701   1.164
 7051SOL    HW122052   6.856   6.716   1.129
 7051SOL    HW222053   7.013   6.753   1.109
 7052SOL     OW22054   6.865   1.239   3.259
 7052SOL    HW122055   6.775   1.206   3.231
 7052SOL    HW222056   6.855   1.307   3.331
 7053SOL     OW22057   1.824   3.770   4.872
 7053SOL    HW122058   1.740   3.761   4.926
 7053SOL    HW222059   1.800   3.780   4.775
 7054SOL     OW22060   0.044   6.681   0.825
 7054SOL    HW122061   6.981   6.661   0.785
 7054SOL    HW222062   0.115   6.651   0.762
 7055SOL     OW22063   2.747   0.234   0.240
 7055SOL    HW122064   2.670   0.201   0.294
 7055SOL    HW222065   2.817   0.271   0.302
 7056SOL     OW22066   6.705   5.240   1.320
 7056SOL    HW122067   6.745   5.200   1.403
 7056SOL    HW222068   6.662   5.167   1.266
 7057SOL     OW22069   2.748   4.917   3.703
 7057SOL    HW122070   2.714   4.836   3.655
 7057SOL    HW222071   2.731   4.907   3.801
 7058SOL     OW22072   5.533   2.644   5.936
 7058SOL    HW122073   5.550   2.735   5.898
 7058SOL    HW222074   5.618   2.592   5.937
 7059SOL     OW22075   0.568   1.279   4.180
 7059SOL    HW122076   0.588   1.317   4.090
 7059SOL    HW222077   0.634   1.313   4.247
 7060SOL     OW22078   3.600   0.037   1.286
 7060SOL    HW122079   3.662   0.112   1.309
 7060SOL    HW222080   3.624   0.000   1.196
 7061SOL     OW22081   0.705   3.589   3.804
 7061SOL    HW122082   0.803   3.605   3.796
 7061SOL    HW222083   0.688   3.493   3.825
 7062SOL     OW22084   3.152   2.018   5.117
 7062SOL    HW122085   3.162   1.959   5.036
 7062SOL    HW222086   3.169   2.113   5.090
 7063SOL     OW22087   1.682   6.595   1.497
 7063SOL    HW122088   1.658   6.679   1.449
 7063SOL    HW222089   1.690   6.615   1.595
 7064SOL     OW22090   3.776   2.223   7.016
 7064SOL    HW122091   3.747   2.145   0.044
 7064SOL    HW222092   3.780   2.305   0.045
 7065SOL     OW22093   3.695   3.630   5.520
 7065SOL    HW122094   3.712   3.681   5.435
 7065SOL    HW222095   3.724   3.685   5.598
 7066SOL     OW22096   3.734   0.163   5.877
 7066SOL    HW122097   3.739   0.170   5.777
 7066SOL    HW222098   3.733   0.254   5.917
 7067SOL     OW22099   1.388   3.257   5.314
 7067SOL    HW122100   1.301   3.266   5.363
 7067SOL    HW222101   1.380   3.185   5.245
 7068SOL     OW22102   6.188   4.266   4.961
 7068SOL    HW122103   6.154   4.289   5.052
 7068SOL    HW222104   6.276   4.218   4.970
 7069SOL     OW22105   5.485   1.688   4.492
 7069SOL    HW122106   5.502   1.606   4.546
 7069SOL    HW222107   5.387   1.697   4.474
 7070SOL     OW22108   0.964   6.839   4.972
 7070SOL    HW122109   0.934   6.886   5.055
 7070SOL    HW222110   1.060   6.860   4.955
 7071SOL     OW22111   3.625   6.199   6.968
 7071SOL    HW122112   3.532   6.235   6.964
 7071SOL    HW222113   3.642   6.160   0.031
 7072SOL     OW22114   2.141   5.551   0.311
 7072SOL    HW122115   2.163   5.626   0.249
 7072SOL    HW222116   2.176   5.465   0.273
 7073SOL     OW22117   4.821   6.778   3.847
 7073SOL    HW122118   4.904   6.784   3.901
 7073SOL    HW222119   4.772   6.865   3.851
 7074SOL     OW22120   6.114   3.072   1.957
 7074SOL    HW122121   6.064   3.045   1.875
 7074SOL    HW222122   6.125   2.992   2.017
 7075SOL     OW22123   1.622   4.211   4.741
 7075SOL    HW122124   1.689   4.215   4.666
 7075SOL    HW222125   1.669   4.196   4.827
 7076SOL     OW22126   5.464   3.147   0.267
 7076SOL    HW122127   5.473   3.050   0.291
 7076SOL    HW222128   5.366   3.169   0.261
 7077SOL     OW22129   2.113   4.330   3.534
 7077SOL    HW122130   2.135   4.428   3.536
 7077SOL    HW222131   2.195   4.277   3.557
 7078SOL     OW22132   6.545   5.846   1.226
 7078SOL    HW122133   6.520   5.940   1.250
 7078SOL    HW222134   6.496   5.819   1.143
 7079SOL     OW22135   0.968   6.862   3.862
 7079SOL    HW122136   0.930   6.918   3.789
 7079SOL    HW222137   0.937   6.897   3.951
 7080SOL     OW22138   3.117   1.562   4.453
 7080SOL    HW122139   3.115   1.659   4.478
 7080SOL    HW222140   3.130   1.507   4.535
 7081SOL     OW22141   1.705   5.643   0.677
 7081SOL    HW122142   1.681   5.715   0.742
 7081SOL    HW222143   1.778   5.587   0.715
 7082SOL     OW22144   6.605   4.541   0.187
 7082SOL    HW122145   6.695   4.507   0.158
 7082SOL    HW222146   6.537   4.513   0.120
 7083SOL     OW22147   0.562   1.175   1.829
 7083SOL    HW122148   0.464   1.184   1.813
 7083SOL    HW222149   0.603   1.266   1.840
 7084SOL     OW22150   1.301   5.349   5.489
 7084SOL    HW122151   1.219   5.401   5.514
 7084SOL    HW222152   1.305   5.265   5.544
 7085SOL     OW22153   0.172   1.600   2.344
 7085SOL    HW122154   0.120   1.567   2.424
 7085SOL    HW222155   0.147   1.695   2.326
 7086SOL     OW22156   5.423   1.073   5.816
 7086SOL    HW122157   5.432   1.094   5.719
 7086SOL    HW222158   5.419   1.158   5.868
 7087SOL     OW22159   6.013   4.507   2.619
 7087SOL    HW122160   6.057   4.503   2.709
 7087SOL    HW222161   5.923   4.550   2.628
 7088SOL     OW22162   5.110   2.465   5.029
 7088SOL    HW122163   5.114   2.554   4.984
 7088SOL    HW222164   5.175   2.403   4.986
 7089SOL     OW22165   2.158   2.897   4.110
 7089SOL    HW122166   2.108   2.810   4.106
 7089SOL    HW222167   2.246   2.882   4.155
 7090SOL     OW22168   2.475   1.328   0.365
 7090SOL    HW122169   2.404   1.381   0.411
 7090SOL    HW222170   2.545   1.389   0.328
 7091SOL     OW22171   0.564   1.046   0.902
 7091SOL    HW122172   0.637   1.062   0.969
 7091SOL    HW222173   0.524   0.956   0.918
 7092SOL     OW22174   4.261   3.157   5.678
 7092SOL    HW122175   4.324   3.159   5.601
 7092SOL    HW222176   4.178   3.209   5.655
 7093SOL     OW22177   3.552   4.161   2.217
 7093SOL    HW122178   3.560   4.085   2.282
 7093SOL    HW222179   3.614   4.235   2.245
 7094SOL     OW22180   0.313   6.404   5.520
 7094SOL    HW122181   0.361   6.367   5.599
 7094SOL    HW222182   0.225   6.357   5.509
 7095SOL     OW22183   2.839   4.593   5.929
 7095SOL    HW122184   2.849   4.678   5.877
 7095SOL    HW222185   2.746   4.587   5.965
 7096SOL     OW22186   6.326   6.873   2.042
 7096SOL    HW122187   6.267   6.869   1.961
 7096SOL    HW222188   6.269   6.868   2.124
 7097SOL     OW22189   4.500   0.673   2.548
 7097SOL    HW122190   4.579   0.709   2.598
 7097SOL    HW222191   4.522   0.583   2.511
 7098SOL     OW22192   1.849   5.646   5.735
 7098SOL    HW122193   1.905   5.705   5.677
 7098SOL    HW222194   1.801   5.701   5.803
 7099SOL     OW22195   3.719   1.866   4.854
 7099SOL    HW122196   3.735   1.964   4.856
 7099SOL    HW222197   3.700   1.837   4.760
 7100SOL     OW22198   6.409   3.511   0.322
 7100SOL    HW122199   6.392   3.515   0.420
 7100SOL    HW222200   6.495   3.463   0.305
 7101SOL     OW22201   2.553   1.551   5.236
 7101SOL    HW122202   2.493   1.629   5.220
 7101SOL    HW222203   2.624   1.548   5.166
 7102SOL     OW22204   5.527   6.879   0.448
 7102SOL    HW122205   5.618   6.892   0.409
 7102SOL    HW222206   5.531   6.809   0.519
 7103SOL     OW22207   5.432   5.277   1.826
 7103SOL    HW122208   5.498   5.290   1.752
 7103SOL    HW222209   5.434   5.181   1.856
 7104SOL     OW22210   6.583   3.430   2.763
 7104SOL    HW122211   6.599   3.505   2.699
 7104SOL    HW222212   6.665   3.372   2.766
 7105SOL     OW22213   3.192   3.181   4.927
 7105SOL    HW122214   3.214   3.089   4.958
 7105SOL    HW222215   3.235   3.248   4.989
 7106SOL     OW22216   3.600   2.960   1.855
 7106SOL    HW122217   3.616   3.005   1.767
 7106SOL    HW222218   3.574   3.028   1.923
 7107SOL     OW22219   4.765   0.270   0.633
 7107SOL    HW122220   4.792   0.174   0.619
 7107SOL    HW222221   4.837   0.330   0.599
 7108SOL     OW22222   2.962   5.636   2.624
 7108SOL    HW122223   3.036   5.676   2.679
 7108SOL    HW222224   2.902   5.708   2.591
 7109SOL     OW22225   2.294   0.351   6.508
 7109SOL    HW122226   2.208   0.300   6.511
 7109SOL    HW222227   2.274   0.449   6.515
 7110SOL     OW22228   3.281   5.807   4.158
 7110SOL    HW122229   3.278   5.749   4.077
 7110SOL    HW222230   3.310   5.900   4.132
 7111SOL     OW22231   1.218   2.839   4.595
 7111SOL    HW122232   1.305   2.790   4.593
 7111SOL    HW222233   1.204   2.885   4.507
 7112SOL     OW22234   2.165   4.804   4.581
 7112SOL    HW122235   2.192   4.827   4.675
 7112SOL    HW222236   2.246   4.793   4.524
 7113SOL     OW22237   3.586   4.270   5.188
 7113SOL    HW122238   3.548   4.340   5.249
 7113SOL    HW222239   3.513   4.207   5.160
 7114SOL     OW22240   4.983   5.593   1.055
 7114SOL    HW122241   4.905   5.656   1.063
 7114SOL    HW222242   4.964   5.526   0.982
 7115SOL     OW22243   4.387   3.156   0.303
 7115SOL    HW122244   4.441   3.089   0.353
 7115SOL    HW222245   4.414   3.156   0.207
 7116SOL     OW22246   5.339   4.565   3.193
 7116SOL    HW122247   5.259   4.506   3.206
 7116SOL    HW222248   5.419   4.509   3.174
 7117SOL     OW22249   6.880   6.788   4.780
 7117SOL    HW122250   6.971   6.808   4.745
 7117SOL    HW222251   6.869   6.831   4.870
 7118SOL     OW22252   3.512   4.714   6.239
 7118SOL    HW122253   3.444   4.784   6.217
 7118SOL    HW222254   3.485   4.627   6.198
 7119SOL     OW22255   5.159   0.671   4.958
 7119SOL    HW122256   5.132   0.634   5.047
 7119SOL    HW222257   5.256   0.696   4.960
 7120SOL     OW22258   3.848   2.111   1.796
 7120SOL    HW122259   3.865   2.168   1.715
 7120SOL    HW222260   3.808   2.167   1.869
 7121SOL     OW22261   0.575   6.697   3.523
 7121SOL    HW122262   0.529   6.721   3.609
 7121SOL    HW222263   0.511   6.648   3.464
 7122SOL     OW22264   1.563   0.732   5.783
 7122SOL    HW122265   1.514   0.770   5.862
 7122SOL    HW222266   1.522   0.767   5.699
 7123SOL     OW22267   1.044   5.370   4.173
 7123SOL    HW122268   1.135   5.410   4.178
 7123SOL    HW222269   0.975   5.440   4.189
 7124SOL     OW22270   0.454   2.545   1.443
 7124SOL    HW122271   0.404   2.588   1.518
 7124SOL    HW222272   0.420   2.452   1.430
 7125SOL     OW22273   0.999   0.854   0.803
 7125SOL    HW122274   0.975   0.835   0.708
 7125SOL    HW222275   0.916   0.858   0.858
 7126SOL     OW22276   3.896   5.146   0.893
 7126SOL    HW122277   3.936   5.137   0.802
 7126SOL    HW222278   3.922   5.067   0.948
 7127SOL     OW22279   2.942   5.764   0.079
 7127SOL    HW122280   2.968   5.839   0.019
 7127SOL    HW222281   2.855   5.726   0.048
 7128SOL     OW22282   3.261   4.187   6.821
 7128SOL    HW122283   3.355   4.187   6.855
 7128SOL    HW222284   3.197   4.177   6.897
 7129SOL     OW22285   2.296   1.272   0.850
 7129SOL    HW122286   2.242   1.250   0.932
 7129SOL    HW222287   2.248   1.342   0.796
 7130SOL     OW22288   3.514   6.347   4.248
 7130SOL    HW122289   3.578   6.283   4.290
 7130SOL    HW222290   3.483   6.413   4.317
 7131SOL     OW22291   3.475   1.214   1.534
 7131SOL    HW122292   3.405   1.147   1.561
 7131SOL    HW222293   3.430   1.292   1.490
 7132SOL     OW22294   4.482   4.179   0.427
 7132SOL    HW122295   4.511   4.101   0.370
 7132SOL    HW222296   4.386   4.169   0.451
 7133SOL     OW22297   3.793   4.870   5.210
 7133SOL    HW122298   3.830   4.789   5.255
 7133SOL    HW222299   3.867   4.920   5.165
 7134SOL     OW22300   4.974   6.981   1.664
 7134SOL    HW122301   4.903   6.938   1.608
 7134SOL    HW222302   5.007   0.036   1.618
 7135SOL     OW22303   2.286   2.683   3.206
 7135SOL    HW122304   2.328   2.719   3.290
 7135SOL    HW222305   2.259   2.759   3.147
 7136SOL     OW22306   3.459   1.447   0.510
 7136SOL    HW122307   3.531   1.390   0.548
 7136SOL    HW222308   3.423   1.508   0.581
 7137SOL     OW22309   2.990   2.123   0.426
 7137SOL    HW122310   3.021   2.218   0.424
 7137SOL    HW222311   2.890   2.121   0.429
 7138SOL     OW22312   2.260   1.547   1.026
 7138SOL    HW122313   2.221   1.574   1.114
 7138SOL    HW222314   2.295   1.628   0.979
 7139SOL     OW22315   4.684   4.978   2.617
 7139SOL    HW122316   4.740   4.914   2.566
 7139SOL    HW222317   4.588   4.962   2.598
 7140SOL     OW22318   6.237   4.120   0.501
 7140SOL    HW122319   6.333   4.147   0.496
 7140SOL    HW222320   6.221   4.041   0.442
 7141SOL     OW22321   3.651   6.732   1.239
 7141SOL    HW122322   3.649   6.805   1.171
 7141SOL    HW222323   3.592   6.757   1.316
 7142SOL     OW22324   4.152   6.929   3.846
 7142SOL    HW122325   4.199   7.015   3.868
 7142SOL    HW222326   4.148   6.918   3.747
 7143SOL     OW22327   2.328   3.472   6.861
 7143SOL    HW122328   2.389   3.417   6.804
 7143SOL    HW222329   2.337   3.443   6.956
 7144SOL     OW22330   0.887   1.196   3.187
 7144SOL    HW122331   0.789   1.207   3.208
 7144SOL    HW222332   0.903   1.101   3.159
 7145SOL     OW22333   4.045   0.720   6.681
 7145SOL    HW122334   4.085   0.654   6.618
 7145SOL    HW222335   3.948   0.731   6.662
 7146SOL     OW22336   1.688   0.703   6.161
 7146SOL    HW122337   1.774   0.702   6.111
 7146SOL    HW222338   1.625   0.637   6.121
 7147SOL     OW22339   6.835   6.317   3.106
 7147SOL    HW122340   6.837   6.280   3.013
 7147SOL    HW222341   6.760   6.383   3.114
 7148SOL     OW22342   6.047   5.714   1.617
 7148SOL    HW122343   6.096   5.798   1.640
 7148SOL    HW222344   5.965   5.707   1.673
 7149SOL     OW22345   0.329   5.468   3.785
 7149SOL    HW122346   0.261   5.398   3.804
 7149SOL    HW222347   0.285   5.548   3.744
 7150SOL     OW22348   3.497   3.134   0.312
 7150SOL    HW122349   3.572   3.139   0.246
 7150SOL    HW222350   3.430   3.067   0.281
 7151SOL     OW22351   2.792   6.747   1.282
 7151SOL    HW122352   2.866   6.686   1.313
 7151SOL    HW222353   2.831   6.820   1.226
 7152SOL     OW22354   6.620   0.481   5.810
 7152SOL    HW122355   6.552   0.481   5.737
 7152SOL    HW222356   6.702   0.529   5.780
 7153SOL     OW22357   3.596   5.178   2.027
 7153SOL    HW122358   3.672   5.243   2.024
 7153SOL    HW222359   3.617   5.098   1.972
 7154SOL     OW22360   4.346   6.464   3.041
 7154SOL    HW122361   4.357   6.526   2.963
 7154SOL    HW222362   4.277   6.395   3.020
 7155SOL     OW22363   3.203   3.456   1.837
 7155SOL    HW122364   3.253   3.540   1.858
 7155SOL    HW222365   3.139   3.435   1.911
 7156SOL     OW22366   5.233   3.648   2.117
 7156SOL    HW122367   5.249   3.592   2.036
 7156SOL    HW222368   5.276   3.606   2.196
 7157SOL     OW22369   6.634   5.142   1.794
 7157SOL    HW122370   6.542   5.179   1.783
 7157SOL    HW222371   6.630   5.042   1.795
 7158SOL     OW22372   0.994   0.020   3.377
 7158SOL    HW122373   0.947   6.960   3.386
 7158SOL    HW222374   1.087   0.004   3.343
 7159SOL     OW22375   1.446   5.280   4.116
 7159SOL    HW122376   1.450   5.246   4.022
 7159SOL    HW222377   1.381   5.226   4.168
 7160SOL     OW22378   6.410   6.400   2.972
 7160SOL    HW122379   6.508   6.383   2.962
 7160SOL    HW222380   6.378   6.457   2.895
 7161SOL     OW22381   3.206   3.742   3.004
 7161SOL    HW122382   3.256   3.695   3.077
 7161SOL    HW222383   3.233   3.702   2.915
 7162SOL     OW22384   1.231   5.302   6.234
 7162SOL    HW122385   1.159   5.369   6.249
 7162SOL    HW222386   1.268   5.272   6.323
 7163SOL     OW22387   2.903   0.583   2.126
 7163SOL    HW122388   2.861   0.667   2.160
 7163SOL    HW222389   2.990   0.568   2.173
 7164SOL     OW22390   2.422   0.265   4.941
 7164SOL    HW122391   2.513   0.272   4.983
 7164SOL    HW222392   2.431   0.274   4.842
 7165SOL     OW22393   5.658   6.444   1.916
 7165SOL    HW122394   5.693   6.498   1.992
 7165SOL    HW222395   5.654   6.500   1.833
 7166SOL     OW22396   5.267   2.121   0.177
 7166SOL    HW122397   5.290   2.054   0.249
 7166SOL    HW222398   5.183   2.168   0.202
 7167SOL     OW22399   4.909   3.421   4.777
 7167SOL    HW122400   4.977   3.349   4.795
 7167SOL    HW222401   4.886   3.467   4.863
 7168SOL     OW22402   2.824   1.979   3.066
 7168SOL    HW122403   2.780   1.896   3.100
 7168SOL    HW222404   2.923   1.966   3.065
 7169SOL     OW22405   6.874   4.327   5.174
 7169SOL    HW122406   6.840   4.364   5.088
 7169SOL    HW222407   6.803   4.336   5.244
 7170SOL     OW22408   5.025   0.115   2.613
 7170SOL    HW122409   5.082   0.035   2.596
 7170SOL    HW222410   4.986   0.110   2.705
 7171SOL     OW22411   5.989   3.720   0.174
 7171SOL    HW122412   6.012   3.723   0.077
 7171SOL    HW222413   5.900   3.676   0.187
 7172SOL     OW22414   1.995   0.608   5.106
 7172SOL    HW122415   2.020   0.540   5.037
 7172SOL    HW222416   2.077   0.647   5.146
 7173SOL     OW22417   5.885   4.979   6.623
 7173SOL    HW122418   5.877   4.888   6.664
 7173SOL    HW222419   5.974   5.018   6.646
 7174SOL     OW22420   0.038   4.637   0.554
 7174SOL    HW122421   7.021   4.683   0.477
 7174SOL    HW222422   0.041   4.698   0.633
 7175SOL     OW22423   6.518   3.208   5.643
 7175SOL    HW122424   6.503   3.165   5.555
 7175SOL    HW222425   6.602   3.171   5.684
 7176SOL     OW22426   6.956   1.973   4.154
 7176SOL    HW122427   0.021   1.994   4.185
 7176SOL    HW222428   6.892   1.982   4.231
 7177SOL     OW22429   1.525   4.817   5.443
 7177SOL    HW122430   1.497   4.820   5.540
 7177SOL    HW222431   1.446   4.839   5.386
 7178SOL     OW22432   0.080   1.817   6.357
 7178SOL    HW122433   0.043   1.730   6.390
 7178SOL    HW222434   0.171   1.802   6.319
 7179SOL     OW22435   1.285   3.626   4.730
 7179SOL    HW122436   1.259   3.600   4.823
 7179SOL    HW222437   1.206   3.616   4.670
 7180SOL     OW22438   2.219   3.905   0.405
 7180SOL    HW122439   2.223   3.829   0.340
 7180SOL    HW222440   2.236   3.991   0.357
 7181SOL     OW22441   2.429   0.341   0.229
 7181SOL    HW122442   2.526   0.324   0.209
 7181SOL    HW222443   2.421   0.380   0.321
 7182SOL     OW22444   0.434   3.999   3.539
 7182SOL    HW122445   0.395   3.966   3.625
 7182SOL    HW222446   0.501   3.932   3.505
 7183SOL     OW22447   1.974   5.288   1.975
 7183SOL    HW122448   1.897   5.230   2.002
 7183SOL    HW222449   1.951   5.384   1.993
 7184SOL     OW22450   7.017   1.179   3.789
 7184SOL    HW122451   6.952   1.105   3.804
 7184SOL    HW222452   6.968   1.266   3.779
 7185SOL     OW22453   5.790   1.317   5.337
 7185SOL    HW122454   5.770   1.392   5.401
 7185SOL    HW222455   5.725   1.243   5.353
 7186SOL     OW22456   6.574   1.663   1.235
 7186SOL    HW122457   6.522   1.733   1.186
 7186SOL    HW222458   6.571   1.577   1.185
 7187SOL     OW22459   2.969   4.004   5.305
 7187SOL    HW122460   2.968   3.974   5.401
 7187SOL    HW222461   2.903   3.949   5.253
 7188SOL     OW22462   4.454   5.836   0.214
 7188SOL    HW122463   4.423   5.908   0.275
 7188SOL    HW222464   4.443   5.866   0.119
 7189SOL     OW22465   6.346   2.819   6.069
 7189SOL    HW122466   6.405   2.899   6.084
 7189SOL    HW222467   6.291   2.833   5.987
 7190SOL     OW22468   6.343   5.792   1.457
 7190SOL    HW122469   6.362   5.883   1.492
 7190SOL    HW222470   6.406   5.771   1.382
 7191SOL     OW22471   1.058   4.606   2.826
 7191SOL    HW122472   0.963   4.615   2.856
 7191SOL    HW222473   1.095   4.518   2.857
 7192SOL     OW22474   1.735   4.188   6.533
 7192SOL    HW122475   1.737   4.205   6.632
 7192SOL    HW222476   1.807   4.241   6.489
 7193SOL     OW22477   2.282   1.868   2.261
 7193SOL    HW122478   2.187   1.854   2.287
 7193SOL    HW222479   2.287   1.931   2.183
 7194SOL     OW22480   1.869   2.891   6.830
 7194SOL    HW122481   1.951   2.915   6.778
 7194SOL    HW222482   1.794   2.875   6.766
 7195SOL     OW22483   6.958   4.342   0.134
 7195SOL    HW122484   6.896   4.406   0.089
 7195SOL    HW222485   6.999   4.282   0.065
 7196SOL     OW22486   2.584   3.625   1.593
 7196SOL    HW122487   2.486   3.620   1.613
 7196SOL    HW222488   2.625   3.696   1.651
 7197SOL     OW22489   1.316   3.511   5.976
 7197SOL    HW122490   1.318   3.420   6.016
 7197SOL    HW222491   1.261   3.572   6.034
 7198SOL     OW22492   0.196   1.014   0.583
 7198SOL    HW122493   0.280   0.964   0.604
 7198SOL    HW222494   0.200   1.050   0.490
 7199SOL     OW22495   0.993   0.263   2.485
 7199SOL    HW122496   1.035   0.353   2.499
 7199SOL    HW222497   1.013   0.204   2.563
 7200SOL     OW22498   2.318   2.902   6.554
 7200SOL    HW122499   2.340   2.805   6.539
 7200SOL    HW222500   2.389   2.943   6.611
 7201SOL     OW22501   0.899   6.053   4.407
 7201SOL    HW122502   0.961   5.977   4.388
 7201SOL    HW222503   0.951   6.131   4.441
 7202SOL     OW22504   4.475   6.625   6.659
 7202SOL    HW122505   4.548   6.558   6.652
 7202SOL    HW222506   4.505   6.702   6.715
 7203SOL     OW22507   6.892   0.901   1.329
 7203SOL    HW122508   6.992   0.889   1.330
 7203SOL    HW222509   6.870   0.998   1.343
 7204SOL     OW22510   0.319   1.243   6.674
 7204SOL    HW122511   0.418   1.236   6.660
 7204SOL    HW222512   0.273   1.168   6.625
 7205SOL     OW22513   1.524   4.413   5.654
 7205SOL    HW122514   1.552   4.436   5.561
 7205SOL    HW222515   1.566   4.326   5.680
 7206SOL     OW22516   1.272   1.136   2.139
 7206SOL    HW122517   1.364   1.150   2.176
 7206SOL    HW222518   1.245   1.041   2.153
 7207SOL     OW22519   3.703   0.438   4.333
 7207SOL    HW122520   3.618   0.478   4.368
 7207SOL    HW222521   3.681   0.356   4.280
 7208SOL     OW22522   4.636   0.184   3.398
 7208SOL    HW122523   4.667   0.097   3.360
 7208SOL    HW222524   4.659   0.189   3.496
 7209SOL     OW22525   2.512   3.215   1.470
 7209SOL    HW122526   2.566   3.298   1.462
 7209SOL    HW222527   2.429   3.234   1.523
 7210SOL     OW22528   4.237   1.875   3.647
 7210SOL    HW122529   4.203   1.785   3.673
 7210SOL    HW222530   4.178   1.914   3.576
 7211SOL     OW22531   1.825   6.134   5.079
 7211SOL    HW122532   1.897   6.180   5.028
 7211SOL    HW222533   1.852   6.127   5.175
 7212SOL     OW22534   0.346   6.049   5.542
 7212SOL    HW122535   0.394   6.074   5.458
 7212SOL    HW222536   0.360   6.119   5.612
 7213SOL     OW22537   3.554   6.635   6.882
 7213SOL    HW122538   3.629   6.624   6.947
 7213SOL    HW222539   3.536   6.548   6.837
 7214SOL     OW22540   6.433   0.412   5.614
 7214SOL    HW122541   6.427   0.322   5.571
 7214SOL    HW222542   6.355   0.468   5.586
 7215SOL     OW22543   6.210   3.071   4.154
 7215SOL    HW122544   6.260   3.076   4.067
 7215SOL    HW222545   6.162   2.983   4.160
 7216SOL     OW22546   2.947   6.947   1.997
 7216SOL    HW122547   2.902   6.990   2.075
 7216SOL    HW222548   2.911   6.855   1.984
 7217SOL     OW22549   1.706   3.681   3.332
 7217SOL    HW122550   1.693   3.608   3.398
 7217SOL    HW222551   1.779   3.656   3.268
 7218SOL     OW22552   6.396   2.904   4.595
 7218SOL    HW122553   6.372   3.001   4.597
 7218SOL    HW222554   6.352   2.856   4.671
 7219SOL     OW22555   3.232   0.967   2.567
 7219SOL    HW122556   3.175   0.909   2.625
 7219SOL    HW222557   3.312   0.915   2.537
 7220SOL     OW22558   6.566   4.383   4.034
 7220SOL    HW122559   6.566   4.419   4.128
 7220SOL    HW222560   6.471   4.365   4.006
 7221SOL     OW22561   3.859   6.005   4.909
 7221SOL    HW122562   3.857   6.073   4.983
 7221SOL    HW222563   3.770   6.000   4.865
 7222SOL     OW22564   6.473   6.478   3.763
 7222SOL    HW122565   6.543   6.468   3.834
 7222SOL    HW222566   6.392   6.425   3.788
 7223SOL     OW22567   3.306   1.362   0.910
 7223SOL    HW122568   3.287   1.289   0.976
 7223SOL    HW222569   3.231   1.367   0.844
 7224SOL     OW22570   5.099   2.563   4.105
 7224SOL    HW122571   5.066   2.646   4.150
 7224SOL    HW222572   5.045   2.544   4.024
 7225SOL     OW22573   1.423   6.487   0.515
 7225SOL    HW122574   1.363   6.463   0.439
 7225SOL    HW222575   1.370   6.491   0.600
 7226SOL     OW22576   5.556   6.797   0.951
 7226SOL    HW122577   5.478   6.829   1.004
 7226SOL    HW222578   5.617   6.743   1.009
 7227SOL     OW22579   2.471   1.939   1.133
 7227SOL    HW122580   2.554   1.995   1.122
 7227SOL    HW222581   2.456   1.921   1.230
 7228SOL     OW22582   1.316   1.493   2.204
 7228SOL    HW122583   1.411   1.465   2.196
 7228SOL    HW222584   1.262   1.451   2.131
 7229SOL     OW22585   1.351   6.174   5.783
 7229SOL    HW122586   1.386   6.099   5.840
 7229SOL    HW222587   1.271   6.215   5.827
 7230SOL     OW22588   3.509   5.660   4.223
 7230SOL    HW122589   3.430   5.717   4.198
 7230SOL    HW222590   3.531   5.599   4.147
 7231SOL     OW22591   3.730   0.487   6.591
 7231SOL    HW122592   3.643   0.449   6.559
 7231SOL    HW222593   3.771   0.542   6.519
 7232SOL     OW22594   4.658   5.841   2.844
 7232SOL    HW122595   4.609   5.817   2.928
 7232SOL    HW222596   4.669   5.759   2.788
 7233SOL     OW22597   1.551   1.543   4.063
 7233SOL    HW122598   1.515   1.454   4.088
 7233SOL    HW222599   1.573   1.594   4.146
 7234SOL     OW22600   5.977   3.061   2.980
 7234SOL    HW122601   6.045   3.134   2.989
 7234SOL    HW222602   5.897   3.096   2.932
 7235SOL     OW22603   7.017   4.549   2.199
 7235SOL    HW122604   6.948   4.578   2.266
 7235SOL    HW222605   0.072   4.519   2.247
 7236SOL     OW22606   2.764   1.930   2.356
 7236SOL    HW122607   2.695   1.960   2.423
 7236SOL    HW222608   2.793   2.008   2.301
 7237SOL     OW22609   3.931   0.042   5.002
 7237SOL    HW122610   3.848   0.003   4.961
 7237SOL    HW222611   4.006   0.037   4.937
 7238SOL     OW22612   4.485   2.117   6.305
 7238SOL    HW122613   4.529   2.182   6.244
 7238SOL    HW222614   4.554   2.071   6.360
 7239SOL     OW22615   0.739   2.175   1.488
 7239SOL    HW122616   0.721   2.270   1.514
 7239SOL    HW222617   0.681   2.150   1.411
 7240SOL     OW22618   0.321   1.131   5.690
 7240SOL    HW122619   0.324   1.229   5.711
 7240SOL    HW222620   0.290   1.081   5.770
 7241SOL     OW22621   2.378   0.284   1.120
 7241SOL    HW122622   2.421   0.358   1.070
 7241SOL    HW222623   2.417   0.196   1.090
 7242SOL     OW22624   6.128   6.002   6.525
 7242SOL    HW122625   6.039   6.047   6.520
 7242SOL    HW222626   6.136   5.933   6.453
 7243SOL     OW22627   6.345   4.268   6.757
 7243SOL    HW122628   6.369   4.282   6.853
 7243SOL    HW222629   6.409   4.319   6.699
 7244SOL     OW22630   6.952   0.753   1.631
 7244SOL    HW122631   6.856   0.771   1.652
 7244SOL    HW222632   6.997   0.839   1.607
 7245SOL     OW22633   1.677   2.930   4.696
 7245SOL    HW122634   1.713   2.856   4.639
 7245SOL    HW222635   1.591   2.901   4.739
 7246SOL     OW22636   1.175   0.475   3.279
 7246SOL    HW122637   1.124   0.461   3.194
 7246SOL    HW222638   1.151   0.402   3.344
 7247SOL     OW22639   2.423   1.765   5.123
 7247SOL    HW122640   2.463   1.843   5.075
 7247SOL    HW222641   2.389   1.699   5.057
 7248SOL     OW22642   3.300   1.429   3.026
 7248SOL    HW122643   3.286   1.527   3.016
 7248SOL    HW222644   3.326   1.409   3.121
 7249SOL     OW22645   4.828   5.168   2.069
 7249SOL    HW122646   4.801   5.239   2.134
 7249SOL    HW222647   4.796   5.192   1.978
 7250SOL     OW22648   5.536   6.287   5.686
 7250SOL    HW122649   5.570   6.209   5.633
 7250SOL    HW222650   5.548   6.371   5.634
 7251SOL     OW22651   0.295   6.761   5.921
 7251SOL    HW122652   0.201   6.744   5.894
 7251SOL    HW222653   0.316   6.858   5.913
 7252SOL     OW22654   3.565   3.341   2.319
 7252SOL    HW122655   3.628   3.269   2.293
 7252SOL    HW222656   3.480   3.301   2.353
 7253SOL     OW22657   2.030   6.137   6.925
 7253SOL    HW122658   2.005   6.206   6.993
 7253SOL    HW222659   2.119   6.097   6.950
 7254SOL     OW22660   5.411   5.157   4.588
 7254SOL    HW122661   5.397   5.085   4.656
 7254SOL    HW222662   5.467   5.230   4.627
 7255SOL     OW22663   4.002   3.862   0.539
 7255SOL    HW122664   4.034   3.775   0.577
 7255SOL    HW222665   4.069   3.934   0.558
 7256SOL     OW22666   3.055   5.884   4.974
 7256SOL    HW122667   2.983   5.949   4.949
 7256SOL    HW222668   3.114   5.926   5.044
 7257SOL     OW22669   6.670   1.976   3.560
 7257SOL    HW122670   6.764   1.945   3.570
 7257SOL    HW222671   6.647   2.040   3.633
 7258SOL     OW22672   4.974   1.819   2.622
 7258SOL    HW122673   4.915   1.888   2.664
 7258SOL    HW222674   5.059   1.810   2.674
 7259SOL     OW22675   1.904   3.571   1.603
 7259SOL    HW122676   1.850   3.568   1.688
 7259SOL    HW222677   1.884   3.656   1.555
 7260SOL     OW22678   5.048   1.486   1.563
 7260SOL    HW122679   5.050   1.386   1.564
 7260SOL    HW222680   5.025   1.519   1.654
 7261SOL     OW22681   1.404   3.870   1.725
 7261SOL    HW122682   1.400   3.806   1.802
 7261SOL    HW222683   1.342   3.946   1.742
 7262SOL     OW22684   5.235   2.801   6.500
 7262SOL    HW122685   5.186   2.827   6.583
 7262SOL    HW222686   5.179   2.739   6.445
 7263SOL     OW22687   0.677   6.334   6.992
 7263SOL    HW122688   0.644   6.283   6.912
 7263SOL    HW222689   0.702   6.269   0.037
 7264SOL     OW22690   4.850   1.794   6.713
 7264SOL    HW122691   4.877   1.731   6.786
 7264SOL    HW222692   4.794   1.868   6.752
 7265SOL     OW22693   5.376   5.218   6.326
 7265SOL    HW122694   5.469   5.200   6.295
 7265SOL    HW222695   5.313   5.156   6.281
 7266SOL     OW22696   5.662   0.235   2.275
 7266SOL    HW122697   5.661   0.176   2.194
 7266SOL    HW222698   5.579   0.292   2.276
 7267SOL     OW22699   6.193   6.263   5.246
 7267SOL    HW122700   6.228   6.295   5.334
 7267SOL    HW222701   6.269   6.229   5.190
 7268SOL     OW22702   0.115   5.602   3.978
 7268SOL    HW122703   0.064   5.557   3.904
 7268SOL    HW222704   0.075   5.692   3.996
 7269SOL     OW22705   0.895   6.266   6.167
 7269SOL    HW122706   0.800   6.236   6.158
 7269SOL    HW222707   0.897   6.363   6.188
 7270SOL     OW22708   1.052   3.299   4.642
 7270SOL    HW122709   1.077   3.205   4.666
 7270SOL    HW222710   1.054   3.310   4.543
 7271SOL     OW22711   1.235   5.588   4.603
 7271SOL    HW122712   1.196   5.501   4.574
 7271SOL    HW222713   1.288   5.574   4.687
 7272SOL     OW22714   6.090   5.184   2.572
 7272SOL    HW122715   6.047   5.185   2.662
 7272SOL    HW222716   6.190   5.186   2.582
 7273SOL     OW22717   6.409   4.108   1.280
 7273SOL    HW122718   6.329   4.086   1.335
 7273SOL    HW222719   6.416   4.043   1.204
 7274SOL     OW22720   0.071   5.397   6.441
 7274SOL    HW122721   0.061   5.431   6.347
 7274SOL    HW222722   0.117   5.466   6.496
 7275SOL     OW22723   0.687   6.435   2.678
 7275SOL    HW122724   0.686   6.347   2.726
 7275SOL    HW222725   0.603   6.445   2.625
 7276SOL     OW22726   4.998   1.020   3.077
 7276SOL    HW122727   4.914   0.972   3.104
 7276SOL    HW222728   4.998   1.111   3.117
 7277SOL     OW22729   5.121   1.001   4.194
 7277SOL    HW122730   5.219   1.000   4.210
 7277SOL    HW222731   5.072   0.990   4.281
 7278SOL     OW22732   4.142   2.289   1.789
 7278SOL    HW122733   4.205   2.262   1.862
 7278SOL    HW222734   4.048   2.272   1.818
 7279SOL     OW22735   4.087   4.896   5.513
 7279SOL    HW122736   4.052   4.974   5.461
 7279SOL    HW222737   4.075   4.914   5.611
 7280SOL     OW22738   0.262   1.808   4.049
 7280SOL    HW122739   0.260   1.864   3.966
 7280SOL    HW222740   0.329   1.735   4.037
 7281SOL     OW22741   2.528   1.449   6.919
 7281SOL    HW122742   2.595   1.397   6.866
 7281SOL    HW222743   2.491   1.392   6.993
 7282SOL     OW22744   6.101   4.996   2.856
 7282SOL    HW122745   6.136   5.069   2.914
 7282SOL    HW222746   6.166   4.977   2.783
 7283SOL     OW22747   4.976   0.717   2.774
 7283SOL    HW122748   4.967   0.709   2.675
 7283SOL    HW222749   5.025   0.802   2.796
 7284SOL     OW22750   0.211   2.572   6.099
 7284SOL    HW122751   0.260   2.554   6.185
 7284SOL    HW222752   0.119   2.606   6.120
 7285SOL     OW22753   5.427   3.083   2.406
 7285SOL    HW122754   5.441   3.077   2.307
 7285SOL    HW222755   5.439   2.993   2.447
 7286SOL     OW22756   2.556   1.116   0.496
 7286SOL    HW122757   2.521   1.046   0.433
 7286SOL    HW222758   2.539   1.206   0.457
 7287SOL     OW22759   0.519   2.732   5.898
 7287SOL    HW122760   0.503   2.634   5.885
 7287SOL    HW222761   0.616   2.752   5.884
 7288SOL     OW22762   1.981   1.099   0.854
 7288SOL    HW122763   1.965   1.065   0.947
 7288SOL    HW222764   2.058   1.051   0.813
 7289SOL     OW22765   5.208   2.312   4.058
 7289SOL    HW122766   5.205   2.409   4.079
 7289SOL    HW222767   5.285   2.269   4.106
 7290SOL     OW22768   3.776   1.164   4.969
 7290SOL    HW122769   3.784   1.129   4.876
 7290SOL    HW222770   3.680   1.186   4.989
 7291SOL     OW22771   1.867   6.309   0.644
 7291SOL    HW122772   1.889   6.214   0.663
 7291SOL    HW222773   1.911   6.337   0.558
 7292SOL     OW22774   3.580   1.239   4.256
 7292SOL    HW122775   3.545   1.161   4.203
 7292SOL    HW222776   3.542   1.323   4.219
 7293SOL     OW22777   1.152   2.045   4.484
 7293SOL    HW122778   1.189   2.085   4.400
 7293SOL    HW222779   1.222   2.046   4.555
 7294SOL     OW22780   2.819   4.987   6.951
 7294SOL    HW122781   2.902   5.009   7.002
 7294SOL    HW222782   2.843   4.941   6.866
 7295SOL     OW22783   6.121   2.953   1.516
 7295SOL    HW122784   6.153   2.858   1.518
 7295SOL    HW222785   6.076   2.974   1.603
 7296SOL     OW22786   3.074   5.859   2.352
 7296SOL    HW122787   2.998   5.836   2.413
 7296SOL    HW222788   3.039   5.896   2.266
 7297SOL     OW22789   3.942   0.306   1.671
 7297SOL    HW122790   4.042   0.299   1.669
 7297SOL    HW222791   3.916   0.388   1.723
 7298SOL     OW22792   5.193   5.319   5.574
 7298SOL    HW122793   5.149   5.258   5.639
 7298SOL    HW222794   5.260   5.376   5.621
 7299SOL     OW22795   0.992   2.197   0.837
 7299SOL    HW122796   0.911   2.227   0.786
 7299SOL    HW222797   0.965   2.169   0.929
 7300SOL     OW22798   0.814   6.840   3.440
 7300SOL    HW122799   0.853   6.763   3.389
 7300SOL    HW222800   0.725   6.814   3.477
 7301SOL     OW22801   6.018   1.427   4.165
 7301SOL    HW122802   5.973   1.341   4.141
 7301SOL    HW222803   6.109   1.408   4.201
 7302SOL     OW22804   0.864   2.386   5.552
 7302SOL    HW122805   0.886   2.414   5.645
 7302SOL    HW222806   0.769   2.412   5.531
 7303SOL     OW22807   3.711   0.639   7.017
 7303SOL    HW122808   3.784   0.692   6.974
 7303SOL    HW222809   3.683   0.565   6.956
 7304SOL     OW22810   3.180   5.601   1.829
 7304SOL    HW122811   3.198   5.664   1.904
 7304SOL    HW222812   3.155   5.511   1.865
 7305SOL     OW22813   4.493   0.832   0.727
 7305SOL    HW122814   4.580   0.880   0.726
 7305SOL    HW222815   4.493   0.760   0.657
 7306SOL     OW22816   5.097   1.524   0.797
 7306SOL    HW122817   5.070   1.511   0.892
 7306SOL    HW222818   5.041   1.466   0.737
 7307SOL     OW22819   2.445   6.411   2.405
 7307SOL    HW122820   2.499   6.388   2.486
 7307SOL    HW222821   2.506   6.436   2.330
 7308SOL     OW22822   6.846   3.172   5.677
 7308SOL    HW122823   6.930   3.167   5.731
 7308SOL    HW222824   6.834   3.085   5.628
 7309SOL     OW22825   4.343   5.043   1.175
 7309SOL    HW122826   4.335   4.946   1.198
 7309SOL    HW222827   4.258   5.090   1.199
 7310SOL     OW22828   2.342   3.908   1.252
 7310SOL    HW122829   2.338   3.958   1.166
 7310SOL    HW222830   2.253   3.867   1.271
 7311SOL     OW22831   2.357   1.950   1.378
 7311SOL    HW122832   2.409   2.032   1.400
 7311SOL    HW222833   2.266   1.975   1.346
 7312SOL     OW22834   0.993   3.770   4.812
 7312SOL    HW122835   0.920   3.720   4.766
 7312SOL    HW222836   1.008   3.732   4.903
 7313SOL     OW22837   2.186   0.709   0.172
 7313SOL    HW122838   2.209   0.794   0.219
 7313SOL    HW222839   2.196   0.722   0.073
 7314SOL     OW22840   0.130   5.090   5.662
 7314SOL    HW122841   0.096   5.112   5.753
 7314SOL    HW222842   0.210   5.145   5.642
 7315SOL     OW22843   6.097   6.827   2.210
 7315SOL    HW122844   6.059   6.871   2.291
 7315SOL    HW222845   6.071   6.879   2.129
 7316SOL     OW22846   3.350   3.864   6.875
 7316SOL    HW122847   3.421   3.848   6.805
 7316SOL    HW222848   3.362   3.956   6.913
 7317SOL     OW22849   5.281   1.123   2.725
 7317SOL    HW122850   5.292   1.220   2.745
 7317SOL    HW222851   5.257   1.112   2.628
 7318SOL     OW22852   1.824   0.426   2.138
 7318SOL    HW122853   1.806   0.358   2.209
 7318SOL    HW222854   1.795   0.516   2.170
 7319SOL     OW22855   0.281   3.263   6.504
 7319SOL    HW122856   0.278   3.314   6.418
 7319SOL    HW222857   0.188   3.240   6.532
 7320SOL     OW22858   0.550   3.725   2.874
 7320SOL    HW122859   0.575   3.821   2.870
 7320SOL    HW222860   0.561   3.691   2.968
 7321SOL     OW22861   1.997   0.870   5.844
 7321SOL    HW122862   2.019   0.783   5.799
 7321SOL    HW222863   2.080   0.908   5.885
 7322SOL     OW22864   6.716   3.071   3.728
 7322SOL    HW122865   6.676   3.039   3.813
 7322SOL    HW222866   6.758   2.995   3.679
 7323SOL     OW22867   1.724   2.485   2.117
 7323SOL    HW122868   1.746   2.425   2.194
 7323SOL    HW222869   1.636   2.529   2.134
 7324SOL     OW22870   4.472   5.852   1.764
 7324SOL    HW122871   4.430   5.888   1.680
 7324SOL    HW222872   4.436   5.901   1.843
 7325SOL     OW22873   3.154   0.067   0.271
 7325SOL    HW122874   3.118   0.089   0.362
 7325SOL    HW222875   3.083   0.020   0.218
 7326SOL     OW22876   2.684   5.980   6.524
 7326SOL    HW122877   2.669   6.078   6.542
 7326SOL    HW222878   2.668   5.961   6.428
 7327SOL     OW22879   6.440   1.727   6.043
 7327SOL    HW122880   6.471   1.724   5.948
 7327SOL    HW222881   6.512   1.766   6.100
 7328SOL     OW22882   3.103   0.891   5.595
 7328SOL    HW122883   3.086   0.967   5.657
 7328SOL    HW222884   3.148   0.816   5.644
 7329SOL     OW22885   6.341   4.476   1.381
 7329SOL    HW122886   6.279   4.554   1.388
 7329SOL    HW222887   6.435   4.509   1.373
 7330SOL     OW22888   2.380   2.636   6.515
 7330SOL    HW122889   2.299   2.577   6.519
 7330SOL    HW222890   2.441   2.603   6.443
 7331SOL     OW22891   5.003   6.654   1.544
 7331SOL    HW122892   5.003   6.634   1.642
 7331SOL    HW222893   5.095   6.643   1.508
 7332SOL     OW22894   2.838   5.808   0.360
 7332SOL    HW122895   2.894   5.891   0.372
 7332SOL    HW222896   2.853   5.771   0.268
 7333SOL     OW22897   6.875   2.962   2.020
 7333SOL    HW122898   6.870   3.053   1.978
 7333SOL    HW222899   6.964   2.921   2.001
 7334SOL     OW22900   2.785   6.017   6.821
 7334SOL    HW122901   2.758   6.070   6.740
 7334SOL    HW222902   2.868   5.965   6.800
 7335SOL     OW22903   2.155   2.437   3.182
 7335SOL    HW122904   2.059   2.439   3.153
 7335SOL    HW222905   2.188   2.531   3.192
 7336SOL     OW22906   1.754   6.602   2.940
 7336SOL    HW122907   1.818   6.528   2.923
 7336SOL    HW222908   1.793   6.689   2.910
 7337SOL     OW22909   0.686   2.925   1.306
 7337SOL    HW122910   0.776   2.894   1.335
 7337SOL    HW222911   0.629   2.943   1.386
 7338SOL     OW22912   5.667   1.876   1.425
 7338SOL    HW122913   5.611   1.794   1.434
 7338SOL    HW222914   5.751   1.854   1.375
 7339SOL     OW22915   6.121   0.112   3.775
 7339SOL    HW122916   6.154   0.029   3.730
 7339SOL    HW222917   6.021   0.111   3.777
 7340SOL     OW22918   3.436   1.678   0.351
 7340SOL    HW122919   3.430   1.581   0.377
 7340SOL    HW222920   3.503   1.724   0.409
 7341SOL     OW22921   0.871   4.055   6.050
 7341SOL    HW122922   0.933   4.036   6.126
 7341SOL    HW222923   0.834   4.148   6.058
 7342SOL     OW22924   0.212   1.730   0.446
 7342SOL    HW122925   0.175   1.659   0.506
 7342SOL    HW222926   0.282   1.782   0.495
 7343SOL     OW22927   6.092   3.799   1.424
 7343SOL    HW122928   6.095   3.807   1.524
 7343SOL    HW222929   6.059   3.708   1.399
 7344SOL     OW22930   1.641   1.347   6.320
 7344SOL    HW122931   1.596   1.337   6.409
 7344SOL    HW222932   1.676   1.441   6.312
 7345SOL     OW22933   4.297   4.840   5.065
 7345SOL    HW122934   4.213   4.888   5.038
 7345SOL    HW222935   4.285   4.801   5.157
 7346SOL     OW22936   4.181   4.749   1.960
 7346SOL    HW122937   4.179   4.650   1.946
 7346SOL    HW222938   4.252   4.789   1.901
 7347SOL     OW22939   0.500   2.322   0.365
 7347SOL    HW122940   0.515   2.380   0.284
 7347SOL    HW222941   0.474   2.230   0.335
 7348SOL     OW22942   1.666   3.841   4.612
 7348SOL    HW122943   1.578   3.888   4.620
 7348SOL    HW222944   1.666   3.782   4.532
 7349SOL     OW22945   4.850   1.419   1.369
 7349SOL    HW122946   4.910   1.353   1.324
 7349SOL    HW222947   4.897   1.461   1.446
 7350SOL     OW22948   2.291   2.940   5.536
 7350SOL    HW122949   2.286   2.881   5.617
 7350SOL    HW222950   2.381   2.931   5.494
 7351SOL     OW22951   5.777   5.916   4.984
 7351SOL    HW122952   5.811   5.845   5.045
 7351SOL    HW222953   5.747   5.875   4.899
 7352SOL     OW22954   2.076   0.990   3.274
 7352SOL    HW122955   2.132   0.911   3.251
 7352SOL    HW222956   2.117   1.039   3.352
 7353SOL     OW22957   0.614   6.663   6.181
 7353SOL    HW122958   0.536   6.722   6.202
 7353SOL    HW222959   0.583   6.584   6.129
 7354SOL     OW22960   0.715   2.348   5.042
 7354SOL    HW122961   0.735   2.297   4.958
 7354SOL    HW222962   0.735   2.445   5.028
 7355SOL     OW22963   1.292   0.481   0.969
 7355SOL    HW122964   1.232   0.402   0.981
 7355SOL    HW222965   1.383   0.449   0.942
 7356SOL     OW22966   3.909   3.922   6.150
 7356SOL    HW122967   3.857   4.007   6.157
 7356SOL    HW222968   3.846   3.845   6.155
 7357SOL     OW22969   3.599   0.037   1.837
 7357SOL    HW122970   3.638   7.000   1.772
 7357SOL    HW222971   3.530   0.093   1.791
 7358SOL     OW22972   6.079   3.435   2.776
 7358SOL    HW122973   6.027   3.474   2.853
 7358SOL    HW222974   6.073   3.497   2.698
 7359SOL     OW22975   4.077   1.900   5.781
 7359SOL    HW122976   4.014   1.830   5.814
 7359SOL    HW222977   4.108   1.956   5.858
 7360SOL     OW22978   2.853   3.527   5.812
 7360SOL    HW122979   2.860   3.435   5.775
 7360SOL    HW222980   2.931   3.581   5.781
 7361SOL     OW22981   4.256   0.601   2.052
 7361SOL    HW122982   4.333   0.598   2.116
 7361SOL    HW222983   4.173   0.572   2.099
 7362SOL     OW22984   1.735   5.163   5.776
 7362SOL    HW122985   1.811   5.207   5.823
 7362SOL    HW222986   1.762   5.072   5.746
 7363SOL     OW22987   4.408   1.711   1.540
 7363SOL    HW122988   4.479   1.729   1.608
 7363SOL    HW222989   4.432   1.631   1.485
 7364SOL     OW22990   4.631   0.456   1.390
 7364SOL    HW122991   4.567   0.499   1.326
 7364SOL    HW222992   4.626   0.503   1.478
 7365SOL     OW22993   0.304   5.790   1.837
 7365SOL    HW122994   0.277   5.697   1.859
 7365SOL    HW222995   0.223   5.844   1.813
 7366SOL     OW22996   2.799   6.086   0.053
 7366SOL    HW122997   2.728   6.049   0.113
 7366SOL    HW222998   2.783   6.056   6.987
 7367SOL     OW22999   5.512   2.713   1.432
 7367SOL    HW123000   5.481   2.637   1.374
 7367SOL    HW223001   5.458   2.715   1.515
 7368SOL     OW23002   3.668   2.883   2.526
 7368SOL    HW123003   3.737   2.949   2.556
 7368SOL    HW223004   3.665   2.806   2.589
 7369SOL     OW23005   3.721   2.185   0.635
 7369SOL    HW123006   3.771   2.267   0.609
 7369SOL    HW223007   3.636   2.179   0.582
 7370SOL     OW23008   2.331   0.886   4.438
 7370SOL    HW123009   2.378   0.800   4.460
 7370SOL    HW223010   2.278   0.917   4.517
 7371SOL     OW23011   2.522   6.350   3.601
 7371SOL    HW123012   2.567   6.288   3.665
 7371SOL    HW223013   2.532   6.444   3.634
 7372SOL     OW23014   4.841   1.152   4.314
 7372SOL    HW123015   4.764   1.149   4.378
 7372SOL    HW223016   4.920   1.195   4.357
 7373SOL     OW23017   6.226   1.863   3.593
 7373SOL    HW123018   6.131   1.833   3.589
 7373SOL    HW223019   6.276   1.808   3.660
 7374SOL     OW23020   2.988   1.408   5.139
 7374SOL    HW123021   2.897   1.441   5.112
 7374SOL    HW223022   2.991   1.309   5.131
 7375SOL     OW23023   2.734   2.331   2.954
 7375SOL    HW123024   2.782   2.370   2.875
 7375SOL    HW223025   2.800   2.308   3.025
 7376SOL     OW23026   2.186   2.297   0.471
 7376SOL    HW123027   2.235   2.217   0.504
 7376SOL    HW223028   2.119   2.270   0.403
 7377SOL     OW23029   5.499   4.676   0.598
 7377SOL    HW123030   5.519   4.578   0.587
 7377SOL    HW223031   5.528   4.705   0.689
 7378SOL     OW23032   0.352   0.674   5.843
 7378SOL    HW123033   0.441   0.719   5.840
 7378SOL    HW223034   0.337   0.625   5.757
 7379SOL     OW23035   3.132   1.749   2.738
 7379SOL    HW123036   3.044   1.743   2.690
 7379SOL    HW223037   3.194   1.679   2.702
 7380SOL     OW23038   0.001   4.573   3.901
 7380SOL    HW123039   0.047   4.496   3.856
 7380SOL    HW223040   7.002   4.546   3.994
 7381SOL     OW23041   3.907   3.101   0.731
 7381SOL    HW123042   3.900   3.023   0.793
 7381SOL    HW223043   3.988   3.155   0.753
 7382SOL     OW23044   0.626   6.990   5.634
 7382SOL    HW123045   0.536   7.019   5.667
 7382SOL    HW223046   0.652   6.906   5.681
 7383SOL     OW23047   2.534   6.367   1.122
 7383SOL    HW123048   2.554   6.278   1.080
 7383SOL    HW223049   2.595   6.381   1.200
 7384SOL     OW23050   6.241   6.662   2.873
 7384SOL    HW123051   6.319   6.713   2.836
 7384SOL    HW223052   6.165   6.725   2.890
 7385SOL     OW23053   3.399   5.879   2.783
 7385SOL    HW123054   3.307   5.859   2.818
 7385SOL    HW223055   3.435   5.959   2.831
 7386SOL     OW23056   0.272   2.413   0.125
 7386SOL    HW123057   0.209   2.441   0.198
 7386SOL    HW223058   0.228   2.344   0.068
 7387SOL     OW23059   5.988   6.273   5.671
 7387SOL    HW123060   5.916   6.208   5.647
 7387SOL    HW223061   6.013   6.261   5.767
 7388SOL     OW23062   0.988   5.698   2.361
 7388SOL    HW123063   0.895   5.732   2.376
 7388SOL    HW223064   1.053   5.767   2.391
 7389SOL     OW23065   5.958   3.953   6.225
 7389SOL    HW123066   5.988   3.898   6.304
 7389SOL    HW223067   6.034   3.963   6.161
 7390SOL     OW23068   1.658   1.987   1.051
 7390SOL    HW123069   1.676   2.019   0.958
 7390SOL    HW223070   1.599   2.053   1.098
 7391SOL     OW23071   4.050   3.389   3.808
 7391SOL    HW123072   4.087   3.350   3.892
 7391SOL    HW223073   3.995   3.319   3.761
 7392SOL     OW23074   2.947   6.367   6.702
 7392SOL    HW123075   2.903   6.316   6.776
 7392SOL    HW223076   2.879   6.425   6.657
 7393SOL     OW23077   6.199   4.827   2.593
 7393SOL    HW123078   6.123   4.828   2.529
 7393SOL    HW223079   6.207   4.736   2.634
 7394SOL     OW23080   2.301   2.777   5.796
 7394SOL    HW123081   2.224   2.827   5.836
 7394SOL    HW223082   2.287   2.679   5.810
 7395SOL     OW23083   1.743   3.010   1.512
 7395SOL    HW123084   1.647   3.036   1.518
 7395SOL    HW223085   1.799   3.089   1.488
 7396SOL     OW23086   1.553   6.400   1.360
 7396SOL    HW123087   1.618   6.451   1.417
 7396SOL    HW223088   1.551   6.440   1.268
 7397SOL     OW23089   4.398   5.484   4.361
 7397SOL    HW123090   4.491   5.454   4.384
 7397SOL    HW223091   4.371   5.557   4.424
 7398SOL     OW23092   1.538   4.851   3.718
 7398SOL    HW123093   1.460   4.900   3.680
 7398SOL    HW223094   1.509   4.761   3.751
 7399SOL     OW23095   0.855   2.931   4.507
 7399SOL    HW123096   0.799   3.013   4.520
 7399SOL    HW223097   0.795   2.852   4.498
 7400SOL     OW23098   4.296   3.025   5.909
 7400SOL    HW123099   4.270   3.089   5.981
 7400SOL    HW223100   4.267   3.062   5.820
 7401SOL     OW23101   1.259   2.689   3.816
 7401SOL    HW123102   1.333   2.710   3.752
 7401SOL    HW223103   1.280   2.603   3.864
 7402SOL     OW23104   2.977   5.452   6.657
 7402SOL    HW123105   3.030   5.487   6.735
 7402SOL    HW223106   2.983   5.353   6.654
 7403SOL     OW23107   1.854   3.654   2.213
 7403SOL    HW123108   1.922   3.663   2.141
 7403SOL    HW223109   1.835   3.557   2.230
 7404SOL     OW23110   2.395   4.778   1.827
 7404SOL    HW123111   2.351   4.696   1.864
 7404SOL    HW223112   2.493   4.774   1.845
 7405SOL     OW23113   3.488   4.915   4.903
 7405SOL    HW123114   3.464   4.956   4.815
 7405SOL    HW223115   3.404   4.891   4.952
 7406SOL     OW23116   0.268   2.702   3.635
 7406SOL    HW123117   0.352   2.740   3.598
 7406SOL    HW223118   0.260   2.606   3.608
 7407SOL     OW23119   0.919   6.704   5.348
 7407SOL    HW123120   0.829   6.665   5.324
 7407SOL    HW223121   0.951   6.763   5.274
 7408SOL     OW23122   3.490   4.121   6.958
 7408SOL    HW123123   3.586   4.104   6.935
 7408SOL    HW223124   3.480   4.129   0.029
 7409SOL     OW23125   5.209   3.190   0.279
 7409SOL    HW123126   5.177   3.155   0.367
 7409SOL    HW223127   5.160   3.143   0.205
 7410SOL     OW23128   0.284   0.275   0.385
 7410SOL    HW123129   0.211   0.280   0.316
 7410SOL    HW223130   0.373   0.274   0.339
 7411SOL     OW23131   2.047   0.567   6.760
 7411SOL    HW123132   1.970   0.629   6.745
 7411SOL    HW223133   2.110   0.574   6.683
 7412SOL     OW23134   4.771   0.414   1.844
 7412SOL    HW123135   4.803   0.466   1.923
 7412SOL    HW223136   4.730   0.328   1.875
 7413SOL     OW23137   4.690   5.368   3.816
 7413SOL    HW123138   4.691   5.323   3.905
 7413SOL    HW223139   4.637   5.453   3.821
 7414SOL     OW23140   0.918   1.347   3.413
 7414SOL    HW123141   0.926   1.270   3.475
 7414SOL    HW223142   0.908   1.314   3.319
 7415SOL     OW23143   1.578   4.794   4.331
 7415SOL    HW123144   1.652   4.858   4.354
 7415SOL    HW223145   1.603   4.703   4.362
 7416SOL     OW23146   1.959   1.453   2.668
 7416SOL    HW123147   1.974   1.510   2.748
 7416SOL    HW223148   1.929   1.510   2.592
 7417SOL     OW23149   2.131   2.043   1.288
 7417SOL    HW123150   2.140   2.026   1.190
 7417SOL    HW223151   2.035   2.059   1.310
 7418SOL     OW23152   2.190   5.816   0.515
 7418SOL    HW123153   2.110   5.847   0.463
 7418SOL    HW223154   2.162   5.749   0.583
 7419SOL     OW23155   0.052   3.409   4.313
 7419SOL    HW123156   0.127   3.473   4.299
 7419SOL    HW223157   0.086   3.327   4.361
 7420SOL     OW23158   0.574   6.276   1.678
 7420SOL    HW123159   0.542   6.368   1.700
 7420SOL    HW223160   0.549   6.213   1.752
 7421SOL     OW23161   4.019   3.874   1.396
 7421SOL    HW123162   4.016   3.919   1.307
 7421SOL    HW223163   4.037   3.777   1.384
 7422SOL     OW23164   0.037   4.144   2.087
 7422SOL    HW123165   0.052   4.222   2.026
 7422SOL    HW223166   7.020   4.070   2.036
 7423SOL     OW23167   6.289   2.929   5.788
 7423SOL    HW123168   6.248   3.012   5.750
 7423SOL    HW223169   6.385   2.923   5.759
 7424SOL     OW23170   7.001   0.494   5.473
 7424SOL    HW123171   7.008   0.587   5.508
 7424SOL    HW223172   0.048   0.439   5.509
 7425SOL     OW23173   4.246   6.685   0.279
 7425SOL    HW123174   4.289   6.595   0.292
 7425SOL    HW223175   4.239   6.705   0.182
 7426SOL     OW23176   3.323   1.782   5.342
 7426SOL    HW123177   3.258   1.845   5.300
 7426SOL    HW223178   3.288   1.688   5.335
 7427SOL     OW23179   4.988   0.682   3.055
 7427SOL    HW123180   4.981   0.691   2.955
 7427SOL    HW223181   4.917   0.738   3.098
 7428SOL     OW23182   4.771   1.825   5.195
 7428SOL    HW123183   4.788   1.838   5.098
 7428SOL    HW223184   4.773   1.913   5.243
 7429SOL     OW23185   0.130   6.444   3.872
 7429SOL    HW123186   0.047   6.423   3.822
 7429SOL    HW223187   0.129   6.540   3.901
 7430SOL     OW23188   1.323   3.400   0.787
 7430SOL    HW123189   1.370   3.446   0.712
 7430SOL    HW223190   1.224   3.409   0.775
 7431SOL     OW23191   1.143   2.639   2.533
 7431SOL    HW123192   1.115   2.582   2.611
 7431SOL    HW223193   1.062   2.674   2.487
 7432SOL     OW23194   0.728   0.521   3.116
 7432SOL    HW123195   0.714   0.498   3.020
 7432SOL    HW223196   0.795   0.459   3.157
 7433SOL     OW23197   4.376   5.623   5.947
 7433SOL    HW123198   4.449   5.583   6.002
 7433SOL    HW223199   4.289   5.619   5.997
 7434SOL     OW23200   4.816   5.075   5.088
 7434SOL    HW123201   4.866   4.990   5.107
 7434SOL    HW223202   4.882   5.149   5.074
 7435SOL     OW23203   4.292   5.784   1.423
 7435SOL    HW123204   4.365   5.816   1.362
 7435SOL    HW223205   4.233   5.861   1.447
 7436SOL     OW23206   4.221   4.222   6.350
 7436SOL    HW123207   4.280   4.302   6.359
 7436SOL    HW223208   4.247   4.154   6.418
 7437SOL     OW23209   2.185   5.759   0.097
 7437SOL    HW123210   2.184   5.676   0.041
 7437SOL    HW223211   2.092   5.795   0.105
 7438SOL     OW23212   1.098   6.198   0.496
 7438SOL    HW123213   1.038   6.270   0.533
 7438SOL    HW223214   1.181   6.240   0.459
 7439SOL     OW23215   1.807   6.748   6.044
 7439SOL    HW123216   1.736   6.746   6.115
 7439SOL    HW223217   1.812   6.840   6.005
 7440SOL     OW23218   0.319   3.262   3.939
 7440SOL    HW123219   0.401   3.312   3.964
 7440SOL    HW223220   0.305   3.185   4.001
 7441SOL     OW23221   5.051   6.888   4.220
 7441SOL    HW123222   5.119   6.840   4.164
 7441SOL    HW223223   4.977   6.921   4.161
 7442SOL     OW23224   6.298   1.567   6.234
 7442SOL    HW123225   6.363   1.615   6.175
 7442SOL    HW223226   6.249   1.632   6.291
 7443SOL     OW23227   6.294   6.478   1.694
 7443SOL    HW123228   6.197   6.496   1.710
 7443SOL    HW223229   6.325   6.401   1.749
 7444SOL     OW23230   5.578   2.337   6.856
 7444SOL    HW123231   5.514   2.323   6.931
 7444SOL    HW223232   5.553   2.420   6.806
 7445SOL     OW23233   3.749   0.273   1.291
 7445SOL    HW123234   3.839   0.249   1.328
 7445SOL    HW223235   3.760   0.321   1.204
 7446SOL     OW23236   5.496   3.115   0.660
 7446SOL    HW123237   5.467   3.027   0.697
 7446SOL    HW223238   5.589   3.108   0.623
 7447SOL     OW23239   6.696   3.766   0.009
 7447SOL    HW123240   6.635   3.758   0.088
 7447SOL    HW223241   6.692   3.682   6.983
 7448SOL     OW23242   6.652   6.957   5.093
 7448SOL    HW123243   6.641   6.859   5.107
 7448SOL    HW223244   6.746   6.976   5.064
 7449SOL     OW23245   0.421   4.240   2.083
 7449SOL    HW123246   0.442   4.216   1.988
 7449SOL    HW223247   0.507   4.252   2.134
 7450SOL     OW23248   5.630   2.752   5.148
 7450SOL    HW123249   5.576   2.683   5.198
 7450SOL    HW223250   5.682   2.708   5.075
 7451SOL     OW23251   6.463   5.628   2.768
 7451SOL    HW123252   6.533   5.668   2.708
 7451SOL    HW223253   6.430   5.542   2.728
 7452SOL     OW23254   6.158   6.003   4.112
 7452SOL    HW123255   6.117   6.091   4.136
 7452SOL    HW223256   6.087   5.938   4.089
 7453SOL     OW23257   5.466   5.296   4.916
 7453SOL    HW123258   5.436   5.297   5.011
 7453SOL    HW223259   5.524   5.375   4.898
 7454SOL     OW23260   1.343   2.039   0.942
 7454SOL    HW123261   1.390   2.127   0.954
 7454SOL    HW223262   1.263   2.037   1.002
 7455SOL     OW23263   6.850   2.694   1.350
 7455SOL    HW123264   6.765   2.733   1.314
 7455SOL    HW223265   6.853   2.597   1.328
 7456SOL     OW23266   1.180   0.852   4.884
 7456SOL    HW123267   1.232   0.768   4.872
 7456SOL    HW223268   1.140   0.879   4.796
 7457SOL     OW23269   3.391   0.985   5.099
 7457SOL    HW123270   3.349   0.987   5.189
 7457SOL    HW223271   3.421   0.891   5.078
 7458SOL     OW23272   2.038   6.643   6.216
 7458SOL    HW123273   2.084   6.687   6.138
 7458SOL    HW223274   1.954   6.693   6.238
 7459SOL     OW23275   5.398   0.172   1.971
 7459SOL    HW123276   5.380   0.162   2.069
 7459SOL    HW223277   5.353   0.099   1.921
 7460SOL     OW23278   0.619   5.068   0.490
 7460SOL    HW123279   0.531   5.073   0.538
 7460SOL    HW223280   0.681   5.009   0.542
 7461SOL     OW23281   5.950   6.610   6.743
 7461SOL    HW123282   5.987   6.655   6.662
 7461SOL    HW223283   5.959   6.670   6.822
 7462SOL     OW23284   1.270   4.352   2.020
 7462SOL    HW123285   1.368   4.336   2.037
 7462SOL    HW223286   1.258   4.443   1.979
 7463SOL     OW23287   2.562   4.705   0.878
 7463SOL    HW123288   2.574   4.794   0.833
 7463SOL    HW223289   2.651   4.673   0.911
 7464SOL     OW23290   5.399   6.977   6.303
 7464SOL    HW123291   5.481   6.931   6.269
 7464SOL    HW223292   5.326   6.910   6.316
 7465SOL     OW23293   2.723   5.549   6.544
 7465SOL    HW123294   2.702   5.637   6.585
 7465SOL    HW223295   2.812   5.518   6.576
 7466SOL     OW23296   0.015   0.314   5.097
 7466SOL    HW123297   0.022   0.411   5.120
 7466SOL    HW223298   6.967   0.301   5.033
 7467SOL     OW23299   0.278   1.084   6.999
 7467SOL    HW123300   0.259   1.158   6.935
 7467SOL    HW223301   0.315   1.122   0.056
 7468SOL     OW23302   6.063   2.778   3.643
 7468SOL    HW123303   6.057   2.703   3.578
 7468SOL    HW223304   5.986   2.773   3.706
 7469SOL     OW23305   6.619   0.612   0.163
 7469SOL    HW123306   6.709   0.580   0.193
 7469SOL    HW223307   6.607   0.708   0.186
 7470SOL     OW23308   6.165   3.660   3.331
 7470SOL    HW123309   6.148   3.576   3.280
 7470SOL    HW223310   6.125   3.653   3.422
 7471SOL     OW23311   5.085   6.818   5.454
 7471SOL    HW123312   5.135   6.855   5.376
 7471SOL    HW223313   5.119   6.726   5.475
 7472SOL     OW23314   5.602   1.008   6.139
 7472SOL    HW123315   5.588   1.083   6.074
 7472SOL    HW223316   5.698   1.005   6.166
 7473SOL     OW23317   5.203   5.522   4.036
 7473SOL    HW123318   5.149   5.550   4.115
 7473SOL    HW223319   5.168   5.435   4.001
 7474SOL     OW23320   6.952   1.879   5.736
 7474SOL    HW123321   6.928   1.848   5.644
 7474SOL    HW223322   6.869   1.890   5.791
 7475SOL     OW23323   5.106   2.416   2.306
 7475SOL    HW123324   5.195   2.442   2.268
 7475SOL    HW223325   5.049   2.376   2.235
 7476SOL     OW23326   3.475   1.148   3.530
 7476SOL    HW123327   3.543   1.132   3.459
 7476SOL    HW223328   3.500   1.228   3.583
 7477SOL     OW23329   6.945   2.150   5.301
 7477SOL    HW123330   6.890   2.221   5.345
 7477SOL    HW223331   6.887   2.072   5.278
 7478SOL     OW23332   6.361   3.904   5.705
 7478SOL    HW123333   6.322   3.886   5.796
 7478SOL    HW223334   6.461   3.911   5.712
 7479SOL     OW23335   4.304   1.851   2.302
 7479SOL    HW123336   4.217   1.884   2.340
 7479SOL    HW223337   4.335   1.771   2.353
 7480SOL     OW23338   1.317   4.996   2.432
 7480SOL    HW123339   1.380   4.934   2.480
 7480SOL    HW223340   1.245   4.942   2.388
 7481SOL     OW23341   5.642   5.671   0.920
 7481SOL    HW123342   5.614   5.761   0.886
 7481SOL    HW223343   5.731   5.679   0.965
 7482SOL     OW23344   4.356   2.388   2.751
 7482SOL    HW123345   4.366   2.356   2.657
 7482SOL    HW223346   4.259   2.389   2.775
 7483SOL     OW23347   4.902   3.453   4.348
 7483SOL    HW123348   4.866   3.377   4.402
 7483SOL    HW223349   4.908   3.426   4.252
 7484SOL     OW23350   1.372   6.239   3.977
 7484SOL    HW123351   1.347   6.332   3.949
 7484SOL    HW223352   1.307   6.206   4.045
 7485SOL     OW23353   3.131   0.309   4.537
 7485SOL    HW123354   3.118   0.310   4.636
 7485SOL    HW223355   3.044   0.286   4.492
 7486SOL     OW23356   1.221   5.993   0.672
 7486SOL    HW123357   1.179   6.039   0.593
 7486SOL    HW223358   1.197   5.896   0.669
 7487SOL     OW23359   2.383   0.525   2.910
 7487SOL    HW123360   2.470   0.489   2.942
 7487SOL    HW223361   2.310   0.497   2.971
 7488SOL     OW23362   2.569   5.411   4.861
 7488SOL    HW123363   2.516   5.484   4.905
 7488SOL    HW223364   2.664   5.440   4.850
 7489SOL     OW23365   6.001   2.614   6.184
 7489SOL    HW123366   5.905   2.589   6.172
 7489SOL    HW223367   6.007   2.712   6.206
 7490SOL     OW23368   1.127   0.340   2.989
 7490SOL    HW123369   1.039   0.297   2.969
 7490SOL    HW223370   1.199   0.270   2.989
 7491SOL     OW23371   4.138   3.131   6.377
 7491SOL    HW123372   4.068   3.190   6.337
 7491SOL    HW223373   4.106   3.096   6.465
 7492SOL     OW23374   1.804   0.432   3.544
 7492SOL    HW123375   1.710   0.458   3.567
 7492SOL    HW223376   1.864   0.451   3.621
 7493SOL     OW23377   0.757   3.009   6.462
 7493SOL    HW123378   0.829   2.940   6.462
 7493SOL    HW223379   0.707   3.005   6.375
 7494SOL     OW23380   5.743   1.698   3.008
 7494SOL    HW123381   5.764   1.743   2.921
 7494SOL    HW223382   5.822   1.645   3.038
 7495SOL     OW23383   1.760   2.291   6.908
 7495SOL    HW123384   1.726   2.203   6.942
 7495SOL    HW223385   1.856   2.281   6.881
 7496SOL     OW23386   6.727   3.283   3.406
 7496SOL    HW123387   6.815   3.292   3.453
 7496SOL    HW223388   6.740   3.292   3.308
 7497SOL     OW23389   1.935   4.351   1.433
 7497SOL    HW123390   1.980   4.266   1.460
 7497SOL    HW223391   1.952   4.368   1.335
 7498SOL     OW23392   2.899   0.989   5.342
 7498SOL    HW123393   2.971   0.940   5.392
 7498SOL    HW223394   2.838   0.924   5.298
 7499SOL     OW23395   4.406   2.175   3.374
 7499SOL    HW123396   4.413   2.078   3.393
 7499SOL    HW223397   4.477   2.202   3.309
 7500SOL     OW23398   3.275   5.933   3.523
 7500SOL    HW123399   3.240   5.973   3.438
 7500SOL    HW223400   3.327   5.850   3.502
 7501SOL     OW23401   5.111   4.038   4.842
 7501SOL    HW123402   5.133   3.995   4.930
 7501SOL    HW223403   5.024   4.002   4.808
 7502SOL     OW23404   2.809   1.138   4.364
 7502SOL    HW123405   2.842   1.045   4.349
 7502SOL    HW223406   2.881   1.204   4.341
 7503SOL     OW23407   2.144   6.676   1.590
 7503SOL    HW123408   2.145   6.722   1.679
 7503SOL    HW223409   2.186   6.735   1.522
 7504SOL     OW23410   0.779   6.195   3.913
 7504SOL    HW123411   0.869   6.202   3.957
 7504SOL    HW223412   0.711   6.240   3.971
 7505SOL     OW23413   1.581   3.012   5.727
 7505SOL    HW123414   1.533   2.951   5.663
 7505SOL    HW223415   1.539   3.103   5.723
 7506SOL     OW23416   5.518   1.878   3.576
 7506SOL    HW123417   5.597   1.935   3.594
 7506SOL    HW223418   5.446   1.933   3.533
 7507SOL     OW23419   6.499   1.858   2.310
 7507SOL    HW123420   6.547   1.770   2.309
 7507SOL    HW223421   6.402   1.843   2.325
 7508SOL     OW23422   1.585   6.037   1.245
 7508SOL    HW123423   1.488   6.043   1.269
 7508SOL    HW223424   1.639   6.087   1.312
 7509SOL     OW23425   6.152   3.820   0.660
 7509SOL    HW123426   6.119   3.765   0.583
 7509SOL    HW223427   6.177   3.911   0.628
 7510SOL     OW23428   2.908   3.462   5.173
 7510SOL    HW123429   2.910   3.383   5.113
 7510SOL    HW223430   2.833   3.453   5.239
 7511SOL     OW23431   2.644   5.991   3.321
 7511SOL    HW123432   2.674   6.075   3.367
 7511SOL    HW223433   2.691   5.912   3.361
 7512SOL     OW23434   3.164   0.420   6.510
 7512SOL    HW123435   3.083   0.479   6.510
 7512SOL    HW223436   3.138   0.330   6.546
 7513SOL     OW23437   1.334   1.254   1.777
 7513SOL    HW123438   1.286   1.324   1.831
 7513SOL    HW223439   1.352   1.289   1.685
 7514SOL     OW23440   2.230   4.822   2.629
 7514SOL    HW123441   2.214   4.918   2.654
 7514SOL    HW223442   2.327   4.809   2.606
 7515SOL     OW23443   7.027   5.149   4.810
 7515SOL    HW123444   6.984   5.239   4.810
 7515SOL    HW223445   0.088   5.154   4.856
 7516SOL     OW23446   6.635   5.461   6.074
 7516SOL    HW123447   6.566   5.495   6.139
 7516SOL    HW223448   6.666   5.371   6.102
 7517SOL     OW23449   6.972   1.633   0.338
 7517SOL    HW123450   0.022   1.690   0.362
 7517SOL    HW223451   6.887   1.682   0.358
 7518SOL     OW23452   4.917   3.991   4.299
 7518SOL    HW123453   5.004   4.004   4.346
 7518SOL    HW223454   4.877   3.904   4.326
 7519SOL     OW23455   0.037   6.232   4.565
 7519SOL    HW123456   0.076   6.178   4.491
 7519SOL    HW223457   0.009   6.170   4.639
 7520SOL     OW23458   2.344   0.526   2.617
 7520SOL    HW123459   2.373   0.532   2.713
 7520SOL    HW223460   2.339   0.430   2.590
 7521SOL     OW23461   4.936   2.635   5.516
 7521SOL    HW123462   4.863   2.646   5.448
 7521SOL    HW223463   4.895   2.620   5.606
 7522SOL     OW23464   1.510   1.229   6.117
 7522SOL    HW123465   1.472   1.293   6.050
 7522SOL    HW223466   1.555   1.279   6.190
 7523SOL     OW23467   4.553   0.305   6.256
 7523SOL    HW123468   4.498   0.347   6.183
 7523SOL    HW223469   4.645   0.285   6.222
 7524SOL     OW23470   1.199   2.832   4.883
 7524SOL    HW123471   1.213   2.841   4.784
 7524SOL    HW223472   1.277   2.783   4.923
 7525SOL     OW23473   3.444   0.690   6.855
 7525SOL    HW123474   3.383   0.633   6.801
 7525SOL    HW223475   3.480   0.764   6.799
 7526SOL     OW23476   2.856   3.076   1.062
 7526SOL    HW123477   2.883   3.001   1.002
 7526SOL    HW223478   2.909   3.071   1.147
 7527SOL     OW23479   3.072   6.286   3.849
 7527SOL    HW123480   3.165   6.323   3.847
 7527SOL    HW223481   3.007   6.360   3.833
 7528SOL     OW23482   6.440   2.234   6.910
 7528SOL    HW123483   6.449   2.330   6.936
 7528SOL    HW223484   6.346   2.205   6.923
 7529SOL     OW23485   5.955   1.590   4.408
 7529SOL    HW123486   5.967   1.523   4.335
 7529SOL    HW223487   5.917   1.545   4.489
 7530SOL     OW23488   7.002   2.485   2.522
 7530SOL    HW123489   0.046   2.541   2.483
 7530SOL    HW223490   6.998   2.397   2.474
 7531SOL     OW23491   5.643   3.168   4.423
 7531SOL    HW123492   5.593   3.193   4.507
 7531SOL    HW223493   5.620   3.074   4.398
 7532SOL     OW23494   4.200   6.184   0.517
 7532SOL    HW123495   4.235   6.185   0.611
 7532SOL    HW223496   4.138   6.262   0.504
 7533SOL     OW23497   3.367   1.798   1.668
 7533SOL    HW123498   3.406   1.716   1.709
 7533SOL    HW223499   3.343   1.863   1.740
 7534SOL     OW23500   4.897   6.111   4.946
 7534SOL    HW123501   4.871   6.195   4.898
 7534SOL    HW223502   4.900   6.035   4.880
 7535SOL     OW23503   1.819   0.102   4.517
 7535SOL    HW123504   1.848   0.112   4.612
 7535SOL    HW223505   1.879   0.156   4.458
 7536SOL     OW23506   5.393   4.275   4.206
 7536SOL    HW123507   5.410   4.184   4.169
 7536SOL    HW223508   5.303   4.278   4.248
 7537SOL     OW23509   1.850   5.036   2.423
 7537SOL    HW123510   1.821   5.082   2.507
 7537SOL    HW223511   1.941   5.069   2.397
 7538SOL     OW23512   2.057   2.388   1.796
 7538SOL    HW123513   2.019   2.381   1.889
 7538SOL    HW223514   2.152   2.357   1.797
 7539SOL     OW23515   1.660   3.624   4.436
 7539SOL    HW123516   1.565   3.595   4.448
 7539SOL    HW223517   1.677   3.643   4.339
 7540SOL     OW23518   4.385   0.941   5.023
 7540SOL    HW123519   4.453   0.939   4.950
 7540SOL    HW223520   4.294   0.927   4.984
 7541SOL     OW23521   0.725   3.947   5.024
 7541SOL    HW123522   0.651   3.880   5.013
 7541SOL    HW223523   0.725   4.009   4.946
 7542SOL     OW23524   0.774   5.557   6.977
 7542SOL    HW123525   0.864   5.580   6.941
 7542SOL    HW223526   0.712   5.634   6.963
 7543SOL     OW23527   3.762   1.134   5.302
 7543SOL    HW123528   3.735   1.230   5.311
 7543SOL    HW223529   3.752   1.105   5.207
 7544SOL     OW23530   6.200   2.441   4.208
 7544SOL    HW123531   6.185   2.463   4.111
 7544SOL    HW223532   6.139   2.497   4.264
 7545SOL     OW23533   0.827   6.083   6.835
 7545SOL    HW123534   0.848   6.174   6.800
 7545SOL    HW223535   0.870   6.014   6.777
 7546SOL     OW23536   4.155   1.675   1.433
 7546SOL    HW123537   4.095   1.622   1.494
 7546SOL    HW223538   4.244   1.687   1.476
 7547SOL     OW23539   5.230   1.614   0.572
 7547SOL    HW123540   5.313   1.668   0.582
 7547SOL    HW223541   5.211   1.566   0.658
 7548SOL     OW23542   4.195   2.388   6.552
 7548SOL    HW123543   4.173   2.452   6.479
 7548SOL    HW223544   4.114   2.370   6.607
 7549SOL     OW23545   3.484   3.708   6.685
 7549SOL    HW123546   3.487   3.614   6.719
 7549SOL    HW223547   3.408   3.718   6.620
 7550SOL     OW23548   2.042   4.799   4.184
 7550SOL    HW123549   2.101   4.878   4.205
 7550SOL    HW223550   2.097   4.727   4.141
 7551SOL     OW23551   5.988   3.204   5.574
 7551SOL    HW123552   6.070   3.167   5.617
 7551SOL    HW223553   5.916   3.134   5.575
 7552SOL     OW23554   1.610   6.178   3.651
 7552SOL    HW123555   1.517   6.146   3.632
 7552SOL    HW223556   1.665   6.102   3.686
 7553SOL     OW23557   3.890   6.923   5.767
 7553SOL    HW123558   3.863   7.019   5.778
 7553SOL    HW223559   3.978   6.909   5.811
 7554SOL     OW23560   5.080   0.692   6.805
 7554SOL    HW123561   5.117   0.609   6.846
 7554SOL    HW223562   5.097   0.770   6.866
 7555SOL     OW23563   3.379   5.406   6.584
 7555SOL    HW123564   3.472   5.443   6.589
 7555SOL    HW223565   3.381   5.307   6.597
 7556SOL     OW23566   2.648   2.582   0.090
 7556SOL    HW123567   2.552   2.563   0.068
 7556SOL    HW223568   2.662   2.570   0.188
 7557SOL     OW23569   5.219   0.806   6.585
 7557SOL    HW123570   5.156   0.787   6.661
 7557SOL    HW223571   5.167   0.823   6.502
 7558SOL     OW23572   1.974   2.575   4.660
 7558SOL    HW123573   2.000   2.671   4.655
 7558SOL    HW223574   1.914   2.552   4.583
 7559SOL     OW23575   3.985   2.850   6.324
 7559SOL    HW123576   4.055   2.855   6.253
 7559SOL    HW223577   3.912   2.915   6.304
 7560SOL     OW23578   4.556   6.749   0.497
 7560SOL    HW123579   4.460   6.748   0.525
 7560SOL    HW223580   4.596   6.659   0.514
 7561SOL     OW23581   0.206   3.343   6.240
 7561SOL    HW123582   0.120   3.393   6.249
 7561SOL    HW223583   0.187   3.246   6.225
 7562SOL     OW23584   0.331   5.547   5.465
 7562SOL    HW123585   0.391   5.626   5.464
 7562SOL    HW223586   0.385   5.463   5.457
 7563SOL     OW23587   2.969   0.100   1.798
 7563SOL    HW123588   2.950   0.055   1.885
 7563SOL    HW223589   2.978   0.030   1.726
 7564SOL     OW23590   4.047   0.845   3.991
 7564SOL    HW123591   3.982   0.809   3.924
 7564SOL    HW223592   4.018   0.818   4.083
 7565SOL     OW23593   5.955   3.628   6.656
 7565SOL    HW123594   6.024   3.669   6.598
 7565SOL    HW223595   5.936   3.535   6.625
 7566SOL     OW23596   5.639   5.276   2.501
 7566SOL    HW123597   5.602   5.361   2.539
 7566SOL    HW223598   5.569   5.231   2.445
 7567SOL     OW23599   1.950   1.457   5.729
 7567SOL    HW123600   1.926   1.527   5.661
 7567SOL    HW223601   1.867   1.414   5.763
 7568SOL     OW23602   5.641   4.535   2.883
 7568SOL    HW123603   5.708   4.583   2.940
 7568SOL    HW223604   5.567   4.598   2.859
 7569SOL     OW23605   3.281   4.258   6.120
 7569SOL    HW123606   3.316   4.278   6.028
 7569SOL    HW223607   3.182   4.270   6.122
 7570SOL     OW23608   5.638   4.011   4.321
 7570SOL    HW123609   5.557   3.954   4.310
 7570SOL    HW223610   5.644   4.043   4.415
 7571SOL     OW23611   4.608   4.426   3.275
 7571SOL    HW123612   4.578   4.466   3.362
 7571SOL    HW223613   4.640   4.333   3.291
 7572SOL     OW23614   5.050   0.770   2.245
 7572SOL    HW123615   5.136   0.765   2.196
 7572SOL    HW223616   4.982   0.711   2.200
 7573SOL     OW23617   0.444   7.025   5.249
 7573SOL    HW123618   0.418   0.065   5.181
 7573SOL    HW223619   0.544   7.019   5.255
 7574SOL     OW23620   5.155   0.842   5.728
 7574SOL    HW123621   5.151   0.868   5.825
 7574SOL    HW223622   5.062   0.842   5.690
 7575SOL     OW23623   5.270   0.251   6.758
 7575SOL    HW123624   5.364   0.219   6.773
 7575SOL    HW223625   5.228   0.198   6.684
 7576SOL     OW23626   5.085   3.135   0.522
 7576SOL    HW123627   4.986   3.145   0.514
 7576SOL    HW223628   5.106   3.051   0.573
 7577SOL     OW23629   0.638   6.578   6.776
 7577SOL    HW123630   0.729   6.580   6.818
 7577SOL    HW223631   0.617   6.484   6.747
 7578SOL     OW23632   3.150   5.286   2.777
 7578SOL    HW123633   3.194   5.225   2.712
 7578SOL    HW223634   3.214   5.357   2.805
 7579SOL     OW23635   0.119   1.370   1.868
 7579SOL    HW123636   0.109   1.412   1.958
 7579SOL    HW223637   0.028   1.359   1.826
 7580SOL     OW23638   0.685   4.310   3.849
 7580SOL    HW123639   0.664   4.332   3.944
 7580SOL    HW223640   0.702   4.212   3.841
 7581SOL     OW23641   0.597   2.078   1.278
 7581SOL    HW123642   0.530   2.024   1.329
 7581SOL    HW223643   0.554   2.117   1.197
 7582SOL     OW23644   4.061   1.732   3.434
 7582SOL    HW123645   3.975   1.730   3.383
 7582SOL    HW223646   4.122   1.660   3.402
 7583SOL     OW23647   5.053   2.879   2.188
 7583SOL    HW123648   5.004   2.806   2.141
 7583SOL    HW223649   5.001   2.964   2.180
 7584SOL     OW23650   2.279   0.948   2.970
 7584SOL    HW123651   2.315   0.990   3.053
 7584SOL    HW223652   2.193   0.901   2.991
 7585SOL     OW23653   2.042   2.715   6.178
 7585SOL    HW123654   2.021   2.784   6.109
 7585SOL    HW223655   1.969   2.646   6.178
 7586SOL     OW23656   2.328   6.605   3.820
 7586SOL    HW123657   2.304   6.600   3.723
 7586SOL    HW223658   2.333   6.700   3.849
 7587SOL     OW23659   2.294   0.883   6.523
 7587SOL    HW123660   2.275   0.963   6.467
 7587SOL    HW223661   2.254   0.896   6.614
 7588SOL     OW23662   2.209   2.334   3.505
 7588SOL    HW123663   2.242   2.259   3.562
 7588SOL    HW223664   2.287   2.387   3.470
 7589SOL     OW23665   0.415   0.523   2.461
 7589SOL    HW123666   0.500   0.519   2.409
 7589SOL    HW223667   0.381   0.431   2.478
 7590SOL     OW23668   4.415   1.907   6.613
 7590SOL    HW123669   4.325   1.942   6.586
 7590SOL    HW223670   4.439   1.943   6.703
 7591SOL     OW23671   5.275   4.564   0.290
 7591SOL    HW123672   5.188   4.603   0.320
 7591SOL    HW223673   5.327   4.534   0.371
 7592SOL     OW23674   6.487   6.093   4.792
 7592SOL    HW123675   6.448   6.063   4.705
 7592SOL    HW223676   6.437   6.050   4.868
 7593SOL     OW23677   6.458   3.374   6.641
 7593SOL    HW123678   6.469   3.292   6.698
 7593SOL    HW223679   6.418   3.448   6.694
 7594SOL     OW23680   1.290   4.658   1.989
 7594SOL    HW123681   1.340   4.738   2.023
 7594SOL    HW223682   1.198   4.686   1.962
 7595SOL     OW23683   5.677   3.219   6.176
 7595SOL    HW123684   5.680   3.166   6.260
 7595SOL    HW223685   5.638   3.163   6.103
 7596SOL     OW23686   3.403   6.511   4.440
 7596SOL    HW123687   3.470   6.582   4.418
 7596SOL    HW223688   3.310   6.546   4.427
 7597SOL     OW23689   1.743   6.490   3.188
 7597SOL    HW123690   1.807   6.413   3.195
 7597SOL    HW223691   1.755   6.536   3.100
 7598SOL     OW23692   0.115   0.727   3.410
 7598SOL    HW123693   0.194   0.750   3.353
 7598SOL    HW223694   0.126   0.767   3.501
 7599SOL     OW23695   5.786   2.284   1.923
 7599SOL    HW123696   5.850   2.360   1.907
 7599SOL    HW223697   5.821   2.201   1.879
 7600SOL     OW23698   0.786   1.540   3.764
 7600SOL    HW123699   0.787   1.618   3.826
 7600SOL    HW223700   0.873   1.534   3.715
 7601SOL     OW23701   2.711   4.703   2.455
 7601SOL    HW123702   2.769   4.633   2.496
 7601SOL    HW223703   2.760   4.790   2.455
 7602SOL     OW23704   1.651   3.586   0.211
 7602SOL    HW123705   1.698   3.620   0.292
 7602SOL    HW223706   1.691   3.498   0.184
 7603SOL     OW23707   2.016   6.243   6.396
 7603SOL    HW123708   1.992   6.148   6.375
 7603SOL    HW223709   1.934   6.293   6.422
 7604SOL     OW23710   1.229   3.023   4.396
 7604SOL    HW123711   1.234   3.105   4.453
 7604SOL    HW223712   1.266   3.044   4.305
 7605SOL     OW23713   1.118   0.259   0.778
 7605SOL    HW123714   1.206   0.265   0.730
 7605SOL    HW223715   1.110   0.169   0.820
 7606SOL     OW23716   5.857   2.817   4.256
 7606SOL    HW123717   5.769   2.770   4.246
 7606SOL    HW223718   5.869   2.845   4.351
 7607SOL     OW23719   3.839   4.800   0.565
 7607SOL    HW123720   3.746   4.813   0.599
 7607SOL    HW223721   3.895   4.757   0.637
 7608SOL     OW23722   4.527   3.466   0.937
 7608SOL    HW123723   4.554   3.371   0.953
 7608SOL    HW223724   4.581   3.504   0.863
 7609SOL     OW23725   1.630   3.145   3.999
 7609SOL    HW123726   1.718   3.106   3.971
 7609SOL    HW223727   1.641   3.191   4.087
 7610SOL     OW23728   4.071   4.642   6.060
 7610SOL    HW123729   4.088   4.545   6.074
 7610SOL    HW223730   3.993   4.655   5.999
 7611SOL     OW23731   5.478   4.051   1.424
 7611SOL    HW123732   5.414   4.016   1.355
 7611SOL    HW223733   5.532   3.976   1.461
 7612SOL     OW23734   4.824   3.037   2.484
 7612SOL    HW123735   4.794   3.079   2.399
 7612SOL    HW223736   4.894   2.969   2.464
 7613SOL     OW23737   0.723   1.578   0.533
 7613SOL    HW123738   0.661   1.582   0.611
 7613SOL    HW223739   0.697   1.501   0.475
 7614SOL     OW23740   5.479   2.826   1.159
 7614SOL    HW123741   5.553   2.801   1.098
 7614SOL    HW223742   5.470   2.758   1.232
 7615SOL     OW23743   4.029   4.744   6.600
 7615SOL    HW123744   4.096   4.679   6.634
 7615SOL    HW223745   3.989   4.710   6.515
 7616SOL     OW23746   6.925   6.057   4.737
 7616SOL    HW123747   6.853   5.989   4.750
 7616SOL    HW223748   6.951   6.096   4.825
 7617SOL     OW23749   3.339   6.348   3.841
 7617SOL    HW123750   3.358   6.343   3.743
 7617SOL    HW223751   3.424   6.332   3.892
 7618SOL     OW23752   0.381   2.513   6.298
 7618SOL    HW123753   0.439   2.446   6.253
 7618SOL    HW223754   0.407   2.522   6.395
 7619SOL     OW23755   6.856   2.824   4.803
 7619SOL    HW123756   6.776   2.768   4.778
 7619SOL    HW223757   6.908   2.778   4.874
 7620SOL     OW23758   4.077   5.752   1.671
 7620SOL    HW123759   4.122   5.823   1.617
 7620SOL    HW223760   4.038   5.683   1.610
 7621SOL     OW23761   6.593   0.957   0.842
 7621SOL    HW123762   6.527   0.901   0.892
 7621SOL    HW223763   6.670   0.980   0.902
 7622SOL     OW23764   4.400   4.400   5.988
 7622SOL    HW123765   4.407   4.423   5.891
 7622SOL    HW223766   4.303   4.385   6.011
 7623SOL     OW23767   4.687   4.388   6.574
 7623SOL    HW123768   4.740   4.312   6.536
 7623SOL    HW223769   4.708   4.398   6.671
 7624SOL     OW23770   6.598   3.861   4.624
 7624SOL    HW123771   6.656   3.900   4.553
 7624SOL    HW223772   6.614   3.762   4.629
 7625SOL     OW23773   5.220   1.430   0.386
 7625SOL    HW123774   5.220   1.499   0.459
 7625SOL    HW223775   5.219   1.339   0.426
 7626SOL     OW23776   6.226   0.606   5.554
 7626SOL    HW123777   6.221   0.699   5.519
 7626SOL    HW223778   6.141   0.558   5.533
 7627SOL     OW23779   3.646   2.625   0.722
 7627SOL    HW123780   3.609   2.711   0.756
 7627SOL    HW223781   3.705   2.584   0.791
 7628SOL     OW23782   3.368   2.762   1.925
 7628SOL    HW123783   3.378   2.855   1.889
 7628SOL    HW223784   3.419   2.698   1.867
 7629SOL     OW23785   0.197   4.425   3.530
 7629SOL    HW123786   0.258   4.346   3.528
 7629SOL    HW223787   0.141   4.427   3.447
 7630SOL     OW23788   0.629   0.900   0.449
 7630SOL    HW123789   0.572   0.864   0.523
 7630SOL    HW223790   0.670   0.986   0.479
 7631SOL     OW23791   1.342   2.283   5.806
 7631SOL    HW123792   1.282   2.226   5.750
 7631SOL    HW223793   1.421   2.229   5.836
 7632SOL     OW23794   5.056   4.555   0.684
 7632SOL    HW123795   4.968   4.570   0.728
 7632SOL    HW223796   5.096   4.469   0.718
 7633SOL     OW23797   5.268   0.720   2.114
 7633SOL    HW123798   5.225   0.709   2.024
 7633SOL    HW223799   5.361   0.754   2.103
 7634SOL     OW23800   2.217   1.000   1.925
 7634SOL    HW123801   2.307   1.035   1.898
 7634SOL    HW223802   2.221   0.900   1.931
 7635SOL     OW23803   3.475   4.976   5.355
 7635SOL    HW123804   3.445   5.014   5.442
 7635SOL    HW223805   3.574   4.961   5.358
 7636SOL     OW23806   1.448   3.599   4.059
 7636SOL    HW123807   1.350   3.608   4.072
 7636SOL    HW223808   1.467   3.527   3.992
 7637SOL     OW23809   2.629   6.104   2.596
 7637SOL    HW123810   2.536   6.087   2.626
 7637SOL    HW223811   2.644   6.203   2.590
 7638SOL     OW23812   2.004   5.385   2.279
 7638SOL    HW123813   2.024   5.287   2.282
 7638SOL    HW223814   2.039   5.429   2.362
 7639SOL     OW23815   0.361   0.938   1.189
 7639SOL    HW123816   0.272   0.983   1.197
 7639SOL    HW223817   0.428   0.989   1.243
 7640SOL     OW23818   2.569   2.142   5.850
 7640SOL    HW123819   2.570   2.223   5.909
 7640SOL    HW223820   2.628   2.071   5.890
 7641SOL     OW23821   0.936   3.354   2.795
 7641SOL    HW123822   1.023   3.348   2.844
 7641SOL    HW223823   0.940   3.297   2.713
 7642SOL     OW23824   3.917   1.696   2.567
 7642SOL    HW123825   3.876   1.653   2.487
 7642SOL    HW223826   3.844   1.734   2.625
 7643SOL     OW23827   5.388   2.155   2.993
 7643SOL    HW123828   5.480   2.189   2.970
 7643SOL    HW223829   5.369   2.176   3.089
 7644SOL     OW23830   4.747   2.801   2.235
 7644SOL    HW123831   4.746   2.860   2.155
 7644SOL    HW223832   4.761   2.857   2.317
 7645SOL     OW23833   4.765   4.051   5.468
 7645SOL    HW123834   4.694   4.021   5.405
 7645SOL    HW223835   4.727   4.117   5.532
 7646SOL     OW23836   0.912   2.997   4.246
 7646SOL    HW123837   0.920   2.943   4.329
 7646SOL    HW223838   0.818   3.027   4.234
 7647SOL     OW23839   6.951   2.697   4.149
 7647SOL    HW123840   6.873   2.636   4.157
 7647SOL    HW223841   6.995   2.684   4.060
 7648SOL     OW23842   2.488   1.909   2.451
 7648SOL    HW123843   2.529   1.822   2.479
 7648SOL    HW223844   2.436   1.895   2.367
 7649SOL     OW23845   1.432   0.360   3.647
 7649SOL    HW123846   1.369   0.389   3.719
 7649SOL    HW223847   1.481   0.440   3.612
 7650SOL     OW23848   5.498   0.719   0.732
 7650SOL    HW123849   5.479   0.715   0.634
 7650SOL    HW223850   5.439   0.787   0.776
 7651SOL     OW23851   2.245   0.233   4.344
 7651SOL    HW123852   2.256   0.331   4.328
 7651SOL    HW223853   2.237   0.216   4.442
 7652SOL     OW23854   5.575   1.932   4.624
 7652SOL    HW123855   5.547   1.853   4.569
 7652SOL    HW223856   5.647   1.982   4.576
 7653SOL     OW23857   0.780   1.492   0.135
 7653SOL    HW123858   0.797   1.414   0.194
 7653SOL    HW223859   0.837   1.569   0.164
 7654SOL     OW23860   4.944   3.433   4.068
 7654SOL    HW123861   4.931   3.450   3.971
 7654SOL    HW223862   5.014   3.363   4.080
 7655SOL     OW23863   4.260   6.465   3.984
 7655SOL    HW123864   4.162   6.484   3.973
 7655SOL    HW223865   4.286   6.390   3.922
 7656SOL     OW23866   4.008   3.987   6.793
 7656SOL    HW123867   4.093   3.948   6.828
 7656SOL    HW223868   4.021   4.085   6.775
 7657SOL     OW23869   1.622   2.277   2.906
 7657SOL    HW123870   1.581   2.358   2.947
 7657SOL    HW223871   1.574   2.196   2.937
 7658SOL     OW23872   2.650   0.387   0.652
 7658SOL    HW123873   2.714   0.327   0.604
 7658SOL    HW223874   2.572   0.333   0.684
 7659SOL     OW23875   5.041   4.773   6.881
 7659SOL    HW123876   5.128   4.733   6.909
 7659SOL    HW223877   5.040   4.871   6.904
 7660SOL     OW23878   6.812   6.154   3.958
 7660SOL    HW123879   6.870   6.112   3.888
 7660SOL    HW223880   6.851   6.137   4.049
 7661SOL     OW23881   5.704   2.272   5.261
 7661SOL    HW123882   5.737   2.178   5.250
 7661SOL    HW223883   5.605   2.272   5.271
 7662SOL     OW23884   1.063   2.429   4.169
 7662SOL    HW123885   0.964   2.427   4.185
 7662SOL    HW223886   1.089   2.520   4.134
 7663SOL     OW23887   5.658   4.532   6.521
 7663SOL    HW123888   5.721   4.457   6.541
 7663SOL    HW223889   5.564   4.500   6.529
 7664SOL     OW23890   4.287   1.202   2.319
 7664SOL    HW123891   4.378   1.160   2.319
 7664SOL    HW223892   4.218   1.130   2.320
 7665SOL     OW23893   6.213   0.894   5.039
 7665SOL    HW123894   6.277   0.928   4.970
 7665SOL    HW223895   6.155   0.968   5.071
 7666SOL     OW23896   0.655   4.236   3.057
 7666SOL    HW123897   0.571   4.269   3.014
 7666SOL    HW223898   0.729   4.301   3.038
 7667SOL     OW23899   4.269   0.475   2.390
 7667SOL    HW123900   4.289   0.571   2.370
 7667SOL    HW223901   4.221   0.468   2.477
 7668SOL     OW23902   2.757   5.091   0.967
 7668SOL    HW123903   2.814   5.171   0.987
 7668SOL    HW223904   2.804   5.009   1.000
 7669SOL     OW23905   5.050   1.363   5.460
 7669SOL    HW123906   5.141   1.324   5.470
 7669SOL    HW223907   5.037   1.396   5.367
 7670SOL     OW23908   0.951   5.153   0.885
 7670SOL    HW123909   0.943   5.203   0.799
 7670SOL    HW223910   0.876   5.086   0.892
 7671SOL     OW23911   3.423   0.833   2.391
 7671SOL    HW123912   3.504   0.889   2.375
 7671SOL    HW223913   3.357   0.848   2.317
 7672SOL     OW23914   0.399   5.497   2.895
 7672SOL    HW123915   0.397   5.577   2.955
 7672SOL    HW223916   0.493   5.482   2.864
 7673SOL     OW23917   1.874   5.693   2.415
 7673SOL    HW123918   1.815   5.646   2.480
 7673SOL    HW223919   1.860   5.791   2.422
 7674SOL     OW23920   4.960   0.865   4.023
 7674SOL    HW123921   5.005   0.784   3.986
 7674SOL    HW223922   5.030   0.929   4.055
 7675SOL     OW23923   5.900   6.167   3.159
 7675SOL    HW123924   5.938   6.128   3.076
 7675SOL    HW223925   5.817   6.219   3.137
 7676SOL     OW23926   2.910   2.412   6.648
 7676SOL    HW123927   2.864   2.500   6.633
 7676SOL    HW223928   2.995   2.409   6.596
 7677SOL     OW23929   0.326   3.901   1.666
 7677SOL    HW123930   0.340   3.804   1.646
 7677SOL    HW223931   0.398   3.933   1.728
 7678SOL     OW23932   2.500   2.627   4.969
 7678SOL    HW123933   2.508   2.711   4.915
 7678SOL    HW223934   2.408   2.620   5.007
 7679SOL     OW23935   2.399   6.267   5.685
 7679SOL    HW123936   2.457   6.226   5.756
 7679SOL    HW223937   2.445   6.261   5.596
 7680SOL     OW23938   1.548   0.480   0.888
 7680SOL    HW123939   1.534   0.579   0.884
 7680SOL    HW223940   1.645   0.460   0.902
 7681SOL     OW23941   2.795   0.929   1.242
 7681SOL    HW123942   2.778   0.837   1.276
 7681SOL    HW223943   2.745   0.995   1.298
 7682SOL     OW23944   4.292   0.024   2.197
 7682SOL    HW123945   4.240   6.984   2.145
 7682SOL    HW223946   4.246   0.113   2.193
 7683SOL     OW23947   0.137   1.553   5.111
 7683SOL    HW123948   0.043   1.557   5.145
 7683SOL    HW223949   0.155   1.634   5.055
 7684SOL     OW23950   4.071   1.283   1.087
 7684SOL    HW123951   4.093   1.373   1.124
 7684SOL    HW223952   4.146   1.219   1.106
 7685SOL     OW23953   2.585   1.504   5.538
 7685SOL    HW123954   2.485   1.507   5.540
 7685SOL    HW223955   2.617   1.523   5.445
 7686SOL     OW23956   6.803   6.727   3.346
 7686SOL    HW123957   6.871   6.733   3.274
 7686SOL    HW223958   6.807   6.637   3.389
 7687SOL     OW23959   5.824   5.313   4.660
 7687SOL    HW123960   5.907   5.316   4.717
 7687SOL    HW223961   5.766   5.238   4.691
 7688SOL     OW23962   0.227   5.847   5.680
 7688SOL    HW123963   0.284   5.899   5.617
 7688SOL    HW223964   0.141   5.823   5.634
 7689SOL     OW23965   5.528   6.205   2.867
 7689SOL    HW123966   5.601   6.148   2.904
 7689SOL    HW223967   5.444   6.190   2.920
 7690SOL     OW23968   5.447   5.402   0.473
 7690SOL    HW123969   5.446   5.303   0.489
 7690SOL    HW223970   5.407   5.421   0.383
 7691SOL     OW23971   5.620   4.089   2.719
 7691SOL    HW123972   5.595   3.994   2.739
 7691SOL    HW223973   5.609   4.144   2.802
 7692SOL     OW23974   0.657   6.134   1.946
 7692SOL    HW123975   0.679   6.218   1.996
 7692SOL    HW223976   0.563   6.106   1.967
 7693SOL     OW23977   2.958   0.736   1.646
 7693SOL    HW123978   2.947   0.701   1.739
 7693SOL    HW223979   3.044   0.704   1.608
 7694SOL     OW23980   5.684   3.209   3.419
 7694SOL    HW123981   5.600   3.256   3.446
 7694SOL    HW223982   5.763   3.267   3.438
 7695SOL     OW23983   5.096   0.879   1.563
 7695SOL    HW123984   5.098   0.779   1.563
 7695SOL    HW223985   5.179   0.915   1.520
 7696SOL     OW23986   6.706   1.517   6.072
 7696SOL    HW123987   6.612   1.484   6.077
 7696SOL    HW223988   6.750   1.478   5.991
 7697SOL     OW23989   2.484   0.370   3.490
 7697SOL    HW123990   2.466   0.459   3.533
 7697SOL    HW223991   2.501   0.301   3.561
 7698SOL     OW23992   5.670   1.060   4.082
 7698SOL    HW123993   5.752   1.013   4.114
 7698SOL    HW223994   5.633   1.117   4.155
 7699SOL     OW23995   2.720   5.578   6.237
 7699SOL    HW123996   2.707   5.615   6.329
 7699SOL    HW223997   2.630   5.562   6.195
 7700SOL     OW23998   4.161   5.806   3.694
 7700SOL    HW123999   4.202   5.722   3.659
 7700SOL    HW224000   4.111   5.852   3.622
 7701SOL     OW24001   6.973   2.822   6.536
 7701SOL    HW124002   0.039   2.813   6.571
 7701SOL    HW224003   6.915   2.862   6.607
 7702SOL     OW24004   4.747   5.686   5.098
 7702SOL    HW124005   4.790   5.732   5.021
 7702SOL    HW224006   4.751   5.587   5.084
 7703SOL     OW24007   6.019   6.132   6.256
 7703SOL    HW124008   5.960   6.101   6.181
 7703SOL    HW224009   5.974   6.207   6.304
 7704SOL     OW24010   5.870   0.489   3.236
 7704SOL    HW124011   5.930   0.563   3.204
 7704SOL    HW224012   5.828   0.515   3.323
 7705SOL     OW24013   2.160   6.040   1.160
 7705SOL    HW124014   2.237   6.024   1.099
 7705SOL    HW224015   2.097   6.106   1.118
 7706SOL     OW24016   3.485   3.097   3.827
 7706SOL    HW124017   3.399   3.143   3.850
 7706SOL    HW224018   3.532   3.148   3.755
 7707SOL     OW24019   6.978   4.478   6.161
 7707SOL    HW124020   6.915   4.515   6.229
 7707SOL    HW224021   7.011   4.552   6.103
 7708SOL     OW24022   1.412   6.455   4.990
 7708SOL    HW124023   1.386   6.472   4.895
 7708SOL    HW224024   1.334   6.471   5.050
 7709SOL     OW24025   6.609   4.858   1.785
 7709SOL    HW124026   6.578   4.833   1.693
 7709SOL    HW224027   6.557   4.806   1.853
 7710SOL     OW24028   2.348   2.267   0.179
 7710SOL    HW124029   2.393   2.319   0.251
 7710SOL    HW224030   2.250   2.286   0.181
 7711SOL     OW24031   5.701   5.967   5.855
 7711SOL    HW124032   5.788   5.960   5.806
 7711SOL    HW224033   5.642   5.891   5.828
 7712SOL     OW24034   6.031   5.503   0.398
 7712SOL    HW124035   5.968   5.442   0.351
 7712SOL    HW224036   6.012   5.500   0.497
 7713SOL     OW24037   1.549   3.782   0.526
 7713SOL    HW124038   1.634   3.731   0.513
 7713SOL    HW224039   1.509   3.758   0.614
 7714SOL     OW24040   0.018   5.059   5.356
 7714SOL    HW124041   0.053   4.991   5.291
 7714SOL    HW224042   0.002   5.015   5.444
 7715SOL     OW24043   2.775   2.661   6.667
 7715SOL    HW124044   2.685   2.644   6.706
 7715SOL    HW224045   2.766   2.724   6.590
 7716SOL     OW24046   6.502   4.205   0.461
 7716SOL    HW124047   6.587   4.153   0.469
 7716SOL    HW224048   6.520   4.301   0.480
 7717SOL     OW24049   1.148   1.434   5.631
 7717SOL    HW124050   1.135   1.369   5.707
 7717SOL    HW224051   1.242   1.429   5.599
 7718SOL     OW24052   6.566   3.488   3.029
 7718SOL    HW124053   6.564   3.471   2.930
 7718SOL    HW224054   6.566   3.587   3.045
 7719SOL     OW24055   0.691   4.086   4.790
 7719SOL    HW124056   0.679   4.041   4.701
 7719SOL    HW224057   0.615   4.149   4.805
 7720SOL     OW24058   6.633   2.635   6.381
 7720SOL    HW124059   6.576   2.623   6.300
 7720SOL    HW224060   6.679   2.548   6.403
 7721SOL     OW24061   0.601   5.807   2.251
 7721SOL    HW124062   0.620   5.802   2.349
 7721SOL    HW224063   0.686   5.823   2.201
 7722SOL     OW24064   1.865   4.154   3.759
 7722SOL    HW124065   1.815   4.236   3.785
 7722SOL    HW224066   1.867   4.147   3.659
 7723SOL     OW24067   3.823   3.519   7.009
 7723SOL    HW124068   3.825   3.452   6.935
 7723SOL    HW224069   3.738   3.508   0.034
 7724SOL     OW24070   3.462   4.414   0.724
 7724SOL    HW124071   3.363   4.406   0.714
 7724SOL    HW224072   3.505   4.328   0.695
 7725SOL     OW24073   6.387   1.778   3.182
 7725SOL    HW124074   6.442   1.695   3.193
 7725SOL    HW224075   6.395   1.835   3.264
 7726SOL     OW24076   1.680   4.470   6.409
 7726SOL    HW124077   1.624   4.400   6.454
 7726SOL    HW224078   1.673   4.458   6.310
 7727SOL     OW24079   6.579   2.596   2.228
 7727SOL    HW124080   6.598   2.620   2.133
 7727SOL    HW224081   6.659   2.619   2.284
 7728SOL     OW24082   2.184   2.887   5.151
 7728SOL    HW124083   2.108   2.952   5.158
 7728SOL    HW224084   2.268   2.935   5.129
 7729SOL     OW24085   5.639   0.959   1.740
 7729SOL    HW124086   5.650   0.885   1.674
 7729SOL    HW224087   5.725   0.973   1.788
 7730SOL     OW24088   0.063   4.987   6.088
 7730SOL    HW124089   0.130   4.923   6.049
 7730SOL    HW224090   7.000   4.946   6.087
 7731SOL     OW24091   5.883   0.131   0.153
 7731SOL    HW124092   5.980   0.112   0.170
 7731SOL    HW224093   5.841   0.052   0.108
 7732SOL     OW24094   3.787   0.165   0.112
 7732SOL    HW124095   3.693   0.198   0.098
 7732SOL    HW224096   3.837   0.167   0.026
 7733SOL     OW24097   5.400   5.942   2.438
 7733SOL    HW124098   5.437   5.961   2.529
 7733SOL    HW224099   5.427   5.849   2.410
 7734SOL     OW24100   1.778   4.874   5.118
 7734SOL    HW124101   1.795   4.862   5.021
 7734SOL    HW224102   1.865   4.886   5.166
 7735SOL     OW24103   5.599   5.708   6.082
 7735SOL    HW124104   5.544   5.784   6.047
 7735SOL    HW224105   5.657   5.740   6.156
 7736SOL     OW24106   2.591   3.085   6.608
 7736SOL    HW124107   2.619   3.005   6.554
 7736SOL    HW224108   2.669   3.118   6.660
 7737SOL     OW24109   3.499   0.570   2.398
 7737SOL    HW124110   3.490   0.669   2.412
 7737SOL    HW224111   3.560   0.554   2.320
 7738SOL     OW24112   2.976   5.323   0.542
 7738SOL    HW124113   2.988   5.323   0.641
 7738SOL    HW224114   2.897   5.380   0.518
 7739SOL     OW24115   1.241   2.016   2.350
 7739SOL    HW124116   1.231   1.948   2.423
 7739SOL    HW224117   1.276   2.101   2.389
 7740SOL     OW24118   2.614   1.130   3.622
 7740SOL    HW124119   2.696   1.173   3.662
 7740SOL    HW224120   2.640   1.044   3.578
 7741SOL     OW24121   0.251   4.217   5.245
 7741SOL    HW124122   0.233   4.268   5.329
 7741SOL    HW224123   0.267   4.280   5.169
 7742SOL     OW24124   4.456   2.546   3.820
 7742SOL    HW124125   4.371   2.591   3.847
 7742SOL    HW224126   4.439   2.488   3.740
 7743SOL     OW24127   4.698   1.464   0.282
 7743SOL    HW124128   4.775   1.519   0.314
 7743SOL    HW224129   4.700   1.459   0.183
 7744SOL     OW24130   1.141   0.032   3.673
 7744SOL    HW124131   1.104   7.002   3.600
 7744SOL    HW224132   1.238   0.012   3.686
 7745SOL     OW24133   3.240   0.275   0.758
 7745SOL    HW124134   3.262   0.178   0.751
 7745SOL    HW224135   3.322   0.327   0.783
 7746SOL     OW24136   0.625   0.236   0.607
 7746SOL    HW124137   0.604   0.163   0.671
 7746SOL    HW224138   0.721   0.231   0.580
 7747SOL     OW24139   6.701   6.445   1.382
 7747SOL    HW124140   6.718   6.349   1.402
 7747SOL    HW224141   6.786   6.497   1.391
 7748SOL     OW24142   3.636   4.144   4.300
 7748SOL    HW124143   3.604   4.108   4.387
 7748SOL    HW224144   3.570   4.209   4.264
 7749SOL     OW24145   3.203   3.432   4.557
 7749SOL    HW124146   3.161   3.473   4.638
 7749SOL    HW224147   3.206   3.333   4.566
 7750SOL     OW24148   6.453   5.619   6.947
 7750SOL    HW124149   6.506   5.630   6.863
 7750SOL    HW224150   6.415   5.707   6.975
 7751SOL     OW24151   0.990   2.941   2.689
 7751SOL    HW124152   1.008   2.981   2.599
 7751SOL    HW224153   0.894   2.954   2.713
 7752SOL     OW24154   5.588   5.888   5.237
 7752SOL    HW124155   5.532   5.971   5.231
 7752SOL    HW224156   5.667   5.906   5.296
 7753SOL     OW24157   2.284   0.636   4.020
 7753SOL    HW124158   2.369   0.636   3.967
 7753SOL    HW224159   2.207   0.652   3.958
 7754SOL     OW24160   5.371   6.542   1.807
 7754SOL    HW124161   5.381   6.622   1.748
 7754SOL    HW224162   5.423   6.556   1.891
 7755SOL     OW24163   1.163   1.944   5.903
 7755SOL    HW124164   1.107   1.866   5.930
 7755SOL    HW224165   1.235   1.913   5.840
 7756SOL     OW24166   3.750   4.969   2.966
 7756SOL    HW124167   3.779   4.903   3.035
 7756SOL    HW224168   3.743   5.060   3.007
 7757SOL     OW24169   5.099   5.634   4.884
 7757SOL    HW124170   5.179   5.664   4.937
 7757SOL    HW224171   5.112   5.539   4.855
 7758SOL     OW24172   1.278   1.903   0.514
 7758SOL    HW124173   1.281   1.809   0.482
 7758SOL    HW224174   1.190   1.922   0.556
 7759SOL     OW24175   0.823   1.948   5.022
 7759SOL    HW124176   0.835   1.992   5.111
 7759SOL    HW224177   0.885   1.870   5.015
 7760SOL     OW24178   5.762   3.489   2.860
 7760SOL    HW124179   5.757   3.589   2.864
 7760SOL    HW224180   5.680   3.453   2.815
 7761SOL     OW24181   1.215   0.158   6.426
 7761SOL    HW124182   1.258   0.111   6.502
 7761SOL    HW224183   1.116   0.159   6.440
 7762SOL     OW24184   4.506   0.718   4.088
 7762SOL    HW124185   4.604   0.705   4.104
 7762SOL    HW224186   4.455   0.684   4.167
 7763SOL     OW24187   0.980   1.478   0.600
 7763SOL    HW124188   0.976   1.392   0.651
 7763SOL    HW224189   0.887   1.514   0.589
 7764SOL     OW24190   3.559   3.047   3.385
 7764SOL    HW124191   3.572   2.958   3.429
 7764SOL    HW224192   3.469   3.050   3.342
 7765SOL     OW24193   5.958   2.431   4.009
 7765SOL    HW124194   5.929   2.340   3.979
 7765SOL    HW224195   5.994   2.482   3.931
 7766SOL     OW24196   5.796   2.362   0.139
 7766SOL    HW124197   5.831   2.360   0.046
 7766SOL    HW224198   5.702   2.328   0.141
 7767SOL     OW24199   4.718   6.269   3.925
 7767SOL    HW124200   4.722   6.361   3.886
 7767SOL    HW224201   4.655   6.212   3.872
 7768SOL     OW24202   4.159   4.829   2.572
 7768SOL    HW124203   4.097   4.868   2.504
 7768SOL    HW224204   4.105   4.786   2.645
 7769SOL     OW24205   5.107   2.572   2.599
 7769SOL    HW124206   5.039   2.557   2.671
 7769SOL    HW224207   5.079   2.525   2.516
 7770SOL     OW24208   0.874   3.909   2.241
 7770SOL    HW124209   0.857   3.934   2.336
 7770SOL    HW224210   0.845   3.814   2.226
 7771SOL     OW24211   2.872   1.934   4.976
 7771SOL    HW124212   2.903   2.021   5.014
 7771SOL    HW224213   2.833   1.878   5.049
 7772SOL     OW24214   5.728   0.524   2.603
 7772SOL    HW124215   5.734   0.430   2.570
 7772SOL    HW224216   5.716   0.523   2.703
 7773SOL     OW24217   3.092   5.597   5.026
 7773SOL    HW124218   3.117   5.686   4.986
 7773SOL    HW224219   3.092   5.603   5.125
 7774SOL     OW24220   5.831   2.285   6.012
 7774SOL    HW124221   5.886   2.305   6.093
 7774SOL    HW224222   5.826   2.367   5.955
 7775SOL     OW24223   4.033   6.485   2.629
 7775SOL    HW124224   4.072   6.544   2.700
 7775SOL    HW224225   4.020   6.537   2.545
 7776SOL     OW24226   2.503   4.623   0.062
 7776SOL    HW124227   2.523   4.720   0.056
 7776SOL    HW224228   2.543   4.575   7.012
 7777SOL     OW24229   0.592   0.619   5.089
 7777SOL    HW124230   0.598   0.673   5.173
 7777SOL    HW224231   0.634   0.669   5.013
 7778SOL     OW24232   5.032   5.424   0.400
 7778SOL    HW124233   5.006   5.493   0.468
 7778SOL    HW224234   5.084   5.467   0.327
 7779SOL     OW24235   2.799   2.703   1.177
 7779SOL    HW124236   2.713   2.755   1.179
 7779SOL    HW224237   2.823   2.682   1.082
 7780SOL     OW24238   0.684   5.131   5.690
 7780SOL    HW124239   0.679   5.213   5.633
 7780SOL    HW224240   0.745   5.064   5.646
 7781SOL     OW24241   1.109   4.591   0.127
 7781SOL    HW124242   1.159   4.605   0.041
 7781SOL    HW224243   1.168   4.542   0.192
 7782SOL     OW24244   0.860   4.781   4.809
 7782SOL    HW124245   0.793   4.824   4.749
 7782SOL    HW224246   0.875   4.838   4.890
 7783SOL     OW24247   1.359   6.176   4.647
 7783SOL    HW124248   1.271   6.137   4.674
 7783SOL    HW224249   1.380   6.149   4.553
 7784SOL     OW24250   3.043   2.743   0.600
 7784SOL    HW124251   3.085   2.833   0.611
 7784SOL    HW224252   3.113   2.672   0.613
 7785SOL     OW24253   1.622   6.639   4.151
 7785SOL    HW124254   1.636   6.717   4.212
 7785SOL    HW224255   1.607   6.672   4.058
 7786SOL     OW24256   3.220   6.025   6.984
 7786SOL    HW124257   3.149   6.028   0.027
 7786SOL    HW224258   3.271   5.939   6.992
 7787SOL     OW24259   2.832   3.035   6.207
 7787SOL    HW124260   2.783   3.118   6.235
 7787SOL    HW224261   2.836   3.031   6.107
 7788SOL     OW24262   1.484   5.685   2.161
 7788SOL    HW124263   1.444   5.694   2.252
 7788SOL    HW224264   1.492   5.588   2.138
 7789SOL     OW24265   2.866   6.921   6.691
 7789SOL    HW124266   2.924   6.991   6.732
 7789SOL    HW224267   2.778   6.918   6.737
 7790SOL     OW24268   5.090   5.222   2.857
 7790SOL    HW124269   5.028   5.300   2.845
 7790SOL    HW224270   5.177   5.254   2.893
 7791SOL     OW24271   2.383   5.881   3.342
 7791SOL    HW124272   2.478   5.908   3.354
 7791SOL    HW224273   2.325   5.936   3.402
 7792SOL     OW24274   1.813   5.473   5.421
 7792SOL    HW124275   1.751   5.520   5.483
 7792SOL    HW224276   1.810   5.375   5.438
 7793SOL     OW24277   3.079   0.976   0.044
 7793SOL    HW124278   3.164   0.924   0.051
 7793SOL    HW224279   3.028   0.944   6.991
 7794SOL     OW24280   5.826   4.932   3.351
 7794SOL    HW124281   5.761   4.972   3.416
 7794SOL    HW224282   5.802   4.960   3.258
 7795SOL     OW24283   2.263   3.900   5.610
 7795SOL    HW124284   2.303   3.866   5.525
 7795SOL    HW224285   2.337   3.923   5.674
 7796SOL     OW24286   3.337   3.967   3.495
 7796SOL    HW124287   3.350   3.878   3.450
 7796SOL    HW224288   3.420   4.021   3.485
 7797SOL     OW24289   1.328   0.297   2.679
 7797SOL    HW124290   1.339   0.394   2.697
 7797SOL    HW224291   1.400   0.246   2.726
 7798SOL     OW24292   1.772   4.350   5.877
 7798SOL    HW124293   1.754   4.440   5.838
 7798SOL    HW224294   1.698   4.288   5.852
 7799SOL     OW24295   1.176   6.041   2.165
 7799SOL    HW124296   1.256   6.069   2.218
 7799SOL    HW224297   1.156   6.111   2.096
 7800SOL     OW24298   1.134   5.452   0.699
 7800SOL    HW124299   1.112   5.543   0.664
 7800SOL    HW224300   1.050   5.397   0.701
 7801SOL     OW24301   2.367   1.870   1.862
 7801SOL    HW124302   2.280   1.919   1.855
 7801SOL    HW224303   2.351   1.776   1.892
 7802SOL     OW24304   5.604   2.425   0.931
 7802SOL    HW124305   5.653   2.498   0.884
 7802SOL    HW224306   5.657   2.393   1.009
 7803SOL     OW24307   4.340   1.950   6.101
 7803SOL    HW124308   4.286   2.028   6.070
 7803SOL    HW224309   4.423   1.982   6.147
 7804SOL     OW24310   4.727   1.967   4.304
 7804SOL    HW124311   4.743   2.055   4.349
 7804SOL    HW224312   4.798   1.951   4.235
 7805SOL     OW24313   5.312   1.990   0.663
 7805SOL    HW124314   5.340   2.074   0.709
 7805SOL    HW224315   5.309   1.915   0.729
 7806SOL     OW24316   5.779   1.860   6.421
 7806SOL    HW124317   5.748   1.779   6.470
 7806SOL    HW224318   5.801   1.932   6.487
 7807SOL     OW24319   0.593   4.522   5.603
 7807SOL    HW124320   0.602   4.434   5.556
 7807SOL    HW224321   0.652   4.590   5.558
 7808SOL     OW24322   6.541   3.129   4.291
 7808SOL    HW124323   6.576   3.210   4.244
 7808SOL    HW224324   6.470   3.155   4.356
 7809SOL     OW24325   1.939   5.747   4.087
 7809SOL    HW124326   1.872   5.809   4.128
 7809SOL    HW224327   2.011   5.801   4.042
 7810SOL     OW24328   3.702   0.656   4.881
 7810SOL    HW124329   3.709   0.676   4.783
 7810SOL    HW224330   3.793   0.660   4.922
 7811SOL     OW24331   1.060   5.437   2.856
 7811SOL    HW124332   1.065   5.348   2.900
 7811SOL    HW224333   1.000   5.432   2.775
 7812SOL     OW24334   1.079   2.235   3.396
 7812SOL    HW124335   0.980   2.249   3.405
 7812SOL    HW224336   1.114   2.290   3.320
 7813SOL     OW24337   4.235   2.176   6.360
 7813SOL    HW124338   4.258   2.236   6.437
 7813SOL    HW224339   4.315   2.121   6.336
 7814SOL     OW24340   0.049   2.751   3.323
 7814SOL    HW124341   7.011   2.675   3.329
 7814SOL    HW224342   0.138   2.721   3.358
 7815SOL     OW24343   4.964   0.435   5.904
 7815SOL    HW124344   5.022   0.514   5.926
 7815SOL    HW224345   5.014   0.351   5.924
 7816SOL     OW24346   1.381   2.169   6.686
 7816SOL    HW124347   1.328   2.151   6.603
 7816SOL    HW224348   1.336   2.242   6.739
 7817SOL     OW24349   5.416   4.471   3.489
 7817SOL    HW124350   5.333   4.467   3.434
 7817SOL    HW224351   5.444   4.566   3.500
 7818SOL     OW24352   4.564   0.697   3.089
 7818SOL    HW124353   4.605   0.609   3.066
 7818SOL    HW224354   4.512   0.731   3.011
 7819SOL     OW24355   6.962   3.346   1.668
 7819SOL    HW124356   6.958   3.371   1.765
 7819SOL    HW224357   7.011   3.416   1.617
 7820SOL     OW24358   1.320   2.429   4.881
 7820SOL    HW124359   1.276   2.433   4.970
 7820SOL    HW224360   1.252   2.442   4.809
 7821SOL     OW24361   5.295   6.519   0.794
 7821SOL    HW124362   5.253   6.604   0.762
 7821SOL    HW224363   5.327   6.531   0.888
 7822SOL     OW24364   0.900   1.815   5.722
 7822SOL    HW124365   0.977   1.766   5.681
 7822SOL    HW224366   0.818   1.758   5.719
 7823SOL     OW24367   2.692   3.876   5.280
 7823SOL    HW124368   2.677   3.781   5.307
 7823SOL    HW224369   2.607   3.914   5.242
 7824SOL     OW24370   5.471   1.008   3.858
 7824SOL    HW124371   5.440   0.914   3.873
 7824SOL    HW224372   5.538   1.033   3.927
 7825SOL     OW24373   1.713   2.767   1.386
 7825SOL    HW124374   1.682   2.769   1.291
 7825SOL    HW224375   1.719   2.860   1.421
 7826SOL     OW24376   6.224   1.480   1.370
 7826SOL    HW124377   6.285   1.413   1.413
 7826SOL    HW224378   6.260   1.506   1.281
 7827SOL     OW24379   1.946   5.140   1.132
 7827SOL    HW124380   1.997   5.204   1.189
 7827SOL    HW224381   1.861   5.115   1.177
 7828SOL     OW24382   0.755   4.386   6.782
 7828SOL    HW124383   0.718   4.294   6.788
 7828SOL    HW224384   0.844   4.390   6.826
 7829SOL     OW24385   2.258   3.853   1.583
 7829SOL    HW124386   2.158   3.840   1.581
 7829SOL    HW224387   2.303   3.764   1.583
 7830SOL     OW24388   2.674   4.700   5.287
 7830SOL    HW124389   2.731   4.664   5.214
 7830SOL    HW224390   2.666   4.631   5.360
 7831SOL     OW24391   2.188   6.531   1.892
 7831SOL    HW124392   2.134   6.502   1.970
 7831SOL    HW224393   2.185   6.631   1.885
 7832SOL     OW24394   5.782   0.824   3.316
 7832SOL    HW124395   5.767   0.752   3.383
 7832SOL    HW224396   5.694   0.858   3.283
 7833SOL     OW24397   0.817   1.166   6.151
 7833SOL    HW124398   0.781   1.081   6.114
 7833SOL    HW224399   0.768   1.189   6.236
 7834SOL     OW24400   6.939   1.682   3.731
 7834SOL    HW124401   6.945   1.775   3.767
 7834SOL    HW224402   7.006   1.670   3.658
 7835SOL     OW24403   3.321   2.163   5.288
 7835SOL    HW124404   3.252   2.091   5.278
 7835SOL    HW224405   3.290   2.246   5.241
 7836SOL     OW24406   3.166   2.959   5.238
 7836SOL    HW124407   3.187   2.935   5.144
 7836SOL    HW224408   3.251   2.973   5.289
 7837SOL     OW24409   5.007   5.321   6.935
 7837SOL    HW124410   4.922   5.335   6.985
 7837SOL    HW224411   4.998   5.357   6.842
 7838SOL     OW24412   4.162   6.758   1.120
 7838SOL    HW124413   4.138   6.664   1.145
 7838SOL    HW224414   4.154   6.769   1.021
 7839SOL     OW24415   5.858   4.227   5.137
 7839SOL    HW124416   5.942   4.268   5.172
 7839SOL    HW224417   5.837   4.264   5.047
 7840SOL     OW24418   5.999   3.106   3.863
 7840SOL    HW124419   5.997   3.132   3.766
 7840SOL    HW224420   5.942   3.169   3.915
 7841SOL     OW24421   3.333   2.103   6.001
 7841SOL    HW124422   3.404   2.120   6.070
 7841SOL    HW224423   3.347   2.164   5.923
 7842SOL     OW24424   2.878   2.303   2.723
 7842SOL    HW124425   2.963   2.344   2.757
 7842SOL    HW224426   2.892   2.272   2.629
 7843SOL     OW24427   0.530   6.305   3.536
 7843SOL    HW124428   0.552   6.221   3.585
 7843SOL    HW224429   0.613   6.361   3.527
 7844SOL     OW24430   3.734   0.281   2.846
 7844SOL    HW124431   3.702   0.267   2.940
 7844SOL    HW224432   3.828   0.247   2.838
 7845SOL     OW24433   5.686   2.209   2.872
 7845SOL    HW124434   5.734   2.284   2.917
 7845SOL    HW224435   5.740   2.176   2.795
 7846SOL     OW24436   0.503   2.016   1.868
 7846SOL    HW124437   0.593   2.037   1.830
 7846SOL    HW224438   0.432   2.050   1.807
 7847SOL     OW24439   0.029   1.068   3.355
 7847SOL    HW124440   6.988   1.116   3.301
 7847SOL    HW224441   0.053   0.982   3.309
 7848SOL     OW24442   2.919   4.401   0.476
 7848SOL    HW124443   2.937   4.303   0.467
 7848SOL    HW224444   2.823   4.416   0.501
 7849SOL     OW24445   6.737   4.451   4.532
 7849SOL    HW124446   6.788   4.510   4.595
 7849SOL    HW224447   6.647   4.431   4.571
 7850SOL     OW24448   0.268   1.461   4.342
 7850SOL    HW124449   0.356   1.465   4.389
 7850SOL    HW224450   0.224   1.373   4.362
 7851SOL     OW24451   6.360   1.318   1.550
 7851SOL    HW124452   6.375   1.227   1.589
 7851SOL    HW224453   6.412   1.385   1.602
 7852SOL     OW24454   3.234   1.787   6.337
 7852SOL    HW124455   3.326   1.802   6.373
 7852SOL    HW224456   3.186   1.721   6.394
 7853SOL     OW24457   5.042   2.501   1.925
 7853SOL    HW124458   5.082   2.525   1.837
 7853SOL    HW224459   5.070   2.408   1.950
 7854SOL     OW24460   3.520   3.464   6.794
 7854SOL    HW124461   3.578   3.432   6.719
 7854SOL    HW224462   3.570   3.458   6.880
 7855SOL     OW24463   4.641   6.994   4.351
 7855SOL    HW124464   4.578   7.008   4.275
 7855SOL    HW224465   4.600   6.933   4.418
 7856SOL     OW24466   6.663   5.434   5.293
 7856SOL    HW124467   6.620   5.492   5.224
 7856SOL    HW224468   6.763   5.441   5.286
 7857SOL     OW24469   4.791   2.517   6.966
 7857SOL    HW124470   4.706   2.509   6.912
 7857SOL    HW224471   4.819   2.426   6.996
 7858SOL     OW24472   6.179   6.651   3.974
 7858SOL    HW124473   6.162   6.601   3.889
 7858SOL    HW224474   6.220   6.740   3.952
 7859SOL     OW24475   4.159   2.814   6.051
 7859SOL    HW124476   4.060   2.819   6.034
 7859SOL    HW224477   4.206   2.882   5.995
 7860SOL     OW24478   3.742   0.852   3.458
 7860SOL    HW124479   3.796   0.810   3.531
 7860SOL    HW224480   3.685   0.783   3.414
 7861SOL     OW24481   3.672   4.656   1.559
 7861SOL    HW124482   3.665   4.625   1.654
 7861SOL    HW224483   3.633   4.748   1.552
 7862SOL     OW24484   1.917   4.836   2.033
 7862SOL    HW124485   1.923   4.872   1.940
 7862SOL    HW224486   1.992   4.772   2.049
 7863SOL     OW24487   0.340   4.474   4.751
 7863SOL    HW124488   0.409   4.539   4.722
 7863SOL    HW224489   0.282   4.449   4.673
 7864SOL     OW24490   0.533   5.719   5.481
 7864SOL    HW124491   0.580   5.700   5.567
 7864SOL    HW224492   0.559   5.810   5.448
 7865SOL     OW24493   6.551   6.276   3.970
 7865SOL    HW124494   6.645   6.242   3.973
 7865SOL    HW224495   6.526   6.313   4.060
 7866SOL     OW24496   0.828   1.795   6.015
 7866SOL    HW124497   0.851   1.809   5.918
 7866SOL    HW224498   0.884   1.855   6.071
 7867SOL     OW24499   6.046   5.990   3.312
 7867SOL    HW124500   6.090   6.021   3.396
 7867SOL    HW224501   5.989   6.063   3.275
 7868SOL     OW24502   5.063   6.587   1.806
 7868SOL    HW124503   5.072   6.664   1.870
 7868SOL    HW224504   5.137   6.522   1.823
 7869SOL     OW24505   5.224   3.678   6.879
 7869SOL    HW124506   5.261   3.752   6.935
 7869SOL    HW224507   5.283   3.663   6.799
 7870SOL     OW24508   4.625   5.348   4.077
 7870SOL    HW124509   4.618   5.372   4.174
 7870SOL    HW224510   4.675   5.263   4.068
 7871SOL     OW24511   4.737   1.534   1.890
 7871SOL    HW124512   4.665   1.472   1.857
 7871SOL    HW224513   4.705   1.582   1.972
 7872SOL     OW24514   1.846   3.587   3.121
 7872SOL    HW124515   1.854   3.639   3.036
 7872SOL    HW224516   1.784   3.509   3.106
 7873SOL     OW24517   5.616   6.852   6.168
 7873SOL    HW124518   5.645   6.836   6.263
 7873SOL    HW224519   5.678   6.806   6.106
 7874SOL     OW24520   4.806   2.539   0.401
 7874SOL    HW124521   4.786   2.621   0.454
 7874SOL    HW224522   4.854   2.472   0.459
 7875SOL     OW24523   4.496   3.117   6.765
 7875SOL    HW124524   4.416   3.089   6.817
 7875SOL    HW224525   4.518   3.213   6.786
 7876SOL     OW24526   1.557   6.836   3.641
 7876SOL    HW124527   1.548   6.765   3.712
 7876SOL    HW224528   1.466   6.867   3.614
 7877SOL     OW24529   1.135   1.904   2.816
 7877SOL    HW124530   1.156   1.849   2.897
 7877SOL    HW224531   1.171   1.858   2.735
 7878SOL     OW24532   4.570   4.347   4.480
 7878SOL    HW124533   4.626   4.400   4.544
 7878SOL    HW224534   4.507   4.289   4.532
 7879SOL     OW24535   3.973   5.472   3.378
 7879SOL    HW124536   3.993   5.399   3.313
 7879SOL    HW224537   3.924   5.546   3.330
 7880SOL     OW24538   2.046   4.084   1.496
 7880SOL    HW124539   1.996   4.045   1.418
 7880SOL    HW224540   2.002   4.055   1.581
 7881SOL     OW24541   6.000   4.920   4.873
 7881SOL    HW124542   5.939   4.975   4.815
 7881SOL    HW224543   6.060   4.980   4.925
 7882SOL     OW24544   1.504   3.420   2.232
 7882SOL    HW124545   1.432   3.374   2.283
 7882SOL    HW224546   1.481   3.517   2.220
 7883SOL     OW24547   1.086   0.334   0.379
 7883SOL    HW124548   1.185   0.342   0.374
 7883SOL    HW224549   1.060   0.237   0.373
 7884SOL     OW24550   2.130   3.622   4.691
 7884SOL    HW124551   2.160   3.714   4.716
 7884SOL    HW224552   2.073   3.584   4.764
 7885SOL     OW24553   6.140   5.687   0.892
 7885SOL    HW124554   6.181   5.769   0.853
 7885SOL    HW224555   6.199   5.608   0.873
 7886SOL     OW24556   3.847   4.938   0.118
 7886SOL    HW124557   3.879   4.845   0.101
 7886SOL    HW224558   3.827   4.983   0.031
 7887SOL     OW24559   3.186   2.369   5.497
 7887SOL    HW124560   3.245   2.420   5.434
 7887SOL    HW224561   3.115   2.322   5.445
 7888SOL     OW24562   6.481   0.465   5.281
 7888SOL    HW124563   6.554   0.533   5.277
 7888SOL    HW224564   6.417   0.489   5.354
 7889SOL     OW24565   1.273   4.559   1.401
 7889SOL    HW124566   1.372   4.547   1.393
 7889SOL    HW224567   1.234   4.578   1.311
 7890SOL     OW24568   1.877   3.106   2.867
 7890SOL    HW124569   1.970   3.142   2.874
 7890SOL    HW224570   1.821   3.142   2.941
 7891SOL     OW24571   1.639   3.480   3.669
 7891SOL    HW124572   1.587   3.411   3.719
 7891SOL    HW224573   1.693   3.436   3.597
 7892SOL     OW24574   2.288   1.365   4.263
 7892SOL    HW124575   2.315   1.314   4.345
 7892SOL    HW224576   2.368   1.384   4.208
 7893SOL     OW24577   7.000   6.437   2.744
 7893SOL    HW124578   0.002   6.512   2.686
 7893SOL    HW224579   6.975   6.472   2.835
 7894SOL     OW24580   3.526   0.180   0.955
 7894SOL    HW124581   3.450   0.115   0.953
 7894SOL    HW224582   3.517   0.240   1.035
 7895SOL     OW24583   6.276   0.876   5.570
 7895SOL    HW124584   6.242   0.966   5.598
 7895SOL    HW224585   6.348   0.886   5.502
 7896SOL     OW24586   4.820   3.919   6.958
 7896SOL    HW124587   4.829   4.018   6.974
 7896SOL    HW224588   4.882   3.870   7.020
 7897SOL     OW24589   2.543   4.079   0.132
 7897SOL    HW124590   2.595   3.995   0.147
 7897SOL    HW224591   2.449   4.056   0.108
 7898SOL     OW24592   4.926   1.943   3.821
 7898SOL    HW124593   5.011   1.931   3.770
 7898SOL    HW224594   4.849   1.913   3.765
 7899SOL     OW24595   5.698   0.820   0.893
 7899SOL    HW124596   5.735   0.760   0.963
 7899SOL    HW224597   5.624   0.773   0.845
 7900SOL     OW24598   1.275   5.477   1.193
 7900SOL    HW124599   1.269   5.516   1.101
 7900SOL    HW224600   1.331   5.537   1.251
 7901SOL     OW24601   4.983   1.276   6.774
 7901SOL    HW124602   4.894   1.322   6.775
 7901SOL    HW224603   5.005   1.249   6.680
 7902SOL     OW24604   5.393   6.088   1.287
 7902SOL    HW124605   5.346   6.133   1.211
 7902SOL    HW224606   5.353   5.997   1.302
 7903SOL     OW24607   5.774   1.065   0.975
 7903SOL    HW124608   5.743   0.970   0.970
 7903SOL    HW224609   5.861   1.074   0.926
 7904SOL     OW24610   5.884   6.269   3.408
 7904SOL    HW124611   5.813   6.340   3.408
 7904SOL    HW224612   5.900   6.237   3.315
 7905SOL     OW24613   4.619   2.753   0.533
 7905SOL    HW124614   4.655   2.845   0.549
 7905SOL    HW224615   4.591   2.712   0.620
 7906SOL     OW24616   0.205   5.556   0.581
 7906SOL    HW124617   0.148   5.501   0.643
 7906SOL    HW224618   0.232   5.640   0.628
 7907SOL     OW24619   5.521   2.484   3.434
 7907SOL    HW124620   5.599   2.533   3.397
 7907SOL    HW224621   5.501   2.517   3.526
 7908SOL     OW24622   0.552   1.955   5.643
 7908SOL    HW124623   0.521   2.045   5.671
 7908SOL    HW224624   0.475   1.891   5.643
 7909SOL     OW24625   5.523   3.738   4.939
 7909SOL    HW124626   5.565   3.828   4.949
 7909SOL    HW224627   5.547   3.682   5.018
 7910SOL     OW24628   2.865   3.584   6.115
 7910SOL    HW124629   2.857   3.681   6.138
 7910SOL    HW224630   2.857   3.573   6.016
 7911SOL     OW24631   1.446   3.189   0.154
 7911SOL    HW124632   1.463   3.157   0.247
 7911SOL    HW224633   1.528   3.175   0.099
 7912SOL     OW24634   6.767   5.112   0.343
 7912SOL    HW124635   6.805   5.163   0.421
 7912SOL    HW224636   6.752   5.174   0.267
 7913SOL     OW24637   1.198   5.154   0.996
 7913SOL    HW124638   1.207   5.154   1.096
 7913SOL    HW224639   1.101   5.144   0.972
 7914SOL     OW24640   6.692   4.265   6.729
 7914SOL    HW124641   6.780   4.309   6.748
 7914SOL    HW224642   6.704   4.197   6.657
 7915SOL     OW24643   4.842   3.116   2.236
 7915SOL    HW124644   4.847   3.209   2.197
 7915SOL    HW224645   4.800   3.055   2.169
 7916SOL     OW24646   0.269   3.954   5.509
 7916SOL    HW124647   0.209   4.032   5.526
 7916SOL    HW224648   0.300   3.955   5.414
 7917SOL     OW24649   3.633   3.825   3.414
 7917SOL    HW124650   3.541   3.786   3.413
 7917SOL    HW224651   3.685   3.789   3.337
 7918SOL     OW24652   0.324   1.370   0.126
 7918SOL    HW124653   0.369   1.455   0.152
 7918SOL    HW224654   0.248   1.390   0.064
 7919SOL     OW24655   1.584   4.488   2.784
 7919SOL    HW124656   1.570   4.558   2.854
 7919SOL    HW224657   1.535   4.405   2.809
 7920SOL     OW24658   0.345   5.290   0.648
 7920SOL    HW124659   0.287   5.352   0.595
 7920SOL    HW224660   0.403   5.343   0.709
 7921SOL     OW24661   4.245   6.392   0.791
 7921SOL    HW124662   4.261   6.300   0.827
 7921SOL    HW224663   4.290   6.459   0.850
 7922SOL     OW24664   6.828   6.371   6.800
 7922SOL    HW124665   6.782   6.449   6.843
 7922SOL    HW224666   6.920   6.361   6.838
 7923SOL     OW24667   3.306   0.628   2.122
 7923SOL    HW124668   3.239   0.608   2.193
 7923SOL    HW224669   3.396   0.597   2.152
 7924SOL     OW24670   4.043   6.629   2.361
 7924SOL    HW124671   4.139   6.611   2.343
 7924SOL    HW224672   4.032   6.725   2.389
 7925SOL     OW24673   0.375   1.837   6.329
 7925SOL    HW124674   0.364   1.759   6.268
 7925SOL    HW224675   0.421   1.911   6.281
 7926SOL     OW24676   5.347   1.594   5.347
 7926SOL    HW124677   5.391   1.573   5.435
 7926SOL    HW224678   5.278   1.665   5.361
 7927SOL     OW24679   3.952   5.164   4.048
 7927SOL    HW124680   4.050   5.149   4.041
 7927SOL    HW224681   3.922   5.154   4.143
 7928SOL     OW24682   1.394   2.602   4.315
 7928SOL    HW124683   1.372   2.546   4.394
 7928SOL    HW224684   1.441   2.546   4.247
 7929SOL     OW24685   3.851   3.791   5.694
 7929SOL    HW124686   3.936   3.842   5.686
 7929SOL    HW224687   3.845   3.750   5.786
 7930SOL     OW24688   4.388   5.723   4.141
 7930SOL    HW124689   4.359   5.796   4.203
 7930SOL    HW224690   4.405   5.640   4.193
 7931SOL     OW24691   1.472   1.969   5.994
 7931SOL    HW124692   1.505   2.013   5.910
 7931SOL    HW224693   1.473   1.870   5.982
 7932SOL     OW24694   2.645   6.547   6.647
 7932SOL    HW124695   2.578   6.585   6.584
 7932SOL    HW224696   2.735   6.587   6.629
 7933SOL     OW24697   0.394   6.041   6.895
 7933SOL    HW124698   0.376   5.944   6.878
 7933SOL    HW224699   0.311   6.093   6.878
 7934SOL     OW24700   2.384   4.735   0.329
 7934SOL    HW124701   2.413   4.704   0.239
 7934SOL    HW224702   2.464   4.749   0.388
 7935SOL     OW24703   5.231   6.561   0.406
 7935SOL    HW124704   5.179   6.510   0.474
 7935SOL    HW224705   5.300   6.501   0.364
 7936SOL     OW24706   3.758   5.299   2.561
 7936SOL    HW124707   3.771   5.252   2.474
 7936SOL    HW224708   3.668   5.344   2.562
 7937SOL     OW24709   6.357   0.268   3.812
 7937SOL    HW124710   6.430   0.200   3.825
 7937SOL    HW224711   6.272   0.221   3.788
 7938SOL     OW24712   6.242   5.331   5.132
 7938SOL    HW124713   6.314   5.352   5.198
 7938SOL    HW224714   6.157   5.376   5.158
 7939SOL     OW24715   1.219   2.758   5.739
 7939SOL    HW124716   1.201   2.660   5.734
 7939SOL    HW224717   1.142   2.808   5.699
 7940SOL     OW24718   1.923   4.002   2.514
 7940SOL    HW124719   1.910   3.916   2.465
 7940SOL    HW224720   2.002   3.993   2.576
 7941SOL     OW24721   6.570   6.405   0.652
 7941SOL    HW124722   6.643   6.408   0.584
 7941SOL    HW224723   6.601   6.451   0.736
 7942SOL     OW24724   6.635   5.588   2.979
 7942SOL    HW124725   6.581   5.617   3.058
 7942SOL    HW224726   6.581   5.602   2.896
 7943SOL     OW24727   5.894   3.386   0.353
 7943SOL    HW124728   5.951   3.333   0.416
 7943SOL    HW224729   5.820   3.430   0.405
 7944SOL     OW24730   0.564   2.993   1.537
 7944SOL    HW124731   0.536   3.084   1.507
 7944SOL    HW224732   0.656   2.998   1.577
 7945SOL     OW24733   5.189   6.286   1.691
 7945SOL    HW124734   5.181   6.378   1.731
 7945SOL    HW224735   5.277   6.278   1.645
 7946SOL     OW24736   2.324   1.542   5.521
 7946SOL    HW124737   2.309   1.570   5.616
 7946SOL    HW224738   2.343   1.622   5.465
 7947SOL     OW24739   3.587   2.286   6.050
 7947SOL    HW124740   3.581   2.377   6.091
 7947SOL    HW224741   3.565   2.292   5.952
 7948SOL     OW24742   0.515   6.160   0.813
 7948SOL    HW124743   0.435   6.114   0.852
 7948SOL    HW224744   0.577   6.092   0.774
 7949SOL     OW24745   4.763   4.472   4.300
 7949SOL    HW124746   4.709   4.428   4.371
 7949SOL    HW224747   4.821   4.544   4.340
 7950SOL     OW24748   5.690   5.134   4.192
 7950SOL    HW124749   5.627   5.060   4.218
 7950SOL    HW224750   5.771   5.131   4.250
 7951SOL     OW24751   1.504   3.829   1.076
 7951SOL    HW124752   1.482   3.787   1.164
 7951SOL    HW224753   1.581   3.782   1.035
 7952SOL     OW24754   0.948   3.242   6.701
 7952SOL    HW124755   0.862   3.276   6.663
 7952SOL    HW224756   0.975   3.299   6.779
 7953SOL     OW24757   1.829   3.027   3.143
 7953SOL    HW124758   1.863   2.936   3.117
 7953SOL    HW224759   1.902   3.094   3.132
 7954SOL     OW24760   4.721   4.362   5.190
 7954SOL    HW124761   4.799   4.371   5.128
 7954SOL    HW224762   4.751   4.378   5.284
 7955SOL     OW24763   1.481   6.690   6.651
 7955SOL    HW124764   1.431   6.617   6.697
 7955SOL    HW224765   1.487   6.670   6.553
 7956SOL     OW24766   3.110   5.830   2.848
 7956SOL    HW124767   3.088   5.911   2.794
 7956SOL    HW224768   3.057   5.831   2.932
 7957SOL     OW24769   1.858   1.287   0.674
 7957SOL    HW124770   1.931   1.355   0.675
 7957SOL    HW224771   1.893   1.199   0.707
 7958SOL     OW24772   3.389   5.247   4.303
 7958SOL    HW124773   3.346   5.241   4.213
 7958SOL    HW224774   3.326   5.214   4.373
 7959SOL     OW24775   4.021   5.884   1.059
 7959SOL    HW124776   4.046   5.791   1.033
 7959SOL    HW224777   4.092   5.922   1.118
 7960SOL     OW24778   4.172   1.884   0.570
 7960SOL    HW124779   4.095   1.841   0.522
 7960SOL    HW224780   4.218   1.815   0.626
 7961SOL     OW24781   0.804   6.438   0.837
 7961SOL    HW124782   0.716   6.391   0.842
 7961SOL    HW224783   0.790   6.536   0.852
 7962SOL     OW24784   1.890   0.236   0.331
 7962SOL    HW124785   1.975   0.195   0.296
 7962SOL    HW224786   1.815   0.217   0.268
 7963SOL     OW24787   0.175   0.860   3.690
 7963SOL    HW124788   0.117   0.880   3.769
 7963SOL    HW224789   0.237   0.937   3.675
 7964SOL     OW24790   0.035   4.989   3.260
 7964SOL    HW124791   7.004   5.048   3.316
 7964SOL    HW224792   0.046   4.901   3.307
 7965SOL     OW24793   3.856   3.192   0.169
 7965SOL    HW124794   3.929   3.229   0.111
 7965SOL    HW224795   3.771   3.188   0.117
 7966SOL     OW24796   0.863   3.302   5.745
 7966SOL    HW124797   0.830   3.394   5.724
 7966SOL    HW224798   0.872   3.249   5.660
 7967SOL     OW24799   2.859   5.875   4.167
 7967SOL    HW124800   2.843   5.844   4.261
 7967SOL    HW224801   2.927   5.949   4.168
 7968SOL     OW24802   2.430   2.353   3.226
 7968SOL    HW124803   2.456   2.380   3.134
 7968SOL    HW224804   2.331   2.367   3.238
 7969SOL     OW24805   4.447   6.932   2.011
 7969SOL    HW124806   4.387   6.890   1.943
 7969SOL    HW224807   4.392   6.984   2.076
 7970SOL     OW24808   0.632   3.354   3.239
 7970SOL    HW124809   0.550   3.297   3.232
 7970SOL    HW224810   0.634   3.419   3.163
 7971SOL     OW24811   4.700   1.397   0.820
 7971SOL    HW124812   4.680   1.398   0.918
 7971SOL    HW224813   4.725   1.304   0.792
 7972SOL     OW24814   1.326   3.634   1.543
 7972SOL    HW124815   1.367   3.696   1.609
 7972SOL    HW224816   1.288   3.555   1.592
 7973SOL     OW24817   4.741   4.153   3.299
 7973SOL    HW124818   4.766   4.107   3.214
 7973SOL    HW224819   4.768   4.097   3.377
 7974SOL     OW24820   5.813   1.048   4.922
 7974SOL    HW124821   5.855   0.957   4.929
 7974SOL    HW224822   5.855   1.109   4.989
 7975SOL     OW24823   6.109   0.131   2.500
 7975SOL    HW124824   6.087   0.182   2.417
 7975SOL    HW224825   6.112   0.193   2.578
 7976SOL     OW24826   0.771   0.704   6.450
 7976SOL    HW124827   0.676   0.692   6.422
 7976SOL    HW224828   0.786   0.662   6.539
 7977SOL     OW24829   4.875   5.583   1.538
 7977SOL    HW124830   4.946   5.513   1.529
 7977SOL    HW224831   4.810   5.574   1.463
 7978SOL     OW24832   5.348   3.451   6.346
 7978SOL    HW124833   5.283   3.527   6.351
 7978SOL    HW224834   5.417   3.471   6.276
 7979SOL     OW24835   3.561   0.455   5.076
 7979SOL    HW124836   3.645   0.449   5.022
 7979SOL    HW224837   3.553   0.374   5.133
 7980SOL     OW24838   2.520   5.569   0.331
 7980SOL    HW124839   2.494   5.663   0.353
 7980SOL    HW224840   2.515   5.555   0.232
 7981SOL     OW24841   0.422   5.695   2.070
 7981SOL    HW124842   0.455   5.755   2.143
 7981SOL    HW224843   0.382   5.751   1.997
 7982SOL     OW24844   0.462   1.165   0.218
 7982SOL    HW124845   0.400   1.111   0.273
 7982SOL    HW224846   0.415   1.247   0.185
 7983SOL     OW24847   5.867   1.758   2.759
 7983SOL    HW124848   5.861   1.785   2.662
 7983SOL    HW224849   5.944   1.805   2.801
 7984SOL     OW24850   1.746   1.796   2.092
 7984SOL    HW124851   1.742   1.738   2.174
 7984SOL    HW224852   1.839   1.794   2.054
 7985SOL     OW24853   2.578   6.158   4.090
 7985SOL    HW124854   2.648   6.121   4.030
 7985SOL    HW224855   2.532   6.083   4.138
 7986SOL     OW24856   2.866   0.467   0.055
 7986SOL    HW124857   2.841   0.563   0.063
 7986SOL    HW224858   2.860   0.423   0.145
 7987SOL     OW24859   1.444   3.250   6.795
 7987SOL    HW124860   1.367   3.258   6.731
 7987SOL    HW224861   1.414   3.277   6.887
 7988SOL     OW24862   1.571   1.921   4.123
 7988SOL    HW124863   1.633   1.931   4.201
 7988SOL    HW224864   1.611   1.856   4.058
 7989SOL     OW24865   3.314   2.624   5.305
 7989SOL    HW124866   3.292   2.702   5.246
 7989SOL    HW224867   3.274   2.541   5.267
 7990SOL     OW24868   6.375   4.335   3.556
 7990SOL    HW124869   6.304   4.265   3.550
 7990SOL    HW224870   6.369   4.380   3.646
 7991SOL     OW24871   6.823   0.827   4.456
 7991SOL    HW124872   6.865   0.750   4.505
 7991SOL    HW224873   6.739   0.854   4.503
 7992SOL     OW24874   1.463   6.348   1.016
 7992SOL    HW124875   1.370   6.320   0.990
 7992SOL    HW224876   1.529   6.307   0.953
 7993SOL     OW24877   1.250   6.004   6.573
 7993SOL    HW124878   1.300   6.038   6.652
 7993SOL    HW224879   1.282   6.052   6.491
 7994SOL     OW24880   5.025   6.898   3.082
 7994SOL    HW124881   5.024   6.814   3.028
 7994SOL    HW224882   5.024   6.876   3.179
 7995SOL     OW24883   4.473   5.104   3.750
 7995SOL    HW124884   4.565   5.080   3.781
 7995SOL    HW224885   4.457   5.202   3.763
 7996SOL     OW24886   2.799   0.270   4.734
 7996SOL    HW124887   2.807   0.178   4.774
 7996SOL    HW224888   2.863   0.331   4.779
 7997SOL     OW24889   6.997   1.170   1.025
 7997SOL    HW124890   0.026   1.147   0.945
 7997SOL    HW224891   6.934   1.095   1.043
 7998SOL     OW24892   3.780   5.393   1.236
 7998SOL    HW124893   3.781   5.485   1.276
 7998SOL    HW224894   3.689   5.354   1.245
 7999SOL     OW24895   1.406   0.047   5.954
 7999SOL    HW124896   1.359   0.006   6.032
 7999SOL    HW224897   1.377   0.001   5.870
 8000SOL     OW24898   5.245   0.475   0.850
 8000SOL    HW124899   5.173   0.472   0.920
 8000SOL    HW224900   5.335   0.473   0.894
 8001SOL     OW24901   3.329   5.742   1.330
 8001SOL    HW124902   3.286   5.703   1.411
 8001SOL    HW224903   3.388   5.674   1.287
 8002SOL     OW24904   0.506   2.460   5.899
 8002SOL    HW124905   0.444   2.382   5.888
 8002SOL    HW224906   0.567   2.444   5.977
 8003SOL     OW24907   2.509   4.578   2.690
 8003SOL    HW124908   2.472   4.657   2.641
 8003SOL    HW224909   2.510   4.597   2.788
 8004SOL     OW24910   1.856   3.842   3.520
 8004SOL    HW124911   1.915   3.908   3.473
 8004SOL    HW224912   1.816   3.779   3.454
 8005SOL     OW24913   3.247   1.491   2.660
 8005SOL    HW124914   3.225   1.420   2.726
 8005SOL    HW224915   3.277   1.449   2.574
 8006SOL     OW24916   2.628   6.937   6.830
 8006SOL    HW124917   2.592   7.001   6.762
 8006SOL    HW224918   2.564   6.931   6.908
 8007SOL     OW24919   0.673   0.419   4.270
 8007SOL    HW124920   0.746   0.399   4.204
 8007SOL    HW224921   0.654   0.517   4.269
 8008SOL     OW24922   4.070   6.595   5.563
 8008SOL    HW124923   4.115   6.533   5.626
 8008SOL    HW224924   4.049   6.547   5.477
 8009SOL     OW24925   5.956   0.328   2.776
 8009SOL    HW124926   5.896   0.318   2.856
 8009SOL    HW224927   5.902   0.317   2.693
 8010SOL     OW24928   1.301   1.189   0.786
 8010SOL    HW124929   1.371   1.261   0.796
 8010SOL    HW224930   1.316   1.141   0.699
 8011SOL     OW24931   3.270   2.423   1.183
 8011SOL    HW124932   3.368   2.444   1.182
 8011SOL    HW224933   3.239   2.416   1.278
 8012SOL     OW24934   2.079   5.777   1.638
 8012SOL    HW124935   2.103   5.682   1.660
 8012SOL    HW224936   2.120   5.802   1.551
 8013SOL     OW24937   1.077   4.763   4.055
 8013SOL    HW124938   1.102   4.828   3.984
 8013SOL    HW224939   1.143   4.687   4.056
 8014SOL     OW24940   0.969   5.987   5.386
 8014SOL    HW124941   1.015   5.899   5.374
 8014SOL    HW224942   1.035   6.061   5.374
 8015SOL     OW24943   3.090   1.448   0.153
 8015SOL    HW124944   3.125   1.382   0.221
 8015SOL    HW224945   3.160   1.516   0.134
 8016SOL     OW24946   4.684   0.207   6.915
 8016SOL    HW124947   4.635   0.122   6.937
 8016SOL    HW224948   4.660   0.278   6.981
 8017SOL     OW24949   6.295   6.223   0.172
 8017SOL    HW124950   6.385   6.223   0.129
 8017SOL    HW224951   6.272   6.131   0.202
 8018SOL     OW24952   3.254   2.485   5.957
 8018SOL    HW124953   3.183   2.434   5.907
 8018SOL    HW224954   3.274   2.570   5.908
 8019SOL     OW24955   2.340   3.743   6.926
 8019SOL    HW124956   2.355   3.644   6.922
 8019SOL    HW224957   2.422   3.790   6.893
 8020SOL     OW24958   6.663   5.927   0.755
 8020SOL    HW124959   6.589   5.977   0.708
 8020SOL    HW224960   6.737   5.910   0.690
 8021SOL     OW24961   1.307   1.921   1.291
 8021SOL    HW124962   1.390   1.971   1.317
 8021SOL    HW224963   1.330   1.849   1.226
 8022SOL     OW24964   4.234   0.253   2.776
 8022SOL    HW124965   4.334   0.257   2.780
 8022SOL    HW224966   4.200   0.324   2.715
 8023SOL     OW24967   5.810   5.278   3.429
 8023SOL    HW124968   5.733   5.216   3.418
 8023SOL    HW224969   5.860   5.256   3.513
 8024SOL     OW24970   3.341   5.132   0.297
 8024SOL    HW124971   3.274   5.061   0.319
 8024SOL    HW224972   3.334   5.206   0.364
 8025SOL     OW24973   2.454   6.012   6.837
 8025SOL    HW124974   2.547   5.977   6.822
 8025SOL    HW224975   2.415   6.043   6.750
 8026SOL     OW24976   0.928   4.684   6.691
 8026SOL    HW124977   0.929   4.586   6.674
 8026SOL    HW224978   0.856   4.727   6.637
 8027SOL     OW24979   4.302   1.964   5.220
 8027SOL    HW124980   4.310   1.864   5.231
 8027SOL    HW224981   4.327   1.989   5.127
 8028SOL     OW24982   2.553   4.955   5.292
 8028SOL    HW124983   2.458   4.950   5.263
 8028SOL    HW224984   2.596   4.866   5.282
 8029SOL     OW24985   4.935   3.343   0.247
 8029SOL    HW124986   5.016   3.385   0.287
 8029SOL    HW224987   4.960   3.294   0.164
 8030SOL     OW24988   4.665   4.182   6.941
 8030SOL    HW124989   4.716   4.236   6.874
 8030SOL    HW224990   4.655   4.236   7.025
 8031SOL     OW24991   4.473   6.114   2.832
 8031SOL    HW124992   4.393   6.157   2.791
 8031SOL    HW224993   4.527   6.068   2.761
 8032SOL     OW24994   5.643   4.315   6.106
 8032SOL    HW124995   5.702   4.236   6.121
 8032SOL    HW224996   5.656   4.350   6.013
 8033SOL     OW24997   4.938   3.568   6.410
 8033SOL    HW124998   4.876   3.634   6.452
 8033SOL    HW224999   4.941   3.485   6.466
 8034SOL     OW25000   6.705   1.021   5.395
 8034SOL    HW125001   6.652   1.082   5.454
 8034SOL    HW225002   6.712   0.931   5.438
 8035SOL     OW25003   4.964   0.981   5.385
 8035SOL    HW125004   5.058   1.011   5.403
 8035SOL    HW225005   4.902   1.029   5.448
 8036SOL     OW25006   0.426   4.247   2.429
 8036SOL    HW125007   0.476   4.181   2.485
 8036SOL    HW225008   0.328   4.237   2.444
 8037SOL     OW25009   1.818   3.266   1.512
 8037SOL    HW125010   1.839   3.364   1.504
 8037SOL    HW225011   1.890   3.221   1.565
 8038SOL     OW25012   4.342   1.174   3.205
 8038SOL    HW125013   4.402   1.127   3.270
 8038SOL    HW225014   4.382   1.262   3.179
 8039SOL     OW25015   1.080   0.852   4.172
 8039SOL    HW125016   1.133   0.778   4.214
 8039SOL    HW225017   1.121   0.876   4.084
 8040SOL     OW25018   1.234   6.208   0.877
 8040SOL    HW125019   1.141   6.229   0.907
 8040SOL    HW225020   1.232   6.127   0.819
 8041SOL     OW25021   3.041   1.742   2.130
 8041SOL    HW125022   2.959   1.794   2.106
 8041SOL    HW225023   3.090   1.787   2.205
 8042SOL     OW25024   3.226   3.062   3.922
 8042SOL    HW125025   3.171   3.078   4.004
 8042SOL    HW225026   3.166   3.052   3.843
 8043SOL     OW25027   3.562   0.113   2.136
 8043SOL    HW125028   3.651   0.157   2.141
 8043SOL    HW225029   3.511   0.150   2.058
 8044SOL     OW25030   3.769   3.319   0.400
 8044SOL    HW125031   3.801   3.244   0.341
 8044SOL    HW225032   3.823   3.401   0.382
 8045SOL     OW25033   5.502   0.230   1.201
 8045SOL    HW125034   5.472   0.266   1.289
 8045SOL    HW225035   5.555   0.146   1.216
 8046SOL     OW25036   6.683   5.300   0.153
 8046SOL    HW125037   6.662   5.253   0.067
 8046SOL    HW225038   6.695   5.398   0.135
 8047SOL     OW25039   4.023   5.209   4.559
 8047SOL    HW125040   4.089   5.274   4.522
 8047SOL    HW225041   3.930   5.245   4.547
 8048SOL     OW25042   5.540   0.858   5.910
 8048SOL    HW125043   5.474   0.917   5.865
 8048SOL    HW225044   5.558   0.893   6.002
 8049SOL     OW25045   1.697   0.189   0.909
 8049SOL    HW125046   1.766   0.258   0.934
 8049SOL    HW225047   1.624   0.189   0.978
 8050SOL     OW25048   1.393   3.788   1.995
 8050SOL    HW125049   1.465   3.853   2.018
 8050SOL    HW225050   1.308   3.813   2.042
 8051SOL     OW25051   4.328   5.901   3.189
 8051SOL    HW125052   4.384   5.981   3.168
 8051SOL    HW225053   4.280   5.917   3.276
 8052SOL     OW25054   4.173   1.533   2.115
 8052SOL    HW125055   4.096   1.587   2.149
 8052SOL    HW225056   4.235   1.513   2.191
 8053SOL     OW25057   3.751   3.484   3.513
 8053SOL    HW125058   3.817   3.437   3.571
 8053SOL    HW225059   3.714   3.564   3.562
 8054SOL     OW25060   5.114   0.107   4.335
 8054SOL    HW125061   5.115   0.023   4.281
 8054SOL    HW225062   5.024   0.120   4.376
 8055SOL     OW25063   6.695   0.293   6.179
 8055SOL    HW125064   6.735   0.246   6.101
 8055SOL    HW225065   6.687   0.391   6.159
 8056SOL     OW25066   4.480   2.059   4.251
 8056SOL    HW125067   4.563   2.007   4.270
 8056SOL    HW225068   4.401   2.012   4.290
 8057SOL     OW25069   2.876   2.238   3.159
 8057SOL    HW125070   2.812   2.261   3.233
 8057SOL    HW225071   2.841   2.160   3.107
 8058SOL     OW25072   4.673   0.477   2.960
 8058SOL    HW125073   4.759   0.447   2.920
 8058SOL    HW225074   4.642   0.408   3.027
 8059SOL     OW25075   4.628   2.688   4.715
 8059SOL    HW125076   4.571   2.680   4.797
 8059SOL    HW225077   4.577   2.655   4.635
 8060SOL     OW25078   0.551   2.402   4.257
 8060SOL    HW125079   0.455   2.409   4.285
 8060SOL    HW225080   0.570   2.308   4.227
 8061SOL     OW25081   6.659   6.956   1.667
 8061SOL    HW125082   6.702   7.027   1.724
 8061SOL    HW225083   6.566   6.984   1.644
 8062SOL     OW25084   2.710   4.743   4.297
 8062SOL    HW125085   2.702   4.722   4.395
 8062SOL    HW225086   2.653   4.680   4.245
 8063SOL     OW25087   0.861   2.619   0.641
 8063SOL    HW125088   0.779   2.621   0.585
 8063SOL    HW225089   0.837   2.604   0.736
 8064SOL     OW25090   0.145   5.067   0.914
 8064SOL    HW125091   0.100   5.074   1.003
 8064SOL    HW225092   0.244   5.080   0.925
 8065SOL     OW25093   4.192   6.331   4.201
 8065SOL    HW125094   4.102   6.346   4.241
 8065SOL    HW225095   4.217   6.409   4.144
 8066SOL     OW25096   0.996   1.916   6.190
 8066SOL    HW125097   1.074   1.976   6.173
 8066SOL    HW225098   1.026   1.836   6.241
 8067SOL     OW25099   4.705   3.203   1.692
 8067SOL    HW125100   4.672   3.143   1.765
 8067SOL    HW225101   4.661   3.292   1.700
 8068SOL     OW25102   5.966   4.652   0.347
 8068SOL    HW125103   6.053   4.696   0.324
 8068SOL    HW225104   5.944   4.584   0.277
 8069SOL     OW25105   2.159   5.851   1.364
 8069SOL    HW125106   2.171   5.769   1.308
 8069SOL    HW225107   2.130   5.927   1.307
 8070SOL     OW25108   2.896   2.965   0.292
 8070SOL    HW125109   2.925   2.870   0.296
 8070SOL    HW225110   2.880   2.992   0.197
 8071SOL     OW25111   2.737   6.264   5.022
 8071SOL    HW125112   2.663   6.300   4.964
 8071SOL    HW225113   2.745   6.320   5.104
 8072SOL     OW25114   3.236   0.546   6.727
 8072SOL    HW125115   3.183   0.518   6.807
 8072SOL    HW225116   3.202   0.496   6.647
 8073SOL     OW25117   4.377   5.813   5.762
 8073SOL    HW125118   4.387   5.740   5.830
 8073SOL    HW225119   4.316   5.884   5.797
 8074SOL     OW25120   3.292   2.416   0.117
 8074SOL    HW125121   3.210   2.360   0.126
 8074SOL    HW225122   3.289   2.492   0.181
 8075SOL     OW25123   6.536   0.891   1.140
 8075SOL    HW125124   6.456   0.891   1.080
 8075SOL    HW225125   6.585   0.804   1.131
 8076SOL     OW25126   5.220   2.435   5.778
 8076SOL    HW125127   5.188   2.458   5.687
 8076SOL    HW225128   5.205   2.513   5.839
 8077SOL     OW25129   1.401   5.400   1.972
 8077SOL    HW125130   1.486   5.417   2.022
 8077SOL    HW225131   1.408   5.312   1.925
 8078SOL     OW25132   6.003   1.174   0.547
 8078SOL    HW125133   5.910   1.190   0.580
 8078SOL    HW225134   6.000   1.140   0.453
 8079SOL     OW25135   5.308   1.603   3.322
 8079SOL    HW125136   5.255   1.535   3.372
 8079SOL    HW225137   5.405   1.593   3.343
 8080SOL     OW25138   0.235   3.637   0.167
 8080SOL    HW125139   0.171   3.709   0.191
 8080SOL    HW225140   0.326   3.676   0.152
 8081SOL     OW25141   4.905   0.306   4.620
 8081SOL    HW125142   4.911   0.234   4.690
 8081SOL    HW225143   4.879   0.265   4.533
 8082SOL     OW25144   6.120   0.827   1.463
 8082SOL    HW125145   6.119   0.868   1.555
 8082SOL    HW225146   6.207   0.847   1.419
 8083SOL     OW25147   5.399   3.783   2.700
 8083SOL    HW125148   5.384   3.830   2.613
 8083SOL    HW225149   5.365   3.689   2.694
 8084SOL     OW25150   5.279   6.985   0.524
 8084SOL    HW125151   5.209   6.919   0.496
 8084SOL    HW225152   5.370   6.947   0.510
 8085SOL     OW25153   6.379   0.095   2.582
 8085SOL    HW125154   6.281   0.089   2.564
 8085SOL    HW225155   6.394   0.126   2.676
 8086SOL     OW25156   4.719   1.042   4.076
 8086SOL    HW125157   4.767   1.063   4.161
 8086SOL    HW225158   4.770   0.972   4.025
 8087SOL     OW25159   2.701   1.983   0.923
 8087SOL    HW125160   2.741   1.978   0.832
 8087SOL    HW225161   2.767   1.949   0.990
 8088SOL     OW25162   5.714   2.108   1.287
 8088SOL    HW125163   5.664   2.078   1.368
 8088SOL    HW225164   5.781   2.038   1.262
 8089SOL     OW25165   5.132   2.951   0.713
 8089SOL    HW125166   5.094   2.861   0.734
 8089SOL    HW225167   5.156   2.998   0.798
 8090SOL     OW25168   4.016   2.652   6.742
 8090SOL    HW125169   4.031   2.616   6.834
 8090SOL    HW225170   4.100   2.694   6.709
 8091SOL     OW25171   2.711   3.792   6.968
 8091SOL    HW125172   2.620   3.793   6.929
 8091SOL    HW225173   2.767   3.864   6.927
 8092SOL     OW25174   1.032   2.226   4.992
 8092SOL    HW125175   1.037   2.228   4.892
 8092SOL    HW225176   0.955   2.168   5.019
 8093SOL     OW25177   4.742   5.766   1.718
 8093SOL    HW125178   4.758   5.670   1.697
 8093SOL    HW225179   4.644   5.784   1.720
 8094SOL     OW25180   1.804   4.295   4.387
 8094SOL    HW125181   1.804   4.196   4.392
 8094SOL    HW225182   1.857   4.333   4.463
 8095SOL     OW25183   5.942   4.428   4.501
 8095SOL    HW125184   6.007   4.487   4.452
 8095SOL    HW225185   5.922   4.348   4.445
 8096SOL     OW25186   3.201   5.589   3.946
 8096SOL    HW125187   3.249   5.566   3.861
 8096SOL    HW225188   3.136   5.516   3.969
 8097SOL     OW25189   4.938   6.799   3.330
 8097SOL    HW125190   4.977   6.754   3.411
 8097SOL    HW225191   4.870   6.738   3.289
 8098SOL     OW25192   2.491   6.799   4.026
 8098SOL    HW125193   2.571   6.828   3.973
 8098SOL    HW225194   2.414   6.858   4.002
 8099SOL     OW25195   5.576   0.068   3.817
 8099SOL    HW125196   5.613   7.016   3.770
 8099SOL    HW225197   5.503   0.109   3.763
 8100SOL     OW25198   6.828   6.726   6.684
 8100SOL    HW125199   6.858   6.687   6.597
 8100SOL    HW225200   6.779   6.657   6.737
 8101SOL     OW25201   2.008   0.201   4.014
 8101SOL    HW125202   1.967   0.282   4.057
 8101SOL    HW225203   2.107   0.207   4.019
 8102SOL     OW25204   1.130   4.779   4.770
 8102SOL    HW125205   1.032   4.760   4.777
 8102SOL    HW225206   1.151   4.810   4.678
 8103SOL     OW25207   4.443   0.560   0.859
 8103SOL    HW125208   4.391   0.640   0.831
 8103SOL    HW225209   4.479   0.514   0.779
 8104SOL     OW25210   2.541   6.563   6.017
 8104SOL    HW125211   2.535   6.651   6.065
 8104SOL    HW225212   2.588   6.576   5.930
 8105SOL     OW25213   1.913   2.279   2.910
 8105SOL    HW125214   1.929   2.180   2.916
 8105SOL    HW225215   1.815   2.296   2.900
 8106SOL     OW25216   2.763   5.785   3.467
 8106SOL    HW125217   2.711   5.753   3.546
 8106SOL    HW225218   2.853   5.740   3.465
 8107SOL     OW25219   1.275   5.931   4.962
 8107SOL    HW125220   1.215   5.882   5.026
 8107SOL    HW225221   1.364   5.944   5.004
 8108SOL     OW25222   5.621   3.282   4.891
 8108SOL    HW125223   5.695   3.348   4.898
 8108SOL    HW225224   5.636   3.207   4.956
 8109SOL     OW25225   1.061   4.039   4.146
 8109SOL    HW125226   1.045   4.133   4.116
 8109SOL    HW225227   0.973   3.992   4.157
 8110SOL     OW25228   3.363   6.274   1.192
 8110SOL    HW125229   3.383   6.210   1.267
 8110SOL    HW225230   3.438   6.272   1.126
 8111SOL     OW25231   4.161   0.914   5.306
 8111SOL    HW125232   4.260   0.904   5.316
 8111SOL    HW225233   4.123   0.830   5.266
 8112SOL     OW25234   1.680   1.596   4.305
 8112SOL    HW125235   1.608   1.660   4.332
 8112SOL    HW225236   1.718   1.553   4.387
 8113SOL     OW25237   3.034   3.556   0.634
 8113SOL    HW125238   2.990   3.643   0.614
 8113SOL    HW225239   2.971   3.481   0.615
 8114SOL     OW25240   2.102   3.405   1.552
 8114SOL    HW125241   2.022   3.460   1.575
 8114SOL    HW225242   2.129   3.423   1.458
 8115SOL     OW25243   3.990   1.270   1.716
 8115SOL    HW125244   4.053   1.241   1.788
 8115SOL    HW225245   3.943   1.353   1.743
 8116SOL     OW25246   4.814   0.408   5.036
 8116SOL    HW125247   4.797   0.461   4.953
 8116SOL    HW225248   4.901   0.437   5.077
 8117SOL     OW25249   2.063   1.282   4.455
 8117SOL    HW125250   2.051   1.205   4.393
 8117SOL    HW225251   2.158   1.282   4.489
 8118SOL     OW25252   6.429   3.237   5.893
 8118SOL    HW125253   6.496   3.282   5.951
 8118SOL    HW225254   6.462   3.237   5.798
 8119SOL     OW25255   6.296   5.657   5.155
 8119SOL    HW125256   6.245   5.713   5.091
 8119SOL    HW225257   6.232   5.607   5.214
 8120SOL     OW25258   3.349   4.628   6.854
 8120SOL    HW125259   3.425   4.692   6.865
 8120SOL    HW225260   3.335   4.608   6.757
 8121SOL     OW25261   0.036   5.109   2.862
 8121SOL    HW125262   7.025   5.058   2.939
 8121SOL    HW225263   6.991   5.132   2.798
 8122SOL     OW25264   1.203   5.694   2.594
 8122SOL    HW125265   1.271   5.689   2.668
 8122SOL    HW225266   1.149   5.610   2.593
 8123SOL     OW25267   0.086   0.117   6.731
 8123SOL    HW125268   0.028   0.036   6.723
 8123SOL    HW225269   0.091   0.165   6.643
 8124SOL     OW25270   0.016   6.368   1.095
 8124SOL    HW125271   0.112   6.391   1.109
 8124SOL    HW225272   7.004   6.429   1.026
 8125SOL     OW25273   0.937   6.735   3.088
 8125SOL    HW125274   0.908   6.652   3.039
 8125SOL    HW225275   0.883   6.813   3.056
 8126SOL     OW25276   6.322   3.783   2.328
 8126SOL    HW125277   6.390   3.813   2.261
 8126SOL    HW225278   6.233   3.777   2.284
 8127SOL     OW25279   2.210   6.075   0.694
 8127SOL    HW125280   2.256   6.151   0.649
 8127SOL    HW225281   2.222   5.992   0.640
 8128SOL     OW25282   2.811   3.398   0.829
 8128SOL    HW125283   2.908   3.385   0.849
 8128SOL    HW225284   2.756   3.348   0.896
 8129SOL     OW25285   4.132   1.333   5.838
 8129SOL    HW125286   4.228   1.334   5.864
 8129SOL    HW225287   4.110   1.245   5.796
 8130SOL     OW25288   0.563   4.929   6.197
 8130SOL    HW125289   0.600   4.901   6.109
 8130SOL    HW225290   0.491   4.866   6.224
 8131SOL     OW25291   2.917   0.658   1.111
 8131SOL    HW125292   2.955   0.751   1.121
 8131SOL    HW225293   2.970   0.608   1.043
 8132SOL     OW25294   5.757   6.529   6.044
 8132SOL    HW125295   5.729   6.623   6.022
 8132SOL    HW225296   5.711   6.499   6.127
 8133SOL     OW25297   3.687   5.000   1.822
 8133SOL    HW125298   3.670   4.909   1.860
 8133SOL    HW225299   3.640   5.009   1.734
 8134SOL     OW25300   0.744   1.368   4.378
 8134SOL    HW125301   0.785   1.342   4.465
 8134SOL    HW225302   0.807   1.428   4.328
 8135SOL     OW25303   2.468   5.410   1.373
 8135SOL    HW125304   2.532   5.339   1.343
 8135SOL    HW225305   2.415   5.377   1.451
 8136SOL     OW25306   4.690   4.403   2.810
 8136SOL    HW125307   4.787   4.409   2.835
 8136SOL    HW225308   4.634   4.415   2.892
 8137SOL     OW25309   2.099   1.547   4.198
 8137SOL    HW125310   2.176   1.487   4.223
 8137SOL    HW225311   2.135   1.628   4.152
 8138SOL     OW25312   5.402   2.302   0.427
 8138SOL    HW125313   5.320   2.318   0.482
 8138SOL    HW225314   5.398   2.210   0.388
 8139SOL     OW25315   1.951   2.472   3.468
 8139SOL    HW125316   2.028   2.410   3.459
 8139SOL    HW225317   1.883   2.452   3.398
 8140SOL     OW25318   3.648   6.995   0.624
 8140SOL    HW125319   3.622   0.064   0.629
 8140SOL    HW225320   3.571   6.942   0.587
 8141SOL     OW25321   4.357   6.927   5.673
 8141SOL    HW125322   4.296   6.848   5.664
 8141SOL    HW225323   4.452   6.898   5.660
 8142SOL     OW25324   1.851   4.981   0.411
 8142SOL    HW125325   1.924   4.970   0.343
 8142SOL    HW225326   1.887   4.961   0.502
 8143SOL     OW25327   5.545   5.165   0.734
 8143SOL    HW125328   5.517   5.140   0.641
 8143SOL    HW225329   5.508   5.255   0.758
 8144SOL     OW25330   0.639   5.716   5.767
 8144SOL    HW125331   0.603   5.664   5.844
 8144SOL    HW225332   0.625   5.814   5.783
 8145SOL     OW25333   5.570   5.423   0.890
 8145SOL    HW125334   5.608   5.369   0.966
 8145SOL    HW225335   5.606   5.516   0.894
 8146SOL     OW25336   5.655   0.557   5.754
 8146SOL    HW125337   5.635   0.570   5.657
 8146SOL    HW225338   5.750   0.583   5.771
 8147SOL     OW25339   6.555   0.668   0.965
 8147SOL    HW125340   6.654   0.654   0.960
 8147SOL    HW225341   6.509   0.616   0.893
 8148SOL     OW25342   4.251   5.138   6.608
 8148SOL    HW125343   4.318   5.065   6.618
 8148SOL    HW225344   4.269   5.209   6.677
 8149SOL     OW25345   1.417   6.612   2.967
 8149SOL    HW125346   1.435   6.615   2.868
 8149SOL    HW225347   1.498   6.577   3.014
 8150SOL     OW25348   0.679   3.999   0.881
 8150SOL    HW125349   0.720   3.924   0.829
 8150SOL    HW225350   0.720   4.085   0.852
 8151SOL     OW25351   5.620   5.242   3.714
 8151SOL    HW125352   5.618   5.179   3.791
 8151SOL    HW225353   5.643   5.334   3.746
 8152SOL     OW25354   6.463   3.375   3.251
 8152SOL    HW125355   6.428   3.281   3.251
 8152SOL    HW225356   6.484   3.403   3.157
 8153SOL     OW25357   1.102   1.340   3.064
 8153SOL    HW125358   1.168   1.300   3.127
 8153SOL    HW225359   1.009   1.321   3.097
 8154SOL     OW25360   3.706   6.491   2.805
 8154SOL    HW125361   3.702   6.547   2.888
 8154SOL    HW225362   3.666   6.401   2.823
 8155SOL     OW25363   1.621   3.937   2.016
 8155SOL    HW125364   1.676   4.020   2.027
 8155SOL    HW225365   1.672   3.870   1.963
 8156SOL     OW25366   4.547   6.262   0.698
 8156SOL    HW125367   4.604   6.193   0.745
 8156SOL    HW225368   4.452   6.233   0.700
 8157SOL     OW25369   6.049   4.728   6.466
 8157SOL    HW125370   6.051   4.814   6.416
 8157SOL    HW225371   6.048   4.652   6.400
 8158SOL     OW25372   4.966   4.104   0.126
 8158SOL    HW125373   4.960   4.151   0.038
 8158SOL    HW225374   5.003   4.167   0.194
 8159SOL     OW25375   2.947   5.604   4.624
 8159SOL    HW125376   2.906   5.586   4.714
 8159SOL    HW225377   3.019   5.537   4.607
 8160SOL     OW25378   4.761   0.208   3.645
 8160SOL    HW125379   4.861   0.204   3.656
 8160SOL    HW225380   4.728   0.299   3.669
 8161SOL     OW25381   5.650   3.887   6.438
 8161SOL    HW125382   5.708   3.890   6.520
 8161SOL    HW225383   5.574   3.823   6.453
 8162SOL     OW25384   6.517   5.631   6.658
 8162SOL    HW125385   6.560   5.671   6.577
 8162SOL    HW225386   6.427   5.595   6.633
 8163SOL     OW25387   2.413   4.300   5.570
 8163SOL    HW125388   2.387   4.208   5.540
 8163SOL    HW225389   2.334   4.360   5.567
 8164SOL     OW25390   4.309   1.533   0.452
 8164SOL    HW125391   4.301   1.434   0.463
 8164SOL    HW225392   4.406   1.558   0.447
 8165SOL     OW25393   6.608   3.978   6.052
 8165SOL    HW125394   6.692   3.978   5.998
 8165SOL    HW225395   6.623   3.932   6.139
 8166SOL     OW25396   1.351   0.667   3.351
 8166SOL    HW125397   1.307   0.578   3.332
 8166SOL    HW225398   1.397   0.699   3.268
 8167SOL     OW25399   0.428   0.815   3.475
 8167SOL    HW125400   0.434   0.912   3.454
 8167SOL    HW225401   0.491   0.764   3.416
 8168SOL     OW25402   2.602   0.695   1.782
 8168SOL    HW125403   2.675   0.630   1.802
 8168SOL    HW225404   2.641   0.776   1.739
 8169SOL     OW25405   4.352   2.505   0.451
 8169SOL    HW125406   4.288   2.429   0.454
 8169SOL    HW225407   4.304   2.588   0.422
 8170SOL     OW25408   6.670   4.784   1.511
 8170SOL    HW125409   6.583   4.793   1.464
 8170SOL    HW225410   6.721   4.706   1.472
 8171SOL     OW25411   2.232   1.096   6.373
 8171SOL    HW125412   2.313   1.129   6.422
 8171SOL    HW225413   2.159   1.164   6.378
 8172SOL     OW25414   0.002   2.051   1.992
 8172SOL    HW125415   7.025   2.129   1.930
 8172SOL    HW225416   0.087   2.001   1.976
 8173SOL     OW25417   5.651   1.669   2.319
 8173SOL    HW125418   5.708   1.666   2.237
 8173SOL    HW225419   5.581   1.598   2.314
 8174SOL     OW25420   0.798   6.819   2.469
 8174SOL    HW125421   0.784   6.874   2.387
 8174SOL    HW225422   0.719   6.760   2.483
 8175SOL     OW25423   0.191   2.907   4.849
 8175SOL    HW125424   0.111   2.932   4.795
 8175SOL    HW225425   0.190   2.957   4.935
 8176SOL     OW25426   2.297   4.711   1.567
 8176SOL    HW125427   2.355   4.630   1.563
 8176SOL    HW225428   2.309   4.756   1.656
 8177SOL     OW25429   4.996   0.669   3.819
 8177SOL    HW125430   5.075   0.625   3.776
 8177SOL    HW225431   5.002   0.768   3.806
 8178SOL     OW25432   3.048   6.774   0.960
 8178SOL    HW125433   3.072   6.723   1.042
 8178SOL    HW225434   3.123   6.770   0.894
 8179SOL     OW25435   5.540   1.076   4.988
 8179SOL    HW125436   5.618   1.041   4.937
 8179SOL    HW225437   5.523   1.171   4.963
 8180SOL     OW25438   6.425   0.755   6.414
 8180SOL    HW125439   6.521   0.776   6.398
 8180SOL    HW225440   6.409   0.657   6.397
 8181SOL     OW25441   1.643   1.459   0.653
 8181SOL    HW125442   1.671   1.551   0.679
 8181SOL    HW225443   1.720   1.396   0.665
 8182SOL     OW25444   2.835   3.296   5.658
 8182SOL    HW125445   2.773   3.218   5.670
 8182SOL    HW225446   2.883   3.287   5.571
 8183SOL     OW25447   6.732   2.145   4.702
 8183SOL    HW125448   6.772   2.229   4.739
 8183SOL    HW225449   6.656   2.168   4.641
 8184SOL     OW25450   0.373   6.898   0.345
 8184SOL    HW125451   0.279   6.894   0.378
 8184SOL    HW225452   0.413   6.806   0.343
 8185SOL     OW25453   1.705   0.216   0.099
 8185SOL    HW125454   1.741   0.154   0.030
 8185SOL    HW225455   1.648   0.286   0.055
 8186SOL     OW25456   2.900   4.256   5.801
 8186SOL    HW125457   2.898   4.275   5.899
 8186SOL    HW225458   2.839   4.320   5.754
 8187SOL     OW25459   2.065   1.168   4.896
 8187SOL    HW125460   2.065   1.087   4.955
 8187SOL    HW225461   2.108   1.244   4.944
 8188SOL     OW25462   4.929   3.425   3.774
 8188SOL    HW125463   4.983   3.496   3.728
 8188SOL    HW225464   4.939   3.339   3.723
 8189SOL     OW25465   5.356   5.068   2.937
 8189SOL    HW125466   5.407   5.057   2.852
 8189SOL    HW225467   5.340   4.979   2.978
 8190SOL     OW25468   4.930   3.923   3.932
 8190SOL    HW125469   4.901   3.840   3.981
 8190SOL    HW225470   5.029   3.933   3.940
 8191SOL     OW25471   3.362   5.440   2.682
 8191SOL    HW125472   3.371   5.513   2.615
 8191SOL    HW225473   3.397   5.355   2.643
 8192SOL     OW25474   2.224   5.500   1.858
 8192SOL    HW125475   2.168   5.537   1.931
 8192SOL    HW225476   2.272   5.418   1.890
 8193SOL     OW25477   6.432   5.547   5.700
 8193SOL    HW125478   6.486   5.482   5.648
 8193SOL    HW225479   6.434   5.636   5.655
 8194SOL     OW25480   4.966   0.484   1.270
 8194SOL    HW125481   5.050   0.462   1.321
 8194SOL    HW225482   4.902   0.407   1.278
 8195SOL     OW25483   6.888   0.070   3.054
 8195SOL    HW125484   6.825   7.020   3.045
 8195SOL    HW225485   6.877   0.131   2.976
 8196SOL     OW25486   3.927   6.267   6.904
 8196SOL    HW125487   3.832   6.236   6.909
 8196SOL    HW225488   3.933   6.362   6.935
 8197SOL     OW25489   3.094   0.971   0.467
 8197SOL    HW125490   3.193   0.968   0.454
 8197SOL    HW225491   3.073   0.944   0.561
 8198SOL     OW25492   3.443   6.588   2.803
 8198SOL    HW125493   3.459   6.495   2.837
 8198SOL    HW225494   3.477   6.595   2.709
 8199SOL     OW25495   5.713   3.041   5.880
 8199SOL    HW125496   5.758   3.107   5.820
 8199SOL    HW225497   5.780   3.002   5.943
 8200SOL     OW25498   5.681   4.345   1.532
 8200SOL    HW125499   5.691   4.339   1.632
 8200SOL    HW225500   5.676   4.252   1.494
 8201SOL     OW25501   5.987   0.800   4.897
 8201SOL    HW125502   6.071   0.808   4.951
 8201SOL    HW225503   5.925   0.734   4.942
 8202SOL     OW25504   0.534   5.660   3.833
 8202SOL    HW125505   0.521   5.753   3.796
 8202SOL    HW225506   0.458   5.602   3.804
 8203SOL     OW25507   2.996   2.708   6.812
 8203SOL    HW125508   3.066   2.640   6.790
 8203SOL    HW225509   2.918   2.697   6.750
 8204SOL     OW25510   3.946   4.693   0.030
 8204SOL    HW125511   3.926   4.656   0.121
 8204SOL    HW225512   3.900   4.638   6.988
 8205SOL     OW25513   0.238   4.559   6.776
 8205SOL    HW125514   0.184   4.572   6.693
 8205SOL    HW225515   0.212   4.474   6.820
 8206SOL     OW25516   4.918   2.256   7.000
 8206SOL    HW125517   4.838   2.223   0.022
 8206SOL    HW225518   4.942   2.191   6.928
 8207SOL     OW25519   3.044   3.159   4.602
 8207SOL    HW125520   3.019   3.220   4.677
 8207SOL    HW225521   3.098   3.083   4.638
 8208SOL     OW25522   0.988   0.652   1.037
 8208SOL    HW125523   1.020   0.643   1.131
 8208SOL    HW225524   1.066   0.670   0.977
 8209SOL     OW25525   0.514   1.596   5.028
 8209SOL    HW125526   0.522   1.683   5.076
 8209SOL    HW225527   0.450   1.606   4.951
 8210SOL     OW25528   2.561   2.011   0.408
 8210SOL    HW125529   2.640   2.071   0.400
 8210SOL    HW225530   2.517   2.001   0.318
 8211SOL     OW25531   3.895   4.547   1.416
 8211SOL    HW125532   3.847   4.480   1.360
 8211SOL    HW225533   3.828   4.599   1.470
 8212SOL     OW25534   2.132   2.410   2.270
 8212SOL    HW125535   2.075   2.492   2.267
 8212SOL    HW225536   2.225   2.433   2.238
 8213SOL     OW25537   6.644   4.487   1.725
 8213SOL    HW125538   6.717   4.545   1.688
 8213SOL    HW225539   6.664   4.467   1.821
 8214SOL     OW25540   5.928   5.673   3.813
 8214SOL    HW125541   5.846   5.626   3.780
 8214SOL    HW225542   5.998   5.606   3.837
 8215SOL     OW25543   3.115   5.419   5.976
 8215SOL    HW125544   3.212   5.433   5.954
 8215SOL    HW225545   3.091   5.475   6.056
 8216SOL     OW25546   5.360   5.164   3.890
 8216SOL    HW125547   5.432   5.101   3.860
 8216SOL    HW225548   5.392   5.215   3.970
 8217SOL     OW25549   1.478   4.613   0.371
 8217SOL    HW125550   1.473   4.594   0.469
 8217SOL    HW225551   1.487   4.712   0.356
 8218SOL     OW25552   0.056   6.849   6.566
 8218SOL    HW125553   0.076   6.752   6.555
 8218SOL    HW225554   7.000   6.872   6.516
 8219SOL     OW25555   4.519   2.706   0.999
 8219SOL    HW125556   4.498   2.646   1.076
 8219SOL    HW225557   4.449   2.695   0.929
 8220SOL     OW25558   3.976   3.049   3.375
 8220SOL    HW125559   4.048   2.981   3.364
 8220SOL    HW225560   3.922   3.055   3.291
 8221SOL     OW25561   5.351   6.455   3.996
 8221SOL    HW125562   5.314   6.378   4.048
 8221SOL    HW225563   5.293   6.473   3.917
 8222SOL     OW25564   5.556   1.077   1.455
 8222SOL    HW125565   5.605   1.058   1.540
 8222SOL    HW225566   5.620   1.070   1.378
 8223SOL     OW25567   1.109   4.755   5.592
 8223SOL    HW125568   1.192   4.782   5.641
 8223SOL    HW225569   1.134   4.703   5.511
 8224SOL     OW25570   6.316   1.164   2.628
 8224SOL    HW125571   6.338   1.256   2.596
 8224SOL    HW225572   6.240   1.128   2.574
 8225SOL     OW25573   3.152   1.295   0.427
 8225SOL    HW125574   3.113   1.219   0.375
 8225SOL    HW225575   3.212   1.260   0.498
 8226SOL     OW25576   4.238   6.721   1.441
 8226SOL    HW125577   4.187   6.667   1.373
 8226SOL    HW225578   4.177   6.743   1.518
 8227SOL     OW25579   6.931   1.827   2.940
 8227SOL    HW125580   6.915   1.857   2.846
 8227SOL    HW225581   6.867   1.754   2.963
 8228SOL     OW25582   6.608   2.237   5.541
 8228SOL    HW125583   6.519   2.279   5.523
 8228SOL    HW225584   6.679   2.288   5.492
 8229SOL     OW25585   4.183   3.242   0.704
 8229SOL    HW125586   4.254   3.173   0.694
 8229SOL    HW225587   4.176   3.295   0.620
 8230SOL     OW25588   4.216   0.141   5.722
 8230SOL    HW125589   4.239   0.044   5.714
 8230SOL    HW225590   4.284   0.195   5.674
 8231SOL     OW25591   3.564   4.658   0.674
 8231SOL    HW125592   3.555   4.559   0.690
 8231SOL    HW225593   3.580   4.704   0.762
 8232SOL     OW25594   5.024   1.292   1.909
 8232SOL    HW125595   5.079   1.270   1.829
 8232SOL    HW225596   5.037   1.221   1.979
 8233SOL     OW25597   1.340   6.064   6.332
 8233SOL    HW125598   1.305   6.095   6.243
 8233SOL    HW225599   1.334   5.965   6.337
 8234SOL     OW25600   2.993   4.632   6.754
 8234SOL    HW125601   2.991   4.619   6.853
 8234SOL    HW225602   3.038   4.553   6.711
 8235SOL     OW25603   0.598   3.458   0.197
 8235SOL    HW125604   0.688   3.480   0.235
 8235SOL    HW225605   0.560   3.539   0.153
 8236SOL     OW25606   0.573   4.714   0.637
 8236SOL    HW125607   0.486   4.728   0.590
 8236SOL    HW225608   0.632   4.656   0.581
 8237SOL     OW25609   4.215   6.782   4.635
 8237SOL    HW125610   4.171   6.773   4.546
 8237SOL    HW225611   4.166   6.850   4.690
 8238SOL     OW25612   0.797   5.222   6.419
 8238SOL    HW125613   0.772   5.211   6.322
 8238SOL    HW225614   0.853   5.144   6.448
 8239SOL     OW25615   6.440   1.345   6.010
 8239SOL    HW125616   6.466   1.273   6.073
 8239SOL    HW225617   6.366   1.399   6.050
 8240SOL     OW25618   3.592   4.153   2.641
 8240SOL    HW125619   3.549   4.154   2.731
 8240SOL    HW225620   3.683   4.193   2.647
 8241SOL     OW25621   4.099   0.368   6.079
 8241SOL    HW125622   4.093   0.343   5.982
 8241SOL    HW225623   4.029   0.436   6.100
 8242SOL     OW25624   0.671   4.852   5.944
 8242SOL    HW125625   0.689   4.757   5.922
 8242SOL    HW225626   0.609   4.891   5.876
 8243SOL     OW25627   0.556   2.409   0.596
 8243SOL    HW125628   0.579   2.506   0.596
 8243SOL    HW225629   0.542   2.378   0.502
 8244SOL     OW25630   0.041   0.802   5.002
 8244SOL    HW125631   0.014   0.765   5.091
 8244SOL    HW225632   6.991   0.845   4.957
 8245SOL     OW25633   4.252   2.174   3.061
 8245SOL    HW125634   4.307   2.145   2.982
 8245SOL    HW225635   4.311   2.211   3.131
 8246SOL     OW25636   1.226   2.869   5.975
 8246SOL    HW125637   1.209   2.835   5.882
 8246SOL    HW225638   1.310   2.924   5.976
 8247SOL     OW25639   1.407   0.281   2.409
 8247SOL    HW125640   1.377   0.296   2.503
 8247SOL    HW225641   1.468   0.202   2.406
 8248SOL     OW25642   6.040   5.329   4.817
 8248SOL    HW125643   6.013   5.376   4.902
 8248SOL    HW225644   6.135   5.298   4.826
 8249SOL     OW25645   1.839   2.869   5.543
 8249SOL    HW125646   1.887   2.810   5.608
 8249SOL    HW225647   1.885   2.959   5.541
 8250SOL     OW25648   3.257   4.010   1.909
 8250SOL    HW125649   3.315   3.930   1.889
 8250SOL    HW225650   3.217   3.999   2.000
 8251SOL     OW25651   5.443   3.822   4.356
 8251SOL    HW125652   5.362   3.776   4.393
 8251SOL    HW225653   5.453   3.798   4.260
 8252SOL     OW25654   2.997   1.330   5.554
 8252SOL    HW125655   3.040   1.283   5.631
 8252SOL    HW225656   2.948   1.411   5.588
 8253SOL     OW25657   4.216   4.735   5.305
 8253SOL    HW125658   4.207   4.778   5.395
 8253SOL    HW225659   4.206   4.636   5.314
 8254SOL     OW25660   4.713   4.662   5.004
 8254SOL    HW125661   4.668   4.749   4.986
 8254SOL    HW225662   4.798   4.678   5.053
 8255SOL     OW25663   2.097   0.194   5.004
 8255SOL    HW125664   2.141   0.139   4.933
 8255SOL    HW225665   2.140   0.173   5.093
 8256SOL     OW25666   0.201   6.691   2.162
 8256SOL    HW125667   0.211   6.663   2.066
 8256SOL    HW225668   0.212   6.612   2.221
 8257SOL     OW25669   5.599   3.734   3.080
 8257SOL    HW125670   5.563   3.641   3.073
 8257SOL    HW225671   5.524   3.799   3.067
 8258SOL     OW25672   5.653   1.908   0.378
 8258SOL    HW125673   5.680   1.929   0.284
 8258SOL    HW225674   5.727   1.933   0.440
 8259SOL     OW25675   3.756   1.688   3.974
 8259SOL    HW125676   3.815   1.719   3.899
 8259SOL    HW225677   3.661   1.715   3.956
 8260SOL     OW25678   2.660   6.620   1.692
 8260SOL    HW125679   2.733   6.623   1.624
 8260SOL    HW225680   2.610   6.707   1.691
 8261SOL     OW25681   5.982   7.011   1.735
 8261SOL    HW125682   5.929   6.928   1.753
 8261SOL    HW225683   6.039   6.997   1.654
 8262SOL     OW25684   0.466   3.495   0.626
 8262SOL    HW125685   0.438   3.438   0.549
 8262SOL    HW225686   0.393   3.499   0.694
 8263SOL     OW25687   0.707   2.356   6.597
 8263SOL    HW125688   0.612   2.329   6.613
 8263SOL    HW225689   0.716   2.455   6.609
 8264SOL     OW25690   2.636   6.684   2.324
 8264SOL    HW125691   2.663   6.612   2.260
 8264SOL    HW225692   2.542   6.710   2.307
 8265SOL     OW25693   7.023   0.465   1.000
 8265SOL    HW125694   0.042   0.547   0.968
 8265SOL    HW225695   0.050   0.384   0.976
 8266SOL     OW25696   2.213   1.154   3.487
 8266SOL    HW125697   2.292   1.199   3.445
 8266SOL    HW225698   2.147   1.223   3.518
 8267SOL     OW25699   1.864   2.552   1.731
 8267SOL    HW125700   1.946   2.495   1.723
 8267SOL    HW225701   1.855   2.584   1.825
 8268SOL     OW25702   1.629   6.300   6.145
 8268SOL    HW125703   1.723   6.332   6.157
 8268SOL    HW225704   1.602   6.246   6.224
 8269SOL     OW25705   4.388   1.474   2.295
 8269SOL    HW125706   4.466   1.500   2.238
 8269SOL    HW225707   4.413   1.396   2.352
 8270SOL     OW25708   2.698   6.684   5.398
 8270SOL    HW125709   2.733   6.606   5.450
 8270SOL    HW225710   2.631   6.653   5.330
 8271SOL     OW25711   0.577   0.065   3.143
 8271SOL    HW125712   0.654   0.098   3.196
 8271SOL    HW225713   0.498   0.051   3.204
 8272SOL     OW25714   5.865   2.034   2.379
 8272SOL    HW125715   5.835   1.942   2.404
 8272SOL    HW225716   5.963   2.043   2.397
 8273SOL     OW25717   2.667   0.818   6.900
 8273SOL    HW125718   2.734   0.795   6.971
 8273SOL    HW225719   2.707   0.803   6.810
 8274SOL     OW25720   5.266   4.873   4.346
 8274SOL    HW125721   5.208   4.892   4.267
 8274SOL    HW225722   5.286   4.776   4.350
 8275SOL     OW25723   5.673   1.345   5.725
 8275SOL    HW125724   5.645   1.277   5.793
 8275SOL    HW225725   5.758   1.316   5.681
 8276SOL     OW25726   0.578   2.506   3.532
 8276SOL    HW125727   0.572   2.427   3.471
 8276SOL    HW225728   0.674   2.525   3.553
 8277SOL     OW25729   0.007   5.989   6.067
 8277SOL    HW125730   0.066   6.070   6.075
 8277SOL    HW225731   6.973   5.985   6.146
 8278SOL     OW25732   2.750   1.954   5.923
 8278SOL    HW125733   2.834   1.998   5.894
 8278SOL    HW225734   2.754   1.936   6.022
 8279SOL     OW25735   1.330   6.813   4.334
 8279SOL    HW125736   1.339   6.776   4.242
 8279SOL    HW225737   1.233   6.818   4.359
 8280SOL     OW25738   2.596   3.573   0.766
 8280SOL    HW125739   2.650   3.489   0.774
 8280SOL    HW225740   2.650   3.650   0.799
 8281SOL     OW25741   3.018   4.395   1.699
 8281SOL    HW125742   3.009   4.296   1.713
 8281SOL    HW225743   2.960   4.444   1.763
 8282SOL     OW25744   4.663   3.487   6.656
 8282SOL    HW125745   4.632   3.582   6.658
 8282SOL    HW225746   4.762   3.484   6.649
 8283SOL     OW25747   1.912   5.202   6.004
 8283SOL    HW125748   1.852   5.259   6.061
 8283SOL    HW225749   2.002   5.244   5.998
 8284SOL     OW25750   1.280   3.630   1.020
 8284SOL    HW125751   1.362   3.686   1.032
 8284SOL    HW225752   1.300   3.556   0.955
 8285SOL     OW25753   3.222   4.141   4.843
 8285SOL    HW125754   3.183   4.118   4.754
 8285SOL    HW225755   3.153   4.127   4.915
 8286SOL     OW25756   5.595   2.345   6.463
 8286SOL    HW125757   5.681   2.385   6.494
 8286SOL    HW225758   5.598   2.330   6.365
 8287SOL     OW25759   1.791   5.923   4.332
 8287SOL    HW125760   1.746   5.864   4.399
 8287SOL    HW225761   1.788   6.018   4.364
 8288SOL     OW25762   3.281   1.962   1.866
 8288SOL    HW125763   3.372   1.998   1.887
 8288SOL    HW225764   3.211   2.023   1.904
 8289SOL     OW25765   0.710   5.666   0.697
 8289SOL    HW125766   0.692   5.759   0.666
 8289SOL    HW225767   0.785   5.667   0.762
 8290SOL     OW25768   5.749   1.403   1.166
 8290SOL    HW125769   5.730   1.419   1.263
 8290SOL    HW225770   5.663   1.385   1.117
 8291SOL     OW25771   5.240   6.243   4.820
 8291SOL    HW125772   5.158   6.270   4.770
 8291SOL    HW225773   5.274   6.320   4.873
 8292SOL     OW25774   2.713   6.696   0.085
 8292SOL    HW125775   2.649   6.664   0.015
 8292SOL    HW225776   2.796   6.730   0.041
 8293SOL     OW25777   3.008   5.506   0.779
 8293SOL    HW125778   2.964   5.585   0.822
 8293SOL    HW225779   3.045   5.446   0.851
 8294SOL     OW25780   6.094   3.610   5.398
 8294SOL    HW125781   6.032   3.648   5.466
 8294SOL    HW225782   6.179   3.582   5.443
 8295SOL     OW25783   5.393   5.892   2.069
 8295SOL    HW125784   5.424   5.831   2.142
 8295SOL    HW225785   5.335   5.841   2.006
 8296SOL     OW25786   1.288   4.263   6.523
 8296SOL    HW125787   1.311   4.287   6.617
 8296SOL    HW225788   1.328   4.173   6.501
 8297SOL     OW25789   0.114   2.774   2.630
 8297SOL    HW125790   0.182   2.846   2.616
 8297SOL    HW225791   0.056   2.766   2.549
 8298SOL     OW25792   6.155   1.299   1.744
 8298SOL    HW125793   6.253   1.296   1.758
 8298SOL    HW225794   6.135   1.309   1.647
 8299SOL     OW25795   6.746   2.345   1.756
 8299SOL    HW125796   6.767   2.250   1.731
 8299SOL    HW225797   6.678   2.382   1.693
 8300SOL     OW25798   0.368   5.993   4.652
 8300SOL    HW125799   0.356   5.904   4.696
 8300SOL    HW225800   0.461   6.000   4.616
 8301SOL     OW25801   3.857   1.740   1.181
 8301SOL    HW125802   3.785   1.793   1.227
 8301SOL    HW225803   3.892   1.792   1.103
 8302SOL     OW25804   5.501   0.119   6.809
 8302SOL    HW125805   5.581   0.180   6.809
 8302SOL    HW225806   5.522   0.038   6.863
 8303SOL     OW25807   6.868   0.899   3.521
 8303SOL    HW125808   6.790   0.907   3.458
 8303SOL    HW225809   6.939   0.963   3.493
 8304SOL     OW25810   0.002   3.226   0.814
 8304SOL    HW125811   0.084   3.235   0.758
 8304SOL    HW225812   0.009   3.287   0.893
 8305SOL     OW25813   5.098   5.196   4.174
 8305SOL    HW125814   5.172   5.218   4.237
 8305SOL    HW225815   5.119   5.233   4.083
 8306SOL     OW25816   6.115   2.418   5.620
 8306SOL    HW125817   6.023   2.389   5.596
 8306SOL    HW225818   6.127   2.413   5.719
 8307SOL     OW25819   3.542   5.593   1.539
 8307SOL    HW125820   3.584   5.663   1.480
 8307SOL    HW225821   3.592   5.588   1.625
 8308SOL     OW25822   3.274   5.608   1.564
 8308SOL    HW125823   3.250   5.578   1.656
 8308SOL    HW225824   3.373   5.605   1.553
 8309SOL     OW25825   6.715   5.084   3.895
 8309SOL    HW125826   6.672   5.102   3.983
 8309SOL    HW225827   6.678   4.999   3.857
 8310SOL     OW25828   6.931   5.306   0.464
 8310SOL    HW125829   6.966   5.253   0.541
 8310SOL    HW225830   6.864   5.373   0.497
 8311SOL     OW25831   0.788   1.689   4.613
 8311SOL    HW125832   0.877   1.645   4.627
 8311SOL    HW225833   0.729   1.629   4.560
 8312SOL     OW25834   4.771   0.341   0.292
 8312SOL    HW125835   4.697   0.383   0.345
 8312SOL    HW225836   4.846   0.315   0.352
 8313SOL     OW25837   5.304   0.018   0.887
 8313SOL    HW125838   5.397   0.043   0.859
 8313SOL    HW225839   5.238   0.078   0.841
 8314SOL     OW25840   4.862   0.707   0.612
 8314SOL    HW125841   4.956   0.738   0.629
 8314SOL    HW225842   4.812   0.706   0.699
 8315SOL     OW25843   4.211   2.824   1.657
 8315SOL    HW125844   4.206   2.726   1.672
 8315SOL    HW225845   4.302   2.857   1.682
 8316SOL     OW25846   1.362   2.117   1.662
 8316SOL    HW125847   1.289   2.184   1.649
 8316SOL    HW225848   1.451   2.162   1.656
 8317SOL     OW25849   1.919   2.863   2.764
 8317SOL    HW125850   1.892   2.957   2.784
 8317SOL    HW225851   1.870   2.831   2.683
 8318SOL     OW25852   4.480   1.408   4.937
 8318SOL    HW125853   4.547   1.335   4.950
 8318SOL    HW225854   4.494   1.478   5.007
 8319SOL     OW25855   2.129   1.911   0.441
 8319SOL    HW125856   2.189   1.991   0.447
 8319SOL    HW225857   2.136   1.871   0.349
 8320SOL     OW25858   3.056   3.448   2.359
 8320SOL    HW125859   3.040   3.457   2.458
 8320SOL    HW225860   3.019   3.528   2.312
 8321SOL     OW25861   6.439   0.049   6.255
 8321SOL    HW125862   6.462   0.076   6.349
 8321SOL    HW225863   6.425   0.131   6.200
 8322SOL     OW25864   6.774   0.035   1.121
 8322SOL    HW125865   6.731   6.996   1.182
 8322SOL    HW225866   6.703   0.091   1.077
 8323SOL     OW25867   5.105   5.516   2.596
 8323SOL    HW125868   5.043   5.484   2.667
 8323SOL    HW225869   5.089   5.465   2.512
 8324SOL     OW25870   5.768   6.778   1.208
 8324SOL    HW125871   5.824   6.712   1.158
 8324SOL    HW225872   5.779   6.762   1.306
 8325SOL     OW25873   2.300   3.609   5.791
 8325SOL    HW125874   2.377   3.547   5.779
 8325SOL    HW225875   2.256   3.624   5.703
 8326SOL     OW25876   5.432   3.852   5.620
 8326SOL    HW125877   5.333   3.861   5.636
 8326SOL    HW225878   5.476   3.940   5.638
 8327SOL     OW25879   6.215   1.274   6.233
 8327SOL    HW125880   6.295   1.215   6.230
 8327SOL    HW225881   6.242   1.366   6.262
 8328SOL     OW25882   2.658   6.142   6.081
 8328SOL    HW125883   2.597   6.201   6.135
 8328SOL    HW225884   2.750   6.182   6.079
 8329SOL     OW25885   1.069   3.190   5.927
 8329SOL    HW125886   0.977   3.230   5.917
 8329SOL    HW225887   1.114   3.188   5.838
 8330SOL     OW25888   2.481   0.961   0.018
 8330SOL    HW125889   2.499   0.981   0.115
 8330SOL    HW225890   2.553   0.901   7.010
 8331SOL     OW25891   3.409   1.172   1.219
 8331SOL    HW125892   3.331   1.134   1.169
 8331SOL    HW225893   3.379   1.252   1.271
 8332SOL     OW25894   4.491   5.323   2.331
 8332SOL    HW125895   4.433   5.383   2.385
 8332SOL    HW225896   4.464   5.228   2.347
 8333SOL     OW25897   0.184   6.467   6.061
 8333SOL    HW125898   0.138   6.474   5.972
 8333SOL    HW225899   0.193   6.559   6.101
 8334SOL     OW25900   3.848   1.015   3.673
 8334SOL    HW125901   3.807   0.992   3.585
 8334SOL    HW225902   3.788   1.076   3.724
 8335SOL     OW25903   5.391   6.529   0.148
 8335SOL    HW125904   5.487   6.501   0.157
 8335SOL    HW225905   5.360   6.512   0.055
 8336SOL     OW25906   6.913   4.877   2.990
 8336SOL    HW125907   6.868   4.810   2.931
 8336SOL    HW225908   6.848   4.911   3.058
 8337SOL     OW25909   2.343   6.039   2.607
 8337SOL    HW125910   2.265   6.069   2.552
 8337SOL    HW225911   2.357   5.941   2.595
 8338SOL     OW25912   3.417   5.343   1.868
 8338SOL    HW125913   3.472   5.275   1.917
 8338SOL    HW225914   3.333   5.360   1.919
 8339SOL     OW25915   5.846   0.331   1.037
 8339SOL    HW125916   5.823   0.264   0.965
 8339SOL    HW225917   5.944   0.352   1.032
 8340SOL     OW25918   5.050   3.005   1.559
 8340SOL    HW125919   5.032   2.979   1.654
 8340SOL    HW225920   4.991   2.953   1.498
 8341SOL     OW25921   2.802   6.345   0.424
 8341SOL    HW125922   2.709   6.371   0.397
 8341SOL    HW225923   2.864   6.421   0.408
 8342SOL     OW25924   4.295   6.249   1.502
 8342SOL    HW125925   4.325   6.322   1.563
 8342SOL    HW225926   4.200   6.265   1.475
 8343SOL     OW25927   1.733   5.928   5.665
 8343SOL    HW125928   1.637   5.937   5.638
 8343SOL    HW225929   1.739   5.874   5.748
 8344SOL     OW25930   4.338   6.386   4.449
 8344SOL    HW125931   4.426   6.338   4.445
 8344SOL    HW225932   4.300   6.392   4.356
 8345SOL     OW25933   4.565   1.692   2.599
 8345SOL    HW125934   4.480   1.682   2.547
 8345SOL    HW225935   4.643   1.692   2.537
 8346SOL     OW25936   3.119   4.739   0.905
 8346SOL    HW125937   3.093   4.790   0.823
 8346SOL    HW225938   3.192   4.674   0.883
 8347SOL     OW25939   3.082   5.376   4.519
 8347SOL    HW125940   3.029   5.387   4.434
 8347SOL    HW225941   3.124   5.285   4.520
 8348SOL     OW25942   2.334   0.259   2.553
 8348SOL    HW125943   2.306   0.263   2.457
 8348SOL    HW225944   2.404   0.188   2.565
 8349SOL     OW25945   6.002   6.455   1.755
 8349SOL    HW125946   5.959   6.460   1.665
 8349SOL    HW225947   5.954   6.388   1.811
 8350SOL     OW25948   3.857   6.665   5.707
 8350SOL    HW125949   3.858   6.762   5.731
 8350SOL    HW225950   3.946   6.639   5.671
 8351SOL     OW25951   5.085   4.987   4.545
 8351SOL    HW125952   5.096   4.949   4.636
 8351SOL    HW225953   5.160   4.956   4.486
 8352SOL     OW25954   0.814   0.182   3.241
 8352SOL    HW125955   0.886   0.124   3.279
 8352SOL    HW225956   0.794   0.257   3.304
 8353SOL     OW25957   6.811   3.126   1.507
 8353SOL    HW125958   6.854   3.190   1.570
 8353SOL    HW225959   6.812   3.164   1.414
 8354SOL     OW25960   4.144   7.015   6.191
 8354SOL    HW125961   4.065   0.023   6.141
 8354SOL    HW225962   4.182   0.059   6.249
 8355SOL     OW25963   2.706   0.830   6.230
 8355SOL    HW125964   2.655   0.903   6.185
 8355SOL    HW225965   2.703   0.748   6.173
 8356SOL     OW25966   1.010   6.310   0.987
 8356SOL    HW125967   1.065   6.381   1.032
 8356SOL    HW225968   0.954   6.352   0.916
 8357SOL     OW25969   4.270   0.225   4.885
 8357SOL    HW125970   4.213   0.274   4.950
 8357SOL    HW225971   4.332   0.163   4.934
 8358SOL     OW25972   1.398   4.490   5.267
 8358SOL    HW125973   1.405   4.392   5.250
 8358SOL    HW225974   1.484   4.523   5.307
 8359SOL     OW25975   2.973   0.686   5.390
 8359SOL    HW125976   3.015   0.685   5.481
 8359SOL    HW225977   2.875   0.667   5.399
 8360SOL     OW25978   3.302   6.123   1.546
 8360SOL    HW125979   3.272   6.080   1.461
 8360SOL    HW225980   3.222   6.155   1.597
 8361SOL     OW25981   3.362   0.659   2.613
 8361SOL    HW125982   3.454   0.623   2.628
 8361SOL    HW225983   3.354   0.693   2.519
 8362SOL     OW25984   4.121   2.326   0.487
 8362SOL    HW125985   4.115   2.339   0.586
 8362SOL    HW225986   4.076   2.241   0.461
 8363SOL     OW25987   6.825   2.830   6.308
 8363SOL    HW125988   6.752   2.764   6.330
 8363SOL    HW225989   6.897   2.824   6.377
 8364SOL     OW25990   1.232   3.024   2.971
 8364SOL    HW125991   1.249   2.927   2.953
 8364SOL    HW225992   1.228   3.074   2.884
 8365SOL     OW25993   2.155   3.902   1.881
 8365SOL    HW125994   2.092   3.979   1.888
 8365SOL    HW225995   2.202   3.905   1.793
 8366SOL     OW25996   1.825   5.700   2.072
 8366SOL    HW125997   1.922   5.679   2.088
 8366SOL    HW225998   1.798   5.775   2.132
 8367SOL     OW25999   4.101   6.169   3.689
 8367SOL    HW126000   4.181   6.219   3.721
 8367SOL    HW226001   4.083   6.092   3.751
 8368SOL     OW26002   2.361   6.165   6.518
 8368SOL    HW126003   2.362   6.081   6.463
 8368SOL    HW226004   2.278   6.217   6.498
 8369SOL     OW26005   1.977   6.650   6.633
 8369SOL    HW126006   2.023   6.626   6.547
 8369SOL    HW226007   2.045   6.688   6.697
 8370SOL     OW26008   2.957   1.828   5.641
 8370SOL    HW126009   2.897   1.793   5.569
 8370SOL    HW226010   2.939   1.780   5.727
 8371SOL     OW26011   1.915   3.830   0.819
 8371SOL    HW126012   1.925   3.876   0.731
 8371SOL    HW226013   1.926   3.896   0.893
 8372SOL     OW26014   0.622   5.245   2.145
 8372SOL    HW126015   0.586   5.319   2.089
 8372SOL    HW226016   0.722   5.246   2.142
 8373SOL     OW26017   1.703   0.022   3.747
 8373SOL    HW126018   1.664   0.075   3.672
 8373SOL    HW226019   1.663   6.958   3.748
 8374SOL     OW26020   6.883   0.898   5.896
 8374SOL    HW126021   6.953   0.837   5.859
 8374SOL    HW226022   6.903   0.916   5.993
 8375SOL     OW26023   3.336   6.691   4.863
 8375SOL    HW126024   3.322   6.755   4.788
 8375SOL    HW226025   3.379   6.608   4.829
 8376SOL     OW26026   1.477   0.523   4.210
 8376SOL    HW126027   1.504   0.434   4.248
 8376SOL    HW226028   1.545   0.592   4.235
 8377SOL     OW26029   4.825   6.015   1.377
 8377SOL    HW126030   4.922   5.992   1.375
 8377SOL    HW226031   4.814   6.107   1.416
 8378SOL     OW26032   4.446   4.906   2.826
 8378SOL    HW126033   4.487   4.992   2.857
 8378SOL    HW226034   4.348   4.907   2.845
 8379SOL     OW26035   6.023   2.410   1.208
 8379SOL    HW126036   5.996   2.408   1.305
 8379SOL    HW226037   6.032   2.505   1.178
 8380SOL     OW26038   0.109   0.586   2.477
 8380SOL    HW126039   0.203   0.556   2.492
 8380SOL    HW226040   0.109   0.673   2.428
 8381SOL     OW26041   0.077   2.801   5.142
 8381SOL    HW126042   0.117   2.891   5.127
 8381SOL    HW226043   0.108   2.738   5.071
 8382SOL     OW26044   2.492   0.984   2.746
 8382SOL    HW126045   2.403   1.022   2.774
 8382SOL    HW226046   2.479   0.891   2.712
 8383SOL     OW26047   2.305   0.025   5.603
 8383SOL    HW126048   2.337   0.082   5.679
 8383SOL    HW226049   2.359   6.969   5.599
 8384SOL     OW26050   6.803   0.974   1.034
 8384SOL    HW126051   6.776   0.960   1.129
 8384SOL    HW226052   6.875   0.909   1.010
 8385SOL     OW26053   6.305   1.514   1.118
 8385SOL    HW126054   6.300   1.611   1.092
 8385SOL    HW226055   6.387   1.473   1.076
 8386SOL     OW26056   1.183   5.007   1.934
 8386SOL    HW126057   1.118   4.965   1.997
 8386SOL    HW226058   1.220   4.938   1.872
 8387SOL     OW26059   1.516   1.280   2.325
 8387SOL    HW126060   1.476   1.343   2.391
 8387SOL    HW226061   1.612   1.304   2.309
 8388SOL     OW26062   2.376   6.305   0.635
 8388SOL    HW126063   2.444   6.266   0.572
 8388SOL    HW226064   2.335   6.386   0.593
 8389SOL     OW26065   6.993   3.192   2.880
 8389SOL    HW126066   7.018   3.096   2.871
 8389SOL    HW226067   0.047   3.248   2.884
 8390SOL     OW26068   4.489   1.175   6.258
 8390SOL    HW126069   4.474   1.096   6.317
 8390SOL    HW226070   4.491   1.258   6.313
 8391SOL     OW26071   6.313   5.032   0.958
 8391SOL    HW126072   6.324   5.046   0.860
 8391SOL    HW226073   6.250   4.956   0.974
 8392SOL     OW26074   6.387   3.496   4.633
 8392SOL    HW126075   6.332   3.524   4.712
 8392SOL    HW226076   6.449   3.570   4.608
 8393SOL     OW26077   0.251   0.235   2.898
 8393SOL    HW126078   0.178   0.205   2.836
 8393SOL    HW226079   0.210   0.266   2.984
 8394SOL     OW26080   6.364   2.316   1.217
 8394SOL    HW126081   6.406   2.227   1.240
 8394SOL    HW226082   6.368   2.329   1.118
 8395SOL     OW26083   2.942   6.880   5.376
 8395SOL    HW126084   2.863   6.841   5.328
 8395SOL    HW226085   2.911   6.919   5.463
 8396SOL     OW26086   4.769   5.605   3.026
 8396SOL    HW126087   4.673   5.626   3.040
 8396SOL    HW226088   4.826   5.673   3.072
 8397SOL     OW26089   1.541   0.903   2.332
 8397SOL    HW126090   1.558   0.969   2.405
 8397SOL    HW226091   1.442   0.900   2.313
 8398SOL     OW26092   4.328   1.668   5.963
 8398SOL    HW126093   4.338   1.758   6.006
 8398SOL    HW226094   4.342   1.597   6.032
 8399SOL     OW26095   5.452   6.962   6.613
 8399SOL    HW126096   5.473   6.982   6.517
 8399SOL    HW226097   5.473   0.014   6.670
 8400SOL     OW26098   1.762   0.938   4.284
 8400SOL    HW126099   1.806   0.873   4.222
 8400SOL    HW226100   1.752   1.026   4.238
 8401SOL     OW26101   2.152   1.213   5.196
 8401SOL    HW126102   2.161   1.300   5.245
 8401SOL    HW226103   2.243   1.175   5.178
 8402SOL     OW26104   4.928   1.712   6.116
 8402SOL    HW126105   4.991   1.789   6.126
 8402SOL    HW226106   4.945   1.646   6.190
 8403SOL     OW26107   6.927   3.415   4.678
 8403SOL    HW126108   6.984   3.492   4.651
 8403SOL    HW226109   6.985   3.340   4.710
 8404SOL     OW26110   3.625   6.780   5.932
 8404SOL    HW126111   3.585   6.766   5.842
 8404SOL    HW226112   3.715   6.736   5.937
 8405SOL     OW26113   2.189   1.470   5.284
 8405SOL    HW126114   2.252   1.496   5.358
 8405SOL    HW226115   2.118   1.540   5.275
 8406SOL     OW26116   4.140   0.776   0.523
 8406SOL    HW126117   4.167   0.824   0.440
 8406SOL    HW226118   4.127   0.679   0.503
 8407SOL     OW26119   3.150   6.525   3.169
 8407SOL    HW126120   3.053   6.523   3.145
 8407SOL    HW226121   3.165   6.589   3.245
 8408SOL     OW26122   5.719   3.771   1.242
 8408SOL    HW126123   5.724   3.812   1.151
 8408SOL    HW226124   5.780   3.821   1.304
 8409SOL     OW26125   5.224   1.812   2.759
 8409SOL    HW126126   5.241   1.798   2.661
 8409SOL    HW226127   5.311   1.809   2.808
 8410SOL     OW26128   5.657   0.474   1.533
 8410SOL    HW126129   5.729   0.436   1.592
 8410SOL    HW226130   5.568   0.441   1.564
 8411SOL     OW26131   0.755   5.162   0.033
 8411SOL    HW126132   0.700   5.107   0.096
 8411SOL    HW226133   0.704   5.244   0.008
 8412SOL     OW26134   3.924   2.152   1.513
 8412SOL    HW126135   3.905   2.249   1.498
 8412SOL    HW226136   4.022   2.135   1.501
 8413SOL     OW26137   4.247   5.751   6.707
 8413SOL    HW126138   4.210   5.682   6.771
 8413SOL    HW226139   4.345   5.759   6.721
 8414SOL     OW26140   4.018   6.513   3.839
 8414SOL    HW126141   3.972   6.426   3.860
 8414SOL    HW226142   4.007   6.534   3.742
 8415SOL     OW26143   0.636   5.778   4.163
 8415SOL    HW126144   0.597   5.862   4.126
 8415SOL    HW226145   0.612   5.769   4.260
 8416SOL     OW26146   5.988   2.844   2.689
 8416SOL    HW126147   5.904   2.851   2.743
 8416SOL    HW226148   6.062   2.892   2.737
 8417SOL     OW26149   1.241   3.309   5.614
 8417SOL    HW126150   1.222   3.406   5.596
 8417SOL    HW226151   1.307   3.302   5.689
 8418SOL     OW26152   5.963   5.402   0.933
 8418SOL    HW126153   6.004   5.320   0.973
 8418SOL    HW226154   5.913   5.453   1.004
 8419SOL     OW26155   5.665   0.147   1.577
 8419SOL    HW126156   5.744   0.085   1.578
 8419SOL    HW226157   5.679   0.217   1.507
 8420SOL     OW26158   4.139   6.762   0.837
 8420SOL    HW126159   4.052   6.716   0.818
 8420SOL    HW226160   4.134   6.857   0.804
 8421SOL     OW26161   3.350   5.784   6.951
 8421SOL    HW126162   3.257   5.745   6.953
 8421SOL    HW226163   3.377   5.802   6.857
 8422SOL     OW26164   4.317   1.311   2.058
 8422SOL    HW126165   4.263   1.390   2.030
 8422SOL    HW226166   4.309   1.298   2.156
 8423SOL     OW26167   3.230   5.126   6.070
 8423SOL    HW126168   3.267   5.196   6.132
 8423SOL    HW226169   3.138   5.152   6.042
 8424SOL     OW26170   1.998   2.149   2.246
 8424SOL    HW126171   2.061   2.083   2.206
 8424SOL    HW226172   2.048   2.230   2.277
 8425SOL     OW26173   4.538   4.713   6.112
 8425SOL    HW126174   4.573   4.686   6.022
 8425SOL    HW226175   4.480   4.640   6.148
 8426SOL     OW26176   3.816   3.311   3.290
 8426SOL    HW126177   3.811   3.356   3.379
 8426SOL    HW226178   3.744   3.242   3.283
 8427SOL     OW26179   3.604   3.863   3.936
 8427SOL    HW126180   3.663   3.853   4.016
 8427SOL    HW226181   3.612   3.956   3.900
 8428SOL     OW26182   0.555   6.120   1.445
 8428SOL    HW126183   0.591   6.027   1.448
 8428SOL    HW226184   0.553   6.158   1.537
 8429SOL     OW26185   1.804   6.304   4.748
 8429SOL    HW126186   1.834   6.214   4.717
 8429SOL    HW226187   1.748   6.294   4.831
 8430SOL     OW26188   3.632   5.171   3.587
 8430SOL    HW126189   3.635   5.203   3.682
 8430SOL    HW226190   3.696   5.094   3.577
 8431SOL     OW26191   3.960   3.654   1.049
 8431SOL    HW126192   4.001   3.723   0.989
 8431SOL    HW226193   3.954   3.567   0.999
 8432SOL     OW26194   5.812   6.399   5.392
 8432SOL    HW126195   5.766   6.455   5.461
 8432SOL    HW226196   5.820   6.305   5.425
 8433SOL     OW26197   4.802   3.005   0.860
 8433SOL    HW126198   4.756   3.003   0.948
 8433SOL    HW226199   4.889   3.054   0.869
 8434SOL     OW26200   3.142   0.316   4.809
 8434SOL    HW126201   3.129   0.404   4.854
 8434SOL    HW226202   3.212   0.264   4.857
 8435SOL     OW26203   6.177   0.565   1.417
 8435SOL    HW126204   6.085   0.533   1.393
 8435SOL    HW226205   6.173   0.660   1.447
 8436SOL     OW26206   3.054   6.256   3.379
 8436SOL    HW126207   3.043   6.177   3.319
 8436SOL    HW226208   3.062   6.225   3.474
 8437SOL     OW26209   2.117   1.303   3.974
 8437SOL    HW126210   2.153   1.211   3.989
 8437SOL    HW226211   2.107   1.350   4.062
 8438SOL     OW26212   2.258   4.143   2.773
 8438SOL    HW126213   2.256   4.075   2.845
 8438SOL    HW226214   2.252   4.235   2.813
 8439SOL     OW26215   5.691   5.187   2.752
 8439SOL    HW126216   5.675   5.277   2.793
 8439SOL    HW226217   5.678   5.193   2.653
 8440SOL     OW26218   2.042   1.704   3.825
 8440SOL    HW126219   2.028   1.607   3.805
 8440SOL    HW226220   2.099   1.745   3.753
 8441SOL     OW26221   5.249   0.211   0.371
 8441SOL    HW126222   5.281   0.141   0.435
 8441SOL    HW226223   5.324   0.274   0.351
 8442SOL     OW26224   3.591   2.639   5.346
 8442SOL    HW126225   3.492   2.653   5.337
 8442SOL    HW226226   3.612   2.542   5.336
 8443SOL     OW26227   2.515   4.503   3.564
 8443SOL    HW126228   2.533   4.428   3.629
 8443SOL    HW226229   2.456   4.571   3.607
 8444SOL     OW26230   3.116   6.318   4.618
 8444SOL    HW126231   3.131   6.245   4.551
 8444SOL    HW226232   3.040   6.294   4.677
 8445SOL     OW26233   3.008   0.324   1.639
 8445SOL    HW126234   3.049   0.416   1.644
 8445SOL    HW226235   3.020   0.277   1.726
 8446SOL     OW26236   5.943   5.784   6.059
 8446SOL    HW126237   5.972   5.721   6.131
 8446SOL    HW226238   5.989   5.760   5.974
 8447SOL     OW26239   5.012   1.701   2.240
 8447SOL    HW126240   4.980   1.709   2.334
 8447SOL    HW226241   4.976   1.617   2.199
 8448SOL     OW26242   4.209   6.148   4.441
 8448SOL    HW126243   4.223   6.185   4.349
 8448SOL    HW226244   4.118   6.176   4.475
 8449SOL     OW26245   6.976   3.249   3.804
 8449SOL    HW126246   6.961   3.261   3.706
 8449SOL    HW226247   0.022   3.184   3.818
 8450SOL     OW26248   0.824   0.219   1.310
 8450SOL    HW126249   0.869   0.285   1.370
 8450SOL    HW226250   0.828   0.252   1.216
 8451SOL     OW26251   3.702   1.878   0.378
 8451SOL    HW126252   3.767   1.802   0.365
 8451SOL    HW226253   3.659   1.869   0.468
 8452SOL     OW26254   6.346   2.183   3.608
 8452SOL    HW126255   6.292   2.100   3.592
 8452SOL    HW226256   6.316   2.254   3.545
 8453SOL     OW26257   0.128   4.715   6.998
 8453SOL    HW126258   0.112   4.642   6.931
 8453SOL    HW226259   0.041   4.759   7.019
 8454SOL     OW26260   0.087   5.958   1.760
 8454SOL    HW126261   7.019   5.967   1.733
 8454SOL    HW226262   0.145   6.009   1.696
 8455SOL     OW26263   6.486   1.513   1.697
 8455SOL    HW126264   6.522   1.525   1.789
 8455SOL    HW226265   6.524   1.582   1.636
 8456SOL     OW26266   3.842   6.068   3.359
 8456SOL    HW126267   3.776   6.093   3.288
 8456SOL    HW226268   3.877   6.151   3.402
 8457SOL     OW26269   0.074   6.864   4.606
 8457SOL    HW126270   0.063   6.900   4.513
 8457SOL    HW226271   0.146   6.915   4.653
 8458SOL     OW26272   2.669   0.752   0.486
 8458SOL    HW126273   2.692   0.751   0.583
 8458SOL    HW226274   2.716   0.828   0.441
 8459SOL     OW26275   2.849   5.710   1.968
 8459SOL    HW126276   2.775   5.714   1.901
 8459SOL    HW226277   2.819   5.754   2.053
 8460SOL     OW26278   3.953   4.313   5.233
 8460SOL    HW126279   4.043   4.272   5.250
 8460SOL    HW226280   3.906   4.263   5.160
 8461SOL     OW26281   0.979   3.812   5.094
 8461SOL    HW126282   1.036   3.882   5.136
 8461SOL    HW226283   0.887   3.850   5.078
 8462SOL     OW26284   2.269   2.231   6.502
 8462SOL    HW126285   2.320   2.155   6.543
 8462SOL    HW226286   2.250   2.300   6.572
 8463SOL     OW26287   0.127   0.084   1.360
 8463SOL    HW126288   0.064   0.106   1.435
 8463SOL    HW226289   0.077   0.090   1.273
 8464SOL     OW26290   5.920   4.393   4.110
 8464SOL    HW126291   6.010   4.431   4.089
 8464SOL    HW226292   5.931   4.314   4.171
 8465SOL     OW26293   0.622   3.197   0.643
 8465SOL    HW126294   0.680   3.257   0.587
 8465SOL    HW226295   0.550   3.157   0.585
 8466SOL     OW26296   0.453   0.198   4.186
 8466SOL    HW126297   0.547   0.222   4.209
 8466SOL    HW226298   0.450   0.156   4.096
 8467SOL     OW26299   3.203   6.406   0.334
 8467SOL    HW126300   3.146   6.394   0.253
 8467SOL    HW226301   3.273   6.335   0.336
 8468SOL     OW26302   4.151   1.903   6.895
 8468SOL    HW126303   4.093   1.837   6.847
 8468SOL    HW226304   4.176   1.977   6.832
 8469SOL     OW26305   3.660   1.958   6.545
 8469SOL    HW126306   3.595   2.033   6.559
 8469SOL    HW226307   3.752   1.989   6.570
 8470SOL     OW26308   1.041   3.401   6.904
 8470SOL    HW126309   1.123   3.360   6.942
 8470SOL    HW226310   1.051   3.501   6.902
 8471SOL     OW26311   3.234   1.117   3.652
 8471SOL    HW126312   3.311   1.107   3.589
 8471SOL    HW226313   3.222   1.032   3.703
 8472SOL     OW26314   0.204   0.538   4.914
 8472SOL    HW126315   0.128   0.582   4.962
 8472SOL    HW226316   0.209   0.572   4.820
 8473SOL     OW26317   5.808   5.056   6.368
 8473SOL    HW126318   5.822   5.035   6.464
 8473SOL    HW226319   5.880   5.119   6.337
 8474SOL     OW26320   3.099   3.025   2.293
 8474SOL    HW126321   3.054   3.059   2.375
 8474SOL    HW226322   3.196   3.048   2.296
 8475SOL     OW26323   0.270   1.980   3.153
 8475SOL    HW126324   0.276   1.952   3.057
 8475SOL    HW226325   0.237   1.903   3.208
 8476SOL     OW26326   6.582   1.423   1.101
 8476SOL    HW126327   6.678   1.398   1.116
 8476SOL    HW226328   6.531   1.343   1.068
 8477SOL     OW26329   4.284   6.581   2.215
 8477SOL    HW126330   4.264   6.484   2.198
 8477SOL    HW226331   4.232   6.637   2.151
 8478SOL     OW26332   1.262   0.588   6.132
 8478SOL    HW126333   1.238   0.518   6.065
 8478SOL    HW226334   1.346   0.562   6.180
 8479SOL     OW26335   6.366   2.551   1.347
 8479SOL    HW126336   6.367   2.453   1.326
 8479SOL    HW226337   6.334   2.564   1.441
 8480SOL     OW26338   4.133   1.328   0.175
 8480SOL    HW126339   4.192   1.297   0.101
 8480SOL    HW226340   4.071   1.400   0.142
 8481SOL     OW26341   4.914   2.474   3.676
 8481SOL    HW126342   4.902   2.480   3.775
 8481SOL    HW226343   4.911   2.379   3.648
 8482SOL     OW26344   3.963   6.730   2.945
 8482SOL    HW126345   4.021   6.703   2.869
 8482SOL    HW226346   4.019   6.779   3.013
 8483SOL     OW26347   3.725   5.796   2.506
 8483SOL    HW126348   3.775   5.710   2.503
 8483SOL    HW226349   3.789   5.872   2.515
 8484SOL     OW26350   0.664   5.488   2.841
 8484SOL    HW126351   0.716   5.459   2.921
 8484SOL    HW226352   0.711   5.457   2.758
 8485SOL     OW26353   3.362   3.274   6.947
 8485SOL    HW126354   3.353   3.351   6.884
 8485SOL    HW226355   3.333   3.190   6.902
 8486SOL     OW26356   4.833   0.992   2.835
 8486SOL    HW126357   4.836   1.063   2.764
 8486SOL    HW226358   4.925   0.958   2.853
 8487SOL     OW26359   5.779   1.218   6.482
 8487SOL    HW126360   5.828   1.182   6.403
 8487SOL    HW226361   5.698   1.162   6.500
 8488SOL     OW26362   5.754   4.586   5.174
 8488SOL    HW126363   5.767   4.679   5.139
 8488SOL    HW226364   5.746   4.522   5.097
 8489SOL     OW26365   6.165   0.756   0.845
 8489SOL    HW126366   6.158   0.780   0.748
 8489SOL    HW226367   6.163   0.657   0.856
 8490SOL     OW26368   3.920   6.569   4.542
 8490SOL    HW126369   3.981   6.635   4.498
 8490SOL    HW226370   3.856   6.618   4.601
 8491SOL     OW26371   2.064   6.997   0.877
 8491SOL    HW126372   2.089   0.063   0.853
 8491SOL    HW226373   1.979   6.998   0.930
 8492SOL     OW26374   4.287   4.044   6.576
 8492SOL    HW126375   4.269   3.957   6.530
 8492SOL    HW226376   4.354   4.031   6.648
 8493SOL     OW26377   2.600   1.914   6.435
 8493SOL    HW126378   2.518   1.878   6.392
 8493SOL    HW226379   2.594   2.014   6.440
 8494SOL     OW26380   2.849   4.638   0.967
 8494SOL    HW126381   2.846   4.539   0.978
 8494SOL    HW226382   2.944   4.667   0.952
 8495SOL     OW26383   6.401   4.388   0.857
 8495SOL    HW126384   6.423   4.375   0.953
 8495SOL    HW226385   6.455   4.463   0.820
 8496SOL     OW26386   0.726   2.012   1.714
 8496SOL    HW126387   0.763   1.923   1.688
 8496SOL    HW226388   0.743   2.077   1.640
 8497SOL     OW26389   6.612   0.945   3.717
 8497SOL    HW126390   6.705   0.951   3.753
 8497SOL    HW226391   6.615   0.945   3.617
 8498SOL     OW26392   0.232   6.043   2.771
 8498SOL    HW126393   0.326   6.012   2.789
 8498SOL    HW226394   0.206   6.111   2.840
 8499SOL     OW26395   2.537   5.301   6.902
 8499SOL    HW126396   2.545   5.233   6.975
 8499SOL    HW226397   2.613   5.291   6.838
 8500SOL     OW26398   2.196   0.233   5.416
 8500SOL    HW126399   2.256   0.238   5.336
 8500SOL    HW226400   2.231   0.163   5.479
 8501SOL     OW26401   0.536   2.439   0.115
 8501SOL    HW126402   0.553   2.528   0.072
 8501SOL    HW226403   0.438   2.428   0.130
 8502SOL     OW26404   1.518   5.058   1.586
 8502SOL    HW126405   1.499   5.146   1.544
 8502SOL    HW226406   1.504   4.985   1.518
 8503SOL     OW26407   1.469   6.332   3.427
 8503SOL    HW126408   1.402   6.298   3.492
 8503SOL    HW226409   1.561   6.314   3.460
 8504SOL     OW26410   2.457   5.539   3.278
 8504SOL    HW126411   2.401   5.573   3.203
 8504SOL    HW226412   2.408   5.550   3.365
 8505SOL     OW26413   4.892   3.798   3.691
 8505SOL    HW126414   4.905   3.840   3.781
 8505SOL    HW226415   4.963   3.728   3.676
 8506SOL     OW26416   6.339   0.815   7.027
 8506SOL    HW126417   6.370   0.860   6.943
 8506SOL    HW226418   6.415   0.812   0.065
 8507SOL     OW26419   3.557   0.948   5.446
 8507SOL    HW126420   3.629   0.972   5.512
 8507SOL    HW226421   3.587   0.973   5.354
 8508SOL     OW26422   6.965   2.596   4.948
 8508SOL    HW126423   0.011   2.551   4.999
 8508SOL    HW226424   6.895   2.627   5.012
 8509SOL     OW26425   4.903   2.208   3.637
 8509SOL    HW126426   4.811   2.199   3.599
 8509SOL    HW226427   4.921   2.130   3.697
 8510SOL     OW26428   5.268   4.317   3.272
 8510SOL    HW126429   5.307   4.247   3.332
 8510SOL    HW226430   5.186   4.281   3.227
 8511SOL     OW26431   5.898   3.794   1.961
 8511SOL    HW126432   5.808   3.826   1.989
 8511SOL    HW226433   5.916   3.822   1.867
 8512SOL     OW26434   3.231   1.912   0.960
 8512SOL    HW126435   3.218   1.855   0.879
 8512SOL    HW226436   3.329   1.930   0.973
 8513SOL     OW26437   4.690   4.009   1.725
 8513SOL    HW126438   4.745   4.081   1.765
 8513SOL    HW226439   4.744   3.925   1.718
 8514SOL     OW26440   2.983   2.238   3.881
 8514SOL    HW126441   3.072   2.261   3.921
 8514SOL    HW226442   2.910   2.262   3.944
 8515SOL     OW26443   6.138   1.468   6.890
 8515SOL    HW126444   6.053   1.416   6.902
 8515SOL    HW226445   6.142   1.541   6.958
 8516SOL     OW26446   6.594   1.384   1.397
 8516SOL    HW126447   6.514   1.402   1.455
 8516SOL    HW226448   6.615   1.466   1.344
 8517SOL     OW26449   1.655   3.148   6.997
 8517SOL    HW126450   1.594   3.148   6.918
 8517SOL    HW226451   1.716   3.069   6.992
 8518SOL     OW26452   4.799   4.687   6.247
 8518SOL    HW126453   4.710   4.715   6.212
 8518SOL    HW226454   4.830   4.752   6.316
 8519SOL     OW26455   1.304   4.340   1.657
 8519SOL    HW126456   1.293   4.397   1.576
 8519SOL    HW226457   1.400   4.314   1.666
 8520SOL     OW26458   3.584   3.441   0.103
 8520SOL    HW126459   3.509   3.474   0.047
 8520SOL    HW226460   3.565   3.460   0.199
 8521SOL     OW26461   2.274   4.807   5.853
 8521SOL    HW126462   2.334   4.735   5.820
 8521SOL    HW226463   2.262   4.798   5.952
 8522SOL     OW26464   1.309   6.081   1.133
 8522SOL    HW126465   1.321   6.160   1.194
 8522SOL    HW226466   1.307   6.112   1.038
 8523SOL     OW26467   2.051   6.443   6.866
 8523SOL    HW126468   2.056   6.383   6.786
 8523SOL    HW226469   2.029   6.536   6.836
 8524SOL     OW26470   0.624   2.821   5.489
 8524SOL    HW126471   0.585   2.797   5.400
 8524SOL    HW226472   0.568   2.892   5.532
 8525SOL     OW26473   6.002   4.163   1.815
 8525SOL    HW126474   6.086   4.149   1.763
 8525SOL    HW226475   5.925   4.121   1.766
 8526SOL     OW26476   4.199   6.516   6.728
 8526SOL    HW126477   4.288   6.547   6.696
 8526SOL    HW226478   4.202   6.417   6.746
 8527SOL     OW26479   2.812   0.909   6.478
 8527SOL    HW126480   2.866   0.993   6.474
 8527SOL    HW226481   2.774   0.888   6.388
 8528SOL     OW26482   4.026   0.881   0.122
 8528SOL    HW126483   3.929   0.891   0.145
 8528SOL    HW226484   4.035   0.816   0.046
 8529SOL     OW26485   1.332   6.918   0.639
 8529SOL    HW126486   1.371   6.845   0.583
 8529SOL    HW226487   1.399   6.991   0.650
 8530SOL     OW26488   3.639   4.222   5.537
 8530SOL    HW126489   3.647   4.126   5.508
 8530SOL    HW226490   3.598   4.225   5.628
 8531SOL     OW26491   6.406   4.977   2.564
 8531SOL    HW126492   6.322   4.924   2.574
 8531SOL    HW226493   6.388   5.072   2.591
 8532SOL     OW26494   4.188   4.908   4.664
 8532SOL    HW126495   4.236   4.844   4.725
 8532SOL    HW226496   4.119   4.958   4.716
 8533SOL     OW26497   1.610   6.468   0.239
 8533SOL    HW126498   1.619   6.446   0.336
 8533SOL    HW226499   1.544   6.542   0.227
 8534SOL     OW26500   6.226   2.691   4.434
 8534SOL    HW126501   6.318   2.651   4.439
 8534SOL    HW226502   6.189   2.703   4.526
 8535SOL     OW26503   6.113   0.826   3.668
 8535SOL    HW126504   6.085   0.749   3.610
 8535SOL    HW226505   6.195   0.800   3.721
 8536SOL     OW26506   6.837   2.405   4.578
 8536SOL    HW126507   6.891   2.342   4.522
 8536SOL    HW226508   6.779   2.460   4.519
 8537SOL     OW26509   5.600   0.768   3.011
 8537SOL    HW126510   5.699   0.773   3.011
 8537SOL    HW226511   5.563   0.834   3.078
 8538SOL     OW26512   0.918   0.928   0.123
 8538SOL    HW126513   0.836   0.978   0.149
 8538SOL    HW226514   0.963   0.975   0.046
 8539SOL     OW26515   6.181   1.008   2.953
 8539SOL    HW126516   6.200   1.105   2.944
 8539SOL    HW226517   6.133   0.991   3.039
 8540SOL     OW26518   5.035   0.493   6.409
 8540SOL    HW126519   4.968   0.456   6.474
 8540SOL    HW226520   5.072   0.579   6.445
 8541SOL     OW26521   2.471   1.674   4.111
 8541SOL    HW126522   2.513   1.711   4.028
 8541SOL    HW226523   2.454   1.576   4.100
 8542SOL     OW26524   4.006   5.024   6.690
 8542SOL    HW126525   4.005   4.924   6.680
 8542SOL    HW226526   4.099   5.058   6.680
 8543SOL     OW26527   2.404   1.758   0.928
 8543SOL    HW126528   2.462   1.683   0.894
 8543SOL    HW226529   2.447   1.800   1.008
 8544SOL     OW26530   5.739   2.941   4.029
 8544SOL    HW126531   5.813   2.917   4.092
 8544SOL    HW226532   5.737   3.040   4.016
 8545SOL     OW26533   4.901   0.112   4.792
 8545SOL    HW126534   4.834   0.136   4.862
 8545SOL    HW226535   4.910   0.012   4.787
 8546SOL     OW26536   6.448   1.968   3.966
 8546SOL    HW126537   6.351   1.943   3.968
 8546SOL    HW226538   6.483   1.970   4.060
 8547SOL     OW26539   1.896   6.806   6.374
 8547SOL    HW126540   1.893   6.753   6.459
 8547SOL    HW226541   1.816   6.866   6.370
 8548SOL     OW26542   5.847   2.390   5.569
 8548SOL    HW126543   5.805   2.479   5.549
 8548SOL    HW226544   5.776   2.320   5.569
 8549SOL     OW26545   1.221   3.002   3.662
 8549SOL    HW126546   1.301   2.992   3.720
 8549SOL    HW226547   1.148   3.047   3.714
 8550SOL     OW26548   1.610   4.342   0.241
 8550SOL    HW126549   1.671   4.416   0.213
 8550SOL    HW226550   1.637   4.311   0.333
 8551SOL     OW26551   3.475   4.003   6.486
 8551SOL    HW126552   3.466   3.904   6.502
 8551SOL    HW226553   3.497   4.019   6.390
 8552SOL     OW26554   2.513   0.241   3.730
 8552SOL    HW126555   2.563   0.157   3.753
 8552SOL    HW226556   2.474   0.279   3.813
 8553SOL     OW26557   4.365   4.562   6.551
 8553SOL    HW126558   4.330   4.567   6.644
 8553SOL    HW226559   4.396   4.652   6.521
 8554SOL     OW26560   0.629   4.983   0.225
 8554SOL    HW126561   0.534   4.979   0.192
 8554SOL    HW226562   0.629   5.004   0.322
 8555SOL     OW26563   1.513   0.805   2.046
 8555SOL    HW126564   1.576   0.745   2.094
 8555SOL    HW226565   1.424   0.760   2.037
 8556SOL     OW26566   1.217   6.496   5.169
 8556SOL    HW126567   1.208   6.443   5.254
 8556SOL    HW226568   1.188   6.590   5.185
 8557SOL     OW26569   5.680   0.217   2.846
 8557SOL    HW126570   5.641   0.296   2.891
 8557SOL    HW226571   5.681   0.139   2.909
 8558SOL     OW26572   3.000   5.197   3.424
 8558SOL    HW126573   2.908   5.160   3.435
 8558SOL    HW226574   3.061   5.124   3.391
 8559SOL     OW26575   6.816   0.524   2.361
 8559SOL    HW126576   6.751   0.462   2.406
 8559SOL    HW226577   6.807   0.616   2.399
 8560SOL     OW26578   6.841   6.114   2.304
 8560SOL    HW126579   6.847   6.077   2.397
 8560SOL    HW226580   6.853   6.214   2.307
 8561SOL     OW26581   3.374   0.691   1.827
 8561SOL    HW126582   3.369   0.622   1.899
 8561SOL    HW226583   3.465   0.691   1.787
 8562SOL     OW26584   3.741   5.939   5.260
 8562SOL    HW126585   3.755   6.027   5.214
 8562SOL    HW226586   3.689   5.878   5.199
 8563SOL     OW26587   2.935   4.201   6.978
 8563SOL    HW126588   3.009   4.242   0.003
 8563SOL    HW226589   2.850   4.203   0.004
 8564SOL     OW26590   3.288   1.177   4.336
 8564SOL    HW126591   3.289   1.254   4.273
 8564SOL    HW226592   3.349   1.105   4.302
 8565SOL     OW26593   4.132   5.576   0.998
 8565SOL    HW126594   4.043   5.532   0.990
 8565SOL    HW226595   4.169   5.562   1.090
 8566SOL     OW26596   1.284   0.468   1.275
 8566SOL    HW126597   1.201   0.522   1.292
 8566SOL    HW226598   1.341   0.515   1.208
 8567SOL     OW26599   0.187   1.968   2.451
 8567SOL    HW126600   0.139   1.922   2.525
 8567SOL    HW226601   0.176   1.915   2.366
 8568SOL     OW26602   5.615   1.250   6.034
 8568SOL    HW126603   5.688   1.313   6.059
 8568SOL    HW226604   5.539   1.258   6.098
 8569SOL     OW26605   5.426   1.700   5.837
 8569SOL    HW126606   5.344   1.668   5.884
 8569SOL    HW226607   5.409   1.790   5.796
 8570SOL     OW26608   1.241   2.646   5.362
 8570SOL    HW126609   1.152   2.607   5.339
 8570SOL    HW226610   1.294   2.580   5.416
 8571SOL     OW26611   1.810   5.216   5.509
 8571SOL    HW126612   1.805   5.149   5.435
 8571SOL    HW226613   1.724   5.215   5.560
 8572SOL     OW26614   3.415   5.193   6.774
 8572SOL    HW126615   3.503   5.242   6.773
 8572SOL    HW226616   3.346   5.249   6.818
 8573SOL     OW26617   3.438   6.356   5.886
 8573SOL    HW126618   3.387   6.355   5.972
 8573SOL    HW226619   3.385   6.404   5.816
 8574SOL     OW26620   6.815   5.479   5.628
 8574SOL    HW126621   6.827   5.531   5.712
 8574SOL    HW226622   6.763   5.532   5.562
 8575SOL     OW26623   2.865   2.561   5.388
 8575SOL    HW126624   2.828   2.573   5.480
 8575SOL    HW226625   2.923   2.639   5.365
 8576SOL     OW26626   1.955   5.818   7.007
 8576SOL    HW126627   1.910   5.895   6.962
 8576SOL    HW226628   1.913   5.732   6.977
 8577SOL     OW26629   0.440   6.156   4.318
 8577SOL    HW126630   0.467   6.082   4.257
 8577SOL    HW226631   0.364   6.126   4.376
 8578SOL     OW26632   5.362   0.799   4.748
 8578SOL    HW126633   5.273   0.761   4.771
 8578SOL    HW226634   5.385   0.776   4.653
 8579SOL     OW26635   1.366   0.553   2.739
 8579SOL    HW126636   1.372   0.651   2.719
 8579SOL    HW226637   1.298   0.538   2.810
 8580SOL     OW26638   2.730   6.362   2.879
 8580SOL    HW126639   2.806   6.428   2.878
 8580SOL    HW226640   2.756   6.282   2.932
 8581SOL     OW26641   3.480   3.253   1.892
 8581SOL    HW126642   3.392   3.248   1.938
 8581SOL    HW226643   3.542   3.312   1.944
 8582SOL     OW26644   4.428   4.731   2.634
 8582SOL    HW126645   4.330   4.735   2.618
 8582SOL    HW226646   4.455   4.800   2.701
 8583SOL     OW26647   5.614   0.100   4.802
 8583SOL    HW126648   5.630   0.169   4.872
 8583SOL    HW226649   5.686   0.104   4.733
 8584SOL     OW26650   0.513   3.715   5.882
 8584SOL    HW126651   0.539   3.620   5.900
 8584SOL    HW226652   0.517   3.733   5.783
 8585SOL     OW26653   0.590   6.028   5.936
 8585SOL    HW126654   0.498   6.013   5.972
 8585SOL    HW226655   0.585   6.054   5.840
 8586SOL     OW26656   3.300   0.447   3.253
 8586SOL    HW126657   3.281   0.357   3.292
 8586SOL    HW226658   3.283   0.445   3.154
 8587SOL     OW26659   1.908   0.254   2.876
 8587SOL    HW126660   1.994   0.239   2.829
 8587SOL    HW226661   1.839   0.190   2.842
 8588SOL     OW26662   2.492   0.656   0.192
 8588SOL    HW126663   2.513   0.600   0.272
 8588SOL    HW226664   2.456   0.599   0.118
 8589SOL     OW26665   5.434   2.439   4.433
 8589SOL    HW126666   5.533   2.452   4.439
 8589SOL    HW226667   5.412   2.342   4.445
 8590SOL     OW26668   6.843   6.430   3.829
 8590SOL    HW126669   6.821   6.337   3.802
 8590SOL    HW226670   6.824   6.443   3.926
 8591SOL     OW26671   0.351   4.945   6.459
 8591SOL    HW126672   0.357   4.973   6.364
 8591SOL    HW226673   0.291   5.007   6.509
 8592SOL     OW26674   0.208   2.767   6.515
 8592SOL    HW126675   0.279   2.777   6.446
 8592SOL    HW226676   0.207   2.673   6.549
 8593SOL     OW26677   2.255   0.367   1.880
 8593SOL    HW126678   2.354   0.360   1.893
 8593SOL    HW226679   2.209   0.345   1.966
 8594SOL     OW26680   3.422   2.986   5.357
 8594SOL    HW126681   3.371   2.946   5.434
 8594SOL    HW226682   3.454   3.077   5.382
 8595SOL     OW26683   1.774   2.540   2.772
 8595SOL    HW126684   1.846   2.470   2.774
 8595SOL    HW226685   1.778   2.594   2.856
 8596SOL     OW26686   6.371   5.166   3.673
 8596SOL    HW126687   6.433   5.185   3.596
 8596SOL    HW226688   6.285   5.215   3.659
 8597SOL     OW26689   4.659   0.811   1.112
 8597SOL    HW126690   4.722   0.786   1.185
 8597SOL    HW226691   4.566   0.787   1.138
 8598SOL     OW26692   0.056   6.207   0.754
 8598SOL    HW126693   0.065   6.126   0.695
 8598SOL    HW226694   0.034   6.178   0.847
 8599SOL     OW26695   1.058   2.449   3.811
 8599SOL    HW126696   1.053   2.531   3.867
 8599SOL    HW226697   1.001   2.377   3.852
 8600SOL     OW26698   5.402   4.829   5.624
 8600SOL    HW126699   5.414   4.928   5.634
 8600SOL    HW226700   5.324   4.800   5.680
 8601SOL     OW26701   0.431   0.417   4.997
 8601SOL    HW126702   0.466   0.508   5.017
 8601SOL    HW226703   0.345   0.425   4.947
 8602SOL     OW26704   3.250   5.618   3.392
 8602SOL    HW126705   3.233   5.530   3.438
 8602SOL    HW226706   3.273   5.601   3.296
 8603SOL     OW26707   4.003   5.125   0.622
 8603SOL    HW126708   3.926   5.109   0.560
 8603SOL    HW226709   4.078   5.064   0.598
 8604SOL     OW26710   0.976   3.598   3.796
 8604SOL    HW126711   1.072   3.570   3.788
 8604SOL    HW226712   0.971   3.697   3.808
 8605SOL     OW26713   3.440   5.095   4.684
 8605SOL    HW126714   3.406   5.174   4.734
 8605SOL    HW226715   3.508   5.125   4.617
 8606SOL     OW26716   1.508   3.713   6.135
 8606SOL    HW126717   1.590   3.765   6.112
 8606SOL    HW226718   1.495   3.639   6.068
 8607SOL     OW26719   3.399   5.727   0.904
 8607SOL    HW126720   3.420   5.630   0.891
 8607SOL    HW226721   3.425   5.754   0.997
 8608SOL     OW26722   4.549   4.769   3.056
 8608SOL    HW126723   4.531   4.814   2.968
 8608SOL    HW226724   4.533   4.835   3.130
 8609SOL     OW26725   5.414   1.320   3.257
 8609SOL    HW126726   5.496   1.265   3.272
 8609SOL    HW226727   5.422   1.368   3.169
 8610SOL     OW26728   1.850   1.988   2.418
 8610SOL    HW126729   1.909   1.962   2.494
 8610SOL    HW226730   1.904   2.039   2.350
 8611SOL     OW26731   2.044   2.290   4.344
 8611SOL    HW126732   2.088   2.349   4.276
 8611SOL    HW226733   1.973   2.236   4.300
 8612SOL     OW26734   3.723   3.050   0.524
 8612SOL    HW126735   3.763   2.982   0.463
 8612SOL    HW226736   3.792   3.081   0.590
 8613SOL     OW26737   2.231   2.011   1.043
 8613SOL    HW126738   2.221   2.009   0.943
 8613SOL    HW226739   2.314   1.963   1.069
 8614SOL     OW26740   0.946   3.251   2.548
 8614SOL    HW126741   0.936   3.191   2.469
 8614SOL    HW226742   0.920   3.344   2.522
 8615SOL     OW26743   5.155   1.976   5.347
 8615SOL    HW126744   5.082   2.044   5.343
 8615SOL    HW226745   5.115   1.885   5.363
 8616SOL     OW26746   2.969   4.763   1.420
 8616SOL    HW126747   2.986   4.861   1.410
 8616SOL    HW226748   2.957   4.741   1.517
 8617SOL     OW26749   6.804   1.067   6.395
 8617SOL    HW126750   6.773   1.111   6.480
 8617SOL    HW226751   6.724   1.038   6.342
 8618SOL     OW26752   5.921   6.224   1.070
 8618SOL    HW126753   5.964   6.141   1.105
 8618SOL    HW226754   5.828   6.231   1.107
 8619SOL     OW26755   3.845   4.905   2.100
 8619SOL    HW126756   3.772   4.876   2.038
 8619SOL    HW226757   3.805   4.931   2.188
 8620SOL     OW26758   0.765   0.206   3.734
 8620SOL    HW126759   0.778   0.107   3.726
 8620SOL    HW226760   0.722   0.241   3.651
 8621SOL     OW26761   6.336   1.284   3.042
 8621SOL    HW126762   6.355   1.371   2.997
 8621SOL    HW226763   6.419   1.251   3.088
 8622SOL     OW26764   4.718   3.157   6.997
 8622SOL    HW126765   4.756   3.093   6.931
 8622SOL    HW226766   4.673   3.232   6.950
 8623SOL     OW26767   0.848   3.933   3.355
 8623SOL    HW126768   0.922   3.996   3.332
 8623SOL    HW226769   0.864   3.845   3.310
 8624SOL     OW26770   1.130   3.862   4.552
 8624SOL    HW126771   1.185   3.802   4.494
 8624SOL    HW226772   1.105   3.814   4.636
 8625SOL     OW26773   4.467   0.068   5.012
 8625SOL    HW126774   4.458   7.006   4.969
 8625SOL    HW226775   4.486   0.057   5.109
 8626SOL     OW26776   3.868   3.048   5.144
 8626SOL    HW126777   3.783   3.017   5.186
 8626SOL    HW226778   3.942   3.045   5.211
 8627SOL     OW26779   0.628   1.290   3.274
 8627SOL    HW126780   0.642   1.355   3.199
 8627SOL    HW226781   0.624   1.340   3.360
 8628SOL     OW26782   6.115   6.743   1.399
 8628SOL    HW126783   6.141   6.826   1.447
 8628SOL    HW226784   6.025   6.754   1.358
 8629SOL     OW26785   1.699   5.039   5.331
 8629SOL    HW126786   1.635   5.003   5.399
 8629SOL    HW226787   1.716   4.968   5.262
 8630SOL     OW26788   5.488   4.433   3.795
 8630SOL    HW126789   5.456   4.433   3.889
 8630SOL    HW226790   5.579   4.391   3.790
 8631SOL     OW26791   2.728   5.904   6.246
 8631SOL    HW126792   2.705   5.971   6.175
 8631SOL    HW226793   2.700   5.813   6.216
 8632SOL     OW26794   3.114   6.700   3.756
 8632SOL    HW126795   3.155   6.635   3.692
 8632SOL    HW226796   3.071   6.651   3.832
 8633SOL     OW26797   5.984   1.834   4.293
 8633SOL    HW126798   5.961   1.751   4.345
 8633SOL    HW226799   6.080   1.830   4.264
 8634SOL     OW26800   5.535   3.455   0.298
 8634SOL    HW126801   5.498   3.362   0.296
 8634SOL    HW226802   5.568   3.475   0.390
 8635SOL     OW26803   6.063   4.544   6.273
 8635SOL    HW126804   5.966   4.545   6.246
 8635SOL    HW226805   6.120   4.545   6.191
 8636SOL     OW26806   4.975   6.326   0.876
 8636SOL    HW126807   4.920   6.397   0.832
 8636SOL    HW226808   4.918   6.275   0.941
 8637SOL     OW26809   1.910   1.292   6.996
 8637SOL    HW126810   1.921   1.208   6.942
 8637SOL    HW226811   1.836   1.347   6.957
 8638SOL     OW26812   3.350   3.023   6.878
 8638SOL    HW126813   3.294   2.981   6.949
 8638SOL    HW226814   3.428   2.964   6.858
 8639SOL     OW26815   5.577   1.861   2.048
 8639SOL    HW126816   5.546   1.934   1.987
 8639SOL    HW226817   5.675   1.870   2.063
 8640SOL     OW26818   4.632   3.792   0.832
 8640SOL    HW126819   4.617   3.872   0.774
 8640SOL    HW226820   4.730   3.782   0.849
 8641SOL     OW26821   6.115   5.196   4.060
 8641SOL    HW126822   6.097   5.107   4.019
 8641SOL    HW226823   6.054   5.264   4.020
 8642SOL     OW26824   3.299   1.113   3.181
 8642SOL    HW126825   3.355   1.177   3.235
 8642SOL    HW226826   3.271   1.037   3.239
 8643SOL     OW26827   3.250   0.836   6.665
 8643SOL    HW126828   3.178   0.897   6.699
 8643SOL    HW226829   3.220   0.741   6.674
 8644SOL     OW26830   4.687   2.303   5.652
 8644SOL    HW126831   4.591   2.283   5.669
 8644SOL    HW226832   4.706   2.399   5.674
 8645SOL     OW26833   4.642   4.263   0.978
 8645SOL    HW126834   4.668   4.291   0.885
 8645SOL    HW226835   4.703   4.307   1.044
 8646SOL     OW26836   6.276   1.040   1.984
 8646SOL    HW126837   6.342   0.966   1.981
 8646SOL    HW226838   6.318   1.124   1.949
 8647SOL     OW26839   2.633   5.252   5.942
 8647SOL    HW126840   2.723   5.239   5.983
 8647SOL    HW226841   2.564   5.202   5.994
 8648SOL     OW26842   6.329   0.626   3.670
 8648SOL    HW126843   6.389   0.588   3.740
 8648SOL    HW226844   6.370   0.614   3.580
 8649SOL     OW26845   5.416   4.434   6.508
 8649SOL    HW126846   5.348   4.497   6.545
 8649SOL    HW226847   5.373   4.345   6.490
 8650SOL     OW26848   2.090   4.429   6.225
 8650SOL    HW126849   2.181   4.412   6.188
 8650SOL    HW226850   2.022   4.422   6.152
 8651SOL     OW26851   2.976   0.924   0.731
 8651SOL    HW126852   3.061   0.963   0.766
 8651SOL    HW226853   2.915   0.997   0.699
 8652SOL     OW26854   1.848   3.896   3.799
 8652SOL    HW126855   1.840   3.995   3.797
 8652SOL    HW226856   1.877   3.863   3.709
 8653SOL     OW26857   5.806   1.180   6.884
 8653SOL    HW126858   5.738   1.129   6.831
 8653SOL    HW226859   5.876   1.217   6.822
 8654SOL     OW26860   1.260   5.096   1.270
 8654SOL    HW126861   1.181   5.048   1.309
 8654SOL    HW226862   1.344   5.061   1.311
 8655SOL     OW26863   6.315   1.367   3.795
 8655SOL    HW126864   6.261   1.289   3.763
 8655SOL    HW226865   6.372   1.338   3.872
 8656SOL     OW26866   6.233   0.632   0.335
 8656SOL    HW126867   6.229   0.730   0.312
 8656SOL    HW226868   6.171   0.582   0.275
 8657SOL     OW26869   5.080   4.893   0.244
 8657SOL    HW126870   5.160   4.919   0.191
 8657SOL    HW226871   5.049   4.970   0.299
 8658SOL     OW26872   4.174   6.599   6.992
 8658SOL    HW126873   4.133   6.689   7.003
 8658SOL    HW226874   4.156   6.565   6.899
 8659SOL     OW26875   4.709   1.895   3.076
 8659SOL    HW126876   4.635   1.847   3.028
 8659SOL    HW226877   4.767   1.942   3.010
 8660SOL     OW26878   5.860   3.808   0.566
 8660SOL    HW126879   5.868   3.905   0.544
 8660SOL    HW226880   5.938   3.759   0.527
 8661SOL     OW26881   5.683   3.832   0.976
 8661SOL    HW126882   5.654   3.737   0.971
 8661SOL    HW226883   5.774   3.842   0.936
 8662SOL     OW26884   4.477   5.901   0.869
 8662SOL    HW126885   4.497   5.816   0.821
 8662SOL    HW226886   4.435   5.881   0.957
 8663SOL     OW26887   2.837   5.608   1.593
 8663SOL    HW126888   2.827   5.651   1.503
 8663SOL    HW226889   2.917   5.646   1.640
 8664SOL     OW26890   3.016   6.362   1.164
 8664SOL    HW126891   3.100   6.333   1.210
 8664SOL    HW226892   2.938   6.352   1.225
 8665SOL     OW26893   5.616   6.266   4.960
 8665SOL    HW126894   5.699   6.214   4.939
 8665SOL    HW226895   5.537   6.205   4.958
 8666SOL     OW26896   4.796   1.259   3.889
 8666SOL    HW126897   4.741   1.193   3.940
 8666SOL    HW226898   4.877   1.284   3.942
 8667SOL     OW26899   5.071   2.699   2.985
 8667SOL    HW126900   4.986   2.734   2.947
 8667SOL    HW226901   5.078   2.728   3.081
 8668SOL     OW26902   5.963   3.521   3.041
 8668SOL    HW126903   5.877   3.508   2.991
 8668SOL    HW226904   5.946   3.578   3.122
 8669SOL     OW26905   1.994   6.400   0.431
 8669SOL    HW126906   2.092   6.416   0.443
 8669SOL    HW226907   1.981   6.318   0.375
 8670SOL     OW26908   3.540   4.477   5.490
 8670SOL    HW126909   3.578   4.390   5.524
 8670SOL    HW226910   3.462   4.458   5.431
 8671SOL     OW26911   5.355   2.070   3.433
 8671SOL    HW126912   5.425   2.120   3.381
 8671SOL    HW226913   5.293   2.024   3.370
 8672SOL     OW26914   1.859   4.964   3.982
 8672SOL    HW126915   1.825   4.878   4.020
 8672SOL    HW226916   1.919   5.008   4.048
 8673SOL     OW26917   6.719   2.694   0.172
 8673SOL    HW126918   6.622   2.683   0.149
 8673SOL    HW226919   6.774   2.633   0.115
 8674SOL     OW26920   5.547   5.359   3.149
 8674SOL    HW126921   5.465   5.312   3.116
 8674SOL    HW226922   5.588   5.306   3.224
 8675SOL     OW26923   3.066   2.226   4.315
 8675SOL    HW126924   3.035   2.296   4.251
 8675SOL    HW226925   3.026   2.243   4.405
 8676SOL     OW26926   4.114   0.457   2.639
 8676SOL    HW126927   4.111   0.541   2.692
 8676SOL    HW226928   4.020   0.429   2.616
 8677SOL     OW26929   2.660   6.183   5.780
 8677SOL    HW126930   2.656   6.177   5.880
 8677SOL    HW226931   2.678   6.092   5.742
 8678SOL     OW26932   6.788   0.340   1.114
 8678SOL    HW126933   6.811   0.307   1.206
 8678SOL    HW226934   6.866   0.389   1.076
 8679SOL     OW26935   6.703   2.504   3.832
 8679SOL    HW126936   6.739   2.559   3.756
 8679SOL    HW226937   6.643   2.560   3.888
 8680SOL     OW26938   1.218   4.056   1.750
 8680SOL    HW126939   1.257   4.136   1.703
 8680SOL    HW226940   1.136   4.083   1.800
 8681SOL     OW26941   4.677   5.433   6.703
 8681SOL    HW126942   4.729   5.354   6.735
 8681SOL    HW226943   4.681   5.437   6.603
 8682SOL     OW26944   5.013   6.894   1.270
 8682SOL    HW126945   4.975   6.967   1.214
 8682SOL    HW226946   4.967   6.893   1.359
 8683SOL     OW26947   1.856   2.536   2.464
 8683SOL    HW126948   1.846   2.455   2.406
 8683SOL    HW226949   1.766   2.577   2.479
 8684SOL     OW26950   0.779   2.523   4.740
 8684SOL    HW126951   0.826   2.520   4.828
 8684SOL    HW226952   0.680   2.518   4.755
 8685SOL     OW26953   0.339   2.179   5.865
 8685SOL    HW126954   0.271   2.106   5.870
 8685SOL    HW226955   0.376   2.184   5.772
 8686SOL     OW26956   6.958   1.037   1.685
 8686SOL    HW126957   6.871   1.074   1.719
 8686SOL    HW226958   7.026   1.042   1.758
 8687SOL     OW26959   4.143   5.392   2.214
 8687SOL    HW126960   4.126   5.301   2.250
 8687SOL    HW226961   4.194   5.446   2.281
 8688SOL     OW26962   3.030   6.041   0.153
 8688SOL    HW126963   3.028   6.078   0.246
 8688SOL    HW226964   2.947   6.068   0.105
 8689SOL     OW26965   3.472   4.200   1.872
 8689SOL    HW126966   3.510   4.209   1.964
 8689SOL    HW226967   3.386   4.148   1.876
 8690SOL     OW26968   1.689   3.170   3.309
 8690SOL    HW126969   1.603   3.134   3.344
 8690SOL    HW226970   1.734   3.101   3.253
 8691SOL     OW26971   3.030   2.085   6.577
 8691SOL    HW126972   3.082   2.169   6.591
 8691SOL    HW226973   3.090   2.006   6.590
 8692SOL     OW26974   1.762   1.517   3.883
 8692SOL    HW126975   1.846   1.501   3.935
 8692SOL    HW226976   1.687   1.541   3.945
 8693SOL     OW26977   0.084   1.060   6.770
 8693SOL    HW126978   0.041   0.981   6.814
 8693SOL    HW226979   0.129   1.031   6.686
 8694SOL     OW26980   4.029   1.086   5.044
 8694SOL    HW126981   3.942   1.127   5.018
 8694SOL    HW226982   4.018   1.033   5.128
 8695SOL     OW26983   3.860   2.450   6.252
 8695SOL    HW126984   3.803   2.530   6.272
 8695SOL    HW226985   3.875   2.444   6.153
 8696SOL     OW26986   2.181   5.469   0.566
 8696SOL    HW126987   2.279   5.455   0.577
 8696SOL    HW226988   2.162   5.508   0.476
 8697SOL     OW26989   6.660   2.609   0.436
 8697SOL    HW126990   6.715   2.529   0.414
 8697SOL    HW226991   6.657   2.671   0.358
 8698SOL     OW26992   5.710   5.771   4.473
 8698SOL    HW126993   5.628   5.790   4.418
 8698SOL    HW226994   5.789   5.816   4.431
 8699SOL     OW26995   2.141   2.452   5.533
 8699SOL    HW126996   2.179   2.536   5.493
 8699SOL    HW226997   2.045   2.443   5.507
 8700SOL     OW26998   0.965   0.257   4.479
 8700SOL    HW126999   1.043   0.205   4.514
 8700SOL    HW227000   0.996   0.318   4.406
 8701SOL     OW27001   1.198   0.670   0.448
 8701SOL    HW127002   1.111   0.627   0.472
 8701SOL    HW227003   1.264   0.657   0.522
 8702SOL     OW27004   5.550   4.695   0.866
 8702SOL    HW127005   5.489   4.622   0.899
 8702SOL    HW227006   5.575   4.755   0.942
 8703SOL     OW27007   3.449   5.106   0.631
 8703SOL    HW127008   3.451   5.016   0.588
 8703SOL    HW227009   3.374   5.160   0.592
 8704SOL     OW27010   0.051   3.445   2.509
 8704SOL    HW127011   6.982   3.466   2.528
 8704SOL    HW227012   0.108   3.520   2.542
 8705SOL     OW27013   5.072   0.985   6.898
 8705SOL    HW127014   5.084   1.066   6.840
 8705SOL    HW227015   5.060   1.013   6.993
 8706SOL     OW27016   4.865   2.243   6.081
 8706SOL    HW127017   4.772   2.272   6.101
 8706SOL    HW227018   4.875   2.226   5.983
 8707SOL     OW27019   6.965   2.824   0.107
 8707SOL    HW127020   6.951   2.875   0.023
 8707SOL    HW227021   6.890   2.760   0.121
 8708SOL     OW27022   4.683   2.134   2.205
 8708SOL    HW127023   4.704   2.201   2.134
 8708SOL    HW227024   4.736   2.155   2.287
 8709SOL     OW27025   6.733   5.996   0.089
 8709SOL    HW127026   6.648   6.045   0.070
 8709SOL    HW227027   6.803   6.060   0.121
 8710SOL     OW27028   2.145   3.192   4.064
 8710SOL    HW127029   2.159   3.093   4.073
 8710SOL    HW227030   2.112   3.229   4.151
 8711SOL     OW27031   1.154   6.431   3.362
 8711SOL    HW127032   1.127   6.429   3.458
 8711SOL    HW227033   1.254   6.440   3.355
 8712SOL     OW27034   3.953   2.200   5.150
 8712SOL    HW127035   3.940   2.276   5.215
 8712SOL    HW227036   4.049   2.170   5.154
 8713SOL     OW27037   0.832   3.893   4.139
 8713SOL    HW127038   0.844   3.846   4.052
 8713SOL    HW227039   0.734   3.903   4.158
 8714SOL     OW27040   1.097   1.237   5.848
 8714SOL    HW127041   1.138   1.279   5.929
 8714SOL    HW227042   1.063   1.146   5.872
 8715SOL     OW27043   4.060   0.216   1.110
 8715SOL    HW127044   4.157   0.241   1.102
 8715SOL    HW227045   4.041   0.184   1.203
 8716SOL     OW27046   0.383   0.034   0.948
 8716SOL    HW127047   0.290   0.017   0.916
 8716SOL    HW227048   0.381   0.062   1.044
 8717SOL     OW27049   3.241   3.507   3.452
 8717SOL    HW127050   3.223   3.468   3.362
 8717SOL    HW227051   3.154   3.537   3.492
 8718SOL     OW27052   0.869   4.312   4.515
 8718SOL    HW127053   0.904   4.355   4.598
 8718SOL    HW227054   0.874   4.212   4.524
 8719SOL     OW27055   2.815   0.265   6.491
 8719SOL    HW127056   2.817   0.225   6.583
 8719SOL    HW227057   2.814   0.364   6.497
 8720SOL     OW27058   6.231   5.321   5.591
 8720SOL    HW127059   6.208   5.230   5.625
 8720SOL    HW227060   6.310   5.356   5.642
 8721SOL     OW27061   0.395   2.564   2.591
 8721SOL    HW127062   0.379   2.542   2.687
 8721SOL    HW227063   0.307   2.572   2.544
 8722SOL     OW27064   4.113   1.340   6.909
 8722SOL    HW127065   4.039   1.389   6.863
 8722SOL    HW227066   4.196   1.345   6.853
 8723SOL     OW27067   4.756   5.777   0.887
 8723SOL    HW127068   4.784   5.849   0.823
 8723SOL    HW227069   4.757   5.689   0.840
 8724SOL     OW27070   5.604   0.298   5.870
 8724SOL    HW127071   5.576   0.314   5.965
 8724SOL    HW227072   5.599   0.385   5.819
 8725SOL     OW27073   2.126   6.971   6.719
 8725SOL    HW127074   2.040   7.018   6.700
 8725SOL    HW227075   2.201   0.010   6.720
 8726SOL     OW27076   6.254   0.139   1.954
 8726SOL    HW127077   6.261   0.204   2.030
 8726SOL    HW227078   6.192   0.065   1.979
 8727SOL     OW27079   0.401   6.126   2.340
 8727SOL    HW127080   0.431   6.133   2.245
 8727SOL    HW227081   0.340   6.048   2.350
 8728SOL     OW27082   4.650   0.327   3.944
 8728SOL    HW127083   4.626   0.385   3.866
 8728SOL    HW227084   4.743   0.291   3.931
 8729SOL     OW27085   4.946   6.185   4.035
 8729SOL    HW127086   4.858   6.216   3.998
 8729SOL    HW227087   4.948   6.202   4.133
 8730SOL     OW27088   6.435   4.026   2.449
 8730SOL    HW127089   6.467   4.082   2.372
 8730SOL    HW227090   6.418   3.933   2.417
 8731SOL     OW27091   2.243   2.693   2.656
 8731SOL    HW127092   2.305   2.633   2.606
 8731SOL    HW227093   2.228   2.657   2.748
 8732SOL     OW27094   5.177   4.750   1.773
 8732SOL    HW127095   5.262   4.801   1.760
 8732SOL    HW227096   5.185   4.691   1.853
 8733SOL     OW27097   1.781   5.565   1.315
 8733SOL    HW127098   1.707   5.630   1.331
 8733SOL    HW227099   1.750   5.473   1.341
 8734SOL     OW27100   1.596   4.941   2.321
 8734SOL    HW127101   1.622   4.873   2.252
 8734SOL    HW227102   1.678   4.985   2.357
 8735SOL     OW27103   1.040   1.907   0.702
 8735SOL    HW127104   0.953   1.894   0.656
 8735SOL    HW227105   1.031   1.979   0.771
 8736SOL     OW27106   0.818   5.863   6.026
 8736SOL    HW127107   0.909   5.889   5.993
 8736SOL    HW227108   0.753   5.936   6.004
 8737SOL     OW27109   2.479   6.800   6.137
 8737SOL    HW127110   2.535   6.845   6.207
 8737SOL    HW227111   2.401   6.859   6.114
 8738SOL     OW27112   2.200   5.184   4.460
 8738SOL    HW127113   2.105   5.162   4.483
 8738SOL    HW227114   2.260   5.149   4.532
 8739SOL     OW27115   5.705   5.468   6.156
 8739SOL    HW127116   5.668   5.536   6.093
 8739SOL    HW227117   5.778   5.417   6.112
 8740SOL     OW27118   5.249   1.003   5.386
 8740SOL    HW127119   5.274   1.091   5.426
 8740SOL    HW227120   5.296   0.930   5.434
 8741SOL     OW27121   2.866   1.384   1.541
 8741SOL    HW127122   2.849   1.433   1.456
 8741SOL    HW227123   2.821   1.432   1.617
 8742SOL     OW27124   6.048   6.464   1.405
 8742SOL    HW127125   6.041   6.444   1.307
 8742SOL    HW227126   6.094   6.552   1.418
 8743SOL     OW27127   1.700   0.698   2.212
 8743SOL    HW127128   1.647   0.758   2.273
 8743SOL    HW227129   1.772   0.752   2.167
 8744SOL     OW27130   3.299   2.752   6.610
 8744SOL    HW127131   3.317   2.686   6.537
 8744SOL    HW227132   3.249   2.829   6.573
 8745SOL     OW27133   5.893   2.961   6.090
 8745SOL    HW127134   5.854   2.912   6.168
 8745SOL    HW227135   5.958   3.029   6.122
 8746SOL     OW27136   5.197   3.832   5.018
 8746SOL    HW127137   5.256   3.797   4.946
 8746SOL    HW227138   5.208   3.776   5.100
 8747SOL     OW27139   0.585   2.715   2.180
 8747SOL    HW127140   0.678   2.751   2.191
 8747SOL    HW227141   0.590   2.615   2.170
 8748SOL     OW27142   6.897   1.614   5.185
 8748SOL    HW127143   6.864   1.662   5.104
 8748SOL    HW227144   6.836   1.537   5.205
 8749SOL     OW27145   2.698   0.505   6.510
 8749SOL    HW127146   2.639   0.585   6.526
 8749SOL    HW227147   2.670   0.430   6.569
 8750SOL     OW27148   3.235   3.473   5.437
 8750SOL    HW127149   3.279   3.555   5.398
 8750SOL    HW227150   3.180   3.500   5.516
 8751SOL     OW27151   6.436   0.879   2.921
 8751SOL    HW127152   6.425   0.782   2.900
 8751SOL    HW227153   6.346   0.923   2.923
 8752SOL     OW27154   2.390   4.174   0.650
 8752SOL    HW127155   2.343   4.221   0.576
 8752SOL    HW227156   2.362   4.212   0.738
 8753SOL     OW27157   4.620   2.115   5.144
 8753SOL    HW127158   4.534   2.121   5.093
 8753SOL    HW227159   4.679   2.191   5.118
 8754SOL     OW27160   1.393   3.015   5.147
 8754SOL    HW127161   1.488   3.039   5.128
 8754SOL    HW227162   1.376   2.921   5.119
 8755SOL     OW27163   2.522   0.464   0.930
 8755SOL    HW127164   2.601   0.435   0.876
 8755SOL    HW227165   2.551   0.528   1.001
 8756SOL     OW27166   1.625   2.831   3.493
 8756SOL    HW127167   1.573   2.824   3.408
 8756SOL    HW227168   1.721   2.808   3.475
 8757SOL     OW27169   4.247   6.146   5.795
 8757SOL    HW127170   4.333   6.192   5.770
 8757SOL    HW227171   4.265   6.081   5.869
 8758SOL     OW27172   4.575   6.417   2.406
 8758SOL    HW127173   4.610   6.353   2.337
 8758SOL    HW227174   4.597   6.510   2.378
 8759SOL     OW27175   4.272   2.102   0.675
 8759SOL    HW127176   4.238   2.081   0.767
 8759SOL    HW227177   4.219   2.051   0.608
 8760SOL     OW27178   1.194   1.418   5.003
 8760SOL    HW127179   1.171   1.321   5.011
 8760SOL    HW227180   1.260   1.431   4.928
 8761SOL     OW27181   5.506   2.242   2.409
 8761SOL    HW127182   5.511   2.283   2.501
 8761SOL    HW227183   5.434   2.172   2.408
 8762SOL     OW27184   0.663   4.305   2.270
 8762SOL    HW127185   0.609   4.295   2.354
 8762SOL    HW227186   0.665   4.402   2.243
 8763SOL     OW27187   6.466   6.438   5.948
 8763SOL    HW127188   6.522   6.490   6.012
 8763SOL    HW227189   6.454   6.345   5.983
 8764SOL     OW27190   4.822   1.034   4.679
 8764SOL    HW127191   4.819   0.989   4.590
 8764SOL    HW227192   4.803   0.967   4.751
 8765SOL     OW27193   5.860   6.737   5.506
 8765SOL    HW127194   5.904   6.744   5.416
 8765SOL    HW227195   5.894   6.656   5.554
 8766SOL     OW27196   4.496   4.552   3.824
 8766SOL    HW127197   4.403   4.588   3.822
 8766SOL    HW227198   4.517   4.519   3.916
 8767SOL     OW27199   4.199   6.858   3.000
 8767SOL    HW127200   4.270   6.890   2.937
 8767SOL    HW227201   4.239   6.797   3.068
 8768SOL     OW27202   1.127   3.094   0.641
 8768SOL    HW127203   1.223   3.100   0.668
 8768SOL    HW227204   1.092   3.003   0.662
 8769SOL     OW27205   0.823   0.182   4.073
 8769SOL    HW127206   0.857   0.254   4.013
 8769SOL    HW227207   0.887   0.105   4.072
 8770SOL     OW27208   5.311   4.258   2.327
 8770SOL    HW127209   5.347   4.165   2.321
 8770SOL    HW227210   5.240   4.262   2.397
 8771SOL     OW27211   1.265   0.431   6.473
 8771SOL    HW127212   1.177   0.476   6.457
 8771SOL    HW227213   1.261   0.337   6.440
 8772SOL     OW27214   5.004   6.883   6.776
 8772SOL    HW127215   5.039   6.957   6.834
 8772SOL    HW227216   4.949   6.922   6.702
 8773SOL     OW27217   4.708   2.646   3.591
 8773SOL    HW127218   4.750   2.556   3.599
 8773SOL    HW227219   4.695   2.685   3.682
 8774SOL     OW27220   1.962   1.260   6.651
 8774SOL    HW127221   1.939   1.171   6.690
 8774SOL    HW227222   1.883   1.295   6.599
 8775SOL     OW27223   6.466   0.025   5.315
 8775SOL    HW127224   6.433   0.029   5.220
 8775SOL    HW227225   6.485   6.958   5.340
 8776SOL     OW27226   3.973   3.493   5.734
 8776SOL    HW127227   4.012   3.505   5.825
 8776SOL    HW227228   3.945   3.581   5.697
 8777SOL     OW27229   6.791   3.950   1.661
 8777SOL    HW127230   6.714   3.904   1.705
 8777SOL    HW227231   6.757   4.017   1.595
 8778SOL     OW27232   6.540   2.341   4.953
 8778SOL    HW127233   6.539   2.421   4.892
 8778SOL    HW227234   6.597   2.360   5.032
 8779SOL     OW27235   3.078   5.189   2.191
 8779SOL    HW127236   3.135   5.226   2.264
 8779SOL    HW227237   3.109   5.096   2.169
 8780SOL     OW27238   1.058   5.734   2.912
 8780SOL    HW127239   1.064   5.813   2.851
 8780SOL    HW227240   1.063   5.650   2.858
 8781SOL     OW27241   6.435   1.951   3.412
 8781SOL    HW127242   6.526   1.965   3.452
 8781SOL    HW227243   6.377   1.902   3.477
 8782SOL     OW27244   5.038   6.918   1.921
 8782SOL    HW127245   5.050   7.003   1.972
 8782SOL    HW227246   5.005   6.938   1.829
 8783SOL     OW27247   6.845   3.997   3.628
 8783SOL    HW127248   6.774   3.929   3.647
 8783SOL    HW227249   6.806   4.070   3.572
 8784SOL     OW27250   5.770   4.299   6.626
 8784SOL    HW127251   5.833   4.284   6.550
 8784SOL    HW227252   5.811   4.265   6.711
 8785SOL     OW27253   6.777   3.794   6.480
 8785SOL    HW127254   6.873   3.802   6.507
 8785SOL    HW227255   6.743   3.703   6.505
 8786SOL     OW27256   1.739   6.986   0.238
 8786SOL    HW127257   1.783   7.018   0.154
 8786SOL    HW227258   1.809   6.971   0.308
 8787SOL     OW27259   2.453   2.637   1.965
 8787SOL    HW127260   2.502   2.550   1.974
 8787SOL    HW227261   2.504   2.697   1.903
 8788SOL     OW27262   0.118   2.351   5.934
 8788SOL    HW127263   0.201   2.322   5.886
 8788SOL    HW227264   0.139   2.431   5.991
 8789SOL     OW27265   6.154   0.160   5.605
 8789SOL    HW127266   6.153   0.234   5.673
 8789SOL    HW227267   6.175   0.073   5.650
 8790SOL     OW27268   0.319   0.770   6.653
 8790SOL    HW127269   0.279   0.755   6.743
 8790SOL    HW227270   0.313   0.686   6.599
 8791SOL     OW27271   6.371   6.721   4.955
 8791SOL    HW127272   6.272   6.739   4.956
 8791SOL    HW227273   6.412   6.768   4.877
 8792SOL     OW27274   3.172   6.740   3.378
 8792SOL    HW127275   3.259   6.709   3.417
 8792SOL    HW227276   3.099   6.677   3.405
 8793SOL     OW27277   1.852   5.118   3.146
 8793SOL    HW127278   1.801   5.033   3.161
 8793SOL    HW227279   1.865   5.132   3.047
 8794SOL     OW27280   4.206   6.342   1.891
 8794SOL    HW127281   4.179   6.435   1.913
 8794SOL    HW227282   4.305   6.338   1.873
 8795SOL     OW27283   1.583   6.242   5.677
 8795SOL    HW127284   1.493   6.222   5.714
 8795SOL    HW227285   1.642   6.276   5.751
 8796SOL     OW27286   4.637   1.817   4.501
 8796SOL    HW127287   4.687   1.733   4.479
 8796SOL    HW227288   4.666   1.889   4.438
 8797SOL     OW27289   1.011   6.691   5.604
 8797SOL    HW127290   1.079   6.619   5.616
 8797SOL    HW227291   0.974   6.687   5.511
 8798SOL     OW27292   4.990   5.675   5.742
 8798SOL    HW127293   4.912   5.684   5.680
 8798SOL    HW227294   5.006   5.578   5.760
 8799SOL     OW27295   2.158   4.541   3.869
 8799SOL    HW127296   2.211   4.566   3.950
 8799SOL    HW227297   2.195   4.588   3.789
 8800SOL     OW27298   5.887   4.312   5.440
 8800SOL    HW127299   5.820   4.375   5.402
 8800SOL    HW227300   5.964   4.303   5.377
 8801SOL     OW27301   0.665   1.936   4.768
 8801SOL    HW127302   0.697   1.941   4.863
 8801SOL    HW227303   0.678   1.844   4.733
 8802SOL     OW27304   1.869   7.001   1.088
 8802SOL    HW127305   1.903   6.921   1.137
 8802SOL    HW227306   1.793   0.014   1.139
 8803SOL     OW27307   7.019   5.460   6.174
 8803SOL    HW127308   0.033   5.546   6.144
 8803SOL    HW227309   7.019   5.395   6.098
 8804SOL     OW27310   3.128   0.574   2.324
 8804SOL    HW127311   3.074   0.622   2.393
 8804SOL    HW227312   3.178   0.499   2.366
 8805SOL     OW27313   2.794   0.089   3.963
 8805SOL    HW127314   2.879   0.038   3.952
 8805SOL    HW227315   2.814   0.183   3.992
 8806SOL     OW27316   2.503   5.148   2.170
 8806SOL    HW127317   2.437   5.095   2.222
 8806SOL    HW227318   2.595   5.113   2.187
 8807SOL     OW27319   5.132   0.158   6.541
 8807SOL    HW127320   5.061   0.225   6.563
 8807SOL    HW227321   5.091   0.079   6.496
 8808SOL     OW27322   5.847   2.386   6.902
 8808SOL    HW127323   5.902   2.351   6.826
 8808SOL    HW227324   5.751   2.366   6.886
 8809SOL     OW27325   4.428   5.455   3.665
 8809SOL    HW127326   4.361   5.387   3.694
 8809SOL    HW227327   4.431   5.529   3.731
 8810SOL     OW27328   5.265   0.579   6.233
 8810SOL    HW127329   5.225   0.654   6.180
 8810SOL    HW227330   5.192   0.519   6.265
 8811SOL     OW27331   2.758   1.596   3.820
 8811SOL    HW127332   2.760   1.553   3.730
 8811SOL    HW227333   2.670   1.644   3.831
 8812SOL     OW27334   2.221   6.847   1.402
 8812SOL    HW127335   2.255   6.862   1.309
 8812SOL    HW227336   2.218   6.934   1.451
 8813SOL     OW27337   0.735   4.757   1.904
 8813SOL    HW127338   0.692   4.844   1.882
 8813SOL    HW227339   0.671   4.682   1.884
 8814SOL     OW27340   5.770   6.903   0.750
 8814SOL    HW127341   5.713   6.852   0.814
 8814SOL    HW227342   5.715   6.972   0.703
 8815SOL     OW27343   6.851   6.358   0.628
 8815SOL    HW127344   6.911   6.326   0.702
 8815SOL    HW227345   6.890   6.331   0.540
 8816SOL     OW27346   1.046   0.525   0.189
 8816SOL    HW127347   0.990   0.598   0.228
 8816SOL    HW227348   1.077   0.464   0.262
 8817SOL     OW27349   1.178   5.997   4.707
 8817SOL    HW127350   1.201   5.978   4.802
 8817SOL    HW227351   1.104   5.936   4.678
 8818SOL     OW27352   0.723   3.562   4.783
 8818SOL    HW127353   0.723   3.640   4.721
 8818SOL    HW227354   0.669   3.584   4.864
 8819SOL     OW27355   5.557   4.765   4.980
 8819SOL    HW127356   5.557   4.821   5.063
 8819SOL    HW227357   5.651   4.745   4.953
 8820SOL     OW27358   1.885   0.823   5.342
 8820SOL    HW127359   1.973   0.791   5.309
 8820SOL    HW227360   1.850   0.894   5.281
 8821SOL     OW27361   2.966   6.107   0.411
 8821SOL    HW127362   3.031   6.105   0.487
 8821SOL    HW227363   2.902   6.183   0.424
 8822SOL     OW27364   0.626   0.167   4.781
 8822SOL    HW127365   0.539   0.138   4.821
 8822SOL    HW227366   0.651   0.106   4.706
 8823SOL     OW27367   2.514   0.886   1.418
 8823SOL    HW127368   2.476   0.856   1.506
 8823SOL    HW227369   2.439   0.909   1.355
 8824SOL     OW27370   0.859   2.979   0.973
 8824SOL    HW127371   0.808   3.053   1.017
 8824SOL    HW227372   0.841   2.894   1.022
 8825SOL     OW27373   1.640   0.665   2.597
 8825SOL    HW127374   1.658   0.701   2.689
 8825SOL    HW227375   1.717   0.608   2.568
 8826SOL     OW27376   6.576   3.137   0.933
 8826SOL    HW127377   6.539   3.228   0.950
 8826SOL    HW227378   6.649   3.118   0.999
 8827SOL     OW27379   3.746   1.380   3.177
 8827SOL    HW127380   3.735   1.456   3.113
 8827SOL    HW227381   3.831   1.392   3.229
 8828SOL     OW27382   4.357   5.098   5.567
 8828SOL    HW127383   4.389   5.034   5.498
 8828SOL    HW227384   4.354   5.190   5.529
 8829SOL     OW27385   6.524   2.301   0.636
 8829SOL    HW127386   6.465   2.381   0.635
 8829SOL    HW227387   6.511   2.249   0.552
 8830SOL     OW27388   1.016   1.802   2.055
 8830SOL    HW127389   1.088   1.740   2.025
 8830SOL    HW227390   0.949   1.814   1.982
 8831SOL     OW27391   4.953   1.657   3.916
 8831SOL    HW127392   4.957   1.590   3.842
 8831SOL    HW227393   4.940   1.748   3.878
 8832SOL     OW27394   6.874   5.778   2.852
 8832SOL    HW127395   6.954   5.794   2.793
 8832SOL    HW227396   6.891   5.699   2.910
 8833SOL     OW27397   2.109   6.194   5.757
 8833SOL    HW127398   2.054   6.153   5.684
 8833SOL    HW227399   2.206   6.194   5.730
 8834SOL     OW27400   5.365   3.613   4.738
 8834SOL    HW127401   5.435   3.634   4.807
 8834SOL    HW227402   5.279   3.592   4.785
 8835SOL     OW27403   5.463   0.804   6.252
 8835SOL    HW127404   5.370   0.813   6.287
 8835SOL    HW227405   5.489   0.887   6.202
 8836SOL     OW27406   4.389   2.470   7.009
 8836SOL    HW127407   4.402   2.513   0.070
 8836SOL    HW227408   4.341   2.383   7.021
 8837SOL     OW27409   0.012   5.779   3.233
 8837SOL    HW127410   0.046   5.840   3.161
 8837SOL    HW227411   6.978   5.711   3.193
 8838SOL     OW27412   2.155   4.653   2.825
 8838SOL    HW127413   2.195   4.712   2.755
 8838SOL    HW227414   2.153   4.701   2.912
 8839SOL     OW27415   4.609   4.937   3.464
 8839SOL    HW127416   4.613   4.838   3.475
 8839SOL    HW227417   4.531   4.961   3.405
 8840SOL     OW27418   6.433   2.081   2.009
 8840SOL    HW127419   6.348   2.096   2.059
 8840SOL    HW227420   6.511   2.109   2.065
 8841SOL     OW27421   0.125   0.905   5.323
 8841SOL    HW127422   0.131   0.997   5.360
 8841SOL    HW227423   0.197   0.891   5.256
 8842SOL     OW27424   3.267   3.182   2.021
 8842SOL    HW127425   3.189   3.244   2.028
 8842SOL    HW227426   3.235   3.088   2.015
 8843SOL     OW27427   2.169   3.253   5.636
 8843SOL    HW127428   2.195   3.329   5.577
 8843SOL    HW227429   2.118   3.186   5.583
 8844SOL     OW27430   6.826   2.708   6.923
 8844SOL    HW127431   6.768   2.638   6.882
 8844SOL    HW227432   6.835   2.786   6.861
 8845SOL     OW27433   3.764   3.809   0.174
 8845SOL    HW127434   3.757   3.758   0.089
 8845SOL    HW227435   3.772   3.746   0.251
 8846SOL     OW27436   3.100   5.861   3.889
 8846SOL    HW127437   3.174   5.922   3.860
 8846SOL    HW227438   3.135   5.769   3.902
 8847SOL     OW27439   2.815   1.347   3.653
 8847SOL    HW127440   2.897   1.358   3.597
 8847SOL    HW227441   2.742   1.405   3.617
 8848SOL     OW27442   2.543   1.113   1.565
 8848SOL    HW127443   2.529   1.169   1.483
 8848SOL    HW227444   2.545   1.016   1.538
 8849SOL     OW27445   3.080   6.514   3.476
 8849SOL    HW127446   3.018   6.477   3.545
 8849SOL    HW227447   3.108   6.441   3.413
 8850SOL     OW27448   1.139   2.561   0.102
 8850SOL    HW127449   1.174   2.584   0.011
 8850SOL    HW227450   1.210   2.512   0.152
 8851SOL     OW27451   1.345   4.166   3.684
 8851SOL    HW127452   1.421   4.131   3.630
 8851SOL    HW227453   1.280   4.213   3.625
 8852SOL     OW27454   0.189   2.542   5.071
 8852SOL    HW127455   0.270   2.560   5.016
 8852SOL    HW227456   0.212   2.477   5.144
 8853SOL     OW27457   2.749   0.881   1.668
 8853SOL    HW127458   2.776   0.973   1.697
 8853SOL    HW227459   2.831   0.824   1.657
 8854SOL     OW27460   2.154   2.350   5.836
 8854SOL    HW127461   2.138   2.415   5.762
 8854SOL    HW227462   2.177   2.261   5.797
 8855SOL     OW27463   6.326   5.058   1.375
 8855SOL    HW127464   6.362   5.151   1.376
 8855SOL    HW227465   6.307   5.029   1.469
 8856SOL     OW27466   1.273   6.407   6.386
 8856SOL    HW127467   1.249   6.337   6.453
 8856SOL    HW227468   1.197   6.472   6.377
 8857SOL     OW27469   6.671   1.897   4.575
 8857SOL    HW127470   6.708   1.968   4.636
 8857SOL    HW227471   6.676   1.808   4.621
 8858SOL     OW27472   0.148   3.949   4.416
 8858SOL    HW127473   0.143   4.003   4.332
 8858SOL    HW227474   0.081   3.984   4.481
 8859SOL     OW27475   1.395   1.767   3.738
 8859SOL    HW127476   1.488   1.758   3.775
 8859SOL    HW227477   1.384   1.857   3.695
 8860SOL     OW27478   7.025   2.262   1.386
 8860SOL    HW127479   0.013   2.354   1.424
 8860SOL    HW227480   0.008   2.194   1.458
 8861SOL     OW27481   4.124   1.062   5.916
 8861SOL    HW127482   4.082   0.980   5.956
 8861SOL    HW227483   4.150   1.125   5.990
 8862SOL     OW27484   5.846   0.086   3.788
 8862SOL    HW127485   5.752   0.098   3.821
 8862SOL    HW227486   5.844   0.046   3.696
 8863SOL     OW27487   2.718   4.692   3.216
 8863SOL    HW127488   2.677   4.668   3.128
 8863SOL    HW227489   2.814   4.716   3.202
 8864SOL     OW27490   3.465   5.136   6.500
 8864SOL    HW127491   3.541   5.201   6.494
 8864SOL    HW227492   3.493   5.058   6.556
 8865SOL     OW27493   3.128   0.761   4.530
 8865SOL    HW127494   3.140   0.859   4.518
 8865SOL    HW227495   3.165   0.713   4.450
 8866SOL     OW27496   5.440   6.817   2.657
 8866SOL    HW127497   5.362   6.863   2.698
 8866SOL    HW227498   5.525   6.860   2.689
 8867SOL     OW27499   5.737   4.521   3.428
 8867SOL    HW127500   5.794   4.515   3.510
 8867SOL    HW227501   5.718   4.618   3.408
 8868SOL     OW27502   0.160   3.201   1.726
 8868SOL    HW127503   0.070   3.229   1.693
 8868SOL    HW227504   0.178   3.107   1.698
 8869SOL     OW27505   3.936   5.744   5.361
 8869SOL    HW127506   3.975   5.696   5.283
 8869SOL    HW227507   3.874   5.815   5.329
 8870SOL     OW27508   2.427   6.622   1.957
 8870SOL    HW127509   2.335   6.585   1.944
 8870SOL    HW227510   2.427   6.718   1.931
 8871SOL     OW27511   1.992   0.083   3.553
 8871SOL    HW127512   1.946   0.147   3.614
 8871SOL    HW227513   1.925   0.019   3.515
 8872SOL     OW27514   1.482   5.038   5.775
 8872SOL    HW127515   1.456   5.007   5.866
 8872SOL    HW227516   1.577   5.070   5.777
 8873SOL     OW27517   1.833   6.862   2.188
 8873SOL    HW127518   1.856   6.797   2.115
 8873SOL    HW227519   1.851   6.955   2.156
 8874SOL     OW27520   2.100   5.535   2.492
 8874SOL    HW127521   2.066   5.498   2.578
 8874SOL    HW227522   2.032   5.596   2.452
 8875SOL     OW27523   6.680   3.606   4.696
 8875SOL    HW127524   6.763   3.568   4.655
 8875SOL    HW227525   6.659   3.556   4.780
 8876SOL     OW27526   2.415   0.187   5.792
 8876SOL    HW127527   2.404   0.284   5.772
 8876SOL    HW227528   2.486   0.175   5.860
 8877SOL     OW27529   2.207   2.469   4.147
 8877SOL    HW127530   2.291   2.471   4.201
 8877SOL    HW227531   2.227   2.430   4.057
 8878SOL     OW27532   4.448   4.627   0.985
 8878SOL    HW127533   4.450   4.546   1.044
 8878SOL    HW227534   4.515   4.617   0.912
 8879SOL     OW27535   4.530   4.730   2.231
 8879SOL    HW127536   4.558   4.649   2.179
 8879SOL    HW227537   4.567   4.725   2.324
 8880SOL     OW27538   4.578   6.329   5.073
 8880SOL    HW127539   4.573   6.246   5.129
 8880SOL    HW227540   4.522   6.318   4.991
 8881SOL     OW27541   5.224   6.235   4.095
 8881SOL    HW127542   5.214   6.260   4.191
 8881SOL    HW227543   5.136   6.202   4.060
 8882SOL     OW27544   4.711   1.330   1.102
 8882SOL    HW127545   4.681   1.366   1.190
 8882SOL    HW227546   4.660   1.248   1.080
 8883SOL     OW27547   2.205   6.456   6.374
 8883SOL    HW127548   2.139   6.382   6.363
 8883SOL    HW227549   2.188   6.527   6.305
 8884SOL     OW27550   5.831   3.456   5.645
 8884SOL    HW127551   5.881   3.373   5.621
 8884SOL    HW227552   5.744   3.458   5.594
 8885SOL     OW27553   5.205   4.759   0.603
 8885SOL    HW127554   5.150   4.681   0.631
 8885SOL    HW227555   5.301   4.731   0.592
 8886SOL     OW27556   2.813   5.975   5.488
 8886SOL    HW127557   2.815   5.939   5.395
 8886SOL    HW227558   2.760   5.913   5.546
 8887SOL     OW27559   3.843   0.993   0.905
 8887SOL    HW127560   3.855   0.933   0.984
 8887SOL    HW227561   3.764   1.053   0.920
 8888SOL     OW27562   2.030   2.095   5.187
 8888SOL    HW127563   2.129   2.094   5.171
 8888SOL    HW227564   1.989   2.168   5.133
 8889SOL     OW27565   6.337   6.730   0.037
 8889SOL    HW127566   6.287   6.812   0.011
 8889SOL    HW227567   6.283   6.677   0.102
 8890SOL     OW27568   0.227   5.697   5.923
 8890SOL    HW127569   0.257   5.604   5.905
 8890SOL    HW227570   0.212   5.745   5.836
 8891SOL     OW27571   4.028   4.211   0.621
 8891SOL    HW127572   4.012   4.253   0.532
 8891SOL    HW227573   3.946   4.164   0.652
 8892SOL     OW27574   3.540   4.878   3.376
 8892SOL    HW127575   3.470   4.916   3.438
 8892SOL    HW227576   3.574   4.792   3.414
 8893SOL     OW27577   1.082   5.037   4.438
 8893SOL    HW127578   1.040   5.088   4.513
 8893SOL    HW227579   1.154   4.977   4.475
 8894SOL     OW27580   3.029   2.012   6.308
 8894SOL    HW127581   3.085   1.929   6.313
 8894SOL    HW227582   3.024   2.054   6.399
 8895SOL     OW27583   0.024   2.122   1.652
 8895SOL    HW127584   7.013   2.195   1.709
 8895SOL    HW227585   0.103   2.082   1.698
 8896SOL     OW27586   2.200   3.116   4.818
 8896SOL    HW127587   2.275   3.077   4.871
 8896SOL    HW227588   2.144   3.173   4.878
 8897SOL     OW27589   2.510   2.488   3.470
 8897SOL    HW127590   2.509   2.459   3.375
 8897SOL    HW227591   2.461   2.575   3.479
 8898SOL     OW27592   5.038   3.588   2.592
 8898SOL    HW127593   4.967   3.650   2.560
 8898SOL    HW227594   5.057   3.520   2.522
 8899SOL     OW27595   1.458   4.480   0.672
 8899SOL    HW127596   1.532   4.536   0.708
 8899SOL    HW227597   1.494   4.389   0.648
 8900SOL     OW27598   5.181   3.077   3.262
 8900SOL    HW127599   5.217   3.046   3.350
 8900SOL    HW227600   5.253   3.124   3.210
 8901SOL     OW27601   0.899   1.247   4.955
 8901SOL    HW127602   0.866   1.340   4.941
 8901SOL    HW227603   0.821   1.185   4.962
 8902SOL     OW27604   1.067   5.672   0.150
 8902SOL    HW127605   0.997   5.694   0.081
 8902SOL    HW227606   1.025   5.670   0.240
 8903SOL     OW27607   0.621   2.003   4.327
 8903SOL    HW127608   0.713   1.989   4.364
 8903SOL    HW227609   0.626   2.052   4.240
 8904SOL     OW27610   0.761   0.780   4.861
 8904SOL    HW127611   0.857   0.785   4.834
 8904SOL    HW227612   0.707   0.841   4.803
 8905SOL     OW27613   2.035   3.236   3.158
 8905SOL    HW127614   1.986   3.321   3.176
 8905SOL    HW227615   2.090   3.245   3.075
 8906SOL     OW27616   0.499   6.347   1.001
 8906SOL    HW127617   0.414   6.339   1.054
 8906SOL    HW227618   0.491   6.293   0.917
 8907SOL     OW27619   3.261   2.717   5.824
 8907SOL    HW127620   3.220   2.712   5.732
 8907SOL    HW227621   3.297   2.809   5.839
 8908SOL     OW27622   1.511   5.938   0.331
 8908SOL    HW127623   1.599   5.964   0.289
 8908SOL    HW227624   1.513   5.959   0.429
 8909SOL     OW27625   2.834   1.504   5.685
 8909SOL    HW127626   2.740   1.483   5.656
 8909SOL    HW227627   2.832   1.582   5.748
 8910SOL     OW27628   0.967   3.053   5.300
 8910SOL    HW127629   1.047   3.000   5.273
 8910SOL    HW227630   0.915   3.079   5.219
 8911SOL     OW27631   4.895   3.196   4.430
 8911SOL    HW127632   4.987   3.190   4.393
 8911SOL    HW227633   4.892   3.151   4.519
 8912SOL     OW27634   3.095   3.561   6.912
 8912SOL    HW127635   3.132   3.603   6.829
 8912SOL    HW227636   3.162   3.571   6.986
 8913SOL     OW27637   4.221   5.571   6.197
 8913SOL    HW127638   4.127   5.579   6.228
 8913SOL    HW227639   4.228   5.500   6.127
 8914SOL     OW27640   4.658   0.380   4.756
 8914SOL    HW127641   4.663   0.304   4.820
 8914SOL    HW227642   4.748   0.393   4.713
 8915SOL     OW27643   1.976   2.032   3.724
 8915SOL    HW127644   1.885   2.021   3.763
 8915SOL    HW227645   1.991   1.962   3.654
 8916SOL     OW27646   6.640   3.371   0.274
 8916SOL    HW127647   6.675   3.382   0.367
 8916SOL    HW227648   6.706   3.317   0.220
 8917SOL     OW27649   5.536   2.877   0.297
 8917SOL    HW127650   5.507   2.812   0.226
 8917SOL    HW227651   5.635   2.872   0.308
 8918SOL     OW27652   0.802   4.906   0.928
 8918SOL    HW127653   0.704   4.894   0.915
 8918SOL    HW227654   0.840   4.827   0.975
 8919SOL     OW27655   4.977   3.791   0.106
 8919SOL    HW127656   4.959   3.882   0.143
 8919SOL    HW227657   5.073   3.767   0.120
 8920SOL     OW27658   0.041   1.703   6.981
 8920SOL    HW127659   0.047   1.736   6.887
 8920SOL    HW227660   0.059   1.604   6.982
 8921SOL     OW27661   1.955   3.140   1.717
 8921SOL    HW127662   1.969   3.057   1.772
 8921SOL    HW227663   1.989   3.219   1.768
 8922SOL     OW27664   4.275   5.092   2.603
 8922SOL    HW127665   4.227   5.078   2.690
 8922SOL    HW227666   4.302   5.003   2.565
 8923SOL     OW27667   1.759   1.496   6.587
 8923SOL    HW127668   1.682   1.433   6.591
 8923SOL    HW227669   1.768   1.531   6.493
 8924SOL     OW27670   4.338   5.338   5.444
 8924SOL    HW127671   4.431   5.328   5.407
 8924SOL    HW227672   4.290   5.410   5.393
 8925SOL     OW27673   0.923   0.921   3.151
 8925SOL    HW127674   0.941   0.866   3.233
 8925SOL    HW227675   0.849   0.878   3.099
 8926SOL     OW27676   6.650   3.272   6.127
 8926SOL    HW127677   6.720   3.203   6.110
 8926SOL    HW227678   6.692   3.362   6.133
 8927SOL     OW27679   6.732   1.217   4.489
 8927SOL    HW127680   6.806   1.277   4.520
 8927SOL    HW227681   6.646   1.244   4.534
 8928SOL     OW27682   1.151   0.164   6.124
 8928SOL    HW127683   1.157   0.208   6.214
 8928SOL    HW227684   1.201   0.078   6.125
 8929SOL     OW27685   5.616   1.825   4.922
 8929SOL    HW127686   5.641   1.855   4.830
 8929SOL    HW227687   5.646   1.893   4.988
 8930SOL     OW27688   1.178   2.862   3.460
 8930SOL    HW127689   1.200   2.919   3.539
 8930SOL    HW227690   1.191   2.766   3.484
 8931SOL     OW27691   3.149   3.771   1.045
 8931SOL    HW127692   3.116   3.697   1.103
 8931SOL    HW227693   3.210   3.733   0.975
 8932SOL     OW27694   5.841   2.083   1.682
 8932SOL    HW127695   5.878   1.991   1.669
 8932SOL    HW227696   5.762   2.095   1.622
 8933SOL     OW27697   2.629   2.879   6.441
 8933SOL    HW127698   2.658   2.957   6.385
 8933SOL    HW227699   2.610   2.801   6.383
 8934SOL     OW27700   2.469   5.306   4.620
 8934SOL    HW127701   2.490   5.357   4.703
 8934SOL    HW227702   2.456   5.210   4.642
 8935SOL     OW27703   0.363   4.667   0.109
 8935SOL    HW127704   0.268   4.677   0.078
 8935SOL    HW227705   0.416   4.620   0.039
 8936SOL     OW27706   1.035   4.237   1.888
 8936SOL    HW127707   0.971   4.233   1.965
 8936SOL    HW227708   1.117   4.286   1.915
 8937SOL     OW27709   0.427   7.002   5.872
 8937SOL    HW127710   0.464   6.979   5.963
 8937SOL    HW227711   0.423   0.074   5.862
 8938SOL     OW27712   0.710   5.945   0.679
 8938SOL    HW127713   0.744   5.955   0.773
 8938SOL    HW227714   0.748   6.017   0.623
 8939SOL     OW27715   5.140   3.037   4.115
 8939SOL    HW127716   5.115   2.954   4.165
 8939SOL    HW227717   5.168   3.108   4.180
 8940SOL     OW27718   0.482   1.525   2.096
 8940SOL    HW127719   0.554   1.456   2.109
 8940SOL    HW227720   0.524   1.612   2.073
 8941SOL     OW27721   6.395   2.401   5.582
 8941SOL    HW127722   6.441   2.486   5.556
 8941SOL    HW227723   6.302   2.420   5.612
 8942SOL     OW27724   6.665   4.753   4.942
 8942SOL    HW127725   6.651   4.666   4.989
 8942SOL    HW227726   6.576   4.789   4.914
 8943SOL     OW27727   3.535   5.062   6.032
 8943SOL    HW127728   3.453   5.054   6.089
 8943SOL    HW227729   3.522   5.008   5.948
 8944SOL     OW27730   5.341   4.468   5.204
 8944SOL    HW127731   5.396   4.537   5.251
 8944SOL    HW227732   5.397   4.422   5.134
 8945SOL     OW27733   0.734   0.871   2.821
 8945SOL    HW127734   0.690   0.917   2.743
 8945SOL    HW227735   0.700   0.778   2.828
 8946SOL     OW27736   3.432   1.365   5.271
 8946SOL    HW127737   3.491   1.420   5.330
 8946SOL    HW227738   3.353   1.333   5.323
 8947SOL     OW27739   2.244   3.539   5.487
 8947SOL    HW127740   2.159   3.515   5.441
 8947SOL    HW227741   2.269   3.634   5.465
 8948SOL     OW27742   6.592   6.570   4.525
 8948SOL    HW127743   6.603   6.500   4.595
 8948SOL    HW227744   6.678   6.619   4.513
 8949SOL     OW27745   2.561   6.844   0.842
 8949SOL    HW127746   2.641   6.857   0.783
 8949SOL    HW227747   2.554   6.748   0.869
 8950SOL     OW27748   4.561   4.271   6.190
 8950SOL    HW127749   4.516   4.310   6.110
 8950SOL    HW227750   4.506   4.290   6.272
 8951SOL     OW27751   1.472   2.126   5.361
 8951SOL    HW127752   1.500   2.214   5.399
 8951SOL    HW227753   1.392   2.138   5.303
 8952SOL     OW27754   1.527   0.034   2.443
 8952SOL    HW127755   1.441   0.001   2.406
 8952SOL    HW227756   1.586   6.984   2.466
 8953SOL     OW27757   1.428   4.255   0.077
 8953SOL    HW127758   1.374   4.185   0.123
 8953SOL    HW227759   1.489   4.299   0.142
 8954SOL     OW27760   0.695   0.425   5.490
 8954SOL    HW127761   0.639   0.395   5.413
 8954SOL    HW227762   0.789   0.393   5.477
 8955SOL     OW27763   0.102   5.399   2.387
 8955SOL    HW127764   0.157   5.435   2.312
 8955SOL    HW227765   0.026   5.345   2.350
 8956SOL     OW27766   0.964   1.570   6.701
 8956SOL    HW127767   1.019   1.622   6.766
 8956SOL    HW227768   0.887   1.527   6.748
 8957SOL     OW27769   2.696   4.355   1.674
 8957SOL    HW127770   2.628   4.292   1.711
 8957SOL    HW227771   2.732   4.413   1.748
 8958SOL     OW27772   0.338   0.953   4.760
 8958SOL    HW127773   0.342   0.905   4.847
 8958SOL    HW227774   0.356   0.889   4.685
 8959SOL     OW27775   1.504   4.678   1.658
 8959SOL    HW127776   1.550   4.666   1.570
 8959SOL    HW227777   1.499   4.590   1.705
 8960SOL     OW27778   4.271   4.680   3.044
 8960SOL    HW127779   4.365   4.711   3.036
 8960SOL    HW227780   4.264   4.584   3.016
 8961SOL     OW27781   2.324   1.273   4.513
 8961SOL    HW127782   2.357   1.339   4.581
 8961SOL    HW227783   2.399   1.213   4.485
 8962SOL     OW27784   6.151   6.225   2.037
 8962SOL    HW127785   6.156   6.204   2.135
 8962SOL    HW227786   6.055   6.225   2.008
 8963SOL     OW27787   4.511   6.330   4.093
 8963SOL    HW127788   4.441   6.390   4.053
 8963SOL    HW227789   4.582   6.313   4.025
 8964SOL     OW27790   4.874   2.999   3.144
 8964SOL    HW127791   4.790   2.982   3.195
 8964SOL    HW227792   4.952   2.964   3.197
 8965SOL     OW27793   2.175   4.849   0.853
 8965SOL    HW127794   2.261   4.899   0.858
 8965SOL    HW227795   2.130   4.852   0.942
 8966SOL     OW27796   6.779   4.071   6.561
 8966SOL    HW127797   6.760   3.974   6.547
 8966SOL    HW227798   6.763   4.120   6.475
 8967SOL     OW27799   4.106   0.071   1.867
 8967SOL    HW127800   4.144   0.143   1.809
 8967SOL    HW227801   4.035   0.110   1.926
 8968SOL     OW27802   4.999   4.859   3.158
 8968SOL    HW127803   4.969   4.869   3.063
 8968SOL    HW227804   5.099   4.861   3.161
 8969SOL     OW27805   6.981   1.566   4.776
 8969SOL    HW127806   0.019   1.500   4.811
 8969SOL    HW227807   7.006   1.658   4.808
 8970SOL     OW27808   2.713   3.501   0.301
 8970SOL    HW127809   2.699   3.446   0.218
 8970SOL    HW227810   2.735   3.440   0.377
 8971SOL     OW27811   4.923   5.656   2.023
 8971SOL    HW127812   4.979   5.591   2.073
 8971SOL    HW227813   4.881   5.721   2.087
 8972SOL     OW27814   5.233   4.650   6.527
 8972SOL    HW127815   5.213   4.644   6.429
 8972SOL    HW227816   5.162   4.704   6.572
 8973SOL     OW27817   1.187   3.531   2.455
 8973SOL    HW127818   1.126   3.603   2.488
 8973SOL    HW227819   1.176   3.450   2.513
 8974SOL     OW27820   1.596   4.649   5.771
 8974SOL    HW127821   1.537   4.725   5.745
 8974SOL    HW227822   1.568   4.566   5.722
 8975SOL     OW27823   1.970   0.059   6.160
 8975SOL    HW127824   2.027   0.004   6.220
 8975SOL    HW227825   2.003   0.154   6.160
 8976SOL     OW27826   0.545   4.890   4.985
 8976SOL    HW127827   0.637   4.888   4.946
 8976SOL    HW227828   0.540   4.828   5.063
 8977SOL     OW27829   6.113   2.464   0.232
 8977SOL    HW127830   6.049   2.498   0.301
 8977SOL    HW227831   6.204   2.454   0.272
 8978SOL     OW27832   5.728   0.443   5.432
 8978SOL    HW127833   5.631   0.458   5.454
 8978SOL    HW227834   5.735   0.381   5.354
 8979SOL     OW27835   1.398   3.535   4.480
 8979SOL    HW127836   1.388   3.554   4.578
 8979SOL    HW227837   1.360   3.610   4.427
 8980SOL     OW27838   2.553   2.844   5.733
 8980SOL    HW127839   2.454   2.833   5.748
 8980SOL    HW227840   2.602   2.784   5.796
 8981SOL     OW27841   4.469   1.945   5.476
 8981SOL    HW127842   4.434   1.898   5.557
 8981SOL    HW227843   4.473   1.881   5.399
 8982SOL     OW27844   1.021   2.436   1.099
 8982SOL    HW127845   1.028   2.438   1.199
 8982SOL    HW227846   1.089   2.497   1.059
 8983SOL     OW27847   1.929   6.333   0.065
 8983SOL    HW127848   1.974   6.371   7.012
 8983SOL    HW227849   1.841   6.378   0.079
 8984SOL     OW27850   0.016   0.607   4.436
 8984SOL    HW127851   0.079   0.575   4.507
 8984SOL    HW227852   0.067   0.625   4.352
 8985SOL     OW27853   2.406   3.046   0.742
 8985SOL    HW127854   2.405   3.116   0.814
 8985SOL    HW227855   2.485   2.986   0.756
 8986SOL     OW27856   4.971   5.382   2.390
 8986SOL    HW127857   4.974   5.284   2.409
 8986SOL    HW227858   4.882   5.406   2.352
 8987SOL     OW27859   4.417   6.444   1.626
 8987SOL    HW127860   4.428   6.544   1.619
 8987SOL    HW227861   4.441   6.415   1.718
 8988SOL     OW27862   1.818   3.421   5.686
 8988SOL    HW127863   1.903   3.474   5.695
 8988SOL    HW227864   1.749   3.477   5.640
 8989SOL     OW27865   5.135   3.827   1.348
 8989SOL    HW127866   5.177   3.886   1.280
 8989SOL    HW227867   5.044   3.862   1.372
 8990SOL     OW27868   1.852   6.324   3.609
 8990SOL    HW127869   1.782   6.252   3.612
 8990SOL    HW227870   1.937   6.287   3.647
 8991SOL     OW27871   1.598   2.398   6.610
 8991SOL    HW127872   1.693   2.390   6.581
 8991SOL    HW227873   1.586   2.349   6.697
 8992SOL     OW27874   5.460   1.706   0.382
 8992SOL    HW127875   5.363   1.730   0.374
 8992SOL    HW227876   5.511   1.786   0.414
 8993SOL     OW27877   5.355   2.345   1.999
 8993SOL    HW127878   5.394   2.427   2.041
 8993SOL    HW227879   5.335   2.277   2.069
 8994SOL     OW27880   1.208   4.449   4.631
 8994SOL    HW127881   1.210   4.350   4.616
 8994SOL    HW227882   1.290   4.477   4.680
 8995SOL     OW27883   1.049   2.967   7.010
 8995SOL    HW127884   1.021   2.872   6.998
 8995SOL    HW227885   1.063   2.986   0.079
 8996SOL     OW27886   5.939   5.481   0.668
 8996SOL    HW127887   5.861   5.450   0.614
 8996SOL    HW227888   5.919   5.471   0.765
 8997SOL     OW27889   5.066   1.587   5.631
 8997SOL    HW127890   4.993   1.602   5.698
 8997SOL    HW227891   5.042   1.511   5.571
 8998SOL     OW27892   6.532   4.036   4.257
 8998SOL    HW127893   6.615   4.005   4.305
 8998SOL    HW227894   6.469   3.960   4.246
 8999SOL     OW27895   4.801   6.674   6.406
 8999SOL    HW127896   4.747   6.757   6.422
 8999SOL    HW227897   4.867   6.663   6.480
 9000SOL     OW27898   1.614   4.036   0.944
 9000SOL    HW127899   1.583   3.978   1.020
 9000SOL    HW227900   1.609   3.984   0.859
 9001SOL     OW27901   1.389   5.641   2.423
 9001SOL    HW127902   1.310   5.663   2.481
 9001SOL    HW227903   1.373   5.553   2.377
 9002SOL     OW27904   0.721   5.197   4.819
 9002SOL    HW127905   0.623   5.217   4.826
 9002SOL    HW227906   0.733   5.100   4.796
 9003SOL     OW27907   5.712   3.081   1.813
 9003SOL    HW127908   5.631   3.083   1.754
 9003SOL    HW227909   5.701   3.146   1.888
 9004SOL     OW27910   3.747   6.457   1.814
 9004SOL    HW127911   3.808   6.380   1.833
 9004SOL    HW227912   3.796   6.543   1.828
 9005SOL     OW27913   5.627   2.666   4.257
 9005SOL    HW127914   5.532   2.655   4.228
 9005SOL    HW227915   5.681   2.587   4.227
 9006SOL     OW27916   2.544   5.665   1.488
 9006SOL    HW127917   2.483   5.668   1.568
 9006SOL    HW227918   2.526   5.581   1.436
 9007SOL     OW27919   3.154   1.329   3.816
 9007SOL    HW127920   3.224   1.266   3.782
 9007SOL    HW227921   3.078   1.277   3.854
 9008SOL     OW27922   1.215   5.619   3.483
 9008SOL    HW127923   1.233   5.702   3.535
 9008SOL    HW227924   1.302   5.580   3.452
 9009SOL     OW27925   2.971   6.944   1.172
 9009SOL    HW127926   2.989   0.015   1.169
 9009SOL    HW227927   2.999   6.902   1.085
 9010SOL     OW27928   1.542   6.830   3.962
 9010SOL    HW127929   1.488   6.914   3.961
 9010SOL    HW227930   1.636   6.851   3.933
 9011SOL     OW27931   5.759   1.803   2.520
 9011SOL    HW127932   5.714   1.749   2.449
 9011SOL    HW227933   5.694   1.870   2.556
 9012SOL     OW27934   2.322   3.632   0.301
 9012SOL    HW127935   2.332   3.579   0.385
 9012SOL    HW227936   2.394   3.607   0.236
 9013SOL     OW27937   0.110   6.846   5.080
 9013SOL    HW127938   0.161   6.826   4.997
 9013SOL    HW227939   0.166   6.826   5.160
 9014SOL     OW27940   6.122   1.820   6.922
 9014SOL    HW127941   6.135   1.843   7.019
 9014SOL    HW227942   6.120   1.904   6.868
 9015SOL     OW27943   4.539   1.237   1.911
 9015SOL    HW127944   4.463   1.245   1.975
 9015SOL    HW227945   4.523   1.298   1.833
 9016SOL     OW27946   0.325   6.482   6.750
 9016SOL    HW127947   0.358   6.558   6.693
 9016SOL    HW227948   0.315   6.513   6.844
 9017SOL     OW27949   4.632   2.185   3.555
 9017SOL    HW127950   4.580   2.111   3.512
 9017SOL    HW227951   4.576   2.267   3.557
 9018SOL     OW27952   3.938   2.401   6.687
 9018SOL    HW127953   3.864   2.369   6.627
 9018SOL    HW227954   3.958   2.497   6.667
 9019SOL     OW27955   1.433   6.018   1.520
 9019SOL    HW127956   1.360   5.991   1.458
 9019SOL    HW227957   1.406   5.997   1.614
 9020SOL     OW27958   6.900   3.609   1.011
 9020SOL    HW127959   6.946   3.681   1.062
 9020SOL    HW227960   6.821   3.647   0.963
 9021SOL     OW27961   6.446   6.863   3.107
 9021SOL    HW127962   6.538   6.844   3.071
 9021SOL    HW227963   6.415   6.786   3.163
 9022SOL     OW27964   3.277   1.965   6.609
 9022SOL    HW127965   3.357   2.024   6.598
 9022SOL    HW227966   3.281   1.921   6.699
 9023SOL     OW27967   3.358   3.082   2.266
 9023SOL    HW127968   3.351   3.113   2.171
 9023SOL    HW227969   3.426   3.010   2.272
 9024SOL     OW27970   0.790   4.385   5.051
 9024SOL    HW127971   0.839   4.458   5.003
 9024SOL    HW227972   0.856   4.320   5.089
 9025SOL     OW27973   0.719   5.303   0.382
 9025SOL    HW127974   0.696   5.213   0.420
 9025SOL    HW227975   0.812   5.301   0.346
 9026SOL     OW27976   4.302   3.180   1.000
 9026SOL    HW127977   4.206   3.208   0.992
 9026SOL    HW227978   4.307   3.081   1.010
 9027SOL     OW27979   1.887   2.474   3.083
 9027SOL    HW127980   1.885   2.403   3.013
 9027SOL    HW227981   1.836   2.443   3.163
 9028SOL     OW27982   2.843   3.892   5.579
 9028SOL    HW127983   2.746   3.914   5.565
 9028SOL    HW227984   2.867   3.910   5.675
 9029SOL     OW27985   3.999   6.276   5.021
 9029SOL    HW127986   4.076   6.263   5.083
 9029SOL    HW227987   4.024   6.341   4.949
 9030SOL     OW27988   2.678   1.552   3.541
 9030SOL    HW127989   2.753   1.618   3.533
 9030SOL    HW227990   2.595   1.600   3.572
 9031SOL     OW27991   3.939   5.781   4.378
 9031SOL    HW127992   3.977   5.816   4.463
 9031SOL    HW227993   3.979   5.690   4.359
 9032SOL     OW27994   3.798   3.733   0.668
 9032SOL    HW127995   3.839   3.646   0.640
 9032SOL    HW227996   3.863   3.807   0.652
 9033SOL     OW27997   0.537   3.976   3.000
 9033SOL    HW127998   0.579   4.064   3.022
 9033SOL    HW227999   0.438   3.982   3.015
 9034SOL     OW28000   3.347   0.077   5.376
 9034SOL    HW128001   3.259   0.114   5.346
 9034SOL    HW228002   3.352   7.008   5.352
 9035SOL     OW28003   1.918   5.244   6.696
 9035SOL    HW128004   1.937   5.147   6.685
 9035SOL    HW228005   1.990   5.298   6.653
 9036SOL     OW28006   1.957   1.610   5.243
 9036SOL    HW128007   1.860   1.592   5.260
 9036SOL    HW228008   1.967   1.697   5.194
 9037SOL     OW28009   1.334   4.041   5.046
 9037SOL    HW128010   1.273   4.026   5.125
 9037SOL    HW228011   1.371   3.954   5.016
 9038SOL     OW28012   4.126   0.795   6.012
 9038SOL    HW128013   4.197   0.818   6.079
 9038SOL    HW228014   4.167   0.744   5.936
 9039SOL     OW28015   2.516   5.564   5.585
 9039SOL    HW128016   2.600   5.562   5.531
 9039SOL    HW228017   2.501   5.475   5.627
 9040SOL     OW28018   3.463   2.113   2.715
 9040SOL    HW128019   3.484   2.116   2.812
 9040SOL    HW228020   3.363   2.108   2.703
 9041SOL     OW28021   1.223   2.172   1.236
 9041SOL    HW128022   1.165   2.180   1.155
 9041SOL    HW228023   1.241   2.075   1.255
 9042SOL     OW28024   3.367   0.190   4.446
 9042SOL    HW128025   3.347   0.100   4.484
 9042SOL    HW228026   3.292   0.253   4.468
 9043SOL     OW28027   1.390   1.124   0.030
 9043SOL    HW128028   1.318   1.084   0.087
 9043SOL    HW228029   1.402   1.220   0.055
 9044SOL     OW28030   6.301   0.292   0.226
 9044SOL    HW128031   6.247   0.361   0.177
 9044SOL    HW228032   6.358   0.338   0.295
 9045SOL     OW28033   2.560   1.659   2.562
 9045SOL    HW128034   2.480   1.623   2.611
 9045SOL    HW228035   2.628   1.586   2.550
 9046SOL     OW28036   3.379   3.578   3.137
 9046SOL    HW128037   3.323   3.502   3.172
 9046SOL    HW228038   3.475   3.561   3.159
 9047SOL     OW28039   1.918   3.840   5.745
 9047SOL    HW128040   1.909   3.934   5.777
 9047SOL    HW228041   1.828   3.797   5.742
 9048SOL     OW28042   5.260   3.214   6.412
 9048SOL    HW128043   5.219   3.208   6.503
 9048SOL    HW228044   5.301   3.305   6.400
 9049SOL     OW28045   3.504   0.092   5.615
 9049SOL    HW128046   3.458   0.112   5.529
 9049SOL    HW228047   3.479   0.001   5.646
 9050SOL     OW28048   0.326   3.208   0.770
 9050SOL    HW128049   0.324   3.160   0.857
 9050SOL    HW228050   0.377   3.294   0.780
 9051SOL     OW28051   3.686   6.986   1.032
 9051SOL    HW128052   3.612   0.013   0.994
 9051SOL    HW228053   3.774   7.026   1.007
 9052SOL     OW28054   2.598   2.461   4.119
 9052SOL    HW128055   2.561   2.442   4.210
 9052SOL    HW228056   2.574   2.554   4.092
 9053SOL     OW28057   2.121   0.718   2.708
 9053SOL    HW128058   2.209   0.672   2.703
 9053SOL    HW228059   2.051   0.653   2.737
 9054SOL     OW28060   2.858   5.737   3.874
 9054SOL    HW128061   2.936   5.798   3.869
 9054SOL    HW228062   2.863   5.683   3.958
 9055SOL     OW28063   6.206   2.659   4.764
 9055SOL    HW128064   6.176   2.631   4.855
 9055SOL    HW228065   6.302   2.686   4.768
 9056SOL     OW28066   0.580   1.805   2.007
 9056SOL    HW128067   0.529   1.865   1.947
 9056SOL    HW228068   0.655   1.763   1.956
 9057SOL     OW28069   4.925   4.107   6.146
 9057SOL    HW128070   4.831   4.122   6.176
 9057SOL    HW228071   4.985   4.172   6.192
 9058SOL     OW28072   2.229   1.478   1.551
 9058SOL    HW128073   2.221   1.573   1.581
 9058SOL    HW228074   2.254   1.421   1.629
 9059SOL     OW28075   1.410   2.144   3.771
 9059SOL    HW128076   1.411   2.144   3.871
 9059SOL    HW228077   1.327   2.190   3.739
 9060SOL     OW28078   6.425   2.595   3.738
 9060SOL    HW128079   6.448   2.523   3.674
 9060SOL    HW228080   6.377   2.669   3.690
 9061SOL     OW28081   2.232   4.973   2.001
 9061SOL    HW128082   2.183   4.897   2.042
 9061SOL    HW228083   2.329   4.951   1.996
 9062SOL     OW28084   1.853   6.303   1.925
 9062SOL    HW128085   1.850   6.220   1.870
 9062SOL    HW228086   1.840   6.383   1.865
 9063SOL     OW28087   3.328   0.151   3.405
 9063SOL    HW128088   3.346   0.076   3.341
 9063SOL    HW228089   3.413   0.200   3.424
 9064SOL     OW28090   6.383   2.503   5.196
 9064SOL    HW128091   6.331   2.461   5.271
 9064SOL    HW228092   6.320   2.535   5.126
 9065SOL     OW28093   3.519   0.452   5.470
 9065SOL    HW128094   3.523   0.388   5.393
 9065SOL    HW228095   3.589   0.522   5.459
 9066SOL     OW28096   4.340   6.123   0.772
 9066SOL    HW128097   4.394   6.039   0.778
 9066SOL    HW228098   4.246   6.104   0.802
 9067SOL     OW28099   0.562   0.494   4.623
 9067SOL    HW128100   0.493   0.466   4.690
 9067SOL    HW228101   0.531   0.470   4.531
 9068SOL     OW28102   2.659   6.730   4.623
 9068SOL    HW128103   2.694   6.637   4.635
 9068SOL    HW228104   2.563   6.727   4.595
 9069SOL     OW28105   1.395   3.333   1.468
 9069SOL    HW128106   1.349   3.359   1.383
 9069SOL    HW228107   1.336   3.354   1.546
 9070SOL     OW28108   1.352   3.262   4.514
 9070SOL    HW128109   1.326   3.274   4.610
 9070SOL    HW228110   1.385   3.349   4.476
 9071SOL     OW28111   6.068   6.633   1.942
 9071SOL    HW128112   6.037   6.569   1.872
 9071SOL    HW228113   5.989   6.668   1.992
 9072SOL     OW28114   0.052   1.844   1.455
 9072SOL    HW128115   6.994   1.792   1.464
 9072SOL    HW228116   0.050   1.923   1.517
 9073SOL     OW28117   2.918   6.997   2.623
 9073SOL    HW128118   2.978   0.049   2.631
 9073SOL    HW228119   2.840   7.009   2.685
 9074SOL     OW28120   1.466   1.671   1.962
 9074SOL    HW128121   1.489   1.746   1.899
 9074SOL    HW228122   1.507   1.690   2.052
 9075SOL     OW28123   0.308   1.196   1.766
 9075SOL    HW128124   0.250   1.125   1.806
 9075SOL    HW228125   0.270   1.286   1.789
 9076SOL     OW28126   0.298   2.983   5.557
 9076SOL    HW128127   0.374   3.024   5.607
 9076SOL    HW228128   0.251   3.054   5.504
 9077SOL     OW28129   4.579   0.678   0.197
 9077SOL    HW128130   4.668   0.673   0.242
 9077SOL    HW228131   4.588   0.728   0.111
 9078SOL     OW28132   3.934   3.214   5.943
 9078SOL    HW128133   4.007   3.282   5.951
 9078SOL    HW228134   3.970   3.132   5.897
 9079SOL     OW28135   3.403   6.741   4.028
 9079SOL    HW128136   3.323   6.686   4.050
 9079SOL    HW228137   3.399   6.828   4.077
 9080SOL     OW28138   4.514   2.514   6.287
 9080SOL    HW128139   4.545   2.441   6.349
 9080SOL    HW228140   4.419   2.538   6.309
 9081SOL     OW28141   4.191   0.279   2.173
 9081SOL    HW128142   4.271   0.301   2.117
 9081SOL    HW228143   4.196   0.330   2.259
 9082SOL     OW28144   2.392   0.553   5.070
 9082SOL    HW128145   2.353   0.475   5.020
 9082SOL    HW228146   2.372   0.544   5.167
 9083SOL     OW28147   3.358   5.269   6.269
 9083SOL    HW128148   3.428   5.329   6.231
 9083SOL    HW228149   3.399   5.208   6.337
 9084SOL     OW28150   3.726   4.032   3.566
 9084SOL    HW128151   3.818   4.035   3.606
 9084SOL    HW228152   3.721   3.956   3.501
 9085SOL     OW28153   2.074   0.646   1.832
 9085SOL    HW128154   2.103   0.596   1.750
 9085SOL    HW228155   1.976   0.630   1.848
 9086SOL     OW28156   0.755   4.489   0.085
 9086SOL    HW128157   0.714   4.497   7.022
 9086SOL    HW228158   0.763   4.393   0.110
 9087SOL     OW28159   4.359   2.314   1.391
 9087SOL    HW128160   4.450   2.310   1.432
 9087SOL    HW228161   4.367   2.313   1.291
 9088SOL     OW28162   6.936   6.566   1.405
 9088SOL    HW128163   6.995   6.622   1.462
 9088SOL    HW228164   6.931   6.606   1.313
 9089SOL     OW28165   5.816   5.814   5.527
 9089SOL    HW128166   5.723   5.790   5.555
 9089SOL    HW228167   5.867   5.847   5.606
 9090SOL     OW28168   6.847   1.361   4.920
 9090SOL    HW128169   6.904   1.415   4.859
 9090SOL    HW228170   6.895   1.277   4.945
 9091SOL     OW28171   2.571   4.267   0.348
 9091SOL    HW128172   2.623   4.207   0.409
 9091SOL    HW228173   2.551   4.220   0.263
 9092SOL     OW28174   6.703   0.878   6.752
 9092SOL    HW128175   6.686   0.809   6.682
 9092SOL    HW228176   6.615   0.911   6.787
 9093SOL     OW28177   0.851   5.617   5.631
 9093SOL    HW128178   0.771   5.655   5.677
 9093SOL    HW228179   0.893   5.686   5.573
 9094SOL     OW28180   6.560   4.905   2.779
 9094SOL    HW128181   6.624   4.976   2.808
 9094SOL    HW228182   6.481   4.949   2.734
 9095SOL     OW28183   5.024   4.902   5.905
 9095SOL    HW128184   5.044   4.980   5.846
 9095SOL    HW228185   4.938   4.918   5.953
 9096SOL     OW28186   6.643   4.920   2.454
 9096SOL    HW128187   6.553   4.929   2.496
 9096SOL    HW228188   6.635   4.935   2.355
 9097SOL     OW28189   2.105   1.753   0.667
 9097SOL    HW128190   2.105   1.802   0.580
 9097SOL    HW228191   2.048   1.801   0.733
 9098SOL     OW28192   3.048   2.172   4.793
 9098SOL    HW128193   2.967   2.170   4.851
 9098SOL    HW228194   3.124   2.214   4.844
 9099SOL     OW28195   3.101   3.230   6.026
 9099SOL    HW128196   3.117   3.273   5.938
 9099SOL    HW228197   3.073   3.299   6.093
 9100SOL     OW28198   0.381   3.536   3.576
 9100SOL    HW128199   0.440   3.497   3.505
 9100SOL    HW228200   0.435   3.555   3.658
 9101SOL     OW28201   2.789   2.293   1.738
 9101SOL    HW128202   2.842   2.239   1.673
 9101SOL    HW228203   2.843   2.309   1.820
 9102SOL     OW28204   3.168   6.995   2.198
 9102SOL    HW128205   3.153   0.066   2.199
 9102SOL    HW228206   3.090   6.949   2.240
 9103SOL     OW28207   5.534   1.760   6.802
 9103SOL    HW128208   5.559   1.827   6.732
 9103SOL    HW228209   5.476   1.804   6.871
 9104SOL     OW28210   6.985   6.326   1.541
 9104SOL    HW128211   0.045   6.315   1.589
 9104SOL    HW228212   6.992   6.401   1.475
 9105SOL     OW28213   0.534   0.477   5.726
 9105SOL    HW128214   0.468   0.536   5.680
 9105SOL    HW228215   0.602   0.446   5.661
 9106SOL     OW28216   5.996   3.044   1.047
 9106SOL    HW128217   6.088   3.080   1.060
 9106SOL    HW228218   5.961   3.009   1.134
 9107SOL     OW28219   2.187   0.606   6.516
 9107SOL    HW128220   2.226   0.698   6.512
 9107SOL    HW228221   2.102   0.604   6.463
 9108SOL     OW28222   5.063   4.438   5.257
 9108SOL    HW128223   5.043   4.340   5.261
 9108SOL    HW228224   5.156   4.452   5.221
 9109SOL     OW28225   5.278   3.524   2.748
 9109SOL    HW128226   5.217   3.550   2.673
 9109SOL    HW228227   5.270   3.426   2.765
 9110SOL     OW28228   1.814   5.556   4.456
 9110SOL    HW128229   1.905   5.581   4.421
 9110SOL    HW228230   1.764   5.639   4.479
 9111SOL     OW28231   4.585   2.812   6.993
 9111SOL    HW128232   4.671   2.817   0.014
 9111SOL    HW228233   4.602   2.799   6.895
 9112SOL     OW28234   1.543   5.332   2.648
 9112SOL    HW128235   1.563   5.426   2.620
 9112SOL    HW228236   1.469   5.295   2.592
 9113SOL     OW28237   5.637   2.644   2.687
 9113SOL    HW128238   5.554   2.638   2.632
 9113SOL    HW228239   5.662   2.740   2.698
 9114SOL     OW28240   0.196   5.330   3.465
 9114SOL    HW128241   0.098   5.321   3.481
 9114SOL    HW228242   0.227   5.418   3.499
 9115SOL     OW28243   6.068   5.518   5.228
 9115SOL    HW128244   6.003   5.562   5.166
 9115SOL    HW228245   6.034   5.525   5.322
 9116SOL     OW28246   0.422   0.014   2.834
 9116SOL    HW128247   0.452   7.012   2.925
 9116SOL    HW228248   0.367   0.097   2.842
 9117SOL     OW28249   3.769   2.319   6.472
 9117SOL    HW128250   3.768   2.219   6.468
 9117SOL    HW228251   3.807   2.355   6.386
 9118SOL     OW28252   6.587   3.400   7.027
 9118SOL    HW128253   6.602   3.391   0.098
 9118SOL    HW228254   6.636   3.327   6.980
 9119SOL     OW28255   3.821   1.478   1.863
 9119SOL    HW128256   3.781   1.561   1.904
 9119SOL    HW228257   3.760   1.445   1.791
 9120SOL     OW28258   6.773   2.492   5.675
 9120SOL    HW128259   6.802   2.408   5.721
 9120SOL    HW228260   6.725   2.550   5.740
 9121SOL     OW28261   3.419   6.148   5.328
 9121SOL    HW128262   3.472   6.218   5.278
 9121SOL    HW228263   3.482   6.080   5.365
 9122SOL     OW28264   2.418   4.427   2.155
 9122SOL    HW128265   2.502   4.475   2.177
 9122SOL    HW228266   2.360   4.422   2.237
 9123SOL     OW28267   1.610   0.308   4.340
 9123SOL    HW128268   1.697   0.313   4.390
 9123SOL    HW228269   1.576   0.214   4.343
 9124SOL     OW28270   3.762   5.423   1.950
 9124SOL    HW128271   3.845   5.408   1.897
 9124SOL    HW228272   3.702   5.485   1.899
 9125SOL     OW28273   4.433   4.408   1.138
 9125SOL    HW128274   4.445   4.396   1.237
 9125SOL    HW228275   4.503   4.356   1.089
 9126SOL     OW28276   4.563   3.918   1.302
 9126SOL    HW128277   4.518   3.988   1.357
 9126SOL    HW228278   4.662   3.920   1.319
 9127SOL     OW28279   6.948   2.575   5.460
 9127SOL    HW128280   0.019   2.578   5.476
 9127SOL    HW228281   6.902   2.534   5.540
 9128SOL     OW28282   5.743   2.249   4.818
 9128SOL    HW128283   5.648   2.235   4.844
 9128SOL    HW228284   5.793   2.162   4.822
 9129SOL     OW28285   6.699   1.755   0.368
 9129SOL    HW128286   6.660   1.840   0.404
 9129SOL    HW228287   6.643   1.678   0.398
 9130SOL     OW28288   1.226   4.670   5.898
 9130SOL    HW128289   1.225   4.736   5.974
 9130SOL    HW228290   1.132   4.655   5.866
 9131SOL     OW28291   5.149   3.338   6.953
 9131SOL    HW128292   5.098   3.414   6.994
 9131SOL    HW228293   5.099   3.253   6.969
 9132SOL     OW28294   1.180   4.556   4.386
 9132SOL    HW128295   1.147   4.534   4.478
 9132SOL    HW228296   1.139   4.641   4.355
 9133SOL     OW28297   3.402   0.489   0.891
 9133SOL    HW128298   3.355   0.440   0.963
 9133SOL    HW228299   3.490   0.523   0.925
 9134SOL     OW28300   4.602   5.534   1.632
 9134SOL    HW128301   4.504   5.551   1.635
 9134SOL    HW228302   4.635   5.547   1.538
 9135SOL     OW28303   1.267   6.287   1.601
 9135SOL    HW128304   1.339   6.347   1.635
 9135SOL    HW228305   1.231   6.232   1.676
 9136SOL     OW28306   4.491   5.912   5.413
 9136SOL    HW128307   4.546   5.830   5.400
 9136SOL    HW228308   4.401   5.887   5.450
 9137SOL     OW28309   4.032   0.271   6.465
 9137SOL    HW128310   4.081   0.247   6.381
 9137SOL    HW228311   4.068   0.216   6.541
 9138SOL     OW28312   1.577   3.601   6.976
 9138SOL    HW128313   1.619   3.590   0.039
 9138SOL    HW228314   1.639   3.651   6.916
 9139SOL     OW28315   0.950   1.249   1.892
 9139SOL    HW128316   0.892   1.175   1.926
 9139SOL    HW228317   0.895   1.310   1.834
 9140SOL     OW28318   0.347   5.109   2.372
 9140SOL    HW128319   0.369   5.205   2.385
 9140SOL    HW228320   0.414   5.052   2.420
 9141SOL     OW28321   0.096   6.096   6.579
 9141SOL    HW128322   0.037   6.164   6.535
 9141SOL    HW228323   0.087   6.008   6.532
 9142SOL     OW28324   0.503   3.195   2.522
 9142SOL    HW128325   0.406   3.179   2.539
 9142SOL    HW228326   0.542   3.116   2.475
 9143SOL     OW28327   0.321   4.188   1.354
 9143SOL    HW128328   0.279   4.166   1.266
 9143SOL    HW228329   0.252   4.228   1.415
 9144SOL     OW28330   3.032   4.856   4.776
 9144SOL    HW128331   3.059   4.767   4.738
 9144SOL    HW228332   3.012   4.919   4.701
 9145SOL     OW28333   1.697   6.330   6.894
 9145SOL    HW128334   1.728   6.250   6.843
 9145SOL    HW228335   1.707   6.411   6.837
 9146SOL     OW28336   5.005   3.025   2.879
 9146SOL    HW128337   5.075   3.096   2.884
 9146SOL    HW228338   4.956   3.020   2.966
 9147SOL     OW28339   6.721   0.730   4.743
 9147SOL    HW128340   6.636   0.708   4.695
 9147SOL    HW228341   6.749   0.651   4.799
 9148SOL     OW28342   5.999   0.246   1.908
 9148SOL    HW128343   6.092   0.253   1.874
 9148SOL    HW228344   5.937   0.225   1.833
 9149SOL     OW28345   5.720   3.247   2.030
 9149SOL    HW128346   5.636   3.259   2.084
 9149SOL    HW228347   5.796   3.224   2.091
 9150SOL     OW28348   3.355   4.224   0.446
 9150SOL    HW128349   3.383   4.215   0.351
 9150SOL    HW228350   3.332   4.319   0.466
 9151SOL     OW28351   2.203   4.041   3.868
 9151SOL    HW128352   2.244   4.099   3.939
 9151SOL    HW228353   2.143   3.974   3.911
 9152SOL     OW28354   1.596   4.513   4.440
 9152SOL    HW128355   1.529   4.466   4.383
 9152SOL    HW228356   1.680   4.459   4.445
 9153SOL     OW28357   0.437   3.222   6.712
 9153SOL    HW128358   0.400   3.227   6.620
 9153SOL    HW228359   0.416   3.133   6.752
 9154SOL     OW28360   4.877   4.885   3.643
 9154SOL    HW128361   4.825   4.875   3.558
 9154SOL    HW228362   4.952   4.820   3.644
 9155SOL     OW28363   1.843   4.506   3.040
 9155SOL    HW128364   1.825   4.529   3.136
 9155SOL    HW228365   1.891   4.418   3.035
 9156SOL     OW28366   6.674   2.838   1.204
 9156SOL    HW128367   6.649   2.880   1.292
 9156SOL    HW228368   6.722   2.905   1.148
 9157SOL     OW28369   3.112   4.375   6.655
 9157SOL    HW128370   3.152   4.394   6.565
 9157SOL    HW228371   3.171   4.311   6.705
 9158SOL     OW28372   6.979   4.503   4.170
 9158SOL    HW128373   6.934   4.572   4.226
 9158SOL    HW228374   6.916   4.429   4.150
 9159SOL     OW28375   2.178   0.116   3.333
 9159SOL    HW128376   2.116   0.129   3.411
 9159SOL    HW228377   2.224   0.028   3.343
 9160SOL     OW28378   0.466   4.913   5.760
 9160SOL    HW128379   0.509   4.987   5.709
 9160SOL    HW228380   0.417   4.852   5.698
 9161SOL     OW28381   5.918   5.251   3.134
 9161SOL    HW128382   5.862   5.252   3.217
 9161SOL    HW228383   5.871   5.199   3.063
 9162SOL     OW28384   3.694   0.712   3.072
 9162SOL    HW128385   3.746   0.793   3.047
 9162SOL    HW228386   3.620   0.738   3.134
 9163SOL     OW28387   0.093   3.471   1.890
 9163SOL    HW128388   0.017   3.473   1.954
 9163SOL    HW228389   0.149   3.389   1.907
 9164SOL     OW28390   1.841   0.735   6.658
 9164SOL    HW128391   1.793   0.763   6.742
 9164SOL    HW228392   1.780   0.744   6.580
 9165SOL     OW28393   5.259   1.938   5.780
 9165SOL    HW128394   5.303   1.979   5.860
 9165SOL    HW228395   5.167   1.908   5.804
 9166SOL     OW28396   3.925   5.393   0.983
 9166SOL    HW128397   3.852   5.412   1.049
 9166SOL    HW228398   3.928   5.295   0.963
 9167SOL     OW28399   1.137   2.381   6.257
 9167SOL    HW128400   1.079   2.318   6.309
 9167SOL    HW228401   1.126   2.474   6.293
 9168SOL     OW28402   6.439   5.545   6.230
 9168SOL    HW128403   6.378   5.485   6.283
 9168SOL    HW228404   6.419   5.641   6.252
 9169SOL     OW28405   6.693   6.153   6.043
 9169SOL    HW128406   6.651   6.174   6.132
 9169SOL    HW228407   6.621   6.129   5.978
 9170SOL     OW28408   2.065   1.297   6.353
 9170SOL    HW128409   2.075   1.360   6.430
 9170SOL    HW228410   2.017   1.344   6.278
 9171SOL     OW28411   2.594   5.386   0.866
 9171SOL    HW128412   2.609   5.287   0.873
 9171SOL    HW228413   2.575   5.423   0.957
 9172SOL     OW28414   4.413   1.926   4.640
 9172SOL    HW128415   4.484   1.875   4.593
 9172SOL    HW228416   4.344   1.956   4.574
 9173SOL     OW28417   6.699   3.152   4.641
 9173SOL    HW128418   6.720   3.096   4.561
 9173SOL    HW228419   6.602   3.142   4.664
 9174SOL     OW28420   0.622   5.776   6.934
 9174SOL    HW128421   0.532   5.761   6.975
 9174SOL    HW228422   0.613   5.839   6.857
 9175SOL     OW28423   1.675   6.181   0.343
 9175SOL    HW128424   1.661   6.143   0.435
 9175SOL    HW228425   1.589   6.179   0.293
 9176SOL     OW28426   2.502   0.075   2.041
 9176SOL    HW128427   2.542   0.147   1.984
 9176SOL    HW228428   2.575   0.023   2.085
 9177SOL     OW28429   1.736   2.401   3.746
 9177SOL    HW128430   1.804   2.363   3.684
 9177SOL    HW228431   1.754   2.499   3.759
 9178SOL     OW28432   2.449   5.540   6.569
 9178SOL    HW128433   2.548   5.540   6.562
 9178SOL    HW228434   2.412   5.620   6.522
 9179SOL     OW28435   2.562   5.695   4.922
 9179SOL    HW128436   2.502   5.694   5.002
 9179SOL    HW228437   2.656   5.679   4.951
 9180SOL     OW28438   6.805   2.244   4.076
 9180SOL    HW128439   6.852   2.173   4.128
 9180SOL    HW228440   6.854   2.262   3.990
 9181SOL     OW28441   5.058   2.798   3.244
 9181SOL    HW128442   5.156   2.800   3.264
 9181SOL    HW228443   5.007   2.778   3.327
 9182SOL     OW28444   3.222   1.247   2.822
 9182SOL    HW128445   3.233   1.314   2.895
 9182SOL    HW228446   3.127   1.216   2.819
 9183SOL     OW28447   4.401   3.812   6.101
 9183SOL    HW128448   4.448   3.778   6.020
 9183SOL    HW228449   4.308   3.775   6.104
 9184SOL     OW28450   3.494   1.977   0.990
 9184SOL    HW128451   3.578   1.949   0.944
 9184SOL    HW228452   3.516   2.042   1.062
 9185SOL     OW28453   0.828   6.740   6.630
 9185SOL    HW128454   0.830   6.752   6.531
 9185SOL    HW228455   0.740   6.699   6.657
 9186SOL     OW28456   4.869   0.643   5.547
 9186SOL    HW128457   4.853   0.553   5.588
 9186SOL    HW228458   4.799   0.707   5.579
 9187SOL     OW28459   4.470   2.037   6.854
 9187SOL    HW128460   4.408   2.109   6.824
 9187SOL    HW228461   4.477   2.038   6.954
 9188SOL     OW28462   1.748   1.007   1.275
 9188SOL    HW128463   1.739   0.918   1.230
 9188SOL    HW228464   1.664   1.059   1.261
 9189SOL     OW28465   3.437   0.989   3.869
 9189SOL    HW128466   3.496   0.909   3.861
 9189SOL    HW228467   3.349   0.970   3.826
 9190SOL     OW28468   6.353   4.175   5.316
 9190SOL    HW128469   6.394   4.206   5.401
 9190SOL    HW228470   6.416   4.113   5.269
 9191SOL     OW28471   4.872   6.993   6.566
 9191SOL    HW128472   4.816   0.048   6.566
 9191SOL    HW228473   4.910   6.978   6.474
 9192SOL     OW28474   6.207   3.852   6.085
 9192SOL    HW128475   6.165   3.800   6.010
 9192SOL    HW228476   6.221   3.791   6.163
 9193SOL     OW28477   3.368   3.703   3.982
 9193SOL    HW128478   3.462   3.730   3.962
 9193SOL    HW228479   3.353   3.609   3.951
 9194SOL     OW28480   3.631   5.897   2.177
 9194SOL    HW128481   3.584   5.885   2.090
 9194SOL    HW228482   3.583   5.846   2.248
 9195SOL     OW28483   1.972   2.743   3.186
 9195SOL    HW128484   2.037   2.776   3.117
 9195SOL    HW228485   1.905   2.683   3.143
 9196SOL     OW28486   4.918   0.245   3.957
 9196SOL    HW128487   4.978   0.210   3.885
 9196SOL    HW228488   4.973   0.272   4.036
 9197SOL     OW28489   3.498   3.583   0.963
 9197SOL    HW128490   3.445   3.599   0.880
 9197SOL    HW228491   3.436   3.584   1.042
 9198SOL     OW28492   5.711   4.045   6.195
 9198SOL    HW128493   5.806   4.013   6.202
 9198SOL    HW228494   5.656   4.002   6.266
 9199SOL     OW28495   0.926   3.237   6.321
 9199SOL    HW128496   0.972   3.153   6.294
 9199SOL    HW228497   0.844   3.216   6.375
 9200SOL     OW28498   1.389   6.069   6.807
 9200SOL    HW128499   1.467   6.035   6.860
 9200SOL    HW228500   1.309   6.078   6.866
 9201SOL     OW28501   0.711   4.029   1.177
 9201SOL    HW128502   0.670   4.118   1.196
 9201SOL    HW228503   0.697   4.005   1.081
 9202SOL     OW28504   2.240   5.459   4.525
 9202SOL    HW128505   2.307   5.492   4.592
 9202SOL    HW228506   2.245   5.360   4.518
 9203SOL     OW28507   4.661   2.372   6.558
 9203SOL    HW128508   4.744   2.427   6.547
 9203SOL    HW228509   4.618   2.394   6.646
 9204SOL     OW28510   5.780   3.658   3.287
 9204SOL    HW128511   5.843   3.735   3.278
 9204SOL    HW228512   5.699   3.675   3.231
 9205SOL     OW28513   4.969   3.365   2.192
 9205SOL    HW128514   4.990   3.356   2.094
 9205SOL    HW228515   4.953   3.461   2.213
 9206SOL     OW28516   2.961   0.507   4.928
 9206SOL    HW128517   2.949   0.555   4.841
 9206SOL    HW228518   2.989   0.572   4.999
 9207SOL     OW28519   3.699   6.355   5.964
 9207SOL    HW128520   3.603   6.341   5.941
 9207SOL    HW228521   3.756   6.331   5.885
 9208SOL     OW28522   4.975   3.643   2.216
 9208SOL    HW128523   4.930   3.673   2.131
 9208SOL    HW228524   5.074   3.642   2.201
 9209SOL     OW28525   4.166   1.149   1.898
 9209SOL    HW128526   4.225   1.199   1.961
 9209SOL    HW228527   4.159   1.054   1.927
 9210SOL     OW28528   2.212   0.088   1.265
 9210SOL    HW128529   2.261   0.007   1.231
 9210SOL    HW228530   2.243   0.169   1.215
 9211SOL     OW28531   5.236   1.997   6.688
 9211SOL    HW128532   5.178   1.943   6.626
 9211SOL    HW228533   5.311   2.038   6.635
 9212SOL     OW28534   4.781   4.159   4.970
 9212SOL    HW128535   4.720   4.215   4.914
 9212SOL    HW228536   4.739   4.143   5.059
 9213SOL     OW28537   5.779   6.614   4.296
 9213SOL    HW128538   5.850   6.661   4.243
 9213SOL    HW228539   5.760   6.666   4.379
 9214SOL     OW28540   0.821   2.598   5.025
 9214SOL    HW128541   0.888   2.672   5.028
 9214SOL    HW228542   0.803   2.566   5.117
 9215SOL     OW28543   0.106   3.966   2.459
 9215SOL    HW128544   0.164   4.003   2.387
 9215SOL    HW228545   0.024   4.023   2.469
 9216SOL     OW28546   2.406   6.601   4.726
 9216SOL    HW128547   2.426   6.520   4.672
 9216SOL    HW228548   2.364   6.671   4.668
 9217SOL     OW28549   5.461   1.483   6.771
 9217SOL    HW128550   5.440   1.420   6.845
 9217SOL    HW228551   5.471   1.575   6.808
 9218SOL     OW28552   4.180   0.526   6.559
 9218SOL    HW128553   4.251   0.563   6.619
 9218SOL    HW228554   4.194   0.427   6.548
 9219SOL     OW28555   4.118   3.113   5.308
 9219SOL    HW128556   4.049   3.095   5.379
 9219SOL    HW228557   4.132   3.212   5.300
 9220SOL     OW28558   2.008   5.924   2.708
 9220SOL    HW128559   2.023   5.978   2.625
 9220SOL    HW228560   2.041   5.976   2.787
 9221SOL     OW28561   2.346   0.732   5.695
 9221SOL    HW128562   2.413   0.742   5.768
 9221SOL    HW228563   2.348   0.814   5.637
 9222SOL     OW28564   2.312   4.440   4.216
 9222SOL    HW128565   2.304   4.441   4.316
 9222SOL    HW228566   2.289   4.349   4.182
 9223SOL     OW28567   1.013   3.121   3.789
 9223SOL    HW128568   0.958   3.133   3.706
 9223SOL    HW228569   0.958   3.144   3.869
 9224SOL     OW28570   1.191   3.326   3.831
 9224SOL    HW128571   1.167   3.359   3.922
 9224SOL    HW228572   1.138   3.244   3.810
 9225SOL     OW28573   3.612   7.026   6.076
 9225SOL    HW128574   3.659   0.045   6.001
 9225SOL    HW228575   3.610   6.928   6.058
 9226SOL     OW28576   1.372   0.189   1.678
 9226SOL    HW128577   1.351   0.178   1.776
 9226SOL    HW228578   1.293   0.229   1.632
 9227SOL     OW28579   1.676   5.377   1.536
 9227SOL    HW128580   1.650   5.434   1.614
 9227SOL    HW228581   1.729   5.298   1.569
 9228SOL     OW28582   2.314   2.654   6.141
 9228SOL    HW128583   2.313   2.611   6.051
 9228SOL    HW228584   2.222   2.685   6.165
 9229SOL     OW28585   1.413   4.919   6.862
 9229SOL    HW128586   1.491   4.974   6.833
 9229SOL    HW228587   1.342   4.920   6.791
 9230SOL     OW28588   5.074   3.035   3.838
 9230SOL    HW128589   5.101   2.942   3.812
 9230SOL    HW228590   5.117   3.059   3.925
 9231SOL     OW28591   0.890   5.133   6.062
 9231SOL    HW128592   0.974   5.090   6.097
 9231SOL    HW228593   0.915   5.207   5.999
 9232SOL     OW28594   1.519   4.836   1.048
 9232SOL    HW128595   1.611   4.851   1.011
 9232SOL    HW228596   1.451   4.860   0.978
 9233SOL     OW28597   1.124   6.866   1.236
 9233SOL    HW128598   1.188   6.846   1.161
 9233SOL    HW228599   1.152   6.950   1.282
 9234SOL     OW28600   2.332   5.129   1.140
 9234SOL    HW128601   2.278   5.162   1.217
 9234SOL    HW228602   2.404   5.068   1.172
 9235SOL     OW28603   2.362   2.130   3.679
 9235SOL    HW128604   2.433   2.198   3.666
 9235SOL    HW228605   2.350   2.077   3.594
 9236SOL     OW28606   2.289   3.072   6.912
 9236SOL    HW128607   2.259   3.153   6.861
 9236SOL    HW228608   2.343   3.101   6.991
 9237SOL     OW28609   0.065   5.939   3.006
 9237SOL    HW128610   6.997   5.966   2.995
 9237SOL    HW228611   0.107   5.931   2.915
 9238SOL     OW28612   2.727   2.718   5.876
 9238SOL    HW128613   2.821   2.747   5.858
 9238SOL    HW228614   2.706   2.732   5.973
 9239SOL     OW28615   6.790   4.514   6.348
 9239SOL    HW128616   6.738   4.598   6.329
 9239SOL    HW228617   6.844   4.526   6.431
 9240SOL     OW28618   5.159   3.232   2.757
 9240SOL    HW128619   5.168   3.191   2.666
 9240SOL    HW228620   5.063   3.253   2.775
 9241SOL     OW28621   6.708   5.767   0.269
 9241SOL    HW128622   6.720   5.692   0.203
 9241SOL    HW228623   6.715   5.854   0.221
 9242SOL     OW28624   1.867   2.227   1.664
 9242SOL    HW128625   1.931   2.283   1.715
 9242SOL    HW228626   1.774   2.264   1.675
 9243SOL     OW28627   1.202   0.727   1.812
 9243SOL    HW128628   1.273   0.670   1.853
 9243SOL    HW228629   1.216   0.822   1.839
 9244SOL     OW28630   2.629   6.287   6.311
 9244SOL    HW128631   2.637   6.384   6.332
 9244SOL    HW228632   2.716   6.241   6.327
 9245SOL     OW28633   0.900   4.232   3.693
 9245SOL    HW128634   0.901   4.133   3.686
 9245SOL    HW228635   0.807   4.263   3.715
 9246SOL     OW28636   6.027   0.556   4.231
 9246SOL    HW128637   5.952   0.613   4.266
 9246SOL    HW228638   6.047   0.580   4.136
 9247SOL     OW28639   3.961   5.298   3.144
 9247SOL    HW128640   3.866   5.276   3.121
 9247SOL    HW228641   4.022   5.228   3.107
 9248SOL     OW28642   2.808   1.808   5.199
 9248SOL    HW128643   2.768   1.774   5.284
 9248SOL    HW228644   2.881   1.874   5.221
 9249SOL     OW28645   3.963   4.858   1.501
 9249SOL    HW128646   4.029   4.931   1.518
 9249SOL    HW228647   3.927   4.824   1.588
 9250SOL     OW28648   6.685   3.676   4.083
 9250SOL    HW128649   6.678   3.599   4.145
 9250SOL    HW228650   6.780   3.690   4.057
 9251SOL     OW28651   4.295   2.513   1.763
 9251SOL    HW128652   4.230   2.444   1.729
 9251SOL    HW228653   4.340   2.478   1.845
 9252SOL     OW28654   5.126   0.535   5.186
 9252SOL    HW128655   5.107   0.586   5.269
 9252SOL    HW228656   5.225   0.529   5.171
 9253SOL     OW28657   5.717   4.858   5.725
 9253SOL    HW128658   5.623   4.852   5.760
 9253SOL    HW228659   5.747   4.768   5.694
 9254SOL     OW28660   5.224   4.715   2.484
 9254SOL    HW128661   5.211   4.777   2.407
 9254SOL    HW228662   5.311   4.667   2.474
 9255SOL     OW28663   5.768   3.492   6.913
 9255SOL    HW128664   5.742   3.399   6.889
 9255SOL    HW228665   5.859   3.492   6.955
 9256SOL     OW28666   2.184   6.820   1.841
 9256SOL    HW128667   2.187   6.878   1.922
 9256SOL    HW228668   2.179   6.877   1.759
 9257SOL     OW28669   6.114   5.834   3.068
 9257SOL    HW128670   6.121   5.737   3.048
 9257SOL    HW228671   6.118   5.849   3.166
 9258SOL     OW28672   3.597   3.403   0.692
 9258SOL    HW128673   3.596   3.394   0.791
 9258SOL    HW228674   3.558   3.491   0.666
 9259SOL     OW28675   1.658   1.530   0.007
 9259SOL    HW128676   1.740   1.571   6.996
 9259SOL    HW228677   1.656   1.547   0.106
 9260SOL     OW28678   6.985   2.648   6.162
 9260SOL    HW128679   6.962   2.740   6.192
 9260SOL    HW228680   6.931   2.625   6.080
 9261SOL     OW28681   4.753   1.050   6.847
 9261SOL    HW128682   4.829   1.041   6.784
 9261SOL    HW228683   4.738   1.147   6.869
 9262SOL     OW28684   0.644   6.655   4.937
 9262SOL    HW128685   0.587   6.581   4.900
 9262SOL    HW228686   0.740   6.629   4.930
 9263SOL     OW28687   3.368   5.444   3.180
 9263SOL    HW128688   3.298   5.379   3.152
 9263SOL    HW228689   3.442   5.395   3.226
 9264SOL     OW28690   4.632   3.252   6.460
 9264SOL    HW128691   4.663   3.337   6.502
 9264SOL    HW228692   4.533   3.248   6.463
 9265SOL     OW28693   4.133   1.977   6.493
 9265SOL    HW128694   4.163   1.894   6.446
 9265SOL    HW228695   4.147   2.056   6.434
 9266SOL     OW28696   0.399   5.490   1.176
 9266SOL    HW128697   0.360   5.553   1.109
 9266SOL    HW228698   0.340   5.409   1.183
 9267SOL     OW28699   0.872   1.948   4.446
 9267SOL    HW128700   0.954   1.990   4.484
 9267SOL    HW228701   0.853   1.862   4.494
 9268SOL     OW28702   0.957   6.473   2.607
 9268SOL    HW128703   0.954   6.561   2.654
 9268SOL    HW228704   0.877   6.419   2.633
 9269SOL     OW28705   4.237   0.249   6.270
 9269SOL    HW128706   4.199   0.284   6.184
 9269SOL    HW228707   4.321   0.299   6.293
 9270SOL     OW28708   3.385   0.740   5.504
 9270SOL    HW128709   3.428   0.827   5.482
 9270SOL    HW228710   3.353   0.696   5.421
 9271SOL     OW28711   0.226   7.016   0.618
 9271SOL    HW128712   0.180   6.999   0.531
 9271SOL    HW228713   0.251   0.086   0.624
 9272SOL     OW28714   0.857   6.552   6.961
 9272SOL    HW128715   0.791   6.476   6.960
 9272SOL    HW228716   0.879   6.575   0.029
 9273SOL     OW28717   5.316   6.159   3.493
 9273SOL    HW128718   5.245   6.227   3.506
 9273SOL    HW228719   5.368   6.179   3.410
 9274SOL     OW28720   6.972   1.977   0.322
 9274SOL    HW128721   0.001   1.907   0.277
 9274SOL    HW228722   7.019   2.065   0.318
 9275SOL     OW28723   0.029   6.759   0.129
 9275SOL    HW128724   6.999   6.679   0.145
 9275SOL    HW228725   0.125   6.731   0.128
 9276SOL     OW28726   2.663   4.533   6.888
 9276SOL    HW128727   2.744   4.565   6.839
 9276SOL    HW228728   2.685   4.446   6.933
 9277SOL     OW28729   3.990   5.013   3.409
 9277SOL    HW128730   4.043   4.932   3.434
 9277SOL    HW228731   4.036   5.095   3.444
 9278SOL     OW28732   0.280   0.570   5.606
 9278SOL    HW128733   0.249   0.475   5.600
 9278SOL    HW228734   0.291   0.608   5.514
 9279SOL     OW28735   3.114   6.558   1.873
 9279SOL    HW128736   3.120   6.622   1.796
 9279SOL    HW228737   3.203   6.515   1.887
 9280SOL     OW28738   2.261   2.094   2.114
 9280SOL    HW128739   2.290   2.084   2.019
 9280SOL    HW228740   2.338   2.128   2.168
 9281SOL     OW28741   3.559   3.751   5.770
 9281SOL    HW128742   3.637   3.721   5.824
 9281SOL    HW228743   3.552   3.851   5.773
 9282SOL     OW28744   4.560   1.536   4.287
 9282SOL    HW128745   4.499   1.457   4.283
 9282SOL    HW228746   4.627   1.523   4.360
 9283SOL     OW28747   5.259   0.411   5.652
 9283SOL    HW128748   5.293   0.490   5.704
 9283SOL    HW228749   5.227   0.341   5.716
 9284SOL     OW28750   3.004   3.443   4.791
 9284SOL    HW128751   2.968   3.380   4.860
 9284SOL    HW228752   3.046   3.522   4.836
 9285SOL     OW28753   5.146   3.151   0.923
 9285SOL    HW128754   5.089   3.173   1.001
 9285SOL    HW228755   5.151   3.229   0.861
 9286SOL     OW28756   4.852   5.637   6.892
 9286SOL    HW128757   4.824   5.578   6.817
 9286SOL    HW228758   4.788   5.627   6.969
 9287SOL     OW28759   3.077   4.526   5.759
 9287SOL    HW128760   3.120   4.582   5.689
 9287SOL    HW228761   2.977   4.536   5.753
 9288SOL     OW28762   4.635   2.128   3.206
 9288SOL    HW128763   4.724   2.173   3.217
 9288SOL    HW228764   4.647   2.044   3.152
 9289SOL     OW28765   4.239   0.741   6.368
 9289SOL    HW128766   4.323   0.758   6.420
 9289SOL    HW228767   4.193   0.660   6.405
 9290SOL     OW28768   6.047   0.726   4.017
 9290SOL    HW128769   5.989   0.785   3.961
 9290SOL    HW228770   6.142   0.739   3.991
 9291SOL     OW28771   1.281   6.471   6.080
 9291SOL    HW128772   1.274   6.438   6.174
 9291SOL    HW228773   1.373   6.507   6.064
 9292SOL     OW28774   1.313   1.218   6.545
 9292SOL    HW128775   1.409   1.243   6.545
 9292SOL    HW228776   1.303   1.124   6.514
 9293SOL     OW28777   5.048   2.826   0.022
 9293SOL    HW128778   4.970   2.802   0.078
 9293SOL    HW228779   5.127   2.770   0.048
 9294SOL     OW28780   4.805   1.094   0.226
 9294SOL    HW128781   4.752   1.153   0.166
 9294SOL    HW228782   4.899   1.087   0.193
 9295SOL     OW28783   6.994   0.797   5.505
 9295SOL    HW128784   0.013   0.840   5.428
 9295SOL    HW228785   0.028   0.794   5.584
 9296SOL     OW28786   2.044   4.007   1.049
 9296SOL    HW128787   2.073   4.099   1.023
 9296SOL    HW228788   2.096   3.939   0.998
 9297SOL     OW28789   0.643   6.549   2.911
 9297SOL    HW128790   0.677   6.519   2.822
 9297SOL    HW228791   0.701   6.510   2.983
 9298SOL     OW28792   0.813   6.717   6.024
 9298SOL    HW128793   0.840   6.813   6.012
 9298SOL    HW228794   0.750   6.710   6.100
 9299SOL     OW28795   1.119   1.241   3.978
 9299SOL    HW128796   1.125   1.330   3.934
 9299SOL    HW228797   1.103   1.253   4.076
 9300SOL     OW28798   0.467   5.085   5.169
 9300SOL    HW128799   0.501   5.043   5.084
 9300SOL    HW228800   0.394   5.149   5.147
 9301SOL     OW28801   0.070   4.466   5.271
 9301SOL    HW128802   0.140   4.461   5.199
 9301SOL    HW228803   7.021   4.406   5.248
 9302SOL     OW28804   2.204   3.111   4.526
 9302SOL    HW128805   2.209   3.133   4.624
 9302SOL    HW228806   2.241   3.019   4.511
 9303SOL     OW28807   3.158   4.455   0.667
 9303SOL    HW128808   3.084   4.414   0.614
 9303SOL    HW228809   3.159   4.415   0.759
 9304SOL     OW28810   4.460   5.200   0.575
 9304SOL    HW128811   4.379   5.245   0.611
 9304SOL    HW228812   4.513   5.264   0.519
 9305SOL     OW28813   3.623   1.379   0.252
 9305SOL    HW128814   3.722   1.364   0.251
 9305SOL    HW228815   3.594   1.406   0.344
 9306SOL     OW28816   0.306   3.783   4.921
 9306SOL    HW128817   0.383   3.721   4.936
 9306SOL    HW228818   0.331   3.851   4.852
 9307SOL     OW28819   1.389   4.124   0.595
 9307SOL    HW128820   1.472   4.180   0.597
 9307SOL    HW228821   1.400   4.045   0.655
 9308SOL     OW28822   0.634   4.744   1.567
 9308SOL    HW128823   0.715   4.685   1.571
 9308SOL    HW228824   0.557   4.698   1.613
 9309SOL     OW28825   4.133   6.862   5.879
 9309SOL    HW128826   4.177   6.941   5.922
 9309SOL    HW228827   4.175   6.778   5.913
 9310SOL     OW28828   5.078   5.896   5.648
 9310SOL    HW128829   5.038   5.946   5.724
 9310SOL    HW228830   5.059   5.798   5.658
 9311SOL     OW28831   4.935   4.224   0.941
 9311SOL    HW128832   4.852   4.183   0.901
 9311SOL    HW228833   4.975   4.161   1.007
 9312SOL     OW28834   1.855   2.075   1.269
 9312SOL    HW128835   1.830   2.171   1.256
 9312SOL    HW228836   1.834   2.023   1.187
 9313SOL     OW28837   0.645   0.846   1.586
 9313SOL    HW128838   0.690   0.927   1.623
 9313SOL    HW228839   0.551   0.843   1.619
 9314SOL     OW28840   6.100   3.328   0.793
 9314SOL    HW128841   6.029   3.393   0.820
 9314SOL    HW228842   6.190   3.367   0.811
 9315SOL     OW28843   6.045   0.807   5.924
 9315SOL    HW128844   6.018   0.819   6.020
 9315SOL    HW228845   6.077   0.713   5.910
 9316SOL     OW28846   6.066   0.059   4.683
 9316SOL    HW128847   6.048   0.135   4.620
 9316SOL    HW228848   6.125   7.020   4.637
 9317SOL     OW28849   3.568   5.303   3.310
 9317SOL    HW128850   3.497   5.257   3.364
 9317SOL    HW228851   3.642   5.333   3.370
 9318SOL     OW28852   4.267   6.152   0.249
 9318SOL    HW128853   4.188   6.112   0.203
 9318SOL    HW228854   4.252   6.153   0.348
 9319SOL     OW28855   2.098   2.854   0.799
 9319SOL    HW128856   2.140   2.866   0.709
 9319SOL    HW228857   2.163   2.880   0.870
 9320SOL     OW28858   4.393   0.158   5.922
 9320SOL    HW128859   4.344   0.124   5.842
 9320SOL    HW228860   4.350   0.243   5.954
 9321SOL     OW28861   1.215   2.113   5.615
 9321SOL    HW128862   1.244   2.018   5.607
 9321SOL    HW228863   1.117   2.116   5.635
 9322SOL     OW28864   6.335   4.864   6.193
 9322SOL    HW128865   6.323   4.801   6.116
 9322SOL    HW228866   6.246   4.884   6.233
 9323SOL     OW28867   2.248   2.166   4.768
 9323SOL    HW128868   2.342   2.180   4.799
 9323SOL    HW228869   2.207   2.255   4.744
 9324SOL     OW28870   1.703   3.671   1.010
 9324SOL    HW128871   1.802   3.674   0.997
 9324SOL    HW228872   1.683   3.635   1.101
 9325SOL     OW28873   0.972   6.382   1.702
 9325SOL    HW128874   0.916   6.340   1.631
 9325SOL    HW228875   1.007   6.470   1.670
 9326SOL     OW28876   3.174   5.409   0.158
 9326SOL    HW128877   3.178   5.504   0.190
 9326SOL    HW228878   3.262   5.364   0.175
 9327SOL     OW28879   4.568   0.245   3.109
 9327SOL    HW128880   4.472   0.266   3.093
 9327SOL    HW228881   4.581   0.212   3.203
 9328SOL     OW28882   2.172   7.027   4.802
 9328SOL    HW128883   2.142   6.937   4.771
 9328SOL    HW228884   2.253   7.018   4.859
 9329SOL     OW28885   6.887   5.446   6.986
 9329SOL    HW128886   6.857   5.372   6.926
 9329SOL    HW228887   6.956   5.502   6.940
 9330SOL     OW28888   0.582   6.824   6.523
 9330SOL    HW128889   0.646   6.880   6.469
 9330SOL    HW228890   0.500   6.878   6.542
 9331SOL     OW28891   1.839   2.475   5.816
 9331SOL    HW128892   1.834   2.469   5.916
 9331SOL    HW228893   1.758   2.521   5.782
 9332SOL     OW28894   4.052   5.525   0.385
 9332SOL    HW128895   4.090   5.587   0.315
 9332SOL    HW228896   4.023   5.440   0.341
 9333SOL     OW28897   3.876   5.567   0.584
 9333SOL    HW128898   3.929   5.545   0.502
 9333SOL    HW228899   3.801   5.501   0.592
 9334SOL     OW28900   5.445   0.353   4.182
 9334SOL    HW128901   5.486   0.335   4.271
 9334SOL    HW228902   5.436   0.267   4.131
 9335SOL     OW28903   1.840   2.062   0.421
 9335SOL    HW128904   1.772   2.082   0.351
 9335SOL    HW228905   1.929   2.047   0.378
 9336SOL     OW28906   5.538   7.021   4.275
 9336SOL    HW128907   5.629   6.994   4.243
 9336SOL    HW228908   5.516   6.970   4.358
 9337SOL     OW28909   4.764   0.846   7.025
 9337SOL    HW128910   4.768   0.892   0.087
 9337SOL    HW228911   4.780   0.914   6.953
 9338SOL     OW28912   6.850   5.834   0.513
 9338SOL    HW128913   6.910   5.760   0.484
 9338SOL    HW228914   6.771   5.839   0.452
 9339SOL     OW28915   5.712   5.812   0.477
 9339SOL    HW128916   5.790   5.797   0.537
 9339SOL    HW228917   5.681   5.907   0.485
 9340SOL     OW28918   3.941   4.880   2.747
 9340SOL    HW128919   3.888   4.882   2.663
 9340SOL    HW228920   3.882   4.900   2.825
 9341SOL     OW28921   6.547   4.515   6.615
 9341SOL    HW128922   6.604   4.590   6.580
 9341SOL    HW228923   6.605   4.438   6.642
 9342SOL     OW28924   2.798   0.460   4.521
 9342SOL    HW128925   2.844   0.532   4.572
 9342SOL    HW228926   2.757   0.395   4.585
 9343SOL     OW28927   5.039   3.409   1.920
 9343SOL    HW128928   4.978   3.488   1.926
 9343SOL    HW228929   5.013   3.353   1.840
 9344SOL     OW28930   5.047   5.641   6.283
 9344SOL    HW128931   5.136   5.611   6.248
 9344SOL    HW228932   4.974   5.591   6.236
 9345SOL     OW28933   6.102   5.141   6.712
 9345SOL    HW128934   6.056   5.229   6.704
 9345SOL    HW228935   6.146   5.134   6.801
 9346SOL     OW28936   4.774   6.208   2.428
 9346SOL    HW128937   4.863   6.254   2.430
 9346SOL    HW228938   4.774   6.139   2.356
 9347SOL     OW28939   3.687   5.953   0.539
 9347SOL    HW128940   3.622   5.882   0.516
 9347SOL    HW228941   3.779   5.925   0.510
 9348SOL     OW28942   2.813   5.235   3.033
 9348SOL    HW128943   2.829   5.292   2.952
 9348SOL    HW228944   2.835   5.288   3.115
 9349SOL     OW28945   6.132   5.897   2.049
 9349SOL    HW128946   6.140   5.893   1.950
 9349SOL    HW228947   6.038   5.919   2.075
 9350SOL     OW28948   0.100   1.591   4.177
 9350SOL    HW128949   0.155   1.661   4.131
 9350SOL    HW228950   0.159   1.535   4.235
 9351SOL     OW28951   2.786   0.209   6.215
 9351SOL    HW128952   2.693   0.232   6.185
 9351SOL    HW228953   2.804   0.252   6.303
 9352SOL     OW28954   1.794   3.172   5.811
 9352SOL    HW128955   1.715   3.112   5.796
 9352SOL    HW228956   1.792   3.247   5.745
 9353SOL     OW28957   1.554   4.241   1.951
 9353SOL    HW128958   1.499   4.158   1.942
 9353SOL    HW228959   1.636   4.221   2.004
 9354SOL     OW28960   5.911   1.574   1.007
 9354SOL    HW128961   5.854   1.517   1.066
 9354SOL    HW228962   5.907   1.539   0.913
 9355SOL     OW28963   6.279   1.126   4.034
 9355SOL    HW128964   6.286   1.162   4.127
 9355SOL    HW228965   6.362   1.075   4.011
 9356SOL     OW28966   4.744   5.386   2.242
 9356SOL    HW128967   4.723   5.463   2.182
 9356SOL    HW228968   4.664   5.365   2.299
 9357SOL     OW28969   2.119   4.145   6.861
 9357SOL    HW128970   2.048   4.102   6.917
 9357SOL    HW228971   2.173   4.073   6.816
 9358SOL     OW28972   5.813   3.423   1.632
 9358SOL    HW128973   5.909   3.395   1.641
 9358SOL    HW228974   5.779   3.395   1.543
 9359SOL     OW28975   0.478   3.704   5.254
 9359SOL    HW128976   0.430   3.791   5.263
 9359SOL    HW228977   0.558   3.703   5.314
 9360SOL     OW28978   0.930   0.294   5.842
 9360SOL    HW128979   0.964   0.201   5.845
 9360SOL    HW228980   0.902   0.323   5.933
 9361SOL     OW28981   2.385   6.239   3.373
 9361SOL    HW128982   2.439   6.282   3.445
 9361SOL    HW228983   2.440   6.230   3.290
 9362SOL     OW28984   1.529   1.079   1.947
 9362SOL    HW128985   1.455   1.100   1.882
 9362SOL    HW228986   1.506   0.996   1.998
 9363SOL     OW28987   4.374   5.246   2.055
 9363SOL    HW128988   4.287   5.236   2.105
 9363SOL    HW228989   4.415   5.334   2.078
 9364SOL     OW28990   4.079   3.478   5.996
 9364SOL    HW128991   4.064   3.547   6.068
 9364SOL    HW228992   4.176   3.470   5.977
 9365SOL     OW28993   2.734   1.575   5.048
 9365SOL    HW128994   2.717   1.580   4.949
 9365SOL    HW228995   2.774   1.661   5.080
 9366SOL     OW28996   3.117   1.586   6.528
 9366SOL    HW128997   3.046   1.624   6.588
 9366SOL    HW228998   3.159   1.506   6.572
 9367SOL     OW28999   0.141   5.840   3.474
 9367SOL    HW129000   0.163   5.937   3.478
 9367SOL    HW229001   0.089   5.821   3.390
 9368SOL     OW29002   3.065   1.992   3.755
 9368SOL    HW129003   2.988   2.031   3.805
 9368SOL    HW229004   3.098   2.058   3.688
 9369SOL     OW29005   0.795   0.381   6.072
 9369SOL    HW129006   0.703   0.379   6.032
 9369SOL    HW229007   0.834   0.472   6.062
 9370SOL     OW29008   5.090   0.346   2.485
 9370SOL    HW129009   5.077   0.258   2.530
 9370SOL    HW229010   5.001   0.384   2.460
 9371SOL     OW29011   2.072   4.703   0.165
 9371SOL    HW129012   2.143   4.688   0.096
 9371SOL    HW229013   2.065   4.800   0.186
 9372SOL     OW29014   5.639   5.877   3.197
 9372SOL    HW129015   5.672   5.896   3.290
 9372SOL    HW229016   5.580   5.796   3.198
 9373SOL     OW29017   4.902   2.172   2.418
 9373SOL    HW129018   4.997   2.199   2.407
 9373SOL    HW229019   4.887   2.139   2.511
 9374SOL     OW29020   6.739   3.274   6.826
 9374SOL    HW129021   6.737   3.182   6.864
 9374SOL    HW229022   6.744   3.269   6.726
 9375SOL     OW29023   7.021   2.207   3.089
 9375SOL    HW129024   6.982   2.118   3.112
 9375SOL    HW229025   7.026   2.217   2.990
 9376SOL     OW29026   2.810   3.799   1.219
 9376SOL    HW129027   2.732   3.747   1.253
 9376SOL    HW229028   2.886   3.737   1.199
 9377SOL     OW29029   1.350   5.894   3.552
 9377SOL    HW129030   1.319   5.939   3.635
 9377SOL    HW229031   1.420   5.951   3.508
 9378SOL     OW29032   0.613   0.309   5.222
 9378SOL    HW129033   0.595   0.381   5.155
 9378SOL    HW229034   0.710   0.284   5.219
 9379SOL     OW29035   4.560   4.879   5.112
 9379SOL    HW129036   4.575   4.976   5.133
 9379SOL    HW229037   4.472   4.869   5.066
 9380SOL     OW29038   6.313   4.613   5.019
 9380SOL    HW129039   6.350   4.581   4.932
 9380SOL    HW229040   6.335   4.710   5.031
 9381SOL     OW29041   2.198   3.205   5.939
 9381SOL    HW129042   2.172   3.225   5.845
 9381SOL    HW229043   2.125   3.232   6.001
 9382SOL     OW29044   3.624   1.566   3.496
 9382SOL    HW129045   3.718   1.538   3.512
 9382SOL    HW229046   3.610   1.659   3.529
 9383SOL     OW29047   2.533   6.186   4.439
 9383SOL    HW129048   2.475   6.156   4.363
 9383SOL    HW229049   2.591   6.110   4.469
 9384SOL     OW29050   3.315   5.873   1.674
 9384SOL    HW129051   3.301   5.907   1.581
 9384SOL    HW229052   3.346   5.778   1.672
 9385SOL     OW29053   4.893   1.332   2.690
 9385SOL    HW129054   4.953   1.404   2.724
 9385SOL    HW229055   4.801   1.345   2.728
 9386SOL     OW29056   1.930   6.582   5.086
 9386SOL    HW129057   1.939   6.677   5.115
 9386SOL    HW229058   1.972   6.522   5.154
 9387SOL     OW29059   3.032   1.003   6.803
 9387SOL    HW129060   3.037   1.078   6.737
 9387SOL    HW229061   2.953   0.946   6.782
 9388SOL     OW29062   2.012   5.258   2.585
 9388SOL    HW129063   1.916   5.247   2.608
 9388SOL    HW229064   2.066   5.185   2.627
 9389SOL     OW29065   1.824   7.020   5.103
 9389SOL    HW129066   1.902   6.972   5.143
 9389SOL    HW229067   1.857   0.069   5.047
 9390SOL     OW29068   3.961   5.388   4.924
 9390SOL    HW129069   4.052   5.350   4.911
 9390SOL    HW229070   3.929   5.430   4.839
 9391SOL     OW29071   2.418   0.727   4.861
 9391SOL    HW129072   2.324   0.757   4.844
 9391SOL    HW229073   2.420   0.665   4.939
 9392SOL     OW29074   0.042   0.566   5.186
 9392SOL    HW129075   0.122   0.610   5.225
 9392SOL    HW229076   7.000   0.554   5.257
 9393SOL     OW29077   2.715   0.636   5.505
 9393SOL    HW129078   2.684   0.541   5.500
 9393SOL    HW229079   2.640   0.697   5.479
 9394SOL     OW29080   6.852   1.719   2.073
 9394SOL    HW129081   6.904   1.669   2.004
 9394SOL    HW229082   6.761   1.740   2.038
 9395SOL     OW29083   2.712   2.294   0.115
 9395SOL    HW129084   2.666   2.380   0.090
 9395SOL    HW229085   2.771   2.266   0.039
 9396SOL     OW29086   0.904   5.323   3.263
 9396SOL    HW129087   1.001   5.310   3.245
 9396SOL    HW229088   0.891   5.359   3.355
 9397SOL     OW29089   2.979   0.315   0.804
 9397SOL    HW129090   2.928   0.366   0.734
 9397SOL    HW229091   3.077   0.324   0.787
 9398SOL     OW29092   1.546   0.455   5.502
 9398SOL    HW129093   1.638   0.450   5.463
 9398SOL    HW229094   1.504   0.364   5.499
 9399SOL     OW29095   0.495   1.639   0.241
 9399SOL    HW129096   0.544   1.691   0.171
 9399SOL    HW229097   0.443   1.702   0.298
 9400SOL     OW29098   5.049   2.267   1.569
 9400SOL    HW129099   5.066   2.255   1.667
 9400SOL    HW229100   5.123   2.225   1.517
 9401SOL     OW29101   4.318   6.742   3.203
 9401SOL    HW129102   4.291   6.819   3.260
 9401SOL    HW229103   4.284   6.657   3.244
 9402SOL     OW29104   1.139   5.185   4.032
 9402SOL    HW129105   1.191   5.121   4.088
 9402SOL    HW229106   1.107   5.261   4.090
 9403SOL     OW29107   6.028   1.413   3.338
 9403SOL    HW129108   6.075   1.456   3.414
 9403SOL    HW229109   5.933   1.395   3.363
 9404SOL     OW29110   0.698   3.106   5.887
 9404SOL    HW129111   0.781   3.159   5.870
 9404SOL    HW229112   0.723   3.012   5.914
 9405SOL     OW29113   0.287   5.869   2.343
 9405SOL    HW129114   0.227   5.819   2.406
 9405SOL    HW229115   0.376   5.824   2.338
 9406SOL     OW29116   6.836   3.063   6.158
 9406SOL    HW129117   6.790   2.995   6.214
 9406SOL    HW229118   6.900   3.116   6.214
 9407SOL     OW29119   2.449   5.223   3.293
 9407SOL    HW129120   2.495   5.295   3.345
 9407SOL    HW229121   2.358   5.255   3.266
 9408SOL     OW29122   4.042   1.599   6.204
 9408SOL    HW129123   4.110   1.539   6.163
 9408SOL    HW229124   3.985   1.640   6.131
 9409SOL     OW29125   5.796   4.486   6.276
 9409SOL    HW129126   5.718   4.508   6.334
 9409SOL    HW229127   5.763   4.442   6.192
 9410SOL     OW29128   2.827   6.328   2.107
 9410SOL    HW129129   2.843   6.388   2.029
 9410SOL    HW229130   2.914   6.304   2.151
 9411SOL     OW29131   3.976   3.907   1.662
 9411SOL    HW129132   3.980   3.882   1.565
 9411SOL    HW229133   3.883   3.935   1.686
 9412SOL     OW29134   0.382   3.078   1.908
 9412SOL    HW129135   0.303   3.135   1.886
 9412SOL    HW229136   0.399   3.079   2.007
 9413SOL     OW29137   3.634   6.159   4.393
 9413SOL    HW129138   3.639   6.060   4.410
 9413SOL    HW229139   3.722   6.201   4.415
 9414SOL     OW29140   3.224   0.873   3.753
 9414SOL    HW129141   3.224   0.785   3.705
 9414SOL    HW229142   3.146   0.876   3.816
 9415SOL     OW29143   2.652   0.312   2.295
 9415SOL    HW129144   2.586   0.343   2.227
 9415SOL    HW229145   2.718   0.385   2.313
 9416SOL     OW29146   0.752   1.481   0.997
 9416SOL    HW129147   0.792   1.572   0.993
 9416SOL    HW229148   0.689   1.469   0.921
 9417SOL     OW29149   3.659   6.546   5.578
 9417SOL    HW129150   3.654   6.446   5.575
 9417SOL    HW229151   3.747   6.575   5.615
 9418SOL     OW29152   3.032   6.305   1.476
 9418SOL    HW129153   3.117   6.355   1.486
 9418SOL    HW229154   3.051   6.210   1.452
 9419SOL     OW29155   3.163   5.035   5.678
 9419SOL    HW129156   3.158   4.964   5.608
 9419SOL    HW229157   3.140   4.996   5.767
 9420SOL     OW29158   0.395   2.657   4.465
 9420SOL    HW129159   0.336   2.587   4.426
 9420SOL    HW229160   0.379   2.663   4.563
 9421SOL     OW29161   2.040   6.267   4.962
 9421SOL    HW129162   2.061   6.227   4.873
 9421SOL    HW229163   2.098   6.347   4.977
 9422SOL     OW29164   4.598   6.427   2.673
 9422SOL    HW129165   4.652   6.345   2.690
 9422SOL    HW229166   4.585   6.438   2.574
 9423SOL     OW29167   4.383   0.745   3.288
 9423SOL    HW129168   4.442   0.819   3.322
 9423SOL    HW229169   4.414   0.717   3.197
 9424SOL     OW29170   4.692   1.147   5.223
 9424SOL    HW129171   4.643   1.074   5.269
 9424SOL    HW229172   4.756   1.190   5.286
 9425SOL     OW29173   0.290   3.682   6.363
 9425SOL    HW129174   0.302   3.703   6.460
 9425SOL    HW229175   0.307   3.585   6.346
 9426SOL     OW29176   2.874   2.008   0.191
 9426SOL    HW129177   2.801   2.076   0.183
 9426SOL    HW229178   2.934   2.032   0.267
 9427SOL     OW29179   2.877   5.248   4.653
 9427SOL    HW129180   2.876   5.275   4.749
 9427SOL    HW229181   2.967   5.266   4.614
 9428SOL     OW29182   4.960   0.994   1.212
 9428SOL    HW129183   4.948   1.065   1.143
 9428SOL    HW229184   5.044   1.011   1.264
 9429SOL     OW29185   1.781   4.172   2.092
 9429SOL    HW129186   1.800   4.243   2.159
 9429SOL    HW229187   1.863   4.116   2.077
 9430SOL     OW29188   6.750   4.492   1.983
 9430SOL    HW129189   6.838   4.534   1.961
 9430SOL    HW229190   6.731   4.504   2.081
 9431SOL     OW29191   5.591   3.562   0.957
 9431SOL    HW129192   5.542   3.532   0.875
 9431SOL    HW229193   5.539   3.536   1.038
 9432SOL     OW29194   5.723   0.990   2.769
 9432SOL    HW129195   5.631   0.953   2.782
 9432SOL    HW229196   5.789   0.932   2.817
 9433SOL     OW29197   3.608   4.925   3.830
 9433SOL    HW129198   3.677   4.893   3.894
 9433SOL    HW229199   3.643   4.919   3.736
 9434SOL     OW29200   5.286   5.261   3.092
 9434SOL    HW129201   5.199   5.244   3.139
 9434SOL    HW229202   5.312   5.179   3.041
 9435SOL     OW29203   0.409   2.248   4.624
 9435SOL    HW129204   0.404   2.234   4.526
 9435SOL    HW229205   0.393   2.161   4.672
 9436SOL     OW29206   1.449   3.542   1.893
 9436SOL    HW129207   1.418   3.620   1.947
 9436SOL    HW229208   1.539   3.563   1.853
 9437SOL     OW29209   2.175   6.630   3.562
 9437SOL    HW129210   2.158   6.716   3.611
 9437SOL    HW229211   2.090   6.578   3.557
 9438SOL     OW29212   0.449   6.958   1.896
 9438SOL    HW129213   0.407   6.978   1.807
 9438SOL    HW229214   0.483   6.864   1.896
 9439SOL     OW29215   0.566   2.375   1.809
 9439SOL    HW129216   0.627   2.339   1.879
 9439SOL    HW229217   0.604   2.458   1.770
 9440SOL     OW29218   4.350   5.368   4.107
 9440SOL    HW129219   4.372   5.401   4.199
 9440SOL    HW229220   4.432   5.373   4.049
 9441SOL     OW29221   1.530   3.383   4.955
 9441SOL    HW129222   1.456   3.367   4.890
 9441SOL    HW229223   1.601   3.439   4.912
 9442SOL     OW29224   4.433   3.199   0.038
 9442SOL    HW129225   4.521   3.169   0.001
 9442SOL    HW229226   4.410   3.289   0.001
 9443SOL     OW29227   2.147   5.200   1.365
 9443SOL    HW129228   2.053   5.177   1.389
 9443SOL    HW229229   2.195   5.230   1.447
 9444SOL     OW29230   1.369   4.006   6.571
 9444SOL    HW129231   1.423   3.923   6.577
 9444SOL    HW229232   1.281   3.993   6.617
 9445SOL     OW29233   5.693   3.737   2.632
 9445SOL    HW129234   5.736   3.747   2.722
 9445SOL    HW229235   5.594   3.742   2.642
 9446SOL     OW29236   6.759   6.490   4.105
 9446SOL    HW129237   6.661   6.491   4.127
 9446SOL    HW229238   6.806   6.562   4.156
 9447SOL     OW29239   6.425   3.679   3.299
 9447SOL    HW129240   6.326   3.686   3.316
 9447SOL    HW229241   6.450   3.583   3.285
 9448SOL     OW29242   6.771   6.879   6.131
 9448SOL    HW129243   6.768   6.965   6.079
 9448SOL    HW229244   6.686   6.868   6.182
 9449SOL     OW29245   6.758   5.935   6.667
 9449SOL    HW129246   6.764   6.033   6.650
 9449SOL    HW229247   6.724   5.889   6.585
 9450SOL     OW29248   3.435   5.317   5.325
 9450SOL    HW129249   3.429   5.339   5.227
 9450SOL    HW229250   3.417   5.400   5.378
 9451SOL     OW29251   3.734   6.267   6.216
 9451SOL    HW129252   3.716   6.305   6.125
 9451SOL    HW229253   3.730   6.167   6.212
 9452SOL     OW29254   1.000   3.686   0.406
 9452SOL    HW129255   1.019   3.728   0.494
 9452SOL    HW229256   1.085   3.668   0.358
 9453SOL     OW29257   2.362   5.169   3.872
 9453SOL    HW129258   2.415   5.251   3.893
 9453SOL    HW229259   2.267   5.195   3.854
 9454SOL     OW29260   2.138   3.718   6.737
 9454SOL    HW129261   2.203   3.713   6.813
 9454SOL    HW229262   2.074   3.642   6.743
 9455SOL     OW29263   4.569   1.747   2.863
 9455SOL    HW129264   4.567   1.732   2.765
 9455SOL    HW229265   4.498   1.692   2.907
 9456SOL     OW29266   0.757   3.751   0.741
 9456SOL    HW129267   0.853   3.776   0.724
 9456SOL    HW229268   0.751   3.654   0.763
 9457SOL     OW29269   2.319   4.148   5.316
 9457SOL    HW129270   2.374   4.077   5.272
 9457SOL    HW229271   2.226   4.146   5.280
 9458SOL     OW29272   1.196   2.880   6.606
 9458SOL    HW129273   1.217   2.926   6.520
 9458SOL    HW229274   1.262   2.909   6.676
 9459SOL     OW29275   5.677   4.921   2.345
 9459SOL    HW129276   5.700   4.841   2.400
 9459SOL    HW229277   5.748   4.991   2.357
 9460SOL     OW29278   6.698   2.564   4.415
 9460SOL    HW129279   6.707   2.663   4.412
 9460SOL    HW229280   6.715   2.526   4.324
 9461SOL     OW29281   6.870   1.931   2.703
 9461SOL    HW129282   6.806   2.002   2.674
 9461SOL    HW229283   6.923   1.900   2.624
 9462SOL     OW29284   2.076   3.740   3.128
 9462SOL    HW129285   2.125   3.779   3.207
 9462SOL    HW229286   2.031   3.655   3.156
 9463SOL     OW29287   0.029   0.552   1.462
 9463SOL    HW129288   0.018   0.633   1.520
 9463SOL    HW229289   0.113   0.560   1.409
 9464SOL     OW29290   6.307   6.751   0.994
 9464SOL    HW129291   6.232   6.707   0.945
 9464SOL    HW229292   6.288   6.750   1.092
 9465SOL     OW29293   0.436   6.297   3.255
 9465SOL    HW129294   0.381   6.375   3.224
 9465SOL    HW229295   0.427   6.286   3.354
 9466SOL     OW29296   3.848   4.416   5.486
 9466SOL    HW129297   3.770   4.357   5.509
 9466SOL    HW229298   3.884   4.390   5.396
 9467SOL     OW29299   1.329   2.416   1.318
 9467SOL    HW129300   1.271   2.344   1.280
 9467SOL    HW229301   1.324   2.415   1.418
 9468SOL     OW29302   5.733   2.567   6.245
 9468SOL    HW129303   5.766   2.523   6.329
 9468SOL    HW229304   5.662   2.511   6.203
 9469SOL     OW29305   6.087   6.188   1.513
 9469SOL    HW129306   6.103   6.264   1.450
 9469SOL    HW229307   5.988   6.173   1.522
 9470SOL     OW29308   4.804   4.385   5.470
 9470SOL    HW129309   4.744   4.375   5.549
 9470SOL    HW229310   4.885   4.437   5.496
 9471SOL     OW29311   6.306   1.510   4.118
 9471SOL    HW129312   6.256   1.522   4.032
 9471SOL    HW229313   6.384   1.450   4.102
 9472SOL     OW29314   5.883   3.027   4.463
 9472SOL    HW129315   5.823   3.103   4.435
 9472SOL    HW229316   5.978   3.059   4.464
 9473SOL     OW29317   2.466   5.307   5.696
 9473SOL    HW129318   2.449   5.222   5.647
 9473SOL    HW229319   2.553   5.301   5.744
 9474SOL     OW29320   6.859   3.229   0.171
 9474SOL    HW129321   6.920   3.276   0.234
 9474SOL    HW229322   6.829   3.142   0.212
 9475SOL     OW29323   2.958   3.643   0.279
 9475SOL    HW129324   2.944   3.700   0.360
 9475SOL    HW229325   2.907   3.557   0.289
 9476SOL     OW29326   2.889   3.254   4.971
 9476SOL    HW129327   2.808   3.195   4.965
 9476SOL    HW229328   2.971   3.197   4.970
 9477SOL     OW29329   0.136   3.725   2.600
 9477SOL    HW129330   0.224   3.677   2.605
 9477SOL    HW229331   0.151   3.817   2.566
 9478SOL     OW29332   5.289   3.313   5.694
 9478SOL    HW129333   5.267   3.391   5.635
 9478SOL    HW229334   5.386   3.289   5.684
 9479SOL     OW29335   5.339   6.547   6.907
 9479SOL    HW129336   5.349   6.643   6.877
 9479SOL    HW229337   5.277   6.500   6.845
 9480SOL     OW29338   5.283   3.976   0.817
 9480SOL    HW129339   5.334   3.996   0.900
 9480SOL    HW229340   5.255   3.880   0.818
 9481SOL     OW29341   5.689   3.671   1.672
 9481SOL    HW129342   5.635   3.680   1.756
 9481SOL    HW229343   5.741   3.586   1.676
 9482SOL     OW29344   6.761   0.672   3.161
 9482SOL    HW129345   6.749   0.648   3.064
 9482SOL    HW229346   6.714   0.758   3.179
 9483SOL     OW29347   1.835   1.374   1.066
 9483SOL    HW129348   1.789   1.366   1.155
 9483SOL    HW229349   1.852   1.471   1.047
 9484SOL     OW29350   4.364   1.414   3.070
 9484SOL    HW129351   4.443   1.466   3.101
 9484SOL    HW229352   4.314   1.466   3.001
 9485SOL     OW29353   0.895   0.335   2.258
 9485SOL    HW129354   0.937   0.313   2.346
 9485SOL    HW229355   0.964   0.372   2.196
 9486SOL     OW29356   2.558   5.120   1.505
 9486SOL    HW129357   2.593   5.132   1.412
 9486SOL    HW229358   2.547   5.023   1.525
 9487SOL     OW29359   2.930   3.301   3.468
 9487SOL    HW129360   2.951   3.382   3.414
 9487SOL    HW229361   2.845   3.316   3.519
 9488SOL     OW29362   1.909   6.188   1.193
 9488SOL    HW129363   1.882   6.132   1.271
 9488SOL    HW229364   1.858   6.159   1.112
 9489SOL     OW29365   3.909   4.155   1.513
 9489SOL    HW129366   3.839   4.126   1.447
 9489SOL    HW229367   3.952   4.074   1.553
 9490SOL     OW29368   6.479   5.601   0.600
 9490SOL    HW129369   6.454   5.685   0.553
 9490SOL    HW229370   6.442   5.522   0.551
 9491SOL     OW29371   6.887   4.624   3.652
 9491SOL    HW129372   6.830   4.705   3.663
 9491SOL    HW229373   6.941   4.609   3.735
 9492SOL     OW29374   3.615   2.916   2.977
 9492SOL    HW129375   3.601   3.014   2.966
 9492SOL    HW229376   3.537   2.876   3.025
 9493SOL     OW29377   4.243   5.291   3.753
 9493SOL    HW129378   4.166   5.339   3.796
 9493SOL    HW229379   4.263   5.207   3.804
 9494SOL     OW29380   4.583   4.607   1.307
 9494SOL    HW129381   4.506   4.569   1.360
 9494SOL    HW229382   4.594   4.703   1.330
 9495SOL     OW29383   5.888   1.967   4.049
 9495SOL    HW129384   5.903   1.902   4.123
 9495SOL    HW229385   5.973   2.015   4.028
 9496SOL     OW29386   5.937   4.778   1.035
 9496SOL    HW129387   5.898   4.822   1.115
 9496SOL    HW229388   5.905   4.825   0.952
 9497SOL     OW29389   6.189   4.733   0.044
 9497SOL    HW129390   6.275   4.683   0.038
 9497SOL    HW229391   6.121   4.691   7.012
 9498SOL     OW29392   5.410   0.220   5.070
 9498SOL    HW129393   5.403   0.291   5.140
 9498SOL    HW229394   5.322   0.207   5.026
 9499SOL     OW29395   2.260   5.062   6.273
 9499SOL    HW129396   2.191   5.049   6.345
 9499SOL    HW229397   2.351   5.059   6.313
 9500SOL     OW29398   4.397   6.954   1.410
 9500SOL    HW129399   4.331   6.881   1.432
 9500SOL    HW229400   4.348   0.009   1.384
 9501SOL     OW29401   3.190   1.442   4.694
 9501SOL    HW129402   3.289   1.448   4.704
 9501SOL    HW229403   3.146   1.471   4.778
 9502SOL     OW29404   0.405   2.103   4.994
 9502SOL    HW129405   0.336   2.175   4.994
 9502SOL    HW229406   0.389   2.041   4.917
 9503SOL     OW29407   0.590   1.502   0.774
 9503SOL    HW129408   0.594   1.403   0.756
 9503SOL    HW229409   0.494   1.531   0.777
 9504SOL     OW29410   0.446   1.955   0.825
 9504SOL    HW129411   0.540   1.966   0.857
 9504SOL    HW229412   0.401   1.883   0.878
 9505SOL     OW29413   5.360   4.032   3.751
 9505SOL    HW129414   5.430   3.964   3.768
 9505SOL    HW229415   5.318   4.015   3.662
 9506SOL     OW29416   0.388   2.903   6.660
 9506SOL    HW129417   0.338   2.930   6.742
 9506SOL    HW229418   0.328   2.849   6.601
 9507SOL     OW29419   1.330   1.272   3.453
 9507SOL    HW129420   1.267   1.254   3.528
 9507SOL    HW229421   1.394   1.345   3.479
 9508SOL     OW29422   6.274   3.594   1.081
 9508SOL    HW129423   6.197   3.609   1.142
 9508SOL    HW229424   6.302   3.498   1.086
 9509SOL     OW29425   0.954   0.450   5.078
 9509SOL    HW129426   0.904   0.395   5.011
 9509SOL    HW229427   0.898   0.460   5.161
 9510SOL     OW29428   0.875   4.176   2.139
 9510SOL    HW129429   0.859   4.080   2.161
 9510SOL    HW229430   0.794   4.230   2.161
 9511SOL     OW29431   0.746   1.485   6.875
 9511SOL    HW129432   0.789   1.497   6.965
 9511SOL    HW229433   0.672   1.551   6.865
 9512SOL     OW29434   5.820   1.235   1.543
 9512SOL    HW129435   5.909   1.241   1.499
 9512SOL    HW229436   5.827   1.267   1.638
 9513SOL     OW29437   1.859   3.481   5.251
 9513SOL    HW129438   1.840   3.560   5.310
 9513SOL    HW229439   1.944   3.437   5.281
 9514SOL     OW29440   2.131   4.329   0.063
 9514SOL    HW129441   2.160   4.423   0.046
 9514SOL    HW229442   2.136   4.276   7.005
 9515SOL     OW29443   1.297   5.725   0.408
 9515SOL    HW129444   1.325   5.796   0.344
 9515SOL    HW229445   1.316   5.635   0.368
 9516SOL     OW29446   5.878   3.625   5.103
 9516SOL    HW129447   5.919   3.616   5.194
 9516SOL    HW229448   5.937   3.682   5.045
 9517SOL     OW29449   1.257   4.789   0.526
 9517SOL    HW129450   1.330   4.819   0.465
 9517SOL    HW229451   1.260   4.689   0.535
 9518SOL     OW29452   1.357   2.119   7.013
 9518SOL    HW129453   1.305   2.186   6.962
 9518SOL    HW229454   1.446   2.105   6.969
 9519SOL     OW29455   3.730   4.098   4.056
 9519SOL    HW129456   3.688   4.131   4.140
 9519SOL    HW229457   3.721   4.168   3.984
 9520SOL     OW29458   0.523   1.210   2.880
 9520SOL    HW129459   0.565   1.128   2.918
 9520SOL    HW229460   0.593   1.264   2.833
 9521SOL     OW29461   3.451   4.416   1.231
 9521SOL    HW129462   3.483   4.507   1.259
 9521SOL    HW229463   3.482   4.348   1.296
 9522SOL     OW29464   4.311   5.587   1.628
 9522SOL    HW129465   4.282   5.605   1.722
 9522SOL    HW229466   4.275   5.660   1.568
 9523SOL     OW29467   2.586   4.926   4.950
 9523SOL    HW129468   2.536   4.910   5.036
 9523SOL    HW229469   2.624   4.839   4.917
 9524SOL     OW29470   2.363   2.923   0.452
 9524SOL    HW129471   2.356   3.013   0.495
 9524SOL    HW229472   2.293   2.862   0.490
 9525SOL     OW29473   2.292   2.116   5.755
 9525SOL    HW129474   2.298   2.153   5.662
 9525SOL    HW229475   2.383   2.100   5.791
 9526SOL     OW29476   6.124   4.301   1.416
 9526SOL    HW129477   6.139   4.244   1.335
 9526SOL    HW229478   6.195   4.372   1.420
 9527SOL     OW29479   1.331   0.417   4.665
 9527SOL    HW129480   1.256   0.463   4.616
 9527SOL    HW229481   1.320   0.318   4.657
 9528SOL     OW29482   6.923   1.043   0.527
 9528SOL    HW129483   6.935   0.992   0.442
 9528SOL    HW229484   7.008   1.043   0.579
 9529SOL     OW29485   5.998   3.524   6.285
 9529SOL    HW129486   5.921   3.588   6.292
 9529SOL    HW229487   5.980   3.460   6.210
 9530SOL     OW29488   1.512   3.176   3.561
 9530SOL    HW129489   1.471   3.094   3.523
 9530SOL    HW229490   1.445   3.250   3.560
 9531SOL     OW29491   4.862   4.557   2.343
 9531SOL    HW129492   4.891   4.533   2.436
 9531SOL    HW229493   4.786   4.499   2.315
 9532SOL     OW29494   0.056   5.815   0.851
 9532SOL    HW129495   7.008   5.752   0.833
 9532SOL    HW229496   0.020   5.900   0.890
 9533SOL     OW29497   0.594   6.083   4.869
 9533SOL    HW129498   0.651   6.005   4.841
 9533SOL    HW229499   0.509   6.083   4.817
 9534SOL     OW29500   6.546   4.011   5.182
 9534SOL    HW129501   6.495   3.955   5.117
 9534SOL    HW229502   6.644   3.997   5.168
 9535SOL     OW29503   1.785   0.501   5.782
 9535SOL    HW129504   1.871   0.515   5.830
 9535SOL    HW229505   1.787   0.552   5.696
 9536SOL     OW29506   3.024   4.050   5.004
 9536SOL    HW129507   2.951   4.118   4.992
 9536SOL    HW229508   2.984   3.962   5.028
 9537SOL     OW29509   2.622   0.249   4.074
 9537SOL    HW129510   2.534   0.222   4.114
 9537SOL    HW229511   2.663   0.171   4.028
 9538SOL     OW29512   5.251   1.428   4.018
 9538SOL    HW129513   5.266   1.524   3.992
 9538SOL    HW229514   5.338   1.387   4.046
 9539SOL     OW29515   3.463   3.750   4.594
 9539SOL    HW129516   3.451   3.720   4.500
 9539SOL    HW229517   3.434   3.678   4.657
 9540SOL     OW29518   5.913   5.091   4.419
 9540SOL    HW129519   5.982   5.021   4.402
 9540SOL    HW229520   5.949   5.181   4.394
 9541SOL     OW29521   3.230   0.406   6.115
 9541SOL    HW129522   3.295   0.418   6.040
 9541SOL    HW229523   3.241   0.481   6.181
 9542SOL     OW29524   5.027   4.696   4.898
 9542SOL    HW129525   4.990   4.662   4.812
 9542SOL    HW229526   5.110   4.645   4.921
 9543SOL     OW29527   3.177   0.462   5.730
 9543SOL    HW129528   3.147   0.544   5.779
 9543SOL    HW229529   3.244   0.413   5.785
 9544SOL     OW29530   6.283   3.021   3.879
 9544SOL    HW129531   6.190   3.032   3.846
 9544SOL    HW229532   6.312   2.926   3.868
 9545SOL     OW29533   5.664   5.514   3.802
 9545SOL    HW129534   5.595   5.521   3.874
 9545SOL    HW229535   5.627   5.549   3.716
 9546SOL     OW29536   4.167   2.041   5.519
 9546SOL    HW129537   4.247   1.990   5.487
 9546SOL    HW229538   4.148   2.015   5.614
 9547SOL     OW29539   2.229   5.000   4.244
 9547SOL    HW129540   2.238   5.091   4.283
 9547SOL    HW229541   2.290   4.937   4.292
 9548SOL     OW29542   6.816   4.678   5.367
 9548SOL    HW129543   6.835   4.699   5.271
 9548SOL    HW229544   6.718   4.658   5.378
 9549SOL     OW29545   3.119   2.357   1.411
 9549SOL    HW129546   3.159   2.349   1.503
 9549SOL    HW229547   3.029   2.400   1.417
 9550SOL     OW29548   6.644   1.004   0.567
 9550SOL    HW129549   6.731   1.050   0.547
 9550SOL    HW229550   6.640   0.983   0.665
 9551SOL     OW29551   5.537   2.438   6.138
 9551SOL    HW129552   5.466   2.375   6.172
 9551SOL    HW229553   5.500   2.490   6.061
 9552SOL     OW29554   1.809   6.414   4.225
 9552SOL    HW129555   1.838   6.447   4.315
 9552SOL    HW229556   1.736   6.473   4.189
 9553SOL     OW29557   5.968   2.267   6.680
 9553SOL    HW129558   6.067   2.278   6.694
 9553SOL    HW229559   5.951   2.189   6.620
 9554SOL     OW29560   2.523   0.097   2.464
 9554SOL    HW129561   2.596   0.030   2.479
 9554SOL    HW229562   2.557   0.169   2.403
 9555SOL     OW29563   1.010   1.125   2.520
 9555SOL    HW129564   1.010   1.025   2.517
 9555SOL    HW229565   1.043   1.155   2.610
 9556SOL     OW29566   1.876   3.962   1.686
 9556SOL    HW129567   1.805   3.952   1.616
 9556SOL    HW229568   1.859   3.900   1.762
 9557SOL     OW29569   6.571   6.175   1.967
 9557SOL    HW129570   6.648   6.171   1.903
 9557SOL    HW229571   6.560   6.086   2.011
 9558SOL     OW29572   6.088   6.042   5.449
 9558SOL    HW129573   6.153   6.109   5.413
 9558SOL    HW229574   6.057   6.070   5.539
 9559SOL     OW29575   0.465   4.645   1.152
 9559SOL    HW129576   0.467   4.617   1.056
 9559SOL    HW229577   0.494   4.740   1.159
 9560SOL     OW29578   2.028   1.360   3.685
 9560SOL    HW129579   2.033   1.342   3.783
 9560SOL    HW229580   1.950   1.311   3.646
 9561SOL     OW29581   2.383   0.822   0.612
 9561SOL    HW129582   2.483   0.821   0.620
 9561SOL    HW229583   2.345   0.741   0.656
 9562SOL     OW29584   2.568   0.347   5.550
 9562SOL    HW129585   2.600   0.258   5.580
 9562SOL    HW229586   2.484   0.371   5.599
 9563SOL     OW29587   0.462   6.208   0.472
 9563SOL    HW129588   0.432   6.114   0.458
 9563SOL    HW229589   0.389   6.259   0.518
 9564SOL     OW29590   2.408   1.070   1.011
 9564SOL    HW129591   2.475   0.998   0.992
 9564SOL    HW229592   2.368   1.102   0.926
 9565SOL     OW29593   4.037   0.797   4.286
 9565SOL    HW129594   4.105   0.865   4.260
 9565SOL    HW229595   4.057   0.765   4.379
 9566SOL     OW29596   2.576   4.890   0.104
 9566SOL    HW129597   2.639   4.936   0.042
 9566SOL    HW229598   2.602   4.910   0.199
 9567SOL     OW29599   4.964   4.982   0.545
 9567SOL    HW129600   5.045   4.926   0.565
 9567SOL    HW229601   4.890   4.956   0.606
 9568SOL     OW29602   4.238   2.641   6.251
 9568SOL    HW129603   4.276   2.703   6.320
 9568SOL    HW229604   4.216   2.692   6.168
 9569SOL     OW29605   6.807   1.361   2.140
 9569SOL    HW129606   6.773   1.267   2.140
 9569SOL    HW229607   6.905   1.361   2.120
 9570SOL     OW29608   0.603   3.540   1.864
 9570SOL    HW129609   0.640   3.560   1.955
 9570SOL    HW229610   0.505   3.558   1.863
 9571SOL     OW29611   3.469   4.055   6.182
 9571SOL    HW129612   3.461   3.978   6.118
 9571SOL    HW229613   3.395   4.121   6.164
 9572SOL     OW29614   2.484   4.831   2.104
 9572SOL    HW129615   2.535   4.864   2.025
 9572SOL    HW229616   2.521   4.743   2.134
 9573SOL     OW29617   0.733   2.613   6.578
 9573SOL    HW129618   0.708   2.688   6.639
 9573SOL    HW229619   0.799   2.646   6.510
 9574SOL     OW29620   4.106   3.674   3.038
 9574SOL    HW129621   4.051   3.639   3.114
 9574SOL    HW229622   4.157   3.755   3.067
 9575SOL     OW29623   0.554   1.035   1.364
 9575SOL    HW129624   0.632   1.098   1.367
 9575SOL    HW229625   0.576   0.953   1.417
 9576SOL     OW29626   2.024   1.328   1.491
 9576SOL    HW129627   2.063   1.256   1.433
 9576SOL    HW229628   2.098   1.379   1.535
 9577SOL     OW29629   1.130   0.760   6.318
 9577SOL    HW129630   1.124   0.721   6.410
 9577SOL    HW229631   1.162   0.690   6.254
 9578SOL     OW29632   0.489   3.698   3.176
 9578SOL    HW129633   0.395   3.730   3.169
 9578SOL    HW229634   0.520   3.706   3.271
 9579SOL     OW29635   1.565   5.296   2.926
 9579SOL    HW129636   1.649   5.331   2.968
 9579SOL    HW229637   1.559   5.328   2.831
 9580SOL     OW29638   4.904   4.189   0.641
 9580SOL    HW129639   4.979   4.185   0.706
 9580SOL    HW229640   4.931   4.144   0.556
 9581SOL     OW29641   0.428   5.467   5.864
 9581SOL    HW129642   0.496   5.395   5.874
 9581SOL    HW229643   0.381   5.456   5.776
 9582SOL     OW29644   4.976   5.415   5.809
 9582SOL    HW129645   4.896   5.366   5.775
 9582SOL    HW229646   5.034   5.353   5.861
 9583SOL     OW29647   3.591   4.277   1.446
 9583SOL    HW129648   3.596   4.319   1.537
 9583SOL    HW229649   3.629   4.185   1.450
 9584SOL     OW29650   6.839   5.327   6.711
 9584SOL    HW129651   6.818   5.425   6.713
 9584SOL    HW229652   6.822   5.291   6.620
 9585SOL     OW29653   6.882   0.127   5.174
 9585SOL    HW129654   6.800   0.171   5.211
 9585SOL    HW229655   6.950   0.198   5.151
 9586SOL     OW29656   5.616   4.638   2.096
 9586SOL    HW129657   5.564   4.721   2.073
 9586SOL    HW229658   5.552   4.566   2.123
 9587SOL     OW29659   0.665   0.578   1.616
 9587SOL    HW129660   0.685   0.670   1.580
 9587SOL    HW229661   0.734   0.554   1.685
 9588SOL     OW29662   6.592   1.106   1.375
 9588SOL    HW129663   6.534   1.077   1.300
 9588SOL    HW229664   6.596   1.206   1.377
 9589SOL     OW29665   2.400   5.107   0.109
 9589SOL    HW129666   2.434   5.162   0.185
 9589SOL    HW229667   2.461   5.029   0.094
 9590SOL     OW29668   6.676   2.798   2.068
 9590SOL    HW129669   6.747   2.860   2.036
 9590SOL    HW229670   6.602   2.851   2.111
 9591SOL     OW29671   3.023   5.978   5.871
 9591SOL    HW129672   2.978   5.890   5.888
 9591SOL    HW229673   3.121   5.963   5.854
 9592SOL     OW29674   3.822   4.405   0.865
 9592SOL    HW129675   3.734   4.396   0.912
 9592SOL    HW229676   3.840   4.502   0.847
 9593SOL     OW29677   0.257   0.713   6.109
 9593SOL    HW129678   0.283   0.722   6.013
 9593SOL    HW229679   0.303   0.784   6.163
 9594SOL     OW29680   1.021   5.210   2.331
 9594SOL    HW129681   1.088   5.188   2.260
 9594SOL    HW229682   1.043   5.159   2.414
 9595SOL     OW29683   0.682   4.126   5.289
 9595SOL    HW129684   0.673   4.085   5.198
 9595SOL    HW229685   0.738   4.066   5.347
 9596SOL     OW29686   6.737   5.299   6.470
 9596SOL    HW129687   6.780   5.386   6.445
 9596SOL    HW229688   6.735   5.240   6.389
 9597SOL     OW29689   0.558   4.197   1.561
 9597SOL    HW129690   0.502   4.156   1.489
 9597SOL    HW229691   0.654   4.172   1.548
 9598SOL     OW29692   1.912   3.907   4.327
 9598SOL    HW129693   1.867   3.932   4.241
 9598SOL    HW229694   1.896   3.810   4.346
 9599SOL     OW29695   3.765   0.168   4.727
 9599SOL    HW129696   3.696   0.198   4.662
 9599SOL    HW229697   3.722   0.111   4.797
 9600SOL     OW29698   2.293   6.801   6.533
 9600SOL    HW129699   2.332   6.860   6.604
 9600SOL    HW229700   2.356   6.725   6.514
 9601SOL     OW29701   5.012   4.121   1.189
 9601SOL    HW129702   4.997   4.087   1.281
 9601SOL    HW229703   5.061   4.208   1.192
 9602SOL     OW29704   6.486   5.098   6.154
 9602SOL    HW129705   6.442   5.008   6.158
 9602SOL    HW229706   6.434   5.163   6.209
 9603SOL     OW29707   3.947   1.378   4.219
 9603SOL    HW129708   3.877   1.391   4.289
 9603SOL    HW229709   3.906   1.345   4.135
 9604SOL     OW29710   4.381   0.339   6.647
 9604SOL    HW129711   4.307   0.273   6.654
 9604SOL    HW229712   4.461   0.296   6.604
 9605SOL     OW29713   0.795   5.423   3.500
 9605SOL    HW129714   0.741   5.402   3.418
 9605SOL    HW229715   0.780   5.517   3.527
 9606SOL     OW29716   1.750   6.538   6.711
 9606SOL    HW129717   1.842   6.576   6.714
 9606SOL    HW229718   1.686   6.609   6.683
 9607SOL     OW29719   1.815   1.829   0.104
 9607SOL    HW129720   1.831   1.746   0.050
 9607SOL    HW229721   1.801   1.805   0.200
 9608SOL     OW29722   6.830   5.545   2.391
 9608SOL    HW129723   6.872   5.626   2.349
 9608SOL    HW229724   6.862   5.536   2.485
 9609SOL     OW29725   2.309   4.342   6.464
 9609SOL    HW129726   2.348   4.421   6.418
 9609SOL    HW229727   2.231   4.308   6.412
 9610SOL     OW29728   1.673   5.435   4.027
 9610SOL    HW129729   1.733   5.394   4.095
 9610SOL    HW229730   1.600   5.370   4.004
 9611SOL     OW29731   0.531   6.256   6.756
 9611SOL    HW129732   0.486   6.167   6.750
 9611SOL    HW229733   0.467   6.327   6.725
 9612SOL     OW29734   0.290   4.029   2.260
 9612SOL    HW129735   0.378   4.076   2.259
 9612SOL    HW229736   0.217   4.095   2.239
 9613SOL     OW29737   5.032   6.223   3.127
 9613SOL    HW129738   5.117   6.258   3.166
 9613SOL    HW229739   5.010   6.274   3.044
 9614SOL     OW29740   3.080   2.382   0.388
 9614SOL    HW129741   3.066   2.361   0.291
 9614SOL    HW229742   3.166   2.433   0.399
 9615SOL     OW29743   1.242   7.026   0.380
 9615SOL    HW129744   1.330   0.024   0.339
 9615SOL    HW229745   1.259   6.976   0.465
 9616SOL     OW29746   4.253   4.102   1.208
 9616SOL    HW129747   4.158   4.073   1.202
 9616SOL    HW229748   4.306   4.059   1.134
 9617SOL     OW29749   2.195   2.974   3.412
 9617SOL    HW129750   2.210   3.003   3.507
 9617SOL    HW229751   2.098   2.950   3.400
 9618SOL     OW29752   3.823   6.765   5.230
 9618SOL    HW129753   3.918   6.738   5.216
 9618SOL    HW229754   3.819   6.859   5.264
 9619SOL     OW29755   1.161   6.790   0.211
 9619SOL    HW129756   1.186   6.867   0.152
 9619SOL    HW229757   1.214   6.796   0.296
 9620SOL     OW29758   4.174   2.252   0.117
 9620SOL    HW129759   4.140   2.331   0.169
 9620SOL    HW229760   4.107   2.227   0.046
 9621SOL     OW29761   0.694   0.912   2.321
 9621SOL    HW129762   0.733   0.898   2.230
 9621SOL    HW229763   0.708   1.007   2.349
 9622SOL     OW29764   6.141   0.875   0.238
 9622SOL    HW129765   6.169   0.884   0.142
 9622SOL    HW229766   6.202   0.928   0.296
 9623SOL     OW29767   3.325   4.868   6.118
 9623SOL    HW129768   3.284   4.958   6.100
 9623SOL    HW229769   3.265   4.796   6.081
 9624SOL     OW29770   6.650   4.456   2.243
 9624SOL    HW129771   6.551   4.448   2.239
 9624SOL    HW229772   6.677   4.503   2.328
 9625SOL     OW29773   4.989   5.900   0.003
 9625SOL    HW129774   5.030   5.893   0.094
 9625SOL    HW229775   4.895   5.865   0.007
 9626SOL     OW29776   3.337   6.283   6.872
 9626SOL    HW129777   3.297   6.294   6.781
 9626SOL    HW229778   3.310   6.195   6.910
 9627SOL     OW29779   6.956   5.357   3.197
 9627SOL    HW129780   6.928   5.377   3.291
 9627SOL    HW229781   0.002   5.288   3.199
 9628SOL     OW29782   5.578   5.288   6.910
 9628SOL    HW129783   5.570   5.231   6.992
 9628SOL    HW229784   5.669   5.330   6.908
 9629SOL     OW29785   0.389   6.496   2.815
 9629SOL    HW129786   0.372   6.575   2.757
 9629SOL    HW229787   0.470   6.511   2.872
 9630SOL     OW29788   6.707   6.196   5.533
 9630SOL    HW129789   6.634   6.129   5.539
 9630SOL    HW229790   6.775   6.177   5.605
 9631SOL     OW29791   5.984   0.360   0.366
 9631SOL    HW129792   5.938   0.278   0.331
 9631SOL    HW229793   5.938   0.391   0.449
 9632SOL     OW29794   2.200   5.107   2.702
 9632SOL    HW129795   2.253   5.130   2.621
 9632SOL    HW229796   2.219   5.174   2.774
 9633SOL     OW29797   5.245   5.322   0.016
 9633SOL    HW129798   5.266   5.226   0.038
 9633SOL    HW229799   5.159   5.326   6.994
 9634SOL     OW29800   0.771   0.089   4.398
 9634SOL    HW129801   0.845   0.141   4.442
 9634SOL    HW229802   0.742   0.136   4.314
 9635SOL     OW29803   1.258   5.106   5.621
 9635SOL    HW129804   1.335   5.083   5.681
 9635SOL    HW229805   1.178   5.127   5.677
 9636SOL     OW29806   4.229   1.792   6.311
 9636SOL    HW129807   4.156   1.739   6.269
 9636SOL    HW229808   4.268   1.854   6.244
 9637SOL     OW29809   2.794   1.490   6.451
 9637SOL    HW129810   2.843   1.529   6.373
 9637SOL    HW229811   2.821   1.537   6.535
 9638SOL     OW29812   6.952   3.459   6.964
 9638SOL    HW129813   6.939   3.557   6.954
 9638SOL    HW229814   6.867   3.411   6.942
 9639SOL     OW29815   3.808   1.396   2.136
 9639SOL    HW129816   3.845   1.408   2.044
 9639SOL    HW229817   3.708   1.400   2.132
 9640SOL     OW29818   3.495   1.778   2.737
 9640SOL    HW129819   3.493   1.680   2.754
 9640SOL    HW229820   3.429   1.823   2.798
 9641SOL     OW29821   5.423   6.437   1.042
 9641SOL    HW129822   5.471   6.350   1.049
 9641SOL    HW229823   5.466   6.504   1.101
 9642SOL     OW29824   2.771   6.011   4.963
 9642SOL    HW129825   2.763   6.104   5.000
 9642SOL    HW229826   2.712   6.002   4.883
 9643SOL     OW29827   6.042   4.651   4.372
 9643SOL    HW129828   6.033   4.659   4.471
 9643SOL    HW229829   6.005   4.734   4.329
 9644SOL     OW29830   1.068   5.270   5.019
 9644SOL    HW129831   0.968   5.261   5.023
 9644SOL    HW229832   1.108   5.187   4.980
 9645SOL     OW29833   3.906   4.865   4.008
 9645SOL    HW129834   3.850   4.837   4.086
 9645SOL    HW229835   3.970   4.937   4.037
 9646SOL     OW29836   2.930   4.848   2.126
 9646SOL    HW129837   2.896   4.760   2.094
 9646SOL    HW229838   2.915   4.857   2.225
 9647SOL     OW29839   6.845   5.386   1.105
 9647SOL    HW129840   6.838   5.486   1.112
 9647SOL    HW229841   6.800   5.344   1.183
 9648SOL     OW29842   3.692   1.970   0.110
 9648SOL    HW129843   3.675   1.945   0.205
 9648SOL    HW229844   3.726   1.891   0.060
 9649SOL     OW29845   3.162   5.696   0.224
 9649SOL    HW129846   3.215   5.773   0.258
 9649SOL    HW229847   3.075   5.729   0.188
 9650SOL     OW29848   5.051   4.202   3.160
 9650SOL    HW129849   4.977   4.266   3.143
 9650SOL    HW229850   5.015   4.109   3.159
 9651SOL     OW29851   6.808   1.046   6.938
 9651SOL    HW129852   6.841   1.139   6.923
 9651SOL    HW229853   6.786   1.004   6.849
 9652SOL     OW29854   2.230   4.353   0.498
 9652SOL    HW129855   2.199   4.445   0.475
 9652SOL    HW229856   2.216   4.293   0.419
 9653SOL     OW29857   4.223   5.531   5.291
 9653SOL    HW129858   4.225   5.631   5.292
 9653SOL    HW229859   4.249   5.499   5.200
 9654SOL     OW29860   3.918   3.197   1.911
 9654SOL    HW129861   4.012   3.180   1.940
 9654SOL    HW229862   3.862   3.118   1.933
 9655SOL     OW29863   0.009   1.089   0.095
 9655SOL    HW129864   6.952   1.056   0.052
 9655SOL    HW229865   0.087   1.063   0.038
 9656SOL     OW29866   3.622   2.300   0.876
 9656SOL    HW129867   3.674   2.261   0.800
 9656SOL    HW229868   3.576   2.227   0.926
 9657SOL     OW29869   6.413   2.175   3.282
 9657SOL    HW129870   6.406   2.084   3.324
 9657SOL    HW229871   6.404   2.166   3.183
 9658SOL     OW29872   6.191   1.552   2.655
 9658SOL    HW129873   6.192   1.495   2.736
 9658SOL    HW229874   6.103   1.541   2.608
 9659SOL     OW29875   0.126   3.751   0.486
 9659SOL    HW129876   0.219   3.786   0.479
 9659SOL    HW229877   0.078   3.799   0.560
 9660SOL     OW29878   0.392   5.994   1.172
 9660SOL    HW129879   0.407   5.912   1.228
 9660SOL    HW229880   0.340   6.061   1.223
 9661SOL     OW29881   3.604   6.277   1.997
 9661SOL    HW129882   3.598   6.376   1.985
 9661SOL    HW229883   3.589   6.255   2.094
 9662SOL     OW29884   5.049   2.665   4.840
 9662SOL    HW129885   5.034   2.615   4.754
 9662SOL    HW229886   4.986   2.742   4.845
 9663SOL     OW29887   0.752   6.307   4.368
 9663SOL    HW129888   0.675   6.324   4.429
 9663SOL    HW229889   0.795   6.219   4.392
 9664SOL     OW29890   5.833   6.665   3.899
 9664SOL    HW129891   5.813   6.569   3.918
 9664SOL    HW229892   5.874   6.708   3.979
 9665SOL     OW29893   5.129   6.057   6.875
 9665SOL    HW129894   5.126   6.009   6.787
 9665SOL    HW229895   5.065   6.014   6.938
 9666SOL     OW29896   5.849   4.125   1.402
 9666SOL    HW129897   5.899   4.206   1.371
 9666SOL    HW229898   5.871   4.047   1.343
 9667SOL     OW29899   3.592   3.646   5.186
 9667SOL    HW129900   3.591   3.547   5.169
 9667SOL    HW229901   3.646   3.691   5.115
 9668SOL     OW29902   6.470   1.188   6.246
 9668SOL    HW129903   6.499   1.245   6.323
 9668SOL    HW229904   6.507   1.096   6.256
 9669SOL     OW29905   1.339   0.182   1.959
 9669SOL    HW129906   1.356   0.083   1.963
 9669SOL    HW229907   1.410   0.230   2.011
 9670SOL     OW29908   5.526   4.756   6.044
 9670SOL    HW129909   5.560   4.783   6.134
 9670SOL    HW229910   5.484   4.835   6.000
 9671SOL     OW29911   5.871   5.354   6.935
 9671SOL    HW129912   5.936   5.285   6.967
 9671SOL    HW229913   5.908   5.445   6.954
 9672SOL     OW29914   1.461   5.888   4.023
 9672SOL    HW129915   1.560   5.904   4.019
 9672SOL    HW229916   1.436   5.819   3.955
 9673SOL     OW29917   5.567   4.020   0.424
 9673SOL    HW129918   5.542   4.091   0.358
 9673SOL    HW229919   5.556   3.930   0.382
 9674SOL     OW29920   2.677   5.704   3.084
 9674SOL    HW129921   2.619   5.675   3.008
 9674SOL    HW229922   2.648   5.656   3.167
 9675SOL     OW29923   6.208   2.306   0.511
 9675SOL    HW129924   6.135   2.372   0.530
 9675SOL    HW229925   6.172   2.231   0.457
 9676SOL     OW29926   1.394   3.645   5.424
 9676SOL    HW129927   1.333   3.623   5.501
 9676SOL    HW229928   1.368   3.590   5.345
 9677SOL     OW29929   1.614   5.654   5.223
 9677SOL    HW129930   1.649   5.676   5.314
 9677SOL    HW229931   1.522   5.615   5.230
 9678SOL     OW29932   3.156   3.387   3.203
 9678SOL    HW129933   3.069   3.432   3.222
 9678SOL    HW229934   3.145   3.288   3.211
 9679SOL     OW29935   2.355   1.246   2.431
 9679SOL    HW129936   2.261   1.271   2.456
 9679SOL    HW229937   2.375   1.154   2.466
 9680SOL     OW29938   5.529   0.922   3.227
 9680SOL    HW129939   5.430   0.913   3.225
 9680SOL    HW229940   5.554   1.019   3.231
 9681SOL     OW29941   3.390   1.600   6.816
 9681SOL    HW129942   3.389   1.607   6.916
 9681SOL    HW229943   3.442   1.677   6.779
 9682SOL     OW29944   5.066   4.931   4.156
 9682SOL    HW129945   4.980   4.889   4.125
 9682SOL    HW229946   5.052   5.029   4.170
 9683SOL     OW29947   2.664   5.226   1.251
 9683SOL    HW129948   2.597   5.159   1.220
 9683SOL    HW229949   2.743   5.224   1.191
 9684SOL     OW29950   0.879   2.805   5.429
 9684SOL    HW129951   0.909   2.882   5.373
 9684SOL    HW229952   0.790   2.825   5.469
 9685SOL     OW29953   2.361   4.114   1.545
 9685SOL    HW129954   2.428   4.105   1.472
 9685SOL    HW229955   2.285   4.051   1.528
 9686SOL     OW29956   6.745   1.285   0.403
 9686SOL    HW129957   6.808   1.221   0.447
 9686SOL    HW229958   6.787   1.318   0.318
 9687SOL     OW29959   1.833   0.552   4.221
 9687SOL    HW129960   1.758   0.490   4.198
 9687SOL    HW229961   1.908   0.499   4.260
 9688SOL     OW29962   0.020   2.161   2.655
 9688SOL    HW129963   7.020   2.067   2.674
 9688SOL    HW229964   7.020   2.186   2.563
 9689SOL     OW29965   1.511   5.980   0.002
 9689SOL    HW129966   1.487   6.070   0.040
 9689SOL    HW229967   1.608   5.963   0.016
 9690SOL     OW29968   5.821   6.057   6.478
 9690SOL    HW129969   5.731   6.100   6.478
 9690SOL    HW229970   5.812   5.963   6.444
 9691SOL     OW29971   2.914   4.968   1.740
 9691SOL    HW129972   2.959   5.040   1.792
 9691SOL    HW229973   2.835   4.935   1.792
 9692SOL     OW29974   3.531   5.387   2.939
 9692SOL    HW129975   3.463   5.418   3.005
 9692SOL    HW229976   3.530   5.446   2.859
 9693SOL     OW29977   6.371   5.537   1.517
 9693SOL    HW129978   6.325   5.624   1.499
 9693SOL    HW229979   6.462   5.539   1.477
 9694SOL     OW29980   2.007   1.273   0.238
 9694SOL    HW129981   2.100   1.239   0.250
 9694SOL    HW229982   1.984   1.273   0.141
 9695SOL     OW29983   0.335   3.605   1.903
 9695SOL    HW129984   0.270   3.530   1.914
 9695SOL    HW229985   0.290   3.682   1.858
 9696SOL     OW29986   5.158   3.572   0.621
 9696SOL    HW129987   5.116   3.565   0.530
 9696SOL    HW229988   5.238   3.512   0.625
 9697SOL     OW29989   0.210   6.181   6.120
 9697SOL    HW129990   0.183   6.276   6.105
 9697SOL    HW229991   0.280   6.178   6.191
 9698SOL     OW29992   4.868   1.618   5.857
 9698SOL    HW129993   4.770   1.610   5.873
 9698SOL    HW229994   4.913   1.649   5.941
 9699SOL     OW29995   7.012   5.107   6.785
 9699SOL    HW129996   0.034   5.091   6.871
 9699SOL    HW229997   6.954   5.187   6.795
 9700SOL     OW29998   4.189   5.187   4.947
 9700SOL    HW129999   4.276   5.174   4.899
 9700SOL    HW230000   4.119   5.130   4.906
 9701SOL     OW30001   3.818   5.216   5.094
 9701SOL    HW130002   3.864   5.262   5.018
 9701SOL    HW230003   3.723   5.197   5.069
 9702SOL     OW30004   5.150   0.364   0.137
 9702SOL    HW130005   5.177   0.314   0.220
 9702SOL    HW230006   5.052   0.354   0.123
 9703SOL     OW30007   4.609   4.876   4.196
 9703SOL    HW130008   4.579   4.847   4.287
 9703SOL    HW230009   4.528   4.900   4.141
 9704SOL     OW30010   2.900   0.959   3.332
 9704SOL    HW130011   2.894   1.055   3.307
 9704SOL    HW230012   2.891   0.903   3.249
 9705SOL     OW30013   4.980   5.151   6.127
 9705SOL    HW130014   4.922   5.070   6.115
 9705SOL    HW230015   4.948   5.203   6.206
 9706SOL     OW30016   0.631   2.674   0.949
 9706SOL    HW130017   0.647   2.713   1.040
 9706SOL    HW230018   0.706   2.613   0.925
 9707SOL     OW30019   6.189   4.687   1.414
 9707SOL    HW130020   6.196   4.728   1.505
 9707SOL    HW230021   6.157   4.756   1.349
 9708SOL     OW30022   1.580   1.957   2.439
 9708SOL    HW130023   1.678   1.975   2.433
 9708SOL    HW230024   1.531   2.017   2.375
 9709SOL     OW30025   5.974   6.028   2.933
 9709SOL    HW130026   6.047   6.059   2.872
 9709SOL    HW230027   6.004   5.946   2.982
 9710SOL     OW30028   7.000   1.614   1.890
 9710SOL    HW130029   0.071   1.623   1.907
 9710SOL    HW230030   6.986   1.571   1.801
 9711SOL     OW30031   2.600   4.586   6.018
 9711SOL    HW130032   2.516   4.576   5.964
 9711SOL    HW230033   2.578   4.585   6.115
 9712SOL     OW30034   5.870   4.825   6.106
 9712SOL    HW130035   5.849   4.765   6.029
 9712SOL    HW230036   5.795   4.822   6.172
 9713SOL     OW30037   1.187   5.158   3.439
 9713SOL    HW130038   1.197   5.241   3.495
 9713SOL    HW230039   1.101   5.113   3.462
 9714SOL     OW30040   3.004   1.249   1.165
 9714SOL    HW130041   3.007   1.179   1.237
 9714SOL    HW230042   3.063   1.325   1.191
 9715SOL     OW30043   5.405   4.194   6.193
 9715SOL    HW130044   5.369   4.134   6.122
 9715SOL    HW230045   5.488   4.238   6.159
 9716SOL     OW30046   4.092   3.306   6.656
 9716SOL    HW130047   4.013   3.349   6.614
 9716SOL    HW230048   4.083   3.206   6.650
 9717SOL     OW30049   5.310   5.738   5.786
 9717SOL    HW130050   5.339   5.775   5.874
 9717SOL    HW230051   5.232   5.790   5.751
 9718SOL     OW30052   5.216   2.525   1.135
 9718SOL    HW130053   5.237   2.597   1.200
 9718SOL    HW230054   5.267   2.540   1.051
 9719SOL     OW30055   0.150   1.782   6.742
 9719SOL    HW130056   0.144   1.874   6.703
 9719SOL    HW230057   0.228   1.734   6.701
 9720SOL     OW30058   0.033   5.447   2.056
 9720SOL    HW130059   0.129   5.463   2.075
 9720SOL    HW230060   7.009   5.532   2.068
 9721SOL     OW30061   0.163   2.988   1.339
 9721SOL    HW130062   0.160   2.892   1.313
 9721SOL    HW230063   0.114   3.043   1.271
 9722SOL     OW30064   6.860   0.418   4.388
 9722SOL    HW130065   6.775   0.434   4.439
 9722SOL    HW230066   6.920   0.498   4.396
 9723SOL     OW30067   2.213   6.360   3.153
 9723SOL    HW130068   2.244   6.343   3.246
 9723SOL    HW230069   2.237   6.454   3.127
 9724SOL     OW30070   1.766   3.620   0.465
 9724SOL    HW130071   1.860   3.611   0.432
 9724SOL    HW230072   1.731   3.530   0.491
 9725SOL     OW30073   3.321   4.606   6.579
 9725SOL    HW130074   3.273   4.653   6.505
 9725SOL    HW230075   3.420   4.608   6.560
 9726SOL     OW30076   5.307   0.549   4.049
 9726SOL    HW130077   5.368   0.487   4.099
 9726SOL    HW230078   5.215   0.542   4.086
 9727SOL     OW30079   0.743   3.514   5.528
 9727SOL    HW130080   0.724   3.605   5.491
 9727SOL    HW230081   0.675   3.449   5.494
 9728SOL     OW30082   0.559   0.077   6.448
 9728SOL    HW130083   0.601   0.126   6.371
 9728SOL    HW230084   0.470   0.118   6.470
 9729SOL     OW30085   1.043   4.104   3.274
 9729SOL    HW130086   1.061   4.167   3.350
 9729SOL    HW230087   1.000   4.155   3.199
 9730SOL     OW30088   0.940   3.497   3.137
 9730SOL    HW130089   0.963   3.405   3.105
 9730SOL    HW230090   0.964   3.563   3.067
 9731SOL     OW30091   4.490   4.029   0.998
 9731SOL    HW130092   4.402   4.045   0.953
 9731SOL    HW230093   4.550   4.108   0.982
 9732SOL     OW30094   5.659   5.747   2.792
 9732SOL    HW130095   5.722   5.731   2.867
 9732SOL    HW230096   5.567   5.764   2.828
 9733SOL     OW30097   5.796   5.063   0.538
 9733SOL    HW130098   5.844   5.068   0.626
 9733SOL    HW230099   5.795   4.967   0.507
 9734SOL     OW30100   6.373   1.398   2.468
 9734SOL    HW130101   6.392   1.466   2.398
 9734SOL    HW230102   6.276   1.403   2.494
 9735SOL     OW30103   2.493   4.431   3.028
 9735SOL    HW130104   2.498   4.439   3.128
 9735SOL    HW230105   2.554   4.499   2.986
 9736SOL     OW30106   5.967   2.010   6.220
 9736SOL    HW130107   5.928   1.967   6.302
 9736SOL    HW230108   5.912   1.985   6.141
 9737SOL     OW30109   6.328   3.200   4.575
 9737SOL    HW130110   6.247   3.205   4.517
 9737SOL    HW230111   6.349   3.291   4.611
 9738SOL     OW30112   1.897   6.805   1.807
 9738SOL    HW130113   1.833   6.871   1.769
 9738SOL    HW230114   1.982   6.852   1.831
 9739SOL     OW30115   5.913   5.381   2.494
 9739SOL    HW130116   5.823   5.339   2.490
 9739SOL    HW230117   5.980   5.314   2.527
 9740SOL     OW30118   6.884   1.980   3.168
 9740SOL    HW130119   6.874   1.914   3.093
 9740SOL    HW230120   6.922   1.934   3.248
 9741SOL     OW30121   5.105   2.252   2.813
 9741SOL    HW130122   5.170   2.182   2.782
 9741SOL    HW230123   5.155   2.326   2.858
 9742SOL     OW30124   4.094   0.662   1.700
 9742SOL    HW130125   4.087   0.761   1.713
 9742SOL    HW230126   4.015   0.631   1.646
 9743SOL     OW30127   0.634   2.196   4.120
 9743SOL    HW130128   0.703   2.175   4.051
 9743SOL    HW230129   0.544   2.202   4.076
 9744SOL     OW30130   0.555   0.289   2.691
 9744SOL    HW130131   0.586   0.198   2.664
 9744SOL    HW230132   0.463   0.305   2.654
 9745SOL     OW30133   6.158   2.890   6.293
 9745SOL    HW130134   6.113   2.973   6.260
 9745SOL    HW230135   6.219   2.855   6.222
 9746SOL     OW30136   6.414   0.991   5.939
 9746SOL    HW130137   6.371   0.904   5.914
 9746SOL    HW230138   6.342   1.058   5.961
 9747SOL     OW30139   2.026   0.288   1.371
 9747SOL    HW130140   2.004   0.337   1.287
 9747SOL    HW230141   2.103   0.226   1.354
 9748SOL     OW30142   0.874   1.764   3.920
 9748SOL    HW130143   0.864   1.806   4.010
 9748SOL    HW230144   0.925   1.826   3.859
 9749SOL     OW30145   2.054   1.586   4.816
 9749SOL    HW130146   2.078   1.561   4.722
 9749SOL    HW230147   2.059   1.504   4.873
 9750SOL     OW30148   5.566   4.673   3.683
 9750SOL    HW130149   5.511   4.733   3.624
 9750SOL    HW230150   5.511   4.594   3.710
 9751SOL     OW30151   1.616   1.008   0.336
 9751SOL    HW130152   1.651   1.097   0.362
 9751SOL    HW230153   1.520   1.016   0.308
 9752SOL     OW30154   5.319   2.265   6.960
 9752SOL    HW130155   5.311   2.185   7.019
 9752SOL    HW230156   5.240   2.324   6.974
 9753SOL     OW30157   6.232   5.826   5.512
 9753SOL    HW130158   6.176   5.758   5.560
 9753SOL    HW230159   6.174   5.902   5.482
 9754SOL     OW30160   0.862   1.672   6.482
 9754SOL    HW130161   0.915   1.637   6.404
 9754SOL    HW230162   0.895   1.629   6.566
 9755SOL     OW30163   4.079   3.922   5.516
 9755SOL    HW130164   4.123   3.929   5.606
 9755SOL    HW230165   4.145   3.889   5.449
 9756SOL     OW30166   6.055   3.282   0.536
 9756SOL    HW130167   6.048   3.326   0.625
 9756SOL    HW230168   6.117   3.204   0.542
 9757SOL     OW30169   5.886   3.414   3.402
 9757SOL    HW130170   5.841   3.502   3.389
 9757SOL    HW230171   5.963   3.406   3.339
 9758SOL     OW30172   2.468   6.989   0.021
 9758SOL    HW130173   2.488   6.987   0.119
 9758SOL    HW230174   2.438   0.053   7.023
 9759SOL     OW30175   2.396   6.705   6.987
 9759SOL    HW130176   2.478   6.656   6.956
 9759SOL    HW230177   2.422   6.785   0.013
 9760SOL     OW30178   4.755   3.308   5.282
 9760SOL    HW130179   4.714   3.398   5.268
 9760SOL    HW230180   4.838   3.300   5.227
 9761SOL     OW30181   5.872   0.671   1.913
 9761SOL    HW130182   5.955   0.700   1.960
 9761SOL    HW230183   5.844   0.581   1.947
 9762SOL     OW30184   2.942   2.274   4.548
 9762SOL    HW130185   2.849   2.291   4.580
 9762SOL    HW230186   2.999   2.245   4.625
 9763SOL     OW30187   5.216   1.518   1.974
 9763SOL    HW130188   5.275   1.568   2.037
 9763SOL    HW230189   5.270   1.451   1.923
 9764SOL     OW30190   0.634   2.717   2.870
 9764SOL    HW130191   0.676   2.797   2.912
 9764SOL    HW230192   0.667   2.708   2.776
 9765SOL     OW30193   6.695   1.335   2.808
 9765SOL    HW130194   6.677   1.251   2.756
 9765SOL    HW230195   6.639   1.409   2.771
 9766SOL     OW30196   2.695   0.662   3.327
 9766SOL    HW130197   2.775   0.693   3.276
 9766SOL    HW230198   2.620   0.642   3.263
 9767SOL     OW30199   5.395   2.000   5.510
 9767SOL    HW130200   5.364   1.979   5.603
 9767SOL    HW230201   5.318   1.988   5.447
 9768SOL     OW30202   4.968   1.471   2.116
 9768SOL    HW130203   4.926   1.446   2.029
 9768SOL    HW230204   5.067   1.458   2.110
 9769SOL     OW30205   2.503   0.693   2.485
 9769SOL    HW130206   2.437   0.647   2.544
 9769SOL    HW230207   2.457   0.767   2.435
 9770SOL     OW30208   5.460   0.580   6.864
 9770SOL    HW130209   5.495   0.573   6.770
 9770SOL    HW230210   5.423   0.491   6.892
 9771SOL     OW30211   3.243   5.254   1.204
 9771SOL    HW130212   3.341   5.238   1.217
 9771SOL    HW230213   3.208   5.305   1.283
 9772SOL     OW30214   1.153   6.557   3.002
 9772SOL    HW130215   1.111   6.638   3.043
 9772SOL    HW230216   1.253   6.569   3.001
 9773SOL     OW30217   5.552   6.500   4.207
 9773SOL    HW130218   5.514   6.513   4.115
 9773SOL    HW230219   5.635   6.555   4.217
 9774SOL     OW30220   6.035   5.085   1.611
 9774SOL    HW130221   6.126   5.055   1.639
 9774SOL    HW230222   5.980   5.006   1.584
 9775SOL     OW30223   2.289   0.919   3.613
 9775SOL    HW130224   2.355   0.974   3.665
 9775SOL    HW230225   2.233   0.980   3.556
 9776SOL     OW30226   0.358   5.624   4.505
 9776SOL    HW130227   0.311   5.583   4.583
 9776SOL    HW230228   0.379   5.553   4.438
 9777SOL     OW30229   5.421   4.497   6.038
 9777SOL    HW130230   5.476   4.451   6.108
 9777SOL    HW230231   5.452   4.592   6.028
 9778SOL     OW30232   0.742   0.963   3.480
 9778SOL    HW130233   0.665   0.972   3.416
 9778SOL    HW230234   0.722   1.016   3.563
 9779SOL     OW30235   1.936   0.831   4.912
 9779SOL    HW130236   1.940   0.762   4.984
 9779SOL    HW230237   1.841   0.849   4.889
 9780SOL     OW30238   2.483   2.116   0.839
 9780SOL    HW130239   2.559   2.078   0.891
 9780SOL    HW230240   2.435   2.043   0.791
 9781SOL     OW30241   0.947   4.062   4.420
 9781SOL    HW130242   0.979   4.084   4.328
 9781SOL    HW230243   1.012   4.000   4.464
 9782SOL     OW30244   6.639   1.078   1.648
 9782SOL    HW130245   6.564   1.014   1.662
 9782SOL    HW230246   6.667   1.076   1.552
 9783SOL     OW30247   5.196   2.470   2.956
 9783SOL    HW130248   5.234   2.426   3.038
 9783SOL    HW230249   5.149   2.554   2.982
 9784SOL     OW30250   3.703   1.682   4.259
 9784SOL    HW130251   3.733   1.689   4.164
 9784SOL    HW230252   3.690   1.586   4.283
 9785SOL     OW30253   6.673   3.771   5.697
 9785SOL    HW130254   6.703   3.818   5.780
 9785SOL    HW230255   6.679   3.672   5.711
 9786SOL     OW30256   2.193   5.115   6.598
 9786SOL    HW130257   2.204   5.215   6.592
 9786SOL    HW230258   2.117   5.087   6.539
 9787SOL     OW30259   4.548   3.425   1.696
 9787SOL    HW130260   4.580   3.514   1.666
 9787SOL    HW230261   4.452   3.432   1.724
 9788SOL     OW30262   0.243   0.212   3.834
 9788SOL    HW130263   0.326   0.168   3.869
 9788SOL    HW230264   0.257   0.236   3.738
 9789SOL     OW30265   1.296   5.538   0.212
 9789SOL    HW130266   1.269   5.442   0.218
 9789SOL    HW230267   1.225   5.590   0.164
 9790SOL     OW30268   5.798   3.933   5.692
 9790SOL    HW130269   5.770   4.013   5.639
 9790SOL    HW230270   5.755   3.936   5.783
 9791SOL     OW30271   0.066   1.575   2.764
 9791SOL    HW130272   0.073   1.582   2.864
 9791SOL    HW230273   0.017   1.491   2.740
 9792SOL     OW30274   5.488   5.703   2.346
 9792SOL    HW130275   5.473   5.605   2.332
 9792SOL    HW230276   5.555   5.716   2.419
 9793SOL     OW30277   5.643   4.977   3.588
 9793SOL    HW130278   5.551   4.967   3.550
 9793SOL    HW230279   5.644   5.054   3.652
 9794SOL     OW30280   6.394   4.789   6.836
 9794SOL    HW130281   6.395   4.706   6.891
 9794SOL    HW230282   6.356   4.769   6.746
 9795SOL     OW30283   1.441   2.195   4.044
 9795SOL    HW130284   1.391   2.230   4.123
 9795SOL    HW230285   1.485   2.109   4.068
 9796SOL     OW30286   4.162   2.517   1.398
 9796SOL    HW130287   4.217   2.598   1.417
 9796SOL    HW230288   4.220   2.436   1.398
 9797SOL     OW30289   3.698   5.246   6.434
 9797SOL    HW130290   3.751   5.182   6.378
 9797SOL    HW230291   3.746   5.262   6.521
 9798SOL     OW30292   2.658   0.617   1.130
 9798SOL    HW130293   2.635   0.612   1.227
 9798SOL    HW230294   2.756   0.630   1.119
 9799SOL     OW30295   3.386   3.718   3.393
 9799SOL    HW130296   3.330   3.656   3.447
 9799SOL    HW230297   3.423   3.669   3.314
 9800SOL     OW30298   2.963   6.519   5.159
 9800SOL    HW130299   2.993   6.453   5.091
 9800SOL    HW230300   3.042   6.564   5.199
 9801SOL     OW30301   4.792   4.487   0.282
 9801SOL    HW130302   4.748   4.491   0.372
 9801SOL    HW230303   4.881   4.532   0.288
 9802SOL     OW30304   0.778   2.878   2.023
 9802SOL    HW130305   0.865   2.847   1.984
 9802SOL    HW230306   0.702   2.834   1.974
 9803SOL     OW30307   6.179   1.719   0.430
 9803SOL    HW130308   6.081   1.724   0.448
 9803SOL    HW230309   6.229   1.765   0.504
 9804SOL     OW30310   0.859   6.220   2.740
 9804SOL    HW130311   0.863   6.177   2.830
 9804SOL    HW230312   0.843   6.151   2.670
 9805SOL     OW30313   1.160   6.006   5.662
 9805SOL    HW130314   1.186   5.932   5.599
 9805SOL    HW230315   1.241   6.061   5.684
 9806SOL     OW30316   1.285   2.071   0.283
 9806SOL    HW130317   1.358   2.040   0.222
 9806SOL    HW230318   1.265   2.000   0.350
 9807SOL     OW30319   1.938   2.838   0.052
 9807SOL    HW130320   1.996   2.758   0.065
 9807SOL    HW230321   1.923   2.853   6.982
 9808SOL     OW30322   5.938   1.293   5.651
 9808SOL    HW130323   5.976   1.232   5.581
 9808SOL    HW230324   6.010   1.352   5.687
 9809SOL     OW30325   1.076   1.969   6.508
 9809SOL    HW130326   1.140   2.021   6.451
 9809SOL    HW230327   1.125   1.933   6.588
 9810SOL     OW30328   2.438   2.668   4.027
 9810SOL    HW130329   2.362   2.604   4.021
 9810SOL    HW230330   2.418   2.747   3.968
 9811SOL     OW30331   5.498   5.815   4.313
 9811SOL    HW130332   5.404   5.784   4.299
 9811SOL    HW230333   5.505   5.912   4.288
 9812SOL     OW30334   2.834   2.441   5.828
 9812SOL    HW130335   2.799   2.534   5.835
 9812SOL    HW230336   2.775   2.387   5.769
 9813SOL     OW30337   5.745   0.247   6.976
 9813SOL    HW130338   5.660   0.208   7.009
 9813SOL    HW230339   5.814   0.244   0.021
 9814SOL     OW30340   0.693   1.215   6.907
 9814SOL    HW130341   0.700   1.315   6.905
 9814SOL    HW230342   0.659   1.182   6.819
 9815SOL     OW30343   6.029   3.725   2.691
 9815SOL    HW130344   5.971   3.740   2.771
 9815SOL    HW230345   5.972   3.706   2.611
 9816SOL     OW30346   6.808   1.419   6.489
 9816SOL    HW130347   6.868   1.340   6.494
 9816SOL    HW230348   6.861   1.503   6.504
 9817SOL     OW30349   2.991   5.501   2.333
 9817SOL    HW130350   2.894   5.478   2.319
 9817SOL    HW230351   3.000   5.559   2.414
 9818SOL     OW30352   1.775   1.056   3.863
 9818SOL    HW130353   1.696   0.995   3.854
 9818SOL    HW230354   1.853   1.016   3.816
 9819SOL     OW30355   5.240   2.915   5.212
 9819SOL    HW130356   5.270   2.868   5.129
 9819SOL    HW230357   5.148   2.883   5.237
 9820SOL     OW30358   3.707   3.287   6.586
 9820SOL    HW130359   3.723   3.206   6.642
 9820SOL    HW230360   3.686   3.260   6.492
 9821SOL     OW30361   4.469   1.164   0.793
 9821SOL    HW130362   4.519   1.195   0.712
 9821SOL    HW230363   4.373   1.149   0.768
 9822SOL     OW30364   3.357   5.484   3.724
 9822SOL    HW130365   3.386   5.557   3.662
 9822SOL    HW230366   3.288   5.428   3.679
 9823SOL     OW30367   2.009   0.049   1.861
 9823SOL    HW130368   1.991   0.045   1.959
 9823SOL    HW230369   1.981   0.139   1.826
 9824SOL     OW30370   1.951   5.899   4.889
 9824SOL    HW130371   2.012   5.960   4.939
 9824SOL    HW230372   1.875   5.872   4.948
 9825SOL     OW30373   5.943   6.299   5.151
 9825SOL    HW130374   5.890   6.341   5.225
 9825SOL    HW230375   6.032   6.269   5.187
 9826SOL     OW30376   3.901   6.236   5.462
 9826SOL    HW130377   3.955   6.191   5.533
 9826SOL    HW230378   3.811   6.260   5.499
 9827SOL     OW30379   2.178   3.867   3.358
 9827SOL    HW130380   2.191   3.958   3.319
 9827SOL    HW230381   2.177   3.873   3.458
 9828SOL     OW30382   2.913   2.205   5.050
 9828SOL    HW130383   2.817   2.225   5.070
 9828SOL    HW230384   2.971   2.271   5.097
 9829SOL     OW30385   4.733   5.966   6.358
 9829SOL    HW130386   4.829   5.977   6.385
 9829SOL    HW230387   4.718   6.015   6.271
 9830SOL     OW30388   4.927   1.842   1.527
 9830SOL    HW130389   4.980   1.868   1.608
 9830SOL    HW230390   4.989   1.834   1.448
 9831SOL     OW30391   0.462   4.512   2.380
 9831SOL    HW130392   0.452   4.414   2.392
 9831SOL    HW230393   0.468   4.533   2.282
 9832SOL     OW30394   4.515   5.729   3.045
 9832SOL    HW130395   4.478   5.791   3.114
 9832SOL    HW230396   4.440   5.681   3.000
 9833SOL     OW30397   3.782   2.989   3.209
 9833SOL    HW130398   3.719   2.991   3.286
 9833SOL    HW230399   3.764   2.909   3.152
 9834SOL     OW30400   1.782   4.906   5.675
 9834SOL    HW130401   1.744   4.817   5.651
 9834SOL    HW230402   1.881   4.906   5.658
 9835SOL     OW30403   3.617   3.122   4.144
 9835SOL    HW130404   3.536   3.157   4.191
 9835SOL    HW230405   3.656   3.046   4.195
 9836SOL     OW30406   0.652   4.481   4.451
 9836SOL    HW130407   0.574   4.443   4.502
 9836SOL    HW230408   0.731   4.421   4.462
 9837SOL     OW30409   5.597   0.563   2.216
 9837SOL    HW130410   5.514   0.587   2.266
 9837SOL    HW230411   5.573   0.539   2.122
 9838SOL     OW30412   1.434   6.972   0.930
 9838SOL    HW130413   1.525   6.949   0.897
 9838SOL    HW230414   1.429   0.043   0.947
 9839SOL     OW30415   4.555   6.853   3.106
 9839SOL    HW130416   4.473   6.803   3.133
 9839SOL    HW230417   4.547   6.882   3.011
 9840SOL     OW30418   4.837   1.916   0.417
 9840SOL    HW130419   4.741   1.895   0.437
 9840SOL    HW230420   4.873   1.978   0.487
 9841SOL     OW30421   0.945   5.255   3.665
 9841SOL    HW130422   0.884   5.325   3.629
 9841SOL    HW230423   1.028   5.297   3.701
 9842SOL     OW30424   3.438   2.900   0.533
 9842SOL    HW130425   3.367   2.964   0.563
 9842SOL    HW230426   3.514   2.902   0.598
 9843SOL     OW30427   0.133   0.069   1.981
 9843SOL    HW130428   0.157   7.019   1.923
 9843SOL    HW230429   0.215   0.108   2.021
 9844SOL     OW30430   6.095   1.178   3.822
 9844SOL    HW130431   5.996   1.166   3.828
 9844SOL    HW230432   6.138   1.142   3.905
 9845SOL     OW30433   1.364   2.536   2.434
 9845SOL    HW130434   1.434   2.566   2.499
 9845SOL    HW230435   1.281   2.589   2.449
 9846SOL     OW30436   4.579   1.680   0.938
 9846SOL    HW130437   4.678   1.689   0.942
 9846SOL    HW230438   4.538   1.727   1.017
 9847SOL     OW30439   3.961   2.998   2.346
 9847SOL    HW130440   3.950   3.010   2.444
 9847SOL    HW230441   3.959   2.900   2.324
 9848SOL     OW30442   4.025   4.673   5.743
 9848SOL    HW130443   4.088   4.665   5.665
 9848SOL    HW230444   3.931   4.683   5.709
 9849SOL     OW30445   0.908   6.984   6.801
 9849SOL    HW130446   0.837   0.018   6.768
 9849SOL    HW230447   0.915   6.905   6.739
 9850SOL     OW30448   0.256   0.590   3.672
 9850SOL    HW130449   0.237   0.687   3.653
 9850SOL    HW230450   0.176   0.549   3.716
 9851SOL     OW30451   2.530   6.367   4.662
 9851SOL    HW130452   2.612   6.424   4.661
 9851SOL    HW230453   2.534   6.303   4.585
 9852SOL     OW30454   1.748   1.329   4.910
 9852SOL    HW130455   1.759   1.335   4.811
 9852SOL    HW230456   1.681   1.258   4.932
 9853SOL     OW30457   6.581   3.470   5.551
 9853SOL    HW130458   6.554   3.377   5.575
 9853SOL    HW230459   6.681   3.474   5.541
 9854SOL     OW30460   0.627   5.819   4.739
 9854SOL    HW130461   0.689   5.815   4.661
 9854SOL    HW230462   0.680   5.826   4.824
 9855SOL     OW30463   1.379   3.003   1.222
 9855SOL    HW130464   1.444   2.927   1.225
 9855SOL    HW230465   1.429   3.090   1.229
 9856SOL     OW30466   5.504   4.703   4.131
 9856SOL    HW130467   5.510   4.794   4.171
 9856SOL    HW230468   5.583   4.687   4.072
 9857SOL     OW30469   5.481   2.915   2.734
 9857SOL    HW130470   5.388   2.918   2.771
 9857SOL    HW230471   5.478   2.923   2.635
 9858SOL     OW30472   0.538   6.628   1.629
 9858SOL    HW130473   0.631   6.617   1.593
 9858SOL    HW230474   0.506   6.721   1.611
 9859SOL     OW30475   6.932   4.622   4.414
 9859SOL    HW130476   6.855   4.565   4.442
 9859SOL    HW230477   7.016   4.586   4.452
 9860SOL     OW30478   1.440   2.216   4.737
 9860SOL    HW130479   1.361   2.156   4.750
 9860SOL    HW230480   1.434   2.292   4.802
 9861SOL     OW30481   3.094   0.430   3.652
 9861SOL    HW130482   3.030   0.503   3.627
 9861SOL    HW230483   3.059   0.342   3.620
 9862SOL     OW30484   2.715   3.870   0.671
 9862SOL    HW130485   2.657   3.888   0.750
 9862SOL    HW230486   2.670   3.804   0.610
 9863SOL     OW30487   3.175   5.603   1.082
 9863SOL    HW130488   3.155   5.686   1.031
 9863SOL    HW230489   3.141   5.611   1.176
 9864SOL     OW30490   3.200   0.756   5.243
 9864SOL    HW130491   3.108   0.738   5.279
 9864SOL    HW230492   3.207   0.720   5.150
 9865SOL     OW30493   0.714   6.329   4.839
 9865SOL    HW130494   0.698   6.234   4.868
 9865SOL    HW230495   0.803   6.359   4.872
 9866SOL     OW30496   6.028   4.538   5.022
 9866SOL    HW130497   6.072   4.491   4.946
 9866SOL    HW230498   6.097   4.564   5.090
 9867SOL     OW30499   6.448   2.823   2.452
 9867SOL    HW130500   6.496   2.907   2.428
 9867SOL    HW230501   6.509   2.766   2.508
 9868SOL     OW30502   0.593   3.601   4.316
 9868SOL    HW130503   0.661   3.546   4.268
 9868SOL    HW230504   0.639   3.662   4.380
 9869SOL     OW30505   0.866   2.726   1.127
 9869SOL    HW130506   0.893   2.744   1.221
 9869SOL    HW230507   0.900   2.637   1.098
 9870SOL     OW30508   4.232   0.591   2.906
 9870SOL    HW130509   4.137   0.579   2.934
 9870SOL    HW230510   4.290   0.529   2.958
 9871SOL     OW30511   6.855   3.441   5.626
 9871SOL    HW130512   6.845   3.342   5.640
 9871SOL    HW230513   6.929   3.458   5.561
 9872SOL     OW30514   2.316   5.219   5.138
 9872SOL    HW130515   2.268   5.247   5.221
 9872SOL    HW230516   2.287   5.128   5.111
 9873SOL     OW30517   1.981   2.286   6.021
 9873SOL    HW130518   1.929   2.213   5.977
 9873SOL    HW230519   2.049   2.322   5.957
 9874SOL     OW30520   0.381   3.300   4.957
 9874SOL    HW130521   0.444   3.271   5.029
 9874SOL    HW230522   0.422   3.283   4.867
 9875SOL     OW30523   6.839   6.026   2.570
 9875SOL    HW130524   6.815   6.107   2.622
 9875SOL    HW230525   6.919   5.982   2.611
 9876SOL     OW30526   5.193   0.947   4.548
 9876SOL    HW130527   5.189   0.991   4.638
 9876SOL    HW230528   5.102   0.913   4.525
 9877SOL     OW30529   6.932   4.215   4.496
 9877SOL    HW130530   7.001   4.227   4.424
 9877SOL    HW230531   6.859   4.282   4.484
 9878SOL     OW30532   2.522   3.878   6.781
 9878SOL    HW130533   2.595   3.868   6.713
 9878SOL    HW230534   2.445   3.927   6.740
 9879SOL     OW30535   0.334   4.567   5.635
 9879SOL    HW130536   0.432   4.545   5.635
 9879SOL    HW230537   0.321   4.659   5.598
 9880SOL     OW30538   2.138   0.462   0.328
 9880SOL    HW130539   2.186   0.550   0.319
 9880SOL    HW230540   2.145   0.411   0.242
 9881SOL     OW30541   6.562   0.968   4.478
 9881SOL    HW130542   6.542   0.959   4.380
 9881SOL    HW230543   6.597   1.060   4.496
 9882SOL     OW30544   3.610   3.371   5.099
 9882SOL    HW130545   3.612   3.360   5.000
 9882SOL    HW230546   3.699   3.346   5.137
 9883SOL     OW30547   1.646   5.798   1.858
 9883SOL    HW130548   1.557   5.753   1.861
 9883SOL    HW230549   1.691   5.788   1.947
 9884SOL     OW30550   3.535   2.258   0.191
 9884SOL    HW130551   3.501   2.338   0.142
 9884SOL    HW230552   3.462   2.189   0.197
 9885SOL     OW30553   1.178   3.632   4.060
 9885SOL    HW130554   1.148   3.690   3.984
 9885SOL    HW230555   1.099   3.609   4.117
 9886SOL     OW30556   6.606   6.761   2.001
 9886SOL    HW130557   6.594   6.662   1.988
 9886SOL    HW230558   6.518   6.807   1.986
 9887SOL     OW30559   3.241   7.016   0.685
 9887SOL    HW130560   3.266   7.023   0.782
 9887SOL    HW230561   3.292   6.942   0.642
 9888SOL     OW30562   5.718   5.921   3.464
 9888SOL    HW130563   5.740   5.990   3.532
 9888SOL    HW230564   5.622   5.892   3.476
 9889SOL     OW30565   1.038   5.132   2.582
 9889SOL    HW130566   1.076   5.047   2.619
 9889SOL    HW230567   0.978   5.174   2.650
 9890SOL     OW30568   6.542   2.874   0.297
 9890SOL    HW130569   6.547   2.887   0.396
 9890SOL    HW230570   6.626   2.908   0.255
 9891SOL     OW30571   5.279   5.142   1.540
 9891SOL    HW130572   5.186   5.167   1.567
 9891SOL    HW230573   5.277   5.092   1.454
 9892SOL     OW30574   2.148   5.534   3.810
 9892SOL    HW130575   2.090   5.615   3.800
 9892SOL    HW230576   2.129   5.489   3.897
 9893SOL     OW30577   6.412   6.161   2.384
 9893SOL    HW130578   6.469   6.222   2.329
 9893SOL    HW230579   6.443   6.067   2.373
 9894SOL     OW30580   2.855   1.171   6.506
 9894SOL    HW130581   2.811   1.239   6.449
 9894SOL    HW230582   2.794   1.144   6.580
 9895SOL     OW30583   6.315   2.114   5.658
 9895SOL    HW130584   6.376   2.192   5.672
 9895SOL    HW230585   6.261   2.129   5.575
 9896SOL     OW30586   4.736   2.676   0.837
 9896SOL    HW130587   4.656   2.679   0.897
 9896SOL    HW230588   4.805   2.741   0.869
 9897SOL     OW30589   5.372   1.073   2.361
 9897SOL    HW130590   5.462   1.116   2.366
 9897SOL    HW230591   5.374   1.001   2.291
 9898SOL     OW30592   0.849   5.378   5.313
 9898SOL    HW130593   0.833   5.464   5.265
 9898SOL    HW230594   0.853   5.303   5.246
 9899SOL     OW30595   6.376   4.411   2.168
 9899SOL    HW130596   6.300   4.472   2.193
 9899SOL    HW230597   6.362   4.377   2.075
 9900SOL     OW30598   2.065   1.988   2.621
 9900SOL    HW130599   2.140   2.035   2.575
 9900SOL    HW230600   2.061   2.018   2.716
 9901SOL     OW30601   1.125   2.573   0.554
 9901SOL    HW130602   1.026   2.564   0.548
 9901SOL    HW230603   1.163   2.495   0.604
 9902SOL     OW30604   3.442   2.942   1.219
 9902SOL    HW130605   3.383   2.911   1.144
 9902SOL    HW230606   3.457   2.866   1.282
 9903SOL     OW30607   4.503   0.336   2.746
 9903SOL    HW130608   4.545   0.420   2.782
 9903SOL    HW230609   4.559   0.257   2.772
 9904SOL     OW30610   0.010   3.214   6.566
 9904SOL    HW130611   6.943   3.246   6.557
 9904SOL    HW230612   0.033   3.206   6.663
 9905SOL     OW30613   1.887   6.506   0.847
 9905SOL    HW130614   1.879   6.424   0.791
 9905SOL    HW230615   1.806   6.515   0.905
 9906SOL     OW30616   1.492   3.077   0.407
 9906SOL    HW130617   1.562   3.076   0.479
 9906SOL    HW230618   1.415   3.135   0.436
 9907SOL     OW30619   2.778   0.224   3.390
 9907SOL    HW130620   2.701   0.168   3.360
 9907SOL    HW230621   2.831   0.252   3.310
 9908SOL     OW30622   0.860   3.369   6.040
 9908SOL    HW130623   0.859   3.348   6.138
 9908SOL    HW230624   0.897   3.461   6.026
 9909SOL     OW30625   3.502   0.804   3.254
 9909SOL    HW130626   3.512   0.903   3.267
 9909SOL    HW230627   3.405   0.782   3.243
 9910SOL     OW30628   0.046   5.039   1.726
 9910SOL    HW130629   0.064   4.941   1.715
 9910SOL    HW230630   0.096   5.090   1.656
 9911SOL     OW30631   5.073   5.199   3.246
 9911SOL    HW130632   5.040   5.105   3.237
 9911SOL    HW230633   5.018   5.247   3.314
 9912SOL     OW30634   4.389   0.826   2.872
 9912SOL    HW130635   4.349   0.735   2.861
 9912SOL    HW230636   4.331   0.881   2.932
 9913SOL     OW30637   6.275   3.173   2.161
 9913SOL    HW130638   6.273   3.114   2.242
 9913SOL    HW230639   6.193   3.158   2.107
 9914SOL     OW30640   0.678   0.927   5.597
 9914SOL    HW130641   0.755   0.864   5.610
 9914SOL    HW230642   0.700   1.015   5.639
 9915SOL     OW30643   5.377   3.831   4.089
 9915SOL    HW130644   5.441   3.904   4.064
 9915SOL    HW230645   5.366   3.769   4.012
 9916SOL     OW30646   2.848   2.015   4.091
 9916SOL    HW130647   2.785   1.965   4.150
 9916SOL    HW230648   2.814   2.013   3.996
 9917SOL     OW30649   3.224   2.963   4.682
 9917SOL    HW130650   3.189   2.948   4.589
 9917SOL    HW230651   3.324   2.956   4.682
 9918SOL     OW30652   1.451   1.442   0.434
 9918SOL    HW130653   1.369   1.385   0.437
 9918SOL    HW230654   1.499   1.437   0.521
 9919SOL     OW30655   2.117   4.724   2.390
 9919SOL    HW130656   2.019   4.742   2.403
 9919SOL    HW230657   2.170   4.794   2.438
 9920SOL     OW30658   3.385   1.081   2.931
 9920SOL    HW130659   3.319   1.144   2.892
 9920SOL    HW230660   3.384   1.089   3.031
 9921SOL     OW30661   5.894   6.399   3.907
 9921SOL    HW130662   5.808   6.358   3.875
 9921SOL    HW230663   5.967   6.330   3.904
 9922SOL     OW30664   4.524   4.422   0.560
 9922SOL    HW130665   4.509   4.344   0.500
 9922SOL    HW230666   4.604   4.405   0.618
 9923SOL     OW30667   6.873   2.877   0.569
 9923SOL    HW130668   6.860   2.926   0.655
 9923SOL    HW230669   6.841   2.783   0.580
 9924SOL     OW30670   5.729   1.561   1.654
 9924SOL    HW130671   5.689   1.644   1.692
 9924SOL    HW230672   5.829   1.568   1.657
 9925SOL     OW30673   2.020   4.285   5.370
 9925SOL    HW130674   2.029   4.215   5.299
 9925SOL    HW230675   1.954   4.353   5.341
 9926SOL     OW30676   3.504   2.386   1.354
 9926SOL    HW130677   3.464   2.467   1.396
 9926SOL    HW230678   3.532   2.322   1.425
 9927SOL     OW30679   1.014   2.445   1.376
 9927SOL    HW130680   0.944   2.444   1.447
 9927SOL    HW230681   1.101   2.474   1.416
 9928SOL     OW30682   6.176   4.590   2.308
 9928SOL    HW130683   6.155   4.517   2.373
 9928SOL    HW230684   6.125   4.673   2.332
 9929SOL     OW30685   2.647   4.070   5.495
 9929SOL    HW130686   2.650   4.005   5.419
 9929SOL    HW230687   2.665   4.162   5.461
 9930SOL     OW30688   6.990   0.511   5.803
 9930SOL    HW130689   6.960   0.463   5.720
 9930SOL    HW230690   0.023   0.451   5.856
 9931SOL     OW30691   0.248   5.278   5.176
 9931SOL    HW130692   0.322   5.343   5.161
 9931SOL    HW230693   0.201   5.299   5.261
 9932SOL     OW30694   1.641   2.239   0.776
 9932SOL    HW130695   1.568   2.171   0.766
 9932SOL    HW230696   1.606   2.318   0.826
 9933SOL     OW30697   2.051   0.958   3.795
 9933SOL    HW130698   2.140   0.944   3.753
 9933SOL    HW230699   2.061   1.012   3.879
 9934SOL     OW30700   5.905   2.211   0.331
 9934SOL    HW130701   5.985   2.153   0.318
 9934SOL    HW230702   5.895   2.271   0.252
 9935SOL     OW30703   2.845   2.411   0.621
 9935SOL    HW130704   2.880   2.374   0.708
 9935SOL    HW230705   2.922   2.433   0.561
 9936SOL     OW30706   5.653   4.868   6.274
 9936SOL    HW130707   5.563   4.837   6.307
 9936SOL    HW230708   5.686   4.942   6.332
 9937SOL     OW30709   1.225   0.957   3.080
 9937SOL    HW130710   1.253   1.047   3.113
 9937SOL    HW230711   1.134   0.936   3.115
 9938SOL     OW30712   5.526   0.350   3.457
 9938SOL    HW130713   5.526   0.439   3.503
 9938SOL    HW230714   5.559   0.360   3.364
 9939SOL     OW30715   2.020   2.797   1.147
 9939SOL    HW130716   2.102   2.854   1.149
 9939SOL    HW230717   2.019   2.738   1.228
 9940SOL     OW30718   6.978   0.235   3.683
 9940SOL    HW130719   7.001   0.301   3.754
 9940SOL    HW230720   6.879   0.231   3.671
 9941SOL     OW30721   3.399   5.522   5.902
 9941SOL    HW130722   3.422   5.556   5.993
 9941SOL    HW230723   3.408   5.422   5.900
 9942SOL     OW30724   4.940   4.509   2.903
 9942SOL    HW130725   4.908   4.604   2.894
 9942SOL    HW230726   4.984   4.481   2.818
 9943SOL     OW30727   0.931   4.445   6.281
 9943SOL    HW130728   0.997   4.370   6.283
 9943SOL    HW230729   0.981   4.532   6.273
 9944SOL     OW30730   6.983   5.850   6.490
 9944SOL    HW130731   6.946   5.889   6.574
 9944SOL    HW230732   0.025   5.781   6.512
 9945SOL     OW30733   5.395   3.773   6.517
 9945SOL    HW130734   5.310   3.753   6.467
 9945SOL    HW230735   5.415   3.697   6.579
 9946SOL     OW30736   6.434   0.272   3.306
 9946SOL    HW130737   6.469   0.357   3.346
 9946SOL    HW230738   6.425   0.203   3.377
 9947SOL     OW30739   1.788   1.412   3.280
 9947SOL    HW130740   1.770   1.327   3.328
 9947SOL    HW230741   1.859   1.464   3.328
 9948SOL     OW30742   6.783   5.842   5.041
 9948SOL    HW130743   6.873   5.855   5.082
 9948SOL    HW230744   6.713   5.846   5.113
 9949SOL     OW30745   0.353   5.225   4.209
 9949SOL    HW130746   0.412   5.175   4.146
 9949SOL    HW230747   0.371   5.194   4.303
 9950SOL     OW30748   6.757   5.214   6.114
 9950SOL    HW130749   6.670   5.170   6.137
 9950SOL    HW230750   6.832   5.151   6.129
 9951SOL     OW30751   1.613   2.340   2.650
 9951SOL    HW130752   1.665   2.425   2.643
 9951SOL    HW230753   1.614   2.309   2.745
 9952SOL     OW30754   1.033   3.531   1.799
 9952SOL    HW130755   0.977   3.463   1.752
 9952SOL    HW230756   1.044   3.611   1.739
 9953SOL     OW30757   5.857   2.318   3.261
 9953SOL    HW130758   5.927   2.291   3.195
 9953SOL    HW230759   5.815   2.236   3.301
 9954SOL     OW30760   1.589   0.985   5.048
 9954SOL    HW130761   1.493   0.993   5.076
 9954SOL    HW230762   1.609   0.891   5.023
 9955SOL     OW30763   4.848   3.009   6.802
 9955SOL    HW130764   4.887   2.917   6.797
 9955SOL    HW230765   4.802   3.030   6.716
 9956SOL     OW30766   6.901   3.767   2.509
 9956SOL    HW130767   6.895   3.839   2.440
 9956SOL    HW230768   6.997   3.752   2.534
 9957SOL     OW30769   5.801   0.013   1.137
 9957SOL    HW130770   5.790   6.942   1.151
 9957SOL    HW230771   5.897   0.034   1.121
 9958SOL     OW30772   3.514   5.699   6.135
 9958SOL    HW130773   3.465   5.784   6.116
 9958SOL    HW230774   3.454   5.635   6.184
 9959SOL     OW30775   4.092   3.448   1.597
 9959SOL    HW130776   4.135   3.370   1.642
 9959SOL    HW230777   4.000   3.460   1.634
 9960SOL     OW30778   0.174   6.316   1.728
 9960SOL    HW130779   0.212   6.233   1.687
 9960SOL    HW230780   0.248   6.374   1.760
 9961SOL     OW30781   2.073   4.371   2.614
 9961SOL    HW130782   2.055   4.300   2.682
 9961SOL    HW230783   2.172   4.383   2.604
 9962SOL     OW30784   3.828   1.087   2.016
 9962SOL    HW130785   3.878   1.128   1.940
 9962SOL    HW230786   3.874   1.110   2.102
 9963SOL     OW30787   2.529   2.896   0.128
 9963SOL    HW130788   2.532   2.796   0.127
 9963SOL    HW230789   2.585   2.932   0.053
 9964SOL     OW30790   3.496   4.954   5.792
 9964SOL    HW130791   3.478   5.021   5.720
 9964SOL    HW230792   3.578   4.902   5.769
 9965SOL     OW30793   3.444   5.579   4.683
 9965SOL    HW130794   3.394   5.526   4.752
 9965SOL    HW230795   3.422   5.544   4.592
 9966SOL     OW30796   2.811   5.239   2.215
 9966SOL    HW130797   2.911   5.242   2.204
 9966SOL    HW230798   2.786   5.283   2.301
 9967SOL     OW30799   6.038   5.281   2.854
 9967SOL    HW130800   6.069   5.374   2.836
 9967SOL    HW230801   6.010   5.273   2.950
 9968SOL     OW30802   4.137   5.596   6.902
 9968SOL    HW130803   4.045   5.572   6.934
 9968SOL    HW230804   4.189   5.512   6.888
 9969SOL     OW30805   1.680   3.134   4.295
 9969SOL    HW130806   1.771   3.093   4.295
 9969SOL    HW230807   1.652   3.153   4.389
 9970SOL     OW30808   6.654   5.493   1.439
 9970SOL    HW130809   6.697   5.416   1.392
 9970SOL    HW230810   6.709   5.575   1.427
 9971SOL     OW30811   2.184   2.506   1.496
 9971SOL    HW130812   2.233   2.502   1.583
 9971SOL    HW230813   2.224   2.576   1.438
 9972SOL     OW30814   2.614   4.007   1.271
 9972SOL    HW130815   2.674   3.937   1.232
 9972SOL    HW230816   2.522   3.970   1.283
 9973SOL     OW30817   4.735   2.812   4.356
 9973SOL    HW130818   4.795   2.818   4.436
 9973SOL    HW230819   4.739   2.897   4.304
 9974SOL     OW30820   0.277   2.558   3.094
 9974SOL    HW130821   0.287   2.465   3.059
 9974SOL    HW230822   0.309   2.623   3.025
 9975SOL     OW30823   0.530   5.938   6.419
 9975SOL    HW130824   0.599   5.881   6.375
 9975SOL    HW230825   0.443   5.889   6.422
 9976SOL     OW30826   1.167   5.173   5.313
 9976SOL    HW130827   1.138   5.222   5.230
 9976SOL    HW230828   1.199   5.239   5.381
 9977SOL     OW30829   5.230   4.682   5.774
 9977SOL    HW130830   5.193   4.762   5.821
 9977SOL    HW230831   5.160   4.610   5.771
 9978SOL     OW30832   7.017   1.728   5.402
 9978SOL    HW130833   6.977   1.701   5.314
 9978SOL    HW230834   0.016   1.645   5.452
 9979SOL     OW30835   6.414   4.131   6.447
 9979SOL    HW130836   6.343   4.157   6.381
 9979SOL    HW230837   6.503   4.136   6.404
 9980SOL     OW30838   2.156   0.269   0.779
 9980SOL    HW130839   2.159   0.206   0.701
 9980SOL    HW230840   2.129   0.360   0.748
 9981SOL     OW30841   1.962   2.032   0.878
 9981SOL    HW130842   1.961   2.128   0.904
 9981SOL    HW230843   1.900   2.018   0.801
 9982SOL     OW30844   0.922   1.070   4.221
 9982SOL    HW130845   0.832   1.033   4.198
 9982SOL    HW230846   0.986   0.994   4.236
 9983SOL     OW30847   0.078   1.384   2.129
 9983SOL    HW130848   0.086   1.482   2.149
 9983SOL    HW230849   0.165   1.339   2.147
 9984SOL     OW30850   0.911   6.029   0.393
 9984SOL    HW130851   0.993   6.067   0.434
 9984SOL    HW230852   0.832   6.085   0.417
 9985SOL     OW30853   2.790   5.428   1.362
 9985SOL    HW130854   2.818   5.409   1.456
 9985SOL    HW230855   2.731   5.354   1.330
 9986SOL     OW30856   5.937   5.004   0.811
 9986SOL    HW130857   5.972   5.060   0.887
 9986SOL    HW230858   6.005   5.002   0.738
 9987SOL     OW30859   6.321   2.586   2.159
 9987SOL    HW130860   6.412   2.596   2.200
 9987SOL    HW230861   6.257   2.553   2.228
 9988SOL     OW30862   6.739   5.431   4.297
 9988SOL    HW130863   6.680   5.510   4.280
 9988SOL    HW230864   6.834   5.456   4.282
 9989SOL     OW30865   6.158   4.107   2.279
 9989SOL    HW130866   6.253   4.081   2.294
 9989SOL    HW230867   6.137   4.191   2.329
 9990SOL     OW30868   2.280   6.644   3.012
 9990SOL    HW130869   2.266   6.734   2.970
 9990SOL    HW230870   2.343   6.590   2.955
 9991SOL     OW30871   2.208   3.875   3.639
 9991SOL    HW130872   2.177   3.786   3.672
 9991SOL    HW230873   2.219   3.937   3.716
 9992SOL     OW30874   3.705   3.841   0.914
 9992SOL    HW130875   3.746   3.780   0.846
 9992SOL    HW230876   3.621   3.800   0.949
 9993SOL     OW30877   3.899   6.756   3.915
 9993SOL    HW130878   3.916   6.663   3.881
 9993SOL    HW230879   3.984   6.808   3.911
 9994SOL     OW30880   6.772   3.977   2.341
 9994SOL    HW130881   6.833   4.050   2.371
 9994SOL    HW230882   6.753   3.986   2.244
 9995SOL     OW30883   3.567   1.374   3.677
 9995SOL    HW130884   3.567   1.439   3.600
 9995SOL    HW230885   3.517   1.414   3.754
 9996SOL     OW30886   2.831   3.915   1.687
 9996SOL    HW130887   2.877   3.897   1.600
 9996SOL    HW230888   2.733   3.894   1.677
 9997SOL     OW30889   5.805   0.282   2.492
 9997SOL    HW130890   5.797   0.296   2.394
 9997SOL    HW230891   5.788   0.185   2.513
 9998SOL     OW30892   5.739   3.494   1.929
 9998SOL    HW130893   5.828   3.512   1.888
 9998SOL    HW230894   5.735   3.399   1.961
 9999SOL     OW30895   0.030   5.804   5.131
 9999SOL    HW130896   0.110   5.848   5.091
 9999SOL    HW230897   0.052   5.774   5.224
10000SOL     OW30898   5.445   2.472   0.209
10000SOL    HW130899   5.439   2.415   0.290
10000SOL    HW230900   5.487   2.420   0.134
10001SOL     OW30901   3.405   0.380   1.527
10001SOL    HW130902   3.470   0.450   1.498
10001SOL    HW230903   3.454   0.304   1.570
10002SOL     OW30904   1.808   1.037   1.758
10002SOL    HW130905   1.736   0.975   1.789
10002SOL    HW230906   1.864   1.066   1.836
10003SOL     OW30907   2.840   2.253   2.248
10003SOL    HW130908   2.916   2.293   2.298
10003SOL    HW230909   2.840   2.286   2.154
10004SOL     OW30910   5.527   2.978   5.252
10004SOL    HW130911   5.433   2.953   5.278
10004SOL    HW230912   5.571   2.899   5.209
10005SOL     OW30913   3.227   5.564   2.891
10005SOL    HW130914   3.271   5.539   2.805
10005SOL    HW230915   3.202   5.660   2.889
10006SOL     OW30916   5.926   0.323   5.597
10006SOL    HW130917   5.947   0.228   5.574
10006SOL    HW230918   5.853   0.357   5.537
10007SOL     OW30919   0.925   3.215   4.040
10007SOL    HW130920   0.992   3.281   4.075
10007SOL    HW230921   0.896   3.155   4.114
10008SOL     OW30922   4.838   1.040   3.698
10008SOL    HW130923   4.794   0.955   3.724
10008SOL    HW230924   4.818   1.111   3.766
10009SOL     OW30925   1.443   3.744   1.331
10009SOL    HW130926   1.403   3.685   1.401
10009SOL    HW230927   1.507   3.807   1.373
10010SOL     OW30928   2.503   6.147   0.433
10010SOL    HW130929   2.473   6.059   0.470
10010SOL    HW230930   2.454   6.165   0.348
10011SOL     OW30931   0.582   4.478   6.571
10011SOL    HW130932   0.543   4.569   6.575
10011SOL    HW230933   0.667   4.476   6.623
10012SOL     OW30934   5.295   0.001   1.764
10012SOL    HW130935   5.338   6.965   1.700
10012SOL    HW230936   5.202   6.997   1.783
10013SOL     OW30937   1.863   2.303   3.971
10013SOL    HW130938   1.787   2.301   3.907
10013SOL    HW230939   1.870   2.394   4.012
10014SOL     OW30940   1.007   0.991   1.693
10014SOL    HW130941   0.929   1.050   1.668
10014SOL    HW230942   1.033   0.936   1.614
10015SOL     OW30943   4.001   5.288   0.264
10015SOL    HW130944   3.989   5.247   0.173
10015SOL    HW230945   4.051   5.224   0.322
10016SOL     OW30946   1.679   0.824   4.794
10016SOL    HW130947   1.622   0.745   4.770
10016SOL    HW230948   1.715   0.865   4.710
10017SOL     OW30949   1.901   1.620   2.876
10017SOL    HW130950   1.879   1.710   2.839
10017SOL    HW230951   1.961   1.631   2.955
10018SOL     OW30952   6.741   4.728   5.644
10018SOL    HW130953   6.805   4.758   5.716
10018SOL    HW230954   6.790   4.721   5.557
10019SOL     OW30955   0.705   1.526   3.117
10019SOL    HW130956   0.745   1.608   3.159
10019SOL    HW230957   0.753   1.505   3.032
10020SOL     OW30958   0.325   0.597   1.408
10020SOL    HW130959   0.326   0.498   1.418
10020SOL    HW230960   0.362   0.622   1.318
10021SOL     OW30961   0.873   2.623   2.527
10021SOL    HW130962   0.787   2.672   2.538
10021SOL    HW230963   0.854   2.530   2.496
10022SOL     OW30964   3.267   6.588   0.640
10022SOL    HW130965   3.336   6.598   0.712
10022SOL    HW230966   3.303   6.624   0.554
10023SOL     OW30967   1.995   5.119   4.141
10023SOL    HW130968   1.948   5.143   4.226
10023SOL    HW230969   2.085   5.082   4.162
10024SOL     OW30970   2.093   5.583   2.100
10024SOL    HW130971   2.185   5.600   2.135
10024SOL    HW230972   2.046   5.518   2.161
10025SOL     OW30973   1.482   2.929   2.159
10025SOL    HW130974   1.472   2.933   2.059
10025SOL    HW230975   1.528   3.012   2.190
10026SOL     OW30976   5.217   0.591   3.140
10026SOL    HW130977   5.128   0.621   3.106
10026SOL    HW230978   5.286   0.601   3.068
10027SOL     OW30979   0.976   2.562   5.351
10027SOL    HW130980   0.978   2.503   5.431
10027SOL    HW230981   0.899   2.626   5.359
10028SOL     OW30982   2.001   1.778   1.971
10028SOL    HW130983   1.951   1.725   1.903
10028SOL    HW230984   2.048   1.854   1.927
10029SOL     OW30985   1.757   2.364   3.300
10029SOL    HW130986   1.664   2.398   3.287
10029SOL    HW230987   1.754   2.278   3.352
10030SOL     OW30988   3.349   0.464   4.909
10030SOL    HW130989   3.413   0.476   4.985
10030SOL    HW230990   3.369   0.379   4.861
10031SOL     OW30991   5.710   4.486   4.631
10031SOL    HW130992   5.638   4.474   4.563
10031SOL    HW230993   5.799   4.483   4.585
10032SOL     OW30994   4.589   0.415   5.426
10032SOL    HW130995   4.682   0.447   5.407
10032SOL    HW230996   4.525   0.459   5.364
10033SOL     OW30997   4.864   2.573   3.950
10033SOL    HW130998   4.796   2.509   3.985
10033SOL    HW230999   4.821   2.660   3.929
10034SOL     OW31000   3.376   0.439   3.642
10034SOL    HW131001   3.280   0.415   3.657
10034SOL    HW231002   3.383   0.497   3.561
10035SOL     OW31003   6.528   5.205   1.060
10035SOL    HW131004   6.597   5.134   1.076
10035SOL    HW231005   6.442   5.163   1.032
10036SOL     OW31006   6.489   0.485   0.417
10036SOL    HW131007   6.551   0.562   0.429
10036SOL    HW231008   6.417   0.511   0.353
10037SOL     OW31009   5.923   0.713   0.357
10037SOL    HW131010   5.975   0.779   0.303
10037SOL    HW231011   5.945   0.727   0.454
10038SOL     OW31012   4.276   6.996   6.475
10038SOL    HW131013   4.283   6.963   6.569
10038SOL    HW231014   4.207   6.944   6.426
10039SOL     OW31015   4.451   6.577   5.053
10039SOL    HW131016   4.496   6.493   5.025
10039SOL    HW231017   4.366   6.555   5.101
10040SOL     OW31018   4.028   5.977   6.348
10040SOL    HW131019   4.123   5.976   6.314
10040SOL    HW231020   4.018   6.049   6.416
10041SOL     OW31021   4.884   6.451   6.599
10041SOL    HW131022   4.848   6.409   6.515
10041SOL    HW231023   4.810   6.465   6.664
10042SOL     OW31024   1.284   2.161   5.177
10042SOL    HW131025   1.192   2.197   5.161
10042SOL    HW231026   1.317   2.116   5.094
10043SOL     OW31027   0.371   2.112   4.362
10043SOL    HW131028   0.461   2.072   4.379
10043SOL    HW231029   0.307   2.039   4.339
10044SOL     OW31030   2.211   1.740   4.057
10044SOL    HW131031   2.166   1.826   4.033
10044SOL    HW231032   2.305   1.758   4.085
10045SOL     OW31033   5.242   6.736   4.090
10045SOL    HW131034   5.165   6.686   4.052
10045SOL    HW231035   5.321   6.674   4.100
10046SOL     OW31036   1.191   3.887   1.414
10046SOL    HW131037   1.259   3.844   1.355
10046SOL    HW231038   1.181   3.832   1.498
10047SOL     OW31039   6.460   3.821   5.023
10047SOL    HW131040   6.548   3.775   5.012
10047SOL    HW231041   6.408   3.814   4.939
10048SOL     OW31042   5.164   2.235   2.483
10048SOL    HW131043   5.174   2.327   2.445
10048SOL    HW231044   5.162   2.241   2.583
10049SOL     OW31045   0.957   0.210   6.438
10049SOL    HW131046   0.953   0.309   6.420
10049SOL    HW231047   0.905   0.189   6.521
10050SOL     OW31048   6.756   2.672   5.093
10050SOL    HW131049   6.801   2.718   5.170
10050SOL    HW231050   6.676   2.724   5.065
10051SOL     OW31051   6.172   2.627   5.049
10051SOL    HW131052   6.106   2.561   5.084
10051SOL    HW231053   6.138   2.720   5.068
10052SOL     OW31054   3.186   2.173   3.197
10052SOL    HW131055   3.216   2.134   3.110
10052SOL    HW231056   3.088   2.193   3.193
10053SOL     OW31057   3.528   5.870   1.920
10053SOL    HW131058   3.465   5.946   1.907
10053SOL    HW231059   3.596   5.869   1.846
10054SOL     OW31060   4.799   4.956   6.068
10054SOL    HW131061   4.765   4.882   6.126
10054SOL    HW231062   4.723   5.008   6.030
10055SOL     OW31063   6.130   2.089   5.402
10055SOL    HW131064   6.138   2.187   5.387
10055SOL    HW231065   6.034   2.061   5.396
10056SOL     OW31066   5.495   4.345   1.928
10056SOL    HW131067   5.531   4.428   1.885
10056SOL    HW231068   5.556   4.319   2.003
10057SOL     OW31069   4.177   2.259   4.706
10057SOL    HW131070   4.138   2.167   4.696
10057SOL    HW231071   4.140   2.302   4.789
10058SOL     OW31072   0.400   3.925   4.464
10058SOL    HW131073   0.458   3.974   4.399
10058SOL    HW231074   0.305   3.928   4.434
10059SOL     OW31075   4.786   6.440   1.135
10059SOL    HW131076   4.833   6.528   1.146
10059SOL    HW231077   4.697   6.455   1.093
10060SOL     OW31078   1.640   1.452   1.532
10060SOL    HW131079   1.699   1.397   1.592
10060SOL    HW231080   1.681   1.457   1.441
10061SOL     OW31081   5.210   1.257   4.681
10061SOL    HW131082   5.125   1.265   4.733
10061SOL    HW231083   5.280   1.215   4.739
10062SOL     OW31084   6.609   0.214   4.590
10062SOL    HW131085   6.654   0.125   4.598
10062SOL    HW231086   6.588   0.250   4.680
10063SOL     OW31087   1.871   1.432   4.147
10063SOL    HW131088   1.804   1.467   4.213
10063SOL    HW231089   1.962   1.466   4.172
10064SOL     OW31090   4.739   6.784   0.297
10064SOL    HW131091   4.658   6.776   0.354
10064SOL    HW231092   4.754   6.880   0.273
10065SOL     OW31093   2.050   0.008   2.575
10065SOL    HW131094   2.099   6.950   2.561
10065SOL    HW231095   2.091   0.058   2.652
10066SOL     OW31096   1.194   2.064   3.163
10066SOL    HW131097   1.168   2.157   3.138
10066SOL    HW231098   1.205   2.058   3.262
10067SOL     OW31099   6.515   4.344   4.665
10067SOL    HW131100   6.429   4.331   4.615
10067SOL    HW231101   6.548   4.256   4.698
10068SOL     OW31102   6.829   3.318   2.721
10068SOL    HW131103   6.803   3.250   2.653
10068SOL    HW231104   6.897   3.279   2.783
10069SOL     OW31105   1.869   5.342   3.479
10069SOL    HW131106   1.784   5.342   3.426
10069SOL    HW231107   1.878   5.430   3.526
10070SOL     OW31108   6.231   0.246   5.087
10070SOL    HW131109   6.307   0.186   5.063
10070SOL    HW231110   6.207   0.233   5.184
10071SOL     OW31111   6.209   5.896   3.772
10071SOL    HW131112   6.123   5.939   3.802
10071SOL    HW231113   6.249   5.845   3.848
10072SOL     OW31114   0.375   6.279   3.862
10072SOL    HW131115   0.296   6.338   3.878
10072SOL    HW231116   0.457   6.322   3.900
10073SOL     OW31117   6.008   4.789   5.263
10073SOL    HW131118   6.093   4.818   5.219
10073SOL    HW231119   5.939   4.861   5.252
10074SOL     OW31120   1.531   0.730   5.381
10074SOL    HW131121   1.503   0.798   5.449
10074SOL    HW231122   1.541   0.641   5.424
10075SOL     OW31123   1.492   2.783   3.195
10075SOL    HW131124   1.546   2.808   3.115
10075SOL    HW231125   1.396   2.804   3.179
10076SOL     OW31126   0.181   0.221   3.538
10076SOL    HW131127   0.092   0.233   3.581
10076SOL    HW231128   0.209   0.307   3.495
10077SOL     OW31129   3.777   3.013   6.282
10077SOL    HW131130   3.726   3.003   6.196
10077SOL    HW231131   3.719   2.985   6.359
10078SOL     OW31132   0.282   5.152   3.637
10078SOL    HW131133   0.375   5.128   3.611
10078SOL    HW231134   0.238   5.200   3.561
10079SOL     OW31135   6.633   3.655   2.600
10079SOL    HW131136   6.550   3.702   2.632
10079SOL    HW231137   6.704   3.722   2.581
10080SOL     OW31138   4.030   1.431   5.212
10080SOL    HW131139   3.954   1.431   5.147
10080SOL    HW231140   4.117   1.436   5.163
10081SOL     OW31141   0.070   6.968   0.377
10081SOL    HW131142   7.003   6.960   0.409
10081SOL    HW231143   0.079   6.928   0.286
10082SOL     OW31144   6.316   4.957   1.645
10082SOL    HW131145   6.332   4.859   1.661
10082SOL    HW231146   6.361   5.010   1.716
10083SOL     OW31147   4.990   1.310   3.128
10083SOL    HW131148   5.031   1.398   3.102
10083SOL    HW231149   4.893   1.323   3.149
10084SOL     OW31150   2.188   0.772   5.237
10084SOL    HW131151   2.284   0.762   5.208
10084SOL    HW231152   2.179   0.855   5.292
10085SOL     OW31153   1.756   5.912   2.234
10085SOL    HW131154   1.756   6.003   2.193
10085SOL    HW231155   1.669   5.895   2.279
10086SOL     OW31156   4.841   5.787   2.245
10086SOL    HW131157   4.934   5.768   2.275
10086SOL    HW231158   4.777   5.776   2.321
10087SOL     OW31159   0.035   6.994   3.852
10087SOL    HW131160   0.055   0.061   3.827
10087SOL    HW231161   0.003   6.944   3.772
10088SOL     OW31162   0.028   0.029   1.100
10088SOL    HW131163   6.955   0.030   1.109
10088SOL    HW231164   0.053   7.023   1.009
10089SOL     OW31165   2.997   1.834   2.497
10089SOL    HW131166   3.054   1.818   2.417
10089SOL    HW231167   2.916   1.887   2.469
10090SOL     OW31168   1.067   4.980   1.448
10090SOL    HW131169   1.118   5.041   1.509
10090SOL    HW231170   0.976   4.964   1.485
10091SOL     OW31171   1.145   3.648   6.165
10091SOL    HW131172   1.108   3.591   6.239
10091SOL    HW231173   1.208   3.715   6.203
10092SOL     OW31174   1.955   2.771   5.010
10092SOL    HW131175   1.907   2.829   4.944
10092SOL    HW231176   2.033   2.822   5.047
10093SOL     OW31177   6.471   3.420   5.278
10093SOL    HW131178   6.399   3.351   5.277
10093SOL    HW231179   6.498   3.439   5.372
10094SOL     OW31180   2.639   5.695   2.217
10094SOL    HW131181   2.641   5.603   2.178
10094SOL    HW231182   2.639   5.763   2.143
10095SOL     OW31183   5.793   1.572   5.494
10095SOL    HW131184   5.823   1.567   5.589
10095SOL    HW231185   5.714   1.633   5.487
10096SOL     OW31186   4.394   5.074   2.310
10096SOL    HW131187   4.343   4.995   2.276
10096SOL    HW231188   4.449   5.112   2.236
10097SOL     OW31189   0.952   0.541   0.495
10097SOL    HW131190   0.874   0.530   0.557
10097SOL    HW231191   0.993   0.452   0.477
10098SOL     OW31192   2.733   0.673   5.042
10098SOL    HW131193   2.791   0.594   5.023
10098SOL    HW231194   2.708   0.718   4.956
10099SOL     OW31195   7.004   5.183   0.740
10099SOL    HW131196   6.911   5.169   0.774
10099SOL    HW231197   0.041   5.145   0.805
10100SOL     OW31198   5.351   6.999   4.802
10100SOL    HW131199   5.272   0.019   4.841
10100SOL    HW231200   5.425   0.036   4.787
10101SOL     OW31201   5.915   3.823   1.671
10101SOL    HW131202   5.870   3.911   1.662
10101SOL    HW231203   5.847   3.752   1.690
10102SOL     OW31204   0.740   1.087   2.020
10102SOL    HW131205   0.716   1.118   2.112
10102SOL    HW231206   0.671   1.118   1.955
10103SOL     OW31207   2.599   0.007   5.942
10103SOL    HW131208   2.638   6.969   5.877
10103SOL    HW231209   2.673   0.053   5.991
10104SOL     OW31210   1.978   1.834   3.545
10104SOL    HW131211   2.074   1.813   3.532
10104SOL    HW231212   1.931   1.756   3.586
10105SOL     OW31213   1.841   0.596   0.647
10105SOL    HW131214   1.792   0.509   0.632
10105SOL    HW231215   1.842   0.648   0.562
10106SOL     OW31216   3.846   6.529   0.775
10106SOL    HW131217   3.769   6.469   0.752
10106SOL    HW231218   3.814   6.624   0.777
10107SOL     OW31219   6.425   1.603   6.587
10107SOL    HW131220   6.420   1.507   6.561
10107SOL    HW231221   6.402   1.612   6.684
10108SOL     OW31222   6.565   6.850   0.134
10108SOL    HW131223   6.494   6.802   0.083
10108SOL    HW231224   6.545   6.947   0.138
10109SOL     OW31225   5.142   0.166   0.695
10109SOL    HW131226   5.165   0.260   0.670
10109SOL    HW231227   5.191   0.103   0.635
10110SOL     OW31228   3.929   5.511   4.705
10110SOL    HW131229   4.023   5.534   4.679
10110SOL    HW231230   3.880   5.478   4.624
10111SOL     OW31231   5.675   3.360   3.688
10111SOL    HW131232   5.676   3.263   3.665
10111SOL    HW231233   5.642   3.373   3.781
10112SOL     OW31234   5.607   3.458   3.935
10112SOL    HW131235   5.510   3.477   3.921
10112SOL    HW231236   5.654   3.542   3.962
10113SOL     OW31237   4.363   0.500   6.106
10113SOL    HW131238   4.271   0.460   6.106
10113SOL    HW231239   4.384   0.537   6.016
10114SOL     OW31240   5.532   1.227   0.889
10114SOL    HW131241   5.616   1.172   0.897
10114SOL    HW231242   5.554   1.324   0.900
10115SOL     OW31243   3.727   1.522   4.653
10115SOL    HW131244   3.676   1.606   4.673
10115SOL    HW231245   3.692   1.447   4.710
10116SOL     OW31246   0.723   6.210   0.515
10116SOL    HW131247   0.626   6.213   0.494
10116SOL    HW231248   0.753   6.299   0.549
10117SOL     OW31249   6.654   5.861   5.758
10117SOL    HW131250   6.692   5.788   5.701
10117SOL    HW231251   6.719   5.938   5.761
10118SOL     OW31252   1.879   4.600   2.781
10118SOL    HW131253   1.863   4.555   2.869
10118SOL    HW231254   1.978   4.610   2.767
10119SOL     OW31255   0.551   5.786   4.418
10119SOL    HW131256   0.529   5.875   4.456
10119SOL    HW231257   0.488   5.717   4.454
10120SOL     OW31258   1.642   3.145   5.085
10120SOL    HW131259   1.659   3.183   5.176
10120SOL    HW231260   1.626   3.219   5.020
10121SOL     OW31261   6.344   3.952   6.660
10121SOL    HW131262   6.376   4.018   6.592
10121SOL    HW231263   6.319   3.999   6.744
10122SOL     OW31264   6.213   3.288   1.827
10122SOL    HW131265   6.214   3.360   1.896
10122SOL    HW231266   6.164   3.209   1.862
10123SOL     OW31267   5.374   6.805   0.223
10123SOL    HW131268   5.381   6.707   0.205
10123SOL    HW231269   5.418   6.826   0.311
10124SOL     OW31270   1.165   4.271   0.496
10124SOL    HW131271   1.192   4.310   0.408
10124SOL    HW231272   1.239   4.213   0.531
10125SOL     OW31273   2.049   1.361   2.198
10125SOL    HW131274   1.951   1.359   2.179
10125SOL    HW231275   2.100   1.349   2.113
10126SOL     OW31276   0.066   6.562   6.495
10126SOL    HW131277   0.156   6.559   6.451
10126SOL    HW231278   0.053   6.481   6.551
10127SOL     OW31279   2.916   4.645   6.314
10127SOL    HW131280   2.820   4.623   6.333
10127SOL    HW231281   2.921   4.708   6.237
10128SOL     OW31282   2.567   1.620   0.745
10128SOL    HW131283   2.559   1.666   0.657
10128SOL    HW231284   2.561   1.521   0.732
10129SOL     OW31285   5.964   1.579   2.505
10129SOL    HW131286   5.879   1.625   2.530
10129SOL    HW231287   5.956   1.541   2.414
10130SOL     OW31288   1.704   3.515   1.810
10130SOL    HW131289   1.668   3.438   1.757
10130SOL    HW231290   1.760   3.481   1.885
10131SOL     OW31291   1.116   7.019   4.575
10131SOL    HW131292   1.191   0.002   4.641
10131SOL    HW231293   1.042   6.966   4.617
10132SOL     OW31294   3.539   0.232   4.201
10132SOL    HW131295   3.494   0.236   4.112
10132SOL    HW231296   3.470   0.236   4.273
10133SOL     OW31297   3.416   6.015   1.103
10133SOL    HW131298   3.378   6.105   1.082
10133SOL    HW231299   3.342   5.950   1.116
10134SOL     OW31300   0.468   5.979   3.168
10134SOL    HW131301   0.521   5.983   3.253
10134SOL    HW231302   0.402   6.054   3.166
10135SOL     OW31303   5.081   3.281   3.412
10135SOL    HW131304   5.035   3.250   3.495
10135SOL    HW231305   5.091   3.205   3.348
10136SOL     OW31306   5.285   0.787   2.579
10136SOL    HW131307   5.202   0.842   2.580
10136SOL    HW231308   5.356   0.832   2.634
10137SOL     OW31309   6.643   3.895   3.927
10137SOL    HW131310   6.654   3.815   3.986
10137SOL    HW231311   6.643   3.866   3.831
10138SOL     OW31312   5.172   3.470   0.335
10138SOL    HW131313   5.218   3.384   0.311
10138SOL    HW231314   5.212   3.545   0.283
10139SOL     OW31315   3.080   3.912   3.561
10139SOL    HW131316   3.036   3.905   3.651
10139SOL    HW231317   3.172   3.949   3.572
10140SOL     OW31318   5.500   6.231   7.016
10140SOL    HW131319   5.576   6.273   6.966
10140SOL    HW231320   5.413   6.260   6.976
10141SOL     OW31321   4.135   1.346   5.439
10141SOL    HW131322   4.230   1.373   5.423
10141SOL    HW231323   4.079   1.373   5.361
10142SOL     OW31324   6.443   6.776   5.279
10142SOL    HW131325   6.358   6.778   5.332
10142SOL    HW231326   6.422   6.783   5.182
10143SOL     OW31327   5.418   1.314   6.987
10143SOL    HW131328   5.347   1.300   0.029
10143SOL    HW231329   5.500   1.351   0.003
10144SOL     OW31330   2.956   0.389   6.002
10144SOL    HW131331   3.052   0.390   6.032
10144SOL    HW231332   2.939   0.306   5.949
10145SOL     OW31333   2.973   4.895   3.958
10145SOL    HW131334   2.975   4.864   3.863
10145SOL    HW231335   2.880   4.918   3.985
10146SOL     OW31336   4.631   4.371   4.850
10146SOL    HW131337   4.534   4.399   4.847
10146SOL    HW231338   4.674   4.391   4.762
10147SOL     OW31339   5.684   4.016   5.303
10147SOL    HW131340   5.612   4.082   5.318
10147SOL    HW231341   5.766   4.062   5.270
10148SOL     OW31342   4.972   4.741   6.624
10148SOL    HW131343   4.977   4.719   6.721
10148SOL    HW231344   4.878   4.729   6.592
10149SOL     OW31345   5.813   3.051   0.705
10149SOL    HW131346   5.799   3.060   0.606
10149SOL    HW231347   5.888   2.987   0.722
10150SOL     OW31348   3.523   3.591   0.346
10150SOL    HW131349   3.562   3.633   0.428
10150SOL    HW231350   3.425   3.580   0.357
10151SOL     OW31351   0.833   5.893   0.041
10151SOL    HW131352   0.775   5.829   7.018
10151SOL    HW231353   0.838   5.980   7.019
10152SOL     OW31354   7.012   5.843   4.280
10152SOL    HW131355   0.084   5.840   4.270
10152SOL    HW231356   6.970   5.792   4.206
10153SOL     OW31357   4.555   6.140   3.745
10153SOL    HW131358   4.506   6.054   3.733
10153SOL    HW231359   4.646   6.132   3.705
10154SOL     OW31360   4.208   6.541   5.176
10154SOL    HW131361   4.139   6.491   5.228
10154SOL    HW231362   4.189   6.639   5.182
10155SOL     OW31363   3.925   2.440   5.955
10155SOL    HW131364   3.928   2.343   5.931
10155SOL    HW231365   4.013   2.482   5.931
10156SOL     OW31366   6.065   0.240   2.224
10156SOL    HW131367   6.029   0.159   2.176
10156SOL    HW231368   6.037   0.322   2.174
10157SOL     OW31369   0.339   1.315   0.481
10157SOL    HW131370   0.425   1.354   0.448
10157SOL    HW231371   0.268   1.329   0.411
10158SOL     OW31372   5.660   5.719   0.236
10158SOL    HW131373   5.609   5.633   0.240
10158SOL    HW231374   5.678   5.752   0.328
10159SOL     OW31375   2.089   3.153   0.612
10159SOL    HW131376   2.023   3.168   0.539
10159SOL    HW231377   2.181   3.174   0.579
10160SOL     OW31378   1.771   3.110   2.203
10160SOL    HW131379   1.766   3.150   2.112
10160SOL    HW231380   1.749   3.013   2.198
10161SOL     OW31381   3.509   2.824   0.853
10161SOL    HW131382   3.418   2.811   0.892
10161SOL    HW231383   3.546   2.912   0.883
10162SOL     OW31384   3.366   4.560   0.922
10162SOL    HW131385   3.412   4.515   0.846
10162SOL    HW231386   3.368   4.500   1.002
10163SOL     OW31387   6.137   4.436   6.923
10163SOL    HW131388   6.083   4.512   6.886
10163SOL    HW231389   6.125   4.355   6.866
10164SOL     OW31390   5.945   3.964   4.076
10164SOL    HW131391   6.044   3.977   4.083
10164SOL    HW231392   5.918   3.885   4.131
10165SOL     OW31393   6.870   1.759   3.352
10165SOL    HW131394   6.831   1.685   3.298
10165SOL    HW231395   6.970   1.757   3.345
10166SOL     OW31396   3.392   1.864   2.088
10166SOL    HW131397   3.317   1.891   2.027
10166SOL    HW231398   3.442   1.946   2.116
10167SOL     OW31399   1.859   4.571   6.807
10167SOL    HW131400   1.882   4.537   6.899
10167SOL    HW231401   1.892   4.506   6.739
10168SOL     OW31402   5.780   2.843   6.311
10168SOL    HW131403   5.764   2.750   6.279
10168SOL    HW231404   5.694   2.881   6.346
10169SOL     OW31405   6.538   4.799   3.555
10169SOL    HW131406   6.591   4.857   3.494
10169SOL    HW231407   6.482   4.736   3.501
10170SOL     OW31408   6.925   5.490   5.287
10170SOL    HW131409   6.989   5.567   5.288
10170SOL    HW231410   6.957   5.419   5.350
10171SOL     OW31411   0.155   2.799   4.263
10171SOL    HW131412   0.094   2.816   4.185
10171SOL    HW231413   0.182   2.703   4.264
10172SOL     OW31414   0.243   5.947   5.019
10172SOL    HW131415   0.285   5.876   4.962
10172SOL    HW231416   0.297   5.961   5.101
10173SOL     OW31417   1.614   2.560   0.817
10173SOL    HW131418   1.664   2.550   0.903
10173SOL    HW231419   1.675   2.541   0.740
10174SOL     OW31420   4.976   4.612   3.566
10174SOL    HW131421   4.889   4.590   3.612
10174SOL    HW231422   4.958   4.638   3.471
10175SOL     OW31423   6.113   1.772   3.223
10175SOL    HW131424   6.209   1.750   3.209
10175SOL    HW231425   6.092   1.861   3.184
10176SOL     OW31426   0.808   3.302   4.782
10176SOL    HW131427   0.774   3.395   4.799
10176SOL    HW231428   0.898   3.307   4.740
10177SOL     OW31429   2.104   0.981   1.624
10177SOL    HW131430   2.092   1.014   1.718
10177SOL    HW231431   2.035   0.911   1.604
10178SOL     OW31432   0.595   1.167   6.605
10178SOL    HW131433   0.674   1.205   6.557
10178SOL    HW231434   0.603   1.067   6.607
10179SOL     OW31435   0.262   2.445   6.583
10179SOL    HW131436   0.284   2.437   6.680
10179SOL    HW231437   0.163   2.439   6.571
10180SOL     OW31438   4.243   0.646   5.821
10180SOL    HW131439   4.310   0.714   5.791
10180SOL    HW231440   4.272   0.556   5.791
10181SOL     OW31441   6.456   3.458   1.327
10181SOL    HW131442   6.400   3.540   1.313
10181SOL    HW231443   6.426   3.410   1.409
10182SOL     OW31444   4.590   0.502   1.662
10182SOL    HW131445   4.511   0.535   1.713
10182SOL    HW231446   4.658   0.465   1.725
10183SOL     OW31447   0.049   3.026   6.367
10183SOL    HW131448   0.016   2.946   6.416
10183SOL    HW231449   0.035   3.108   6.423
10184SOL     OW31450   4.364   1.488   6.168
10184SOL    HW131451   4.449   1.469   6.218
10184SOL    HW231452   4.320   1.401   6.145
10185SOL     OW31453   6.344   5.877   2.880
10185SOL    HW131454   6.392   5.799   2.838
10185SOL    HW231455   6.263   5.844   2.929
10186SOL     OW31456   5.777   3.668   3.973
10186SOL    HW131457   5.767   3.711   4.063
10186SOL    HW231458   5.873   3.642   3.960
10187SOL     OW31459   1.399   3.461   0.519
10187SOL    HW131460   1.354   3.388   0.469
10187SOL    HW231461   1.496   3.464   0.495
10188SOL     OW31462   4.204   4.655   0.302
10188SOL    HW131463   4.148   4.737   0.314
10188SOL    HW231464   4.162   4.596   0.232
10189SOL     OW31465   1.007   0.989   5.919
10189SOL    HW131466   0.927   0.970   5.976
10189SOL    HW231467   1.090   0.969   5.970
10190SOL     OW31468   4.979   3.272   1.680
10190SOL    HW131469   4.882   3.247   1.683
10190SOL    HW231470   5.019   3.236   1.595
10191SOL     OW31471   3.993   6.296   6.516
10191SOL    HW131472   4.050   6.279   6.597
10191SOL    HW231473   3.898   6.306   6.545
10192SOL     OW31474   4.221   1.488   5.039
10192SOL    HW131475   4.307   1.440   5.024
10192SOL    HW231476   4.205   1.552   4.964
10193SOL     OW31477   3.832   2.960   2.038
10193SOL    HW131478   3.766   2.912   1.979
10193SOL    HW231479   3.788   2.986   2.123
10194SOL     OW31480   5.283   6.088   5.372
10194SOL    HW131481   5.189   6.055   5.370
10194SOL    HW231482   5.291   6.171   5.317
10195SOL     OW31483   6.319   5.871   7.017
10195SOL    HW131484   6.256   5.885   6.941
10195SOL    HW231485   6.273   5.891   0.076
10196SOL     OW31486   4.686   1.825   3.704
10196SOL    HW131487   4.602   1.856   3.749
10196SOL    HW231488   4.664   1.754   3.638
10197SOL     OW31489   5.695   1.209   4.705
10197SOL    HW131490   5.606   1.165   4.705
10197SOL    HW231491   5.753   1.167   4.775
10198SOL     OW31492   2.978   6.738   2.561
10198SOL    HW131493   2.945   6.821   2.605
10198SOL    HW231494   3.028   6.682   2.628
10199SOL     OW31495   1.894   3.106   0.818
10199SOL    HW131496   1.963   3.045   0.779
10199SOL    HW231497   1.933   3.198   0.828
10200SOL     OW31498   4.851   2.788   6.249
10200SOL    HW131499   4.757   2.777   6.217
10200SOL    HW231500   4.874   2.885   6.255
10201SOL     OW31501   1.243   5.248   0.234
10201SOL    HW131502   1.245   5.158   0.190
10201SOL    HW231503   1.323   5.259   0.292
10202SOL     OW31504   3.567   4.786   0.923
10202SOL    HW131505   3.606   4.811   1.011
10202SOL    HW231506   3.511   4.703   0.933
10203SOL     OW31507   6.726   2.895   2.331
10203SOL    HW131508   6.797   2.905   2.261
10203SOL    HW231509   6.710   2.798   2.350
10204SOL     OW31510   4.706   5.917   6.824
10204SOL    HW131511   4.738   6.012   6.819
10204SOL    HW231512   4.785   5.855   6.825
10205SOL     OW31513   2.374   0.533   2.255
10205SOL    HW131514   2.452   0.539   2.318
10205SOL    HW231515   2.368   0.618   2.203
10206SOL     OW31516   6.824   0.197   6.421
10206SOL    HW131517   6.762   0.231   6.350
10206SOL    HW231518   6.782   0.210   6.511
10207SOL     OW31519   1.272   2.354   6.861
10207SOL    HW131520   1.288   2.451   6.882
10207SOL    HW231521   1.175   2.333   6.873
10208SOL     OW31522   6.455   4.926   3.777
10208SOL    HW131523   6.415   5.014   3.753
10208SOL    HW231524   6.465   4.870   3.695
10209SOL     OW31525   0.352   0.133   6.827
10209SOL    HW131526   0.405   0.058   6.787
10209SOL    HW231527   0.265   0.142   6.778
10210SOL     OW31528   4.475   6.328   1.866
10210SOL    HW131529   4.535   6.407   1.878
10210SOL    HW231530   4.504   6.254   1.927
10211SOL     OW31531   4.784   6.406   4.456
10211SOL    HW131532   4.717   6.432   4.526
10211SOL    HW231533   4.849   6.480   4.443
10212SOL     OW31534   0.198   0.320   5.569
10212SOL    HW131535   0.241   0.300   5.481
10212SOL    HW231536   0.188   0.235   5.621
10213SOL     OW31537   5.769   2.507   1.694
10213SOL    HW131538   5.813   2.582   1.744
10213SOL    HW231539   5.820   2.422   1.709
10214SOL     OW31540   0.438   1.894   1.426
10214SOL    HW131541   0.464   1.801   1.453
10214SOL    HW231542   0.354   1.891   1.372
10215SOL     OW31543   3.784   3.319   4.005
10215SOL    HW131544   3.751   3.409   4.034
10215SOL    HW231545   3.725   3.248   4.042
10216SOL     OW31546   6.873   1.368   1.390
10216SOL    HW131547   6.921   1.298   1.338
10216SOL    HW231548   6.777   1.343   1.400
10217SOL     OW31549   3.056   1.352   3.530
10217SOL    HW131550   3.092   1.444   3.516
10217SOL    HW231551   3.111   1.304   3.599
10218SOL     OW31552   1.240   0.995   1.839
10218SOL    HW131553   1.149   0.991   1.798
10218SOL    HW231554   1.280   1.085   1.822
10219SOL     OW31555   0.575   1.924   3.211
10219SOL    HW131556   0.504   1.950   3.276
10219SOL    HW231557   0.535   1.921   3.119
10220SOL     OW31558   4.859   1.737   0.951
10220SOL    HW131559   4.908   1.650   0.945
10220SOL    HW231560   4.838   1.757   1.047
10221SOL     OW31561   1.769   4.000   4.087
10221SOL    HW131562   1.683   4.052   4.084
10221SOL    HW231563   1.797   3.977   3.993
10222SOL     OW31564   3.111   4.326   5.268
10222SOL    HW131565   3.031   4.370   5.227
10222SOL    HW231566   3.081   4.266   5.342
10223SOL     OW31567   2.209   4.566   1.164
10223SOL    HW131568   2.214   4.658   1.204
10223SOL    HW231569   2.260   4.565   1.079
10224SOL     OW31570   5.868   2.770   5.889
10224SOL    HW131571   5.880   2.832   5.967
10224SOL    HW231572   5.947   2.777   5.828
10225SOL     OW31573   1.491   5.948   5.116
10225SOL    HW131574   1.526   6.040   5.105
10225SOL    HW231575   1.553   5.895   5.174
10226SOL     OW31576   2.174   0.271   6.216
10226SOL    HW131577   2.256   0.313   6.177
10226SOL    HW231578   2.184   0.263   6.315
10227SOL     OW31579   5.678   5.018   0.915
10227SOL    HW131580   5.624   5.079   0.857
10227SOL    HW231581   5.771   5.011   0.880
10228SOL     OW31582   0.721   6.331   2.108
10228SOL    HW131583   0.662   6.412   2.106
10228SOL    HW231584   0.737   6.304   2.203
10229SOL     OW31585   2.035   3.253   4.990
10229SOL    HW131586   1.990   3.172   5.026
10229SOL    HW231587   1.971   3.303   4.931
10230SOL     OW31588   6.283   6.207   3.111
10230SOL    HW131589   6.220   6.157   3.052
10230SOL    HW231590   6.332   6.275   3.056
10231SOL     OW31591   6.547   4.684   5.324
10231SOL    HW131592   6.482   4.626   5.275
10231SOL    HW231593   6.545   4.776   5.285
10232SOL     OW31594   3.317   1.441   4.224
10232SOL    HW131595   3.371   1.473   4.303
10232SOL    HW231596   3.252   1.513   4.197
10233SOL     OW31597   3.732   3.755   4.967
10233SOL    HW131598   3.759   3.693   4.893
10233SOL    HW231599   3.736   3.849   4.935
10234SOL     OW31600   5.623   0.471   0.732
10234SOL    HW131601   5.576   0.559   0.725
10234SOL    HW231602   5.721   0.487   0.743
10235SOL     OW31603   3.554   2.144   1.197
10235SOL    HW131604   3.611   2.094   1.262
10235SOL    HW231605   3.500   2.213   1.245
10236SOL     OW31606   2.524   1.343   0.694
10236SOL    HW131607   2.447   1.298   0.739
10236SOL    HW231608   2.561   1.283   0.623
10237SOL     OW31609   0.686   4.591   6.281
10237SOL    HW131610   0.626   4.554   6.352
10237SOL    HW231611   0.769   4.536   6.275
10238SOL     OW31612   3.846   4.346   1.717
10238SOL    HW131613   3.761   4.393   1.741
10238SOL    HW231614   3.826   4.251   1.695
10239SOL     OW31615   2.175   3.602   6.274
10239SOL    HW131616   2.217   3.531   6.218
10239SOL    HW231617   2.229   3.615   6.358
10240SOL     OW31618   1.826   4.764   2.429
10240SOL    HW131619   1.822   4.864   2.418
10240SOL    HW231620   1.788   4.721   2.347
10241SOL     OW31621   0.118   6.102   3.377
10241SOL    HW131622   0.018   6.111   3.373
10241SOL    HW231623   0.158   6.137   3.292
10242SOL     OW31624   0.131   0.854   1.391
10242SOL    HW131625   0.167   0.942   1.420
10242SOL    HW231626   0.202   0.784   1.399
10243SOL     OW31627   2.274   4.147   2.384
10243SOL    HW131628   2.280   4.085   2.305
10243SOL    HW231629   2.331   4.111   2.458
10244SOL     OW31630   1.634   4.307   0.933
10244SOL    HW131631   1.567   4.359   0.986
10244SOL    HW231632   1.616   4.209   0.943
10245SOL     OW31633   3.657   3.311   1.644
10245SOL    HW131634   3.561   3.334   1.662
10245SOL    HW231635   3.715   3.350   1.716
10246SOL     OW31636   3.164   3.516   3.837
10246SOL    HW131637   3.108   3.514   3.920
10246SOL    HW231638   3.112   3.561   3.764
10247SOL     OW31639   6.986   4.107   6.368
10247SOL    HW131640   6.895   4.150   6.371
10247SOL    HW231641   6.997   4.059   6.281
10248SOL     OW31642   1.489   6.333   2.643
10248SOL    HW131643   1.449   6.261   2.586
10248SOL    HW231644   1.469   6.314   2.739
10249SOL     OW31645   3.134   5.987   6.603
10249SOL    HW131646   3.151   6.085   6.602
10249SOL    HW231647   3.078   5.962   6.524
10250SOL     OW31648   6.594   2.690   1.563
10250SOL    HW131649   6.605   2.784   1.531
10250SOL    HW231650   6.616   2.685   1.660
10251SOL     OW31651   2.266   1.368   4.973
10251SOL    HW131652   2.338   1.317   5.020
10251SOL    HW231653   2.184   1.372   5.031
10252SOL     OW31654   3.763   4.520   6.182
10252SOL    HW131655   3.818   4.474   6.113
10252SOL    HW231656   3.666   4.499   6.168
10253SOL     OW31657   2.663   6.149   0.673
10253SOL    HW131658   2.622   6.162   0.583
10253SOL    HW231659   2.751   6.101   0.663
10254SOL     OW31660   5.310   1.270   5.562
10254SOL    HW131661   5.255   1.269   5.646
10254SOL    HW231662   5.381   1.340   5.570
10255SOL     OW31663   2.629   5.938   1.648
10255SOL    HW131664   2.538   5.976   1.663
10255SOL    HW231665   2.647   5.867   1.716
10256SOL     OW31666   4.989   2.241   2.107
10256SOL    HW131667   4.999   2.168   2.174
10256SOL    HW231668   5.024   2.211   2.018
10257SOL     OW31669   1.466   4.628   4.665
10257SOL    HW131670   1.513   4.585   4.742
10257SOL    HW231671   1.501   4.590   4.579
10258SOL     OW31672   3.488   1.376   3.945
10258SOL    HW131673   3.510   1.473   3.951
10258SOL    HW231674   3.400   1.359   3.988
10259SOL     OW31675   1.318   4.942   2.948
10259SOL    HW131676   1.374   5.025   2.950
10259SOL    HW231677   1.264   4.936   3.032
10260SOL     OW31678   1.451   1.484   3.589
10260SOL    HW131679   1.397   1.561   3.624
10260SOL    HW231680   1.503   1.514   3.509
10261SOL     OW31681   6.952   4.873   2.282
10261SOL    HW131682   0.020   4.843   2.289
10261SOL    HW231683   6.892   4.803   2.319
10262SOL     OW31684   2.638   6.908   5.516
10262SOL    HW131685   2.668   6.881   5.607
10262SOL    HW231686   2.662   6.836   5.450
10263SOL     OW31687   5.420   0.326   7.026
10263SOL    HW131688   5.326   0.348   0.025
10263SOL    HW231689   5.418   0.262   6.949
10264SOL     OW31690   5.799   0.002   6.537
10264SOL    HW131691   5.823   0.005   6.440
10264SOL    HW231692   5.855   0.068   6.587
10265SOL     OW31693   2.457   2.971   1.327
10265SOL    HW131694   2.405   2.921   1.396
10265SOL    HW231695   2.506   3.047   1.371
10266SOL     OW31696   3.919   3.004   3.812
10266SOL    HW131697   3.840   2.963   3.857
10266SOL    HW231698   3.972   3.055   3.879
10267SOL     OW31699   6.061   2.562   6.992
10267SOL    HW131700   5.986   2.502   6.964
10267SOL    HW231701   6.095   2.533   0.054
10268SOL     OW31702   6.088   5.748   2.574
10268SOL    HW131703   6.158   5.684   2.541
10268SOL    HW231704   6.129   5.839   2.583
10269SOL     OW31705   0.603   3.724   6.919
10269SOL    HW131706   0.634   3.670   6.841
10269SOL    HW231707   0.503   3.729   6.918
10270SOL     OW31708   3.544   4.908   2.536
10270SOL    HW131709   3.475   4.886   2.467
10270SOL    HW231710   3.513   4.876   2.626
10271SOL     OW31711   3.644   2.590   6.579
10271SOL    HW131712   3.729   2.640   6.560
10271SOL    HW231713   3.657   2.494   6.557
10272SOL     OW31714   1.632   1.586   5.064
10272SOL    HW131715   1.644   1.558   5.159
10272SOL    HW231716   1.612   1.506   5.008
10273SOL     OW31717   2.668   4.989   2.665
10273SOL    HW131718   2.709   5.076   2.693
10273SOL    HW231719   2.649   4.934   2.746
10274SOL     OW31720   0.722   5.374   5.548
10274SOL    HW131721   0.738   5.462   5.593
10274SOL    HW231722   0.775   5.369   5.464
10275SOL     OW31723   0.594   6.660   2.467
10275SOL    HW131724   0.585   6.560   2.465
10275SOL    HW231725   0.509   6.702   2.436
10276SOL     OW31726   5.484   5.089   5.605
10276SOL    HW131727   5.571   5.083   5.555
10276SOL    HW231728   5.454   5.184   5.608
10277SOL     OW31729   1.246   6.061   4.163
10277SOL    HW131730   1.312   6.017   4.103
10277SOL    HW231731   1.196   5.991   4.214
10278SOL     OW31732   1.088   1.766   3.709
10278SOL    HW131733   1.052   1.697   3.646
10278SOL    HW231734   1.183   1.788   3.684
10279SOL     OW31735   1.658   5.100   4.204
10279SOL    HW131736   1.704   5.056   4.127
10279SOL    HW231737   1.563   5.121   4.178
10280SOL     OW31738   0.184   2.827   0.210
10280SOL    HW131739   0.094   2.823   0.165
10280SOL    HW231740   0.171   2.828   0.309
10281SOL     OW31741   5.701   1.441   2.906
10281SOL    HW131742   5.761   1.436   2.826
10281SOL    HW231743   5.723   1.524   2.958
10282SOL     OW31744   5.805   3.791   4.222
10282SOL    HW131745   5.859   3.742   4.290
10282SOL    HW231746   5.726   3.833   4.265
10283SOL     OW31747   1.895   3.030   1.102
10283SOL    HW131748   1.885   3.041   1.003
10283SOL    HW231749   1.925   2.937   1.123
10284SOL     OW31750   5.288   2.266   4.871
10284SOL    HW131751   5.325   2.339   4.928
10284SOL    HW231752   5.353   2.191   4.865
10285SOL     OW31753   5.630   6.753   2.419
10285SOL    HW131754   5.569   6.674   2.429
10285SOL    HW231755   5.605   6.806   2.339
10286SOL     OW31756   3.318   1.848   3.277
10286SOL    HW131757   3.403   1.795   3.270
10286SOL    HW231758   3.333   1.928   3.335
10287SOL     OW31759   2.361   6.005   1.692
10287SOL    HW131760   2.342   6.096   1.728
10287SOL    HW231761   2.331   6.000   1.596
10288SOL     OW31762   4.734   5.314   3.118
10288SOL    HW131763   4.803   5.297   3.189
10288SOL    HW231764   4.746   5.406   3.081
10289SOL     OW31765   2.334   6.218   0.215
10289SOL    HW131766   2.362   6.295   0.159
10289SOL    HW231767   2.262   6.167   0.168
10290SOL     OW31768   3.156   4.050   2.786
10290SOL    HW131769   3.069   4.027   2.744
10290SOL    HW231770   3.146   4.051   2.886
10291SOL     OW31771   3.824   1.803   2.964
10291SOL    HW131772   3.795   1.841   2.876
10291SOL    HW231773   3.895   1.862   3.003
10292SOL     OW31774   1.702   1.564   5.340
10292SOL    HW131775   1.614   1.602   5.368
10292SOL    HW231776   1.710   1.470   5.375
10293SOL     OW31777   2.106   3.828   2.351
10293SOL    HW131778   2.147   3.846   2.440
10293SOL    HW231779   2.009   3.806   2.363
10294SOL     OW31780   5.561   2.911   3.134
10294SOL    HW131781   5.464   2.924   3.114
10294SOL    HW231782   5.588   2.817   3.111
10295SOL     OW31783   0.440   3.765   5.630
10295SOL    HW131784   0.373   3.838   5.620
10295SOL    HW231785   0.393   3.676   5.628
10296SOL     OW31786   4.711   1.534   0.013
10296SOL    HW131787   4.633   1.593   7.021
10296SOL    HW231788   4.795   1.577   7.009
10297SOL     OW31789   2.064   0.206   6.540
10297SOL    HW131790   2.094   0.113   6.520
10297SOL    HW231791   1.977   0.203   6.591
10298SOL     OW31792   2.500   4.191   1.753
10298SOL    HW131793   2.437   4.155   1.684
10298SOL    HW231794   2.450   4.207   1.838
10299SOL     OW31795   4.515   4.499   3.045
10299SOL    HW131796   4.525   4.451   3.132
10299SOL    HW231797   4.525   4.598   3.061
10300SOL     OW31798   1.171   4.185   2.212
10300SOL    HW131799   1.077   4.151   2.215
10300SOL    HW231800   1.178   4.259   2.144
10301SOL     OW31801   5.359   2.599   4.222
10301SOL    HW131802   5.332   2.539   4.297
10301SOL    HW231803   5.278   2.635   4.177
10302SOL     OW31804   1.648   6.886   4.253
10302SOL    HW131805   1.710   6.962   4.234
10302SOL    HW231806   1.558   6.905   4.215
10303SOL     OW31807   1.675   5.970   2.984
10303SOL    HW131808   1.681   5.871   2.981
10303SOL    HW231809   1.693   6.007   2.892
10304SOL     OW31810   5.465   6.978   1.519
10304SOL    HW131811   5.375   7.011   1.489
10304SOL    HW231812   5.525   0.028   1.536
10305SOL     OW31813   1.432   4.316   6.789
10305SOL    HW131814   1.518   4.266   6.791
10305SOL    HW231815   1.377   4.292   6.870
10306SOL     OW31816   5.001   6.959   6.324
10306SOL    HW131817   5.084   6.905   6.336
10306SOL    HW231818   4.964   6.943   6.232
10307SOL     OW31819   2.946   2.034   5.285
10307SOL    HW131820   2.943   2.134   5.290
10307SOL    HW231821   3.034   2.005   5.248
10308SOL     OW31822   1.882   3.931   3.148
10308SOL    HW131823   1.876   3.928   3.048
10308SOL    HW231824   1.937   3.855   3.181
10309SOL     OW31825   6.518   1.324   6.471
10309SOL    HW131826   6.496   1.281   6.559
10309SOL    HW231827   6.604   1.373   6.479
10310SOL     OW31828   3.278   3.247   1.126
10310SOL    HW131829   3.367   3.210   1.151
10310SOL    HW231830   3.212   3.172   1.117
10311SOL     OW31831   0.002   6.321   0.421
10311SOL    HW131832   0.052   6.242   0.457
10311SOL    HW231833   0.064   6.399   0.416
10312SOL     OW31834   3.501   5.929   2.539
10312SOL    HW131835   3.573   5.864   2.512
10312SOL    HW231836   3.463   5.901   2.627
10313SOL     OW31837   4.574   6.572   1.897
10313SOL    HW131838   4.609   6.646   1.839
10313SOL    HW231839   4.519   6.611   1.970
10314SOL     OW31840   6.410   0.892   1.679
10314SOL    HW131841   6.421   0.883   1.580
10314SOL    HW231842   6.366   0.810   1.716
10315SOL     OW31843   4.933   5.766   5.311
10315SOL    HW131844   4.876   5.695   5.268
10315SOL    HW231845   4.936   5.750   5.409
10316SOL     OW31846   5.772   1.549   4.089
10316SOL    HW131847   5.722   1.587   4.167
10316SOL    HW231848   5.867   1.533   4.114
10317SOL     OW31849   4.968   5.929   4.674
10317SOL    HW131850   4.947   5.932   4.576
10317SOL    HW231851   5.067   5.929   4.687
10318SOL     OW31852   5.252   6.778   6.648
10318SOL    HW131853   5.162   6.802   6.684
10318SOL    HW231854   5.309   6.860   6.643
10319SOL     OW31855   1.171   2.506   5.862
10319SOL    HW131856   1.235   2.561   5.915
10319SOL    HW231857   1.215   2.420   5.834
10320SOL     OW31858   0.352   0.829   2.822
10320SOL    HW131859   0.359   0.808   2.724
10320SOL    HW231860   0.273   0.782   2.860
10321SOL     OW31861   4.317   1.920   1.731
10321SOL    HW131862   4.292   1.898   1.825
10321SOL    HW231863   4.287   1.847   1.670
10322SOL     OW31864   6.465   5.730   5.389
10322SOL    HW131865   6.372   5.760   5.411
10322SOL    HW231866   6.461   5.663   5.315
10323SOL     OW31867   5.751   3.049   5.559
10323SOL    HW131868   5.719   3.131   5.512
10323SOL    HW231869   5.733   2.969   5.501
10324SOL     OW31870   3.293   3.290   2.437
10324SOL    HW131871   3.318   3.220   2.370
10324SOL    HW231872   3.208   3.334   2.410
10325SOL     OW31873   6.858   3.561   2.018
10325SOL    HW131874   6.827   3.573   2.113
10325SOL    HW231875   6.778   3.556   1.958
10326SOL     OW31876   3.292   4.709   0.087
10326SOL    HW131877   3.301   4.697   7.016
10326SOL    HW231878   3.378   4.745   0.125
10327SOL     OW31879   2.452   1.361   1.122
10327SOL    HW131880   2.436   1.274   1.075
10327SOL    HW231881   2.394   1.431   1.080
10328SOL     OW31882   6.086   2.586   0.896
10328SOL    HW131883   6.182   2.577   0.923
10328SOL    HW231884   6.065   2.521   0.823
10329SOL     OW31885   3.878   0.473   3.806
10329SOL    HW131886   3.925   0.440   3.724
10329SOL    HW231887   3.891   0.571   3.816
10330SOL     OW31888   4.810   0.385   2.411
10330SOL    HW131889   4.718   0.360   2.442
10330SOL    HW231890   4.815   0.377   2.311
10331SOL     OW31891   6.669   1.085   5.844
10331SOL    HW131892   6.744   1.021   5.860
10331SOL    HW231893   6.584   1.048   5.879
10332SOL     OW31894   6.811   6.736   0.429
10332SOL    HW131895   6.864   6.693   0.502
10332SOL    HW231896   6.823   6.835   0.434
10333SOL     OW31897   6.786   4.851   4.472
10333SOL    HW131898   6.831   4.763   4.460
10333SOL    HW231899   6.854   4.924   4.464
10334SOL     OW31900   3.938   6.506   3.566
10334SOL    HW131901   3.981   6.438   3.506
10334SOL    HW231902   3.839   6.507   3.549
10335SOL     OW31903   2.987   4.602   0.010
10335SOL    HW131904   3.085   4.588   0.023
10335SOL    HW231905   2.936   4.537   0.066
10336SOL     OW31906   6.835   6.375   2.374
10336SOL    HW131907   6.882   6.375   2.286
10336SOL    HW231908   6.878   6.441   2.435
10337SOL     OW31909   0.061   6.824   5.800
10337SOL    HW131910   0.045   6.853   5.706
10337SOL    HW231911   7.017   6.761   5.828
10338SOL     OW31912   2.293   6.527   2.679
10338SOL    HW131913   2.259   6.434   2.690
10338SOL    HW231914   2.380   6.537   2.726
10339SOL     OW31915   3.614   4.546   0.172
10339SOL    HW131916   3.645   4.498   0.253
10339SOL    HW231917   3.589   4.640   0.196
10340SOL     OW31918   1.794   4.411   0.692
10340SOL    HW131919   1.743   4.405   0.777
10340SOL    HW231920   1.812   4.507   0.670
10341SOL     OW31921   2.064   3.359   1.826
10341SOL    HW131922   2.084   3.384   1.731
10341SOL    HW231923   2.132   3.402   1.885
10342SOL     OW31924   1.067   0.086   5.397
10342SOL    HW131925   1.041   0.177   5.428
10342SOL    HW231926   1.083   0.026   5.476
10343SOL     OW31927   3.690   5.694   6.365
10343SOL    HW131928   3.665   5.683   6.269
10343SOL    HW231929   3.639   5.771   6.405
10344SOL     OW31930   4.410   4.010   1.656
10344SOL    HW131931   4.505   3.983   1.675
10344SOL    HW231932   4.398   4.107   1.679
10345SOL     OW31933   1.894   1.046   6.866
10345SOL    HW131934   1.823   1.046   6.795
10345SOL    HW231935   1.972   0.992   6.835
10346SOL     OW31936   6.782   6.698   1.729
10346SOL    HW131937   6.730   6.781   1.707
10346SOL    HW231938   6.735   6.619   1.690
10347SOL     OW31939   4.883   2.122   2.678
10347SOL    HW131940   4.790   2.116   2.714
10347SOL    HW231941   4.938   2.181   2.737
10348SOL     OW31942   6.540   1.264   0.171
10348SOL    HW131943   6.606   1.299   0.105
10348SOL    HW231944   6.588   1.226   0.250
10349SOL     OW31945   6.896   0.712   1.048
10349SOL    HW131946   6.899   0.701   1.147
10349SOL    HW231947   6.917   0.625   1.004
10350SOL     OW31948   1.838   6.841   5.388
10350SOL    HW131949   1.756   6.845   5.331
10350SOL    HW231950   1.817   6.877   5.479
10351SOL     OW31951   4.649   5.413   6.425
10351SOL    HW131952   4.663   5.509   6.399
10351SOL    HW231953   4.617   5.361   6.346
10352SOL     OW31954   4.523   2.181   5.881
10352SOL    HW131955   4.545   2.083   5.888
10352SOL    HW231956   4.456   2.195   5.809
10353SOL     OW31957   0.182   2.538   5.536
10353SOL    HW131958   0.183   2.564   5.633
10353SOL    HW231959   0.276   2.520   5.505
10354SOL     OW31960   6.029   2.486   1.941
10354SOL    HW131961   6.045   2.466   2.038
10354SOL    HW231962   6.040   2.403   1.887
10355SOL     OW31963   1.708   0.306   1.769
10355SOL    HW131964   1.668   0.218   1.744
10355SOL    HW231965   1.806   0.296   1.781
10356SOL     OW31966   0.695   4.579   5.858
10356SOL    HW131967   0.632   4.575   5.780
10356SOL    HW231968   0.657   4.524   5.933
10357SOL     OW31969   2.686   3.065   5.938
10357SOL    HW131970   2.625   3.002   5.985
10357SOL    HW231971   2.652   3.081   5.845
10358SOL     OW31972   6.286   2.979   2.604
10358SOL    HW131973   6.350   3.054   2.588
10358SOL    HW231974   6.326   2.893   2.573
10359SOL     OW31975   6.889   1.597   1.507
10359SOL    HW131976   6.872   1.512   1.458
10359SOL    HW231977   6.985   1.601   1.536
10360SOL     OW31978   4.697   5.610   2.683
10360SOL    HW131979   4.760   5.609   2.605
10360SOL    HW231980   4.611   5.567   2.657
10361SOL     OW31981   2.905   0.497   2.921
10361SOL    HW131982   2.858   0.584   2.906
10361SOL    HW231983   2.986   0.493   2.863
10362SOL     OW31984   1.127   5.351   4.532
10362SOL    HW131985   1.052   5.286   4.542
10362SOL    HW231986   1.149   5.363   4.435
10363SOL     OW31987   4.493   1.846   1.164
10363SOL    HW131988   4.404   1.802   1.171
10363SOL    HW231989   4.545   1.830   1.248
10364SOL     OW31990   3.291   3.746   2.177
10364SOL    HW131991   3.312   3.752   2.274
10364SOL    HW231992   3.376   3.744   2.125
10365SOL     OW31993   5.081   4.449   5.744
10365SOL    HW131994   5.047   4.487   5.658
10365SOL    HW231995   5.011   4.389   5.784
10366SOL     OW31996   4.540   0.329   4.334
10366SOL    HW131997   4.615   0.321   4.269
10366SOL    HW231998   4.561   0.399   4.402
10367SOL     OW31999   6.915   1.413   1.730
10367SOL    HW132000   6.867   1.429   1.643
10367SOL    HW232001   6.848   1.394   1.801
10368SOL     OW32002   1.996   1.137   1.948
10368SOL    HW132003   1.935   1.094   2.014
10368SOL    HW232004   2.082   1.086   1.944
10369SOL     OW32005   3.825   1.439   5.047
10369SOL    HW132006   3.838   1.359   4.988
10369SOL    HW232007   3.756   1.499   5.007
10370SOL     OW32008   5.720   1.939   5.435
10370SOL    HW132009   5.781   1.968   5.361
10370SOL    HW232010   5.664   1.863   5.404
10371SOL     OW32011   2.083   5.898   4.425
10371SOL    HW132012   2.087   5.799   4.411
10371SOL    HW232013   1.990   5.931   4.403
10372SOL     OW32014   1.483   1.410   6.856
10372SOL    HW132015   1.408   1.389   6.918
10372SOL    HW232016   1.553   1.462   6.905
10373SOL     OW32017   2.109   6.420   4.567
10373SOL    HW132018   2.063   6.347   4.516
10373SOL    HW232019   2.041   6.479   4.610
10374SOL     OW32020   4.163   1.170   2.794
10374SOL    HW132021   4.204   1.225   2.722
10374SOL    HW232022   4.095   1.224   2.843
10375SOL     OW32023   2.913   1.441   6.161
10375SOL    HW132024   2.855   1.520   6.143
10375SOL    HW232025   2.931   1.393   6.076
10376SOL     OW32026   1.428   6.413   4.217
10376SOL    HW132027   1.340   6.459   4.206
10376SOL    HW232028   1.502   6.476   4.190
10377SOL     OW32029   6.829   0.968   3.871
10377SOL    HW132030   6.899   0.900   3.892
10377SOL    HW232031   6.795   1.008   3.956
10378SOL     OW32032   6.206   0.112   5.940
10378SOL    HW132033   6.199   0.057   6.024
10378SOL    HW232034   6.128   0.175   5.936
10379SOL     OW32035   3.031   6.555   4.814
10379SOL    HW132036   3.127   6.546   4.790
10379SOL    HW232037   2.987   6.465   4.808
10380SOL     OW32038   0.875   1.932   4.174
10380SOL    HW132039   0.945   2.001   4.158
10380SOL    HW232040   0.856   1.926   4.272
10381SOL     OW32041   4.460   5.089   0.207
10381SOL    HW132042   4.543   5.099   0.261
10381SOL    HW232043   4.380   5.091   0.267
10382SOL     OW32044   2.158   4.176   0.300
10382SOL    HW132045   2.062   4.155   0.318
10382SOL    HW232046   2.165   4.236   0.220
10383SOL     OW32047   0.008   3.984   0.647
10383SOL    HW132048   6.944   3.974   0.684
10383SOL    HW232049   0.008   4.053   0.574
10384SOL     OW32050   0.898   6.984   0.944
10384SOL    HW132051   0.983   0.008   0.954
10384SOL    HW232052   0.849   6.983   1.032
10385SOL     OW32053   3.309   6.473   5.654
10385SOL    HW132054   3.210   6.475   5.663
10385SOL    HW232055   3.338   6.543   5.588
10386SOL     OW32056   6.093   2.743   5.703
10386SOL    HW132057   6.179   2.792   5.691
10386SOL    HW232058   6.069   2.696   5.618
10387SOL     OW32059   4.484   2.221   2.910
10387SOL    HW132060   4.492   2.290   2.982
10387SOL    HW232061   4.439   2.261   2.830
10388SOL     OW32062   2.214   5.795   2.566
10388SOL    HW132063   2.189   5.704   2.531
10388SOL    HW232064   2.145   5.825   2.631
10389SOL     OW32065   0.162   6.600   1.871
10389SOL    HW132066   0.082   6.655   1.897
10389SOL    HW232067   0.176   6.607   1.773
10390SOL     OW32068   2.389   2.777   1.528
10390SOL    HW132069   2.399   2.855   1.590
10390SOL    HW232070   2.447   2.702   1.558
10391SOL     OW32071   1.330   5.812   4.486
10391SOL    HW132072   1.291   5.722   4.507
10391SOL    HW232073   1.335   5.867   4.569
10392SOL     OW32074   6.561   4.356   6.947
10392SOL    HW132075   6.580   4.300   6.866
10392SOL    HW232076   6.578   4.303   0.002
10393SOL     OW32077   2.179   2.274   2.506
10393SOL    HW132078   2.156   2.319   2.592
10393SOL    HW232079   2.192   2.342   2.435
10394SOL     OW32080   2.234   6.505   4.915
10394SOL    HW132081   2.182   6.577   4.961
10394SOL    HW232082   2.306   6.547   4.859
10395SOL     OW32083   6.942   0.551   3.316
10395SOL    HW132084   7.004   0.629   3.328
10395SOL    HW232085   6.854   0.583   3.279
10396SOL     OW32086   2.281   0.490   4.263
10396SOL    HW132087   2.304   0.534   4.176
10396SOL    HW232088   2.188   0.517   4.290
10397SOL     OW32089   2.900   2.227   3.601
10397SOL    HW132090   2.809   2.268   3.608
10397SOL    HW232091   2.934   2.207   3.693
10398SOL     OW32092   5.960   2.466   0.509
10398SOL    HW132093   5.867   2.432   0.499
10398SOL    HW232094   5.961   2.565   0.500
10399SOL     OW32095   4.247   1.903   4.376
10399SOL    HW132096   4.296   1.835   4.321
10399SOL    HW232097   4.183   1.953   4.318
10400SOL     OW32098   3.763   5.664   1.303
10400SOL    HW132099   3.750   5.709   1.214
10400SOL    HW232100   3.737   5.726   1.376
10401SOL     OW32101   6.973   0.522   2.989
10401SOL    HW132102   6.926   0.502   3.075
10401SOL    HW232103   6.920   0.485   2.912
10402SOL     OW32104   0.315   2.782   5.330
10402SOL    HW132105   0.215   2.782   5.326
10402SOL    HW232106   0.344   2.838   5.408
10403SOL     OW32107   5.327   1.399   2.788
10403SOL    HW132108   5.398   1.400   2.859
10403SOL    HW232109   5.244   1.444   2.824
10404SOL     OW32110   0.362   6.531   3.507
10404SOL    HW132111   0.415   6.446   3.515
10404SOL    HW232112   0.322   6.537   3.416
10405SOL     OW32113   1.405   5.606   4.812
10405SOL    HW132114   1.451   5.694   4.817
10405SOL    HW232115   1.470   5.533   4.832
10406SOL     OW32116   2.100   3.853   5.304
10406SOL    HW132117   2.199   3.841   5.312
10406SOL    HW232118   2.067   3.803   5.224
10407SOL     OW32119   1.586   0.588   6.796
10407SOL    HW132120   1.617   0.663   6.854
10407SOL    HW232121   1.533   0.625   6.720
10408SOL     OW32122   3.689   6.161   2.267
10408SOL    HW132123   3.654   6.069   2.249
10408SOL    HW232124   3.636   6.203   2.341
10409SOL     OW32125   0.161   4.151   1.137
10409SOL    HW132126   0.081   4.208   1.158
10409SOL    HW232127   0.161   4.127   1.040
10410SOL     OW32128   5.090   1.662   1.326
10410SOL    HW132129   5.066   1.585   1.385
10410SOL    HW232130   5.169   1.638   1.270
10411SOL     OW32131   3.788   5.450   4.480
10411SOL    HW132132   3.694   5.485   4.474
10411SOL    HW232133   3.842   5.487   4.405
10412SOL     OW32134   0.412   0.852   0.610
10412SOL    HW132135   0.431   0.807   0.698
10412SOL    HW232136   0.381   0.783   0.544
10413SOL     OW32137   0.107   1.795   0.747
10413SOL    HW132138   0.051   1.847   0.683
10413SOL    HW232139   0.153   1.857   0.810
10414SOL     OW32140   4.701   6.515   5.649
10414SOL    HW132141   4.754   6.592   5.615
10414SOL    HW232142   4.673   6.456   5.573
10415SOL     OW32143   2.532   4.592   3.901
10415SOL    HW132144   2.485   4.667   3.854
10415SOL    HW232145   2.487   4.506   3.879
10416SOL     OW32146   6.559   1.166   5.591
10416SOL    HW132147   6.620   1.134   5.663
10416SOL    HW232148   6.469   1.187   5.630
10417SOL     OW32149   4.746   4.126   3.911
10417SOL    HW132150   4.731   4.160   4.004
10417SOL    HW232151   4.806   4.047   3.914
10418SOL     OW32152   6.121   4.285   5.272
10418SOL    HW132153   6.207   4.236   5.281
10418SOL    HW232154   6.135   4.382   5.295
10419SOL     OW32155   2.764   0.281   5.337
10419SOL    HW132156   2.694   0.322   5.394
10419SOL    HW232157   2.838   0.246   5.394
10420SOL     OW32158   6.885   3.659   3.874
10420SOL    HW132159   6.912   3.586   3.937
10420SOL    HW232160   6.830   3.620   3.800
10421SOL     OW32161   1.409   3.102   4.203
10421SOL    HW132162   1.506   3.118   4.223
10421SOL    HW232163   1.400   3.051   4.118
10422SOL     OW32164   6.723   3.511   5.850
10422SOL    HW132165   6.789   3.565   5.903
10422SOL    HW232166   6.772   3.459   5.780
10423SOL     OW32167   3.989   5.054   4.772
10423SOL    HW132168   3.893   5.032   4.788
10423SOL    HW232169   3.996   5.134   4.712
10424SOL     OW32170   4.042   2.534   6.997
10424SOL    HW132171   4.067   2.441   6.973
10424SOL    HW232172   4.042   2.544   0.069
10425SOL     OW32173   0.391   6.111   1.993
10425SOL    HW132174   0.366   6.207   2.009
10425SOL    HW232175   0.309   6.054   2.004
10426SOL     OW32176   5.539   3.613   5.760
10426SOL    HW132177   5.511   3.623   5.855
10426SOL    HW232178   5.535   3.703   5.715
10427SOL     OW32179   5.325   6.589   6.191
10427SOL    HW132180   5.352   6.604   6.096
10427SOL    HW232181   5.406   6.598   6.250
10428SOL     OW32182   1.862   1.766   4.044
10428SOL    HW132183   1.930   1.746   3.974
10428SOL    HW232184   1.897   1.738   4.134
10429SOL     OW32185   1.168   3.749   2.827
10429SOL    HW132186   1.095   3.685   2.849
10429SOL    HW232187   1.167   3.825   2.892
10430SOL     OW32188   3.893   6.115   4.521
10430SOL    HW132189   3.880   6.194   4.581
10430SOL    HW232190   3.894   6.031   4.577
10431SOL     OW32191   2.875   0.862   4.382
10431SOL    HW132192   2.814   0.785   4.369
10431SOL    HW232193   2.960   0.830   4.424
10432SOL     OW32194   0.356   1.455   5.266
10432SOL    HW132195   0.278   1.498   5.218
10432SOL    HW232196   0.414   1.408   5.199
10433SOL     OW32197   0.026   6.198   1.961
10433SOL    HW132198   0.049   6.166   1.870
10433SOL    HW232199   0.051   6.129   2.029
10434SOL     OW32200   4.673   6.153   4.624
10434SOL    HW132201   4.574   6.145   4.635
10434SOL    HW232202   4.713   6.062   4.614
10435SOL     OW32203   1.803   2.027   5.915
10435SOL    HW132204   1.898   2.003   5.894
10435SOL    HW232205   1.781   1.996   6.008
10436SOL     OW32206   6.836   4.116   3.949
10436SOL    HW132207   6.892   4.141   3.870
10436SOL    HW232208   6.764   4.053   3.921
10437SOL     OW32209   5.696   4.997   5.437
10437SOL    HW132210   5.787   5.025   5.407
10437SOL    HW232211   5.705   4.937   5.517
10438SOL     OW32212   6.965   5.807   5.864
10438SOL    HW132213   6.925   5.719   5.889
10438SOL    HW232214   6.988   5.858   5.947
10439SOL     OW32215   5.543   1.124   5.253
10439SOL    HW132216   5.548   1.070   5.168
10439SOL    HW232217   5.472   1.193   5.244
10440SOL     OW32218   6.679   6.537   6.924
10440SOL    HW132219   6.581   6.532   6.942
10440SOL    HW232220   6.721   6.604   6.985
10441SOL     OW32221   3.260   1.522   1.113
10441SOL    HW132222   3.315   1.496   1.192
10441SOL    HW232223   3.286   1.466   1.034
10442SOL     OW32224   4.404   0.497   4.892
10442SOL    HW132225   4.412   0.400   4.873
10442SOL    HW232226   4.486   0.544   4.861
10443SOL     OW32227   6.589   2.646   2.617
10443SOL    HW132228   6.541   2.570   2.574
10443SOL    HW232229   6.594   2.631   2.716
10444SOL     OW32230   3.243   4.961   3.025
10444SOL    HW132231   3.337   4.963   3.058
10444SOL    HW232232   3.181   4.952   3.103
10445SOL     OW32233   0.623   3.686   2.592
10445SOL    HW132234   0.627   3.685   2.692
10445SOL    HW232235   0.568   3.764   2.562
10446SOL     OW32236   1.732   3.862   6.059
10446SOL    HW132237   1.758   3.829   6.150
10446SOL    HW232238   1.713   3.960   6.064
10447SOL     OW32239   6.585   0.538   2.180
10447SOL    HW132240   6.534   0.457   2.212
10447SOL    HW232241   6.657   0.559   2.246
10448SOL     OW32242   3.371   0.373   2.769
10448SOL    HW132243   3.286   0.417   2.739
10448SOL    HW232244   3.427   0.440   2.818
10449SOL     OW32245   2.993   5.826   6.807
10449SOL    HW132246   3.034   5.868   6.726
10449SOL    HW232247   2.990   5.727   6.796
10450SOL     OW32248   6.687   0.649   6.536
10450SOL    HW132249   6.718   0.662   6.442
10450SOL    HW232250   6.766   0.639   6.596
10451SOL     OW32251   3.314   0.162   2.978
10451SOL    HW132252   3.291   0.223   2.902
10451SOL    HW232253   3.413   0.148   2.980
10452SOL     OW32254   6.713   3.062   2.541
10452SOL    HW132255   6.732   3.002   2.463
10452SOL    HW232256   6.708   3.007   2.625
10453SOL     OW32257   4.412   6.211   2.477
10453SOL    HW132258   4.473   6.289   2.463
10453SOL    HW232259   4.397   6.164   2.390
10454SOL     OW32260   5.877   0.743   0.658
10454SOL    HW132261   5.808   0.783   0.717
10454SOL    HW232262   5.879   0.644   0.672
10455SOL     OW32263   0.267   5.792   4.280
10455SOL    HW132264   0.315   5.764   4.363
10455SOL    HW232265   0.311   5.750   4.200
10456SOL     OW32266   0.402   5.598   0.386
10456SOL    HW132267   0.338   5.582   0.311
10456SOL    HW232268   0.361   5.565   0.471
10457SOL     OW32269   4.089   3.190   7.006
10457SOL    HW132270   4.137   3.275   6.982
10457SOL    HW232271   4.151   3.129   0.028
10458SOL     OW32272   6.446   6.583   6.624
10458SOL    HW132273   6.376   6.560   6.556
10458SOL    HW232274   6.431   6.676   6.657
10459SOL     OW32275   5.241   4.937   1.008
10459SOL    HW132276   5.308   4.988   0.954
10459SOL    HW232277   5.176   5.002   1.049
10460SOL     OW32278   0.414   3.706   2.140
10460SOL    HW132279   0.396   3.663   2.051
10460SOL    HW232280   0.333   3.756   2.170
10461SOL     OW32281   6.298   4.942   5.456
10461SOL    HW132282   6.397   4.951   5.453
10461SOL    HW232283   6.256   5.009   5.395
10462SOL     OW32284   5.874   2.441   2.875
10462SOL    HW132285   5.901   2.491   2.956
10462SOL    HW232286   5.942   2.455   2.803
10463SOL     OW32287   4.423   2.204   5.586
10463SOL    HW132288   4.446   2.108   5.570
10463SOL    HW232289   4.378   2.241   5.505
10464SOL     OW32290   5.888   6.261   1.930
10464SOL    HW132291   5.821   6.187   1.922
10464SOL    HW232292   5.860   6.323   2.003
10465SOL     OW32293   4.625   5.555   2.066
10465SOL    HW132294   4.668   5.632   2.017
10465SOL    HW232295   4.528   5.575   2.081
10466SOL     OW32296   4.826   4.405   5.944
10466SOL    HW132297   4.843   4.502   5.931
10466SOL    HW232298   4.795   4.388   6.038
10467SOL     OW32299   1.577   2.414   0.546
10467SOL    HW132300   1.627   2.493   0.511
10467SOL    HW232301   1.633   2.365   0.613
10468SOL     OW32302   4.371   4.915   4.095
10468SOL    HW132303   4.294   4.895   4.156
10468SOL    HW232304   4.354   4.875   4.005
10469SOL     OW32305   4.404   4.333   5.668
10469SOL    HW132306   4.369   4.404   5.607
10469SOL    HW232307   4.395   4.244   5.623
10470SOL     OW32308   2.461   1.552   3.288
10470SOL    HW132309   2.481   1.496   3.368
10470SOL    HW232310   2.407   1.500   3.222
10471SOL     OW32311   2.912   0.559   0.503
10471SOL    HW132312   2.819   0.568   0.467
10471SOL    HW232313   2.922   0.613   0.586
10472SOL     OW32314   2.759   5.539   0.689
10472SOL    HW132315   2.715   5.469   0.745
10472SOL    HW232316   2.858   5.535   0.702
10473SOL     OW32317   5.939   6.544   5.681
10473SOL    HW132318   5.966   6.448   5.678
10473SOL    HW232319   6.020   6.601   5.699
10474SOL     OW32320   4.190   1.093   3.976
10474SOL    HW132321   4.112   1.029   3.977
10474SOL    HW232322   4.264   1.057   4.033
10475SOL     OW32323   3.203   6.943   1.847
10475SOL    HW132324   3.112   6.932   1.888
10475SOL    HW232325   3.271   6.896   1.903
10476SOL     OW32326   5.104   6.282   5.846
10476SOL    HW132327   5.145   6.366   5.810
10476SOL    HW232328   5.111   6.281   5.946
10477SOL     OW32329   6.465   0.625   4.682
10477SOL    HW132330   6.428   0.717   4.672
10477SOL    HW232331   6.442   0.590   4.773
10478SOL     OW32332   6.440   6.145   6.759
10478SOL    HW132333   6.399   6.234   6.777
10478SOL    HW232334   6.377   6.073   6.786
10479SOL     OW32335   6.686   1.097   2.331
10479SOL    HW132336   6.632   1.022   2.370
10479SOL    HW232337   6.779   1.093   2.365
10480SOL     OW32338   1.190   0.884   2.183
10480SOL    HW132339   1.117   0.891   2.115
10480SOL    HW232340   1.150   0.886   2.275
10481SOL     OW32341   1.707   6.468   2.576
10481SOL    HW132342   1.750   6.512   2.655
10481SOL    HW232343   1.618   6.430   2.603
10482SOL     OW32344   6.269   5.212   4.595
10482SOL    HW132345   6.224   5.123   4.589
10482SOL    HW232346   6.344   5.207   4.661
10483SOL     OW32347   5.135   5.926   0.246
10483SOL    HW132348   5.174   5.860   0.311
10483SOL    HW232349   5.200   6.001   0.232
10484SOL     OW32350   4.994   1.581   1.814
10484SOL    HW132351   5.069   1.563   1.878
10484SOL    HW232352   4.907   1.576   1.863
10485SOL     OW32353   3.051   4.470   0.251
10485SOL    HW132354   3.113   4.548   0.261
10485SOL    HW232355   3.000   4.458   0.336
10486SOL     OW32356   6.932   0.475   0.293
10486SOL    HW132357   6.975   0.552   0.341
10486SOL    HW232358   7.003   0.412   0.262
10487SOL     OW32359   4.685   6.801   1.800
10487SOL    HW132360   4.705   6.854   1.882
10487SOL    HW232361   4.625   6.854   1.740
10488SOL     OW32362   3.446   1.509   5.636
10488SOL    HW132363   3.484   1.585   5.583
10488SOL    HW232364   3.357   1.535   5.672
10489SOL     OW32365   0.154   6.619   5.492
10489SOL    HW132366   0.211   6.537   5.503
10489SOL    HW232367   0.207   6.690   5.446
10490SOL     OW32368   6.056   1.263   1.404
10490SOL    HW132369   6.016   1.225   1.321
10490SOL    HW232370   6.131   1.325   1.380
10491SOL     OW32371   1.968   3.719   6.991
10491SOL    HW132372   2.041   3.673   0.014
10491SOL    HW232373   1.940   3.661   6.915
10492SOL     OW32374   5.930   4.448   5.684
10492SOL    HW132375   5.933   4.395   5.600
10492SOL    HW232376   6.022   4.480   5.707
10493SOL     OW32377   3.545   0.943   1.597
10493SOL    HW132378   3.551   0.968   1.500
10493SOL    HW232379   3.593   1.010   1.652
10494SOL     OW32380   5.169   3.865   5.682
10494SOL    HW132381   5.103   3.937   5.660
10494SOL    HW232382   5.123   3.787   5.724
10495SOL     OW32383   2.174   0.060   0.577
10495SOL    HW132384   2.129   0.056   0.488
10495SOL    HW232385   2.173   6.997   0.619
10496SOL     OW32386   0.397   4.701   6.172
10496SOL    HW132387   0.322   4.687   6.237
10496SOL    HW232388   0.463   4.627   6.180
10497SOL     OW32389   2.289   6.973   2.435
10497SOL    HW132390   2.366   0.009   2.437
10497SOL    HW232391   2.228   6.998   2.360
10498SOL     OW32392   2.944   5.946   1.496
10498SOL    HW132393   2.981   5.912   1.583
10498SOL    HW232394   2.897   5.873   1.448
10499SOL     OW32395   3.271   0.112   2.554
10499SOL    HW132396   3.250   0.022   2.593
10499SOL    HW232397   3.332   0.101   2.476
10500SOL     OW32398   6.908   0.702   6.651
10500SOL    HW132399   6.896   0.760   6.732
10500SOL    HW232400   6.960   0.753   6.582
10501SOL     OW32401   2.291   5.739   3.126
10501SOL    HW132402   2.322   5.803   3.195
10501SOL    HW232403   2.283   5.785   3.038
10502SOL     OW32404   2.835   0.176   1.241
10502SOL    HW132405   2.769   0.163   1.167
10502SOL    HW232406   2.831   0.271   1.273
10503SOL     OW32407   3.915   2.979   0.317
10503SOL    HW132408   3.920   3.041   0.240
10503SOL    HW232409   3.995   2.993   0.376
10504SOL     OW32410   1.867   1.632   6.932
10504SOL    HW132411   1.911   1.565   6.873
10504SOL    HW232412   1.849   1.716   6.880
10505SOL     OW32413   4.881   6.163   0.642
10505SOL    HW132414   4.860   6.182   0.738
10505SOL    HW232415   4.903   6.249   0.596
10506SOL     OW32416   6.656   5.159   6.954
10506SOL    HW132417   6.587   5.178   6.884
10506SOL    HW232418   6.678   5.061   6.953
10507SOL     OW32419   2.093   0.072   0.212
10507SOL    HW132420   2.177   0.072   0.158
10507SOL    HW232421   2.066   7.005   0.232
10508SOL     OW32422   6.099   6.460   4.446
10508SOL    HW132423   6.016   6.445   4.391
10508SOL    HW232424   6.080   6.529   4.516
10509SOL     OW32425   0.455   6.459   4.890
10509SOL    HW132426   0.396   6.486   4.814
10509SOL    HW232427   0.514   6.384   4.861
10510SOL     OW32428   4.879   5.875   6.026
10510SOL    HW132429   4.894   5.915   5.936
10510SOL    HW232430   4.786   5.837   6.031
10511SOL     OW32431   4.420   1.467   1.434
10511SOL    HW132432   4.482   1.393   1.410
10511SOL    HW232433   4.326   1.432   1.438
10512SOL     OW32434   3.742   6.981   5.443
10512SOL    HW132435   3.806   6.980   5.520
10512SOL    HW232436   3.654   6.945   5.472
10513SOL     OW32437   6.613   2.810   4.489
10513SOL    HW132438   6.540   2.851   4.545
10513SOL    HW232439   6.665   2.883   4.444
10514SOL     OW32440   0.018   3.470   0.216
10514SOL    HW132441   7.007   3.461   0.124
10514SOL    HW232442   0.114   3.495   0.210
10515SOL     OW32443   0.171   3.368   2.901
10515SOL    HW132444   0.195   3.390   2.995
10515SOL    HW232445   0.219   3.429   2.838
10516SOL     OW32446   3.750   0.871   0.193
10516SOL    HW132447   3.758   0.943   0.261
10516SOL    HW232448   3.653   0.851   0.177
10517SOL     OW32449   0.227   2.354   2.741
10517SOL    HW132450   0.193   2.278   2.684
10517SOL    HW232451   0.150   2.395   2.790
10518SOL     OW32452   1.118   5.181   6.719
10518SOL    HW132453   1.156   5.213   6.806
10518SOL    HW232454   1.081   5.260   6.669
10519SOL     OW32455   2.417   2.850   6.886
10519SOL    HW132456   2.402   2.796   6.968
10519SOL    HW232457   2.371   2.938   6.895
10520SOL     OW32458   1.276   3.013   6.862
10520SOL    HW132459   1.190   3.004   6.912
10520SOL    HW232460   1.279   3.102   6.817
10521SOL     OW32461   5.631   5.999   1.998
10521SOL    HW132462   5.614   6.077   1.938
10521SOL    HW232463   5.545   5.955   2.022
10522SOL     OW32464   6.163   0.182   6.227
10522SOL    HW132465   6.251   0.206   6.187
10522SOL    HW232466   6.131   0.256   6.286
10523SOL     OW32467   0.813   5.106   4.186
10523SOL    HW132468   0.796   5.025   4.242
10523SOL    HW232469   0.902   5.097   4.142
10524SOL     OW32470   1.569   0.584   4.745
10524SOL    HW132471   1.597   0.526   4.822
10524SOL    HW232472   1.491   0.542   4.699
10525SOL     OW32473   3.208   0.110   5.983
10525SOL    HW132474   3.277   0.099   6.054
10525SOL    HW232475   3.119   0.078   6.018
10526SOL     OW32476   0.529   6.791   3.020
10526SOL    HW132477   0.586   6.713   2.996
10526SOL    HW232478   0.587   6.868   3.047
10527SOL     OW32479   5.956   2.144   5.081
10527SOL    HW132480   5.905   2.224   5.110
10527SOL    HW232481   6.045   2.172   5.045
10528SOL     OW32482   1.548   3.529   5.831
10528SOL    HW132483   1.460   3.532   5.878
10528SOL    HW232484   1.616   3.577   5.886
10529SOL     OW32485   2.340   5.616   4.223
10529SOL    HW132486   2.423   5.615   4.168
10529SOL    HW232487   2.301   5.524   4.228
10530SOL     OW32488   2.416   0.467   6.919
10530SOL    HW132489   2.498   0.444   6.972
10530SOL    HW232490   2.438   0.467   6.822
10531SOL     OW32491   1.075   2.708   4.011
10531SOL    HW132492   1.123   2.727   3.925
10531SOL    HW232493   1.118   2.759   4.086
10532SOL     OW32494   1.605   4.839   6.413
10532SOL    HW132495   1.511   4.841   6.447
10532SOL    HW232496   1.663   4.789   6.478
10533SOL     OW32497   2.630   1.342   4.769
10533SOL    HW132498   2.704   1.382   4.715
10533SOL    HW232499   2.545   1.392   4.752
10534SOL     OW32500   5.794   5.814   1.231
10534SOL    HW132501   5.880   5.802   1.279
10534SOL    HW232502   5.812   5.854   1.141
10535SOL     OW32503   0.864   1.824   1.066
10535SOL    HW132504   0.870   1.899   1.133
10535SOL    HW232505   0.943   1.764   1.077
10536SOL     OW32506   3.954   1.138   3.392
10536SOL    HW132507   4.030   1.114   3.452
10536SOL    HW232508   3.988   1.168   3.303
10537SOL     OW32509   3.760   5.377   4.140
10537SOL    HW132510   3.668   5.380   4.102
10537SOL    HW232511   3.807   5.294   4.108
10538SOL     OW32512   5.348   2.627   0.518
10538SOL    HW132513   5.308   2.709   0.475
10538SOL    HW232514   5.278   2.580   0.571
10539SOL     OW32515   0.324   3.685   6.936
10539SOL    HW132516   0.364   3.593   6.942
10539SOL    HW232517   0.269   3.702   7.017
10540SOL     OW32518   1.390   2.754   5.067
10540SOL    HW132519   1.329   2.716   5.136
10540SOL    HW232520   1.460   2.687   5.044
10541SOL     OW32521   3.762   3.514   2.415
10541SOL    HW132522   3.670   3.476   2.407
10541SOL    HW232523   3.768   3.601   2.366
10542SOL     OW32524   6.951   1.037   6.124
10542SOL    HW132525   6.976   1.134   6.124
10542SOL    HW232526   6.871   1.023   6.182
10543SOL     OW32527   0.125   1.130   5.463
10543SOL    HW132528   0.136   1.150   5.560
10543SOL    HW232529   0.089   1.210   5.416
10544SOL     OW32530   1.810   6.618   2.039
10544SOL    HW132531   1.807   6.569   1.951
10544SOL    HW232532   1.866   6.566   2.104
10545SOL     OW32533   6.113   1.180   3.188
10545SOL    HW132534   6.041   1.238   3.224
10545SOL    HW232535   6.186   1.236   3.149
10546SOL     OW32536   1.302   0.983   6.425
10546SOL    HW132537   1.228   0.979   6.358
10546SOL    HW232538   1.390   0.978   6.378
10547SOL     OW32539   5.552   2.106   1.891
10547SOL    HW132540   5.586   2.187   1.938
10547SOL    HW232541   5.457   2.121   1.864
10548SOL     OW32542   5.480   4.385   4.783
10548SOL    HW132543   5.489   4.483   4.764
10548SOL    HW232544   5.477   4.370   4.882
10549SOL     OW32545   6.822   6.958   2.062
10549SOL    HW132546   6.817   0.016   2.114
10549SOL    HW232547   6.730   6.928   2.038
10550SOL     OW32548   4.141   6.073   4.819
10550SOL    HW132549   4.146   6.167   4.853
10550SOL    HW232550   4.050   6.036   4.839
10551SOL     OW32551   1.966   2.629   6.676
10551SOL    HW132552   1.900   2.612   6.750
10551SOL    HW232553   1.975   2.728   6.662
10552SOL     OW32554   3.782   2.074   6.155
10552SOL    HW132555   3.743   2.152   6.106
10552SOL    HW232556   3.881   2.074   6.145
10553SOL     OW32557   0.673   5.494   1.220
10553SOL    HW132558   0.737   5.427   1.182
10553SOL    HW232559   0.583   5.480   1.180
10554SOL     OW32560   5.174   5.547   0.177
10554SOL    HW132561   5.206   5.460   0.141
10554SOL    HW232562   5.168   5.614   0.103
10555SOL     OW32563   1.844   3.153   0.407
10555SOL    HW132564   1.816   3.096   0.484
10555SOL    HW232565   1.895   3.098   0.341
10556SOL     OW32566   2.075   2.467   5.221
10556SOL    HW132567   2.063   2.566   5.209
10556SOL    HW232568   1.996   2.430   5.270
10557SOL     OW32569   2.394   2.232   2.739
10557SOL    HW132570   2.299   2.263   2.746
10557SOL    HW232571   2.450   2.304   2.698
10558SOL     OW32572   4.216   0.659   3.918
10558SOL    HW132573   4.146   0.725   3.946
10558SOL    HW232574   4.220   0.585   3.984
10559SOL     OW32575   4.761   0.235   1.374
10559SOL    HW132576   4.703   0.317   1.380
10559SOL    HW232577   4.710   0.162   1.328
10560SOL     OW32578   3.646   6.074   3.574
10560SOL    HW132579   3.615   6.002   3.512
10560SOL    HW232580   3.738   6.103   3.549
10561SOL     OW32581   3.195   4.860   1.165
10561SOL    HW132582   3.143   4.946   1.172
10561SOL    HW232583   3.176   4.817   1.077
10562SOL     OW32584   4.706   5.614   0.136
10562SOL    HW132585   4.742   5.688   0.194
10562SOL    HW232586   4.632   5.567   0.184
10563SOL     OW32587   0.182   1.158   4.015
10563SOL    HW132588   0.115   1.182   3.946
10563SOL    HW232589   0.271   1.142   3.972
10564SOL     OW32590   5.800   6.536   2.348
10564SOL    HW132591   5.828   6.618   2.397
10564SOL    HW232592   5.711   6.506   2.381
10565SOL     OW32593   7.003   0.730   6.157
10565SOL    HW132594   0.072   0.754   6.144
10565SOL    HW232595   6.994   0.631   6.165
10566SOL     OW32596   4.208   2.958   0.142
10566SOL    HW132597   4.280   3.026   0.157
10566SOL    HW232598   4.241   2.890   0.076
10567SOL     OW32599   2.576   1.944   4.499
10567SOL    HW132600   2.627   1.863   4.528
10567SOL    HW232601   2.594   2.019   4.563
10568SOL     OW32602   6.109   2.221   1.021
10568SOL    HW132603   6.035   2.230   0.954
10568SOL    HW232604   6.097   2.289   1.093
10569SOL     OW32605   6.032   2.137   1.399
10569SOL    HW132606   5.959   2.202   1.422
10569SOL    HW232607   6.117   2.165   1.444
10570SOL     OW32608   1.561   5.111   3.386
10570SOL    HW132609   1.575   5.032   3.446
10570SOL    HW232610   1.491   5.089   3.318
10571SOL     OW32611   7.007   5.036   4.542
10571SOL    HW132612   6.991   5.094   4.622
10571SOL    HW232613   0.016   5.092   4.467
10572SOL     OW32614   0.107   4.340   3.781
10572SOL    HW132615   0.125   4.375   3.689
10572SOL    HW232616   0.178   4.275   3.806
10573SOL     OW32617   4.573   0.722   5.001
10573SOL    HW132618   4.659   0.758   4.964
10573SOL    HW232619   4.556   0.762   5.091
10574SOL     OW32620   0.867   1.575   4.221
10574SOL    HW132621   0.903   1.584   4.128
10574SOL    HW232622   0.922   1.631   4.283
10575SOL     OW32623   0.346   1.307   3.083
10575SOL    HW132624   0.265   1.249   3.075
10575SOL    HW232625   0.418   1.272   3.023
10576SOL     OW32626   0.093   5.675   5.360
10576SOL    HW132627   0.176   5.635   5.399
10576SOL    HW232628   0.022   5.680   5.430
10577SOL     OW32629   1.812   2.584   6.904
10577SOL    HW132630   1.745   2.510   6.898
10577SOL    HW232631   1.769   2.665   6.943
10578SOL     OW32632   6.097   0.653   3.187
10578SOL    HW132633   6.128   0.748   3.177
10578SOL    HW232634   6.143   0.596   3.119
10579SOL     OW32635   4.622   1.995   0.977
10579SOL    HW132636   4.547   1.945   1.022
10579SOL    HW232637   4.674   2.045   1.046
10580SOL     OW32638   6.471   0.245   6.874
10580SOL    HW132639   6.426   0.259   6.786
10580SOL    HW232640   6.426   0.169   6.922
10581SOL     OW32641   0.335   0.145   3.292
10581SOL    HW132642   0.272   0.126   3.367
10581SOL    HW232643   0.293   0.209   3.227
10582SOL     OW32644   4.744   5.206   6.856
10582SOL    HW132645   4.656   5.220   6.900
10582SOL    HW232646   4.804   5.154   6.917
10583SOL     OW32647   3.694   1.450   5.331
10583SOL    HW132648   3.645   1.535   5.353
10583SOL    HW232649   3.732   1.457   5.239
10584SOL     OW32650   6.529   6.113   1.314
10584SOL    HW132651   6.624   6.140   1.331
10584SOL    HW232652   6.475   6.128   1.397
10585SOL     OW32653   2.174   2.705   5.376
10585SOL    HW132654   2.152   2.777   5.310
10585SOL    HW232655   2.179   2.743   5.468
10586SOL     OW32656   0.913   5.214   4.584
10586SOL    HW132657   0.883   5.206   4.679
10586SOL    HW232658   0.834   5.216   4.524
10587SOL     OW32659   6.193   3.936   0.317
10587SOL    HW132660   6.155   3.970   0.231
10587SOL    HW232661   6.146   3.851   0.343
10588SOL     OW32662   0.241   3.977   2.998
10588SOL    HW132663   0.209   4.036   3.072
10588SOL    HW232664   0.179   3.899   2.988
10589SOL     OW32665   6.266   1.192   4.707
10589SOL    HW132666   6.203   1.165   4.634
10589SOL    HW232667   6.300   1.111   4.754
10590SOL     OW32668   1.449   0.478   1.556
10590SOL    HW132669   1.440   0.384   1.588
10590SOL    HW232670   1.408   0.485   1.464
10591SOL     OW32671   1.042   1.627   5.936
10591SOL    HW132672   1.024   1.589   5.845
10591SOL    HW232673   0.956   1.630   5.987
10592SOL     OW32674   6.374   3.076   0.574
10592SOL    HW132675   6.360   3.116   0.665
10592SOL    HW232676   6.439   3.000   0.581
10593SOL     OW32677   2.327   5.006   0.394
10593SOL    HW132678   2.344   4.913   0.362
10593SOL    HW232679   2.403   5.065   0.369
10594SOL     OW32680   5.396   0.685   2.365
10594SOL    HW132681   5.320   0.703   2.302
10594SOL    HW232682   5.368   0.706   2.458
10595SOL     OW32683   3.683   6.787   4.987
10595SOL    HW132684   3.629   6.704   5.001
10595SOL    HW232685   3.746   6.800   5.064
10596SOL     OW32686   4.746   0.099   0.193
10596SOL    HW132687   4.839   0.088   0.158
10596SOL    HW232688   4.739   0.185   0.243
10597SOL     OW32689   3.505   1.239   5.027
10597SOL    HW132690   3.492   1.304   5.103
10597SOL    HW232691   3.451   1.157   5.044
10598SOL     OW32692   2.511   2.356   6.821
10598SOL    HW132693   2.522   2.455   6.810
10598SOL    HW232694   2.414   2.333   6.822
10599SOL     OW32695   4.919   2.460   6.555
10599SOL    HW132696   4.967   2.433   6.638
10599SOL    HW232697   4.981   2.510   6.494
10600SOL     OW32698   1.770   2.600   0.314
10600SOL    HW132699   1.741   2.692   0.288
10600SOL    HW232700   1.802   2.600   0.409
10601SOL     OW32701   1.672   4.112   6.130
10601SOL    HW132702   1.646   4.086   6.223
10601SOL    HW232703   1.592   4.148   6.082
10602SOL     OW32704   4.893   2.240   3.198
10602SOL    HW132705   4.886   2.284   3.108
10602SOL    HW232706   4.973   2.276   3.246
10603SOL     OW32707   2.084   5.173   3.863
10603SOL    HW132708   2.066   5.105   3.792
10603SOL    HW232709   2.056   5.136   3.952
10604SOL     OW32710   6.091   4.049   5.647
10604SOL    HW132711   6.184   4.028   5.678
10604SOL    HW232712   6.052   3.968   5.603
10605SOL     OW32713   1.644   4.637   0.784
10605SOL    HW132714   1.708   4.653   0.859
10605SOL    HW232715   1.655   4.709   0.716
10606SOL     OW32716   6.645   0.139   2.193
10606SOL    HW132717   6.557   0.183   2.176
10606SOL    HW232718   6.648   0.105   2.287
10607SOL     OW32719   3.800   4.753   5.979
10607SOL    HW132720   3.801   4.852   5.967
10607SOL    HW232721   3.741   4.729   6.056
10608SOL     OW32722   5.188   1.611   5.955
10608SOL    HW132723   5.177   1.560   6.040
10608SOL    HW232724   5.100   1.651   5.929
10609SOL     OW32725   3.153   6.541   2.166
10609SOL    HW132726   3.117   6.554   2.074
10609SOL    HW232727   3.085   6.573   2.233
10610SOL     OW32728   1.295   3.247   6.059
10610SOL    HW132729   1.314   3.201   6.145
10610SOL    HW232730   1.202   3.229   6.030
10611SOL     OW32731   4.509   3.806   5.645
10611SOL    HW132732   4.458   3.856   5.575
10611SOL    HW232733   4.545   3.722   5.606
10612SOL     OW32734   2.810   0.191   5.834
10612SOL    HW132735   2.743   0.158   5.768
10612SOL    HW232736   2.899   0.198   5.790
10613SOL     OW32737   6.758   0.326   5.459
10613SOL    HW132738   6.834   0.379   5.422
10613SOL    HW232739   6.711   0.280   5.383
10614SOL     OW32740   6.658   2.640   4.689
10614SOL    HW132741   6.719   2.564   4.667
10614SOL    HW232742   6.621   2.678   4.604
10615SOL     OW32743   3.315   5.990   5.818
10615SOL    HW132744   3.336   6.084   5.792
10615SOL    HW232745   3.318   5.931   5.737
10616SOL     OW32746   2.895   6.560   1.475
10616SOL    HW132747   2.947   6.624   1.532
10616SOL    HW232748   2.926   6.467   1.492
10617SOL     OW32749   2.103   2.841   0.519
10617SOL    HW132750   2.067   2.761   0.567
10617SOL    HW232751   2.028   2.889   0.473
10618SOL     OW32752   6.496   3.632   6.188
10618SOL    HW132753   6.493   3.590   6.097
10618SOL    HW232754   6.403   3.647   6.221
10619SOL     OW32755   6.699   3.706   2.281
10619SOL    HW132756   6.611   3.733   2.242
10619SOL    HW232757   6.740   3.784   2.328
10620SOL     OW32758   1.628   5.301   5.975
10620SOL    HW132759   1.661   5.240   5.903
10620SOL    HW232760   1.531   5.321   5.959
10621SOL     OW32761   0.829   6.239   1.518
10621SOL    HW132762   0.735   6.264   1.543
10621SOL    HW232763   0.835   6.229   1.418
10622SOL     OW32764   4.878   0.733   1.314
10622SOL    HW132765   4.914   0.644   1.287
10622SOL    HW232766   4.909   0.803   1.250
10623SOL     OW32767   0.320   4.901   4.344
10623SOL    HW132768   0.276   4.886   4.255
10623SOL    HW232769   0.259   4.870   4.417
10624SOL     OW32770   0.383   1.953   4.756
10624SOL    HW132771   0.346   1.871   4.712
10624SOL    HW232772   0.482   1.949   4.758
10625SOL     OW32773   0.498   4.500   6.917
10625SOL    HW132774   0.416   4.501   6.860
10625SOL    HW232775   0.579   4.491   6.859
10626SOL     OW32776   2.161   3.203   1.219
10626SOL    HW132777   2.215   3.163   1.292
10626SOL    HW232778   2.084   3.143   1.197
10627SOL     OW32779   5.641   6.261   1.195
10627SOL    HW132780   5.616   6.246   1.099
10627SOL    HW232781   5.655   6.173   1.240
10628SOL     OW32782   5.296   5.892   6.361
10628SOL    HW132783   5.203   5.889   6.326
10628SOL    HW232784   5.329   5.799   6.376
10629SOL     OW32785   2.651   4.676   4.879
10629SOL    HW132786   2.560   4.649   4.908
10629SOL    HW232787   2.717   4.651   4.950
10630SOL     OW32788   6.515   1.361   4.028
10630SOL    HW132789   6.595   1.326   4.076
10630SOL    HW232790   6.542   1.433   3.965
10631SOL     OW32791   2.038   4.980   5.205
10631SOL    HW132792   2.134   4.980   5.177
10631SOL    HW232793   1.982   5.019   5.132
10632SOL     OW32794   5.466   1.720   3.787
10632SOL    HW132795   5.487   1.781   3.710
10632SOL    HW232796   5.526   1.741   3.864
10633SOL     OW32797   2.680   3.572   1.345
10633SOL    HW132798   2.659   3.587   1.442
10633SOL    HW232799   2.725   3.483   1.335
10634SOL     OW32800   3.137   5.285   1.462
10634SOL    HW132801   3.219   5.291   1.519
10634SOL    HW232802   3.057   5.270   1.521
10635SOL     OW32803   3.392   1.628   0.760
10635SOL    HW132804   3.400   1.532   0.786
10635SOL    HW232805   3.297   1.658   0.769
10636SOL     OW32806   1.378   1.436   1.322
10636SOL    HW132807   1.319   1.471   1.249
10636SOL    HW232808   1.334   1.450   1.410
10637SOL     OW32809   3.232   4.677   5.531
10637SOL    HW132810   3.158   4.690   5.465
10637SOL    HW232811   3.318   4.663   5.481
10638SOL     OW32812   6.941   5.550   3.008
10638SOL    HW132813   6.917   5.484   3.080
10638SOL    HW232814   6.974   5.502   2.928
10639SOL     OW32815   0.546   3.184   2.924
10639SOL    HW132816   0.557   3.260   2.859
10639SOL    HW232817   0.482   3.211   2.996
10640SOL     OW32818   3.760   0.196   5.613
10640SOL    HW132819   3.769   0.275   5.552
10640SOL    HW232820   3.672   0.150   5.596
10641SOL     OW32821   3.792   2.395   0.211
10641SOL    HW132822   3.755   2.487   0.198
10641SOL    HW232823   3.718   2.332   0.236
10642SOL     OW32824   6.659   2.436   1.487
10642SOL    HW132825   6.726   2.443   1.413
10642SOL    HW232826   6.617   2.525   1.503
10643SOL     OW32827   2.069   4.709   5.631
10643SOL    HW132828   2.065   4.721   5.730
10643SOL    HW232829   2.060   4.798   5.586
10644SOL     OW32830   6.033   2.206   3.079
10644SOL    HW132831   6.125   2.196   3.115
10644SOL    HW232832   6.035   2.199   2.979
10645SOL     OW32833   0.520   1.386   4.768
10645SOL    HW132834   0.517   1.424   4.676
10645SOL    HW232835   0.440   1.419   4.819
10646SOL     OW32836   0.282   1.622   6.155
10646SOL    HW132837   0.194   1.595   6.116
10646SOL    HW232838   0.355   1.594   6.094
10647SOL     OW32839   3.718   5.344   0.272
10647SOL    HW132840   3.811   5.313   0.254
10647SOL    HW232841   3.711   5.377   0.366
10648SOL     OW32842   4.827   4.408   6.235
10648SOL    HW132843   4.842   4.504   6.259
10648SOL    HW232844   4.730   4.387   6.246
10649SOL     OW32845   0.668   4.150   3.319
10649SOL    HW132846   0.736   4.077   3.328
10649SOL    HW232847   0.670   4.187   3.226
10650SOL     OW32848   1.163   6.738   2.727
10650SOL    HW132849   1.153   6.700   2.819
10650SOL    HW232850   1.242   6.697   2.683
10651SOL     OW32851   4.613   6.855   5.633
10651SOL    HW132852   4.652   6.907   5.709
10651SOL    HW232853   4.683   6.797   5.592
10652SOL     OW32854   3.563   0.378   6.208
10652SOL    HW132855   3.608   0.293   6.236
10652SOL    HW232856   3.506   0.411   6.284
10653SOL     OW32857   5.530   4.049   4.055
10653SOL    HW132858   5.592   4.067   4.132
10653SOL    HW232859   5.578   4.065   3.969
10654SOL     OW32860   4.199   0.857   1.014
10654SOL    HW132861   4.183   0.885   0.919
10654SOL    HW232862   4.111   0.848   1.061
10655SOL     OW32863   2.943   5.244   1.639
10655SOL    HW132864   2.900   5.312   1.700
10655SOL    HW232865   2.894   5.157   1.647
10656SOL     OW32866   6.268   2.730   0.406
10656SOL    HW132867   6.183   2.687   0.436
10656SOL    HW232868   6.264   2.828   0.426
10657SOL     OW32869   6.493   6.919   6.809
10657SOL    HW132870   6.582   6.965   6.807
10657SOL    HW232871   6.460   6.907   6.716
10658SOL     OW32872   6.435   3.772   4.173
10658SOL    HW132873   6.410   3.697   4.235
10658SOL    HW232874   6.533   3.768   4.155
10659SOL     OW32875   6.489   6.149   0.760
10659SOL    HW132876   6.511   6.173   0.855
10659SOL    HW232877   6.510   6.227   0.701
10660SOL     OW32878   5.126   4.291   6.230
10660SOL    HW132879   5.101   4.383   6.197
10660SOL    HW232880   5.222   4.273   6.208
10661SOL     OW32881   0.257   6.287   2.532
10661SOL    HW132882   0.268   6.312   2.629
10661SOL    HW232883   0.246   6.188   2.525
10662SOL     OW32884   5.772   0.877   2.216
10662SOL    HW132885   5.757   0.779   2.206
10662SOL    HW232886   5.745   0.906   2.307
10663SOL     OW32887   0.273   0.077   1.689
10663SOL    HW132888   0.257   0.176   1.690
10663SOL    HW232889   0.193   0.031   1.651
10664SOL     OW32890   2.168   4.428   5.556
10664SOL    HW132891   2.109   4.375   5.494
10664SOL    HW232892   2.116   4.504   5.594
10665SOL     OW32893   0.451   0.482   0.737
10665SOL    HW132894   0.522   0.447   0.676
10665SOL    HW232895   0.464   0.581   0.749
10666SOL     OW32896   3.514   4.863   0.475
10666SOL    HW132897   3.426   4.841   0.433
10666SOL    HW232898   3.539   4.792   0.540
10667SOL     OW32899   3.748   2.686   5.575
10667SOL    HW132900   3.731   2.778   5.612
10667SOL    HW232901   3.678   2.664   5.507
10668SOL     OW32902   0.980   1.723   5.293
10668SOL    HW132903   0.962   1.820   5.278
10668SOL    HW232904   0.992   1.677   5.205
10669SOL     OW32905   5.978   6.685   0.416
10669SOL    HW132906   5.954   6.589   0.400
10669SOL    HW232907   6.074   6.699   0.392
10670SOL     OW32908   4.760   3.907   5.163
10670SOL    HW132909   4.763   3.807   5.162
10670SOL    HW232910   4.822   3.943   5.094
10671SOL     OW32911   2.593   2.235   2.368
10671SOL    HW132912   2.561   2.155   2.318
10671SOL    HW232913   2.684   2.262   2.336
10672SOL     OW32914   6.777   2.374   0.385
10672SOL    HW132915   6.759   2.297   0.323
10672SOL    HW232916   6.816   2.339   0.470
10673SOL     OW32917   1.572   2.395   0.066
10673SOL    HW132918   1.575   2.493   0.045
10673SOL    HW232919   1.650   2.349   0.025
10674SOL     OW32920   3.634   3.350   1.037
10674SOL    HW132921   3.596   3.443   1.042
10674SOL    HW232922   3.582   3.290   1.098
10675SOL     OW32923   1.834   0.324   6.096
10675SOL    HW132924   1.915   0.348   6.043
10675SOL    HW232925   1.858   0.317   6.193
10676SOL     OW32926   6.565   6.561   6.183
10676SOL    HW132927   6.595   6.502   6.258
10676SOL    HW232928   6.598   6.654   6.198
10677SOL     OW32929   0.609   0.278   2.347
10677SOL    HW132930   0.553   0.199   2.372
10677SOL    HW232931   0.706   0.255   2.356
10678SOL     OW32932   3.695   5.218   3.087
10678SOL    HW132933   3.646   5.258   3.009
10678SOL    HW232934   3.646   5.237   3.172
10679SOL     OW32935   5.148   4.528   6.055
10679SOL    HW132936   5.246   4.517   6.045
10679SOL    HW232937   5.105   4.530   5.965
10680SOL     OW32938   1.873   2.103   4.151
10680SOL    HW132939   1.856   2.180   4.089
10680SOL    HW232940   1.859   2.017   4.102
10681SOL     OW32941   7.017   4.125   6.734
10681SOL    HW132942   0.049   4.045   6.734
10681SOL    HW232943   6.936   4.107   6.677
10682SOL     OW32944   2.130   2.368   2.764
10682SOL    HW132945   2.173   2.439   2.820
10682SOL    HW232946   2.060   2.322   2.817
10683SOL     OW32947   3.455   1.676   3.934
10683SOL    HW132948   3.386   1.716   3.874
10683SOL    HW232949   3.420   1.676   4.028
10684SOL     OW32950   4.560   3.959   0.270
10684SOL    HW132951   4.545   3.938   0.174
10684SOL    HW232952   4.624   3.893   0.310
10685SOL     OW32953   6.500   4.181   2.247
10685SOL    HW132954   6.591   4.224   2.244
10685SOL    HW232955   6.430   4.251   2.235
10686SOL     OW32956   4.073   5.433   6.636
10686SOL    HW132957   4.167   5.441   6.602
10686SOL    HW232958   4.009   5.471   6.569
10687SOL     OW32959   6.802   5.172   1.570
10687SOL    HW132960   6.758   5.150   1.656
10687SOL    HW232961   6.862   5.252   1.582
10688SOL     OW32962   6.794   4.671   2.429
10688SOL    HW132963   6.706   4.719   2.436
10688SOL    HW232964   6.848   4.687   2.511
10689SOL     OW32965   0.328   7.022   3.587
10689SOL    HW132966   0.316   6.970   3.502
10689SOL    HW232967   0.272   0.077   3.584
10690SOL     OW32968   5.893   5.359   4.023
10690SOL    HW132969   5.815   5.392   3.969
10690SOL    HW232970   5.889   5.399   4.115
10691SOL     OW32971   6.817   1.592   2.583
10691SOL    HW132972   6.846   1.682   2.614
10691SOL    HW232973   6.841   1.580   2.486
10692SOL     OW32974   3.178   5.386   3.529
10692SOL    HW132975   3.254   5.330   3.499
10692SOL    HW232976   3.092   5.339   3.511
10693SOL     OW32977   1.831   0.783   2.005
10693SOL    HW132978   1.915   0.758   2.053
10693SOL    HW232979   1.806   0.710   1.942
10694SOL     OW32980   3.587   6.129   1.535
10694SOL    HW132981   3.488   6.128   1.548
10694SOL    HW232982   3.610   6.082   1.450
10695SOL     OW32983   6.404   2.189   3.013
10695SOL    HW132984   6.356   2.183   2.925
10695SOL    HW232985   6.501   2.167   2.999
10696SOL     OW32986   6.726   4.958   2.099
10696SOL    HW132987   6.809   4.903   2.111
10696SOL    HW232988   6.752   5.051   2.074
10697SOL     OW32989   0.069   5.947   4.016
10697SOL    HW132990   0.013   6.004   4.076
10697SOL    HW232991   0.165   5.970   4.029
10698SOL     OW32992   3.117   6.490   4.206
10698SOL    HW132993   3.114   6.522   4.300
10698SOL    HW232994   3.174   6.408   4.201
10699SOL     OW32995   4.318   1.651   2.511
10699SOL    HW132996   4.288   1.586   2.441
10699SOL    HW232997   4.254   1.648   2.588
10700SOL     OW32998   0.991   0.093   0.385
10700SOL    HW132999   1.072   0.036   0.394
10700SOL    HW233000   0.936   0.059   0.308
10701SOL     OW33001   3.905   5.884   0.156
10701SOL    HW133002   3.920   5.789   0.131
10701SOL    HW233003   3.953   5.944   0.091
10702SOL     OW33004   6.026   2.696   2.241
10702SOL    HW133005   6.066   2.737   2.159
10702SOL    HW233006   5.982   2.610   2.218
10703SOL     OW33007   3.682   2.910   3.905
10703SOL    HW133008   3.628   2.990   3.928
10703SOL    HW233009   3.622   2.836   3.874
10704SOL     OW33010   4.996   5.954   1.832
10704SOL    HW133011   4.910   5.999   1.857
10704SOL    HW233012   5.070   5.988   1.889
10705SOL     OW33013   0.463   3.404   0.970
10705SOL    HW133014   0.542   3.343   0.970
10705SOL    HW233015   0.493   3.498   0.989
10706SOL     OW33016   4.536   6.671   2.285
10706SOL    HW133017   4.518   6.756   2.334
10706SOL    HW233018   4.450   6.627   2.261
10707SOL     OW33019   0.381   6.938   4.647
10707SOL    HW133020   0.404   6.974   4.738
10707SOL    HW233021   0.391   6.839   4.647
10708SOL     OW33022   4.833   1.036   1.884
10708SOL    HW133023   4.750   1.004   1.929
10708SOL    HW233024   4.873   1.111   1.936
10709SOL     OW33025   6.388   0.980   5.308
10709SOL    HW133026   6.429   0.910   5.249
10709SOL    HW233027   6.303   1.013   5.267
10710SOL     OW33028   0.939   6.595   4.842
10710SOL    HW133029   0.945   6.689   4.874
10710SOL    HW233030   0.971   6.533   4.914
10711SOL     OW33031   1.839   6.909   3.909
10711SOL    HW133032   1.920   6.853   3.887
10711SOL    HW233033   1.826   6.978   3.838
10712SOL     OW33034   3.651   1.144   3.303
10712SOL    HW133035   3.676   1.227   3.253
10712SOL    HW233036   3.733   1.089   3.321
10713SOL     OW33037   1.651   4.900   1.752
10713SOL    HW133038   1.610   4.811   1.731
10713SOL    HW233039   1.615   4.969   1.690
10714SOL     OW33040   6.744   3.467   5.249
10714SOL    HW133041   6.645   3.483   5.240
10714SOL    HW233042   6.793   3.554   5.236
10715SOL     OW33043   5.131   0.349   3.271
10715SOL    HW133044   5.031   0.348   3.276
10715SOL    HW233045   5.161   0.437   3.234
10716SOL     OW33046   0.133   2.428   3.492
10716SOL    HW133047   0.082   2.425   3.406
10716SOL    HW233048   0.072   2.402   3.567
10717SOL     OW33049   0.566   1.242   0.710
10717SOL    HW133050   0.576   1.161   0.768
10717SOL    HW233051   0.468   1.260   0.696
10718SOL     OW33052   6.614   4.822   0.182
10718SOL    HW133053   6.609   4.860   0.274
10718SOL    HW233054   6.614   4.722   0.187
10719SOL     OW33055   4.599   6.100   1.989
10719SOL    HW133056   4.500   6.085   1.989
10719SOL    HW233057   4.634   6.087   1.896
10720SOL     OW33058   6.461   3.527   5.953
10720SOL    HW133059   6.396   3.538   5.878
10720SOL    HW233060   6.552   3.507   5.917
10721SOL     OW33061   6.497   2.181   4.531
10721SOL    HW133062   6.422   2.158   4.592
10721SOL    HW233063   6.460   2.208   4.442
10722SOL     OW33064   0.067   3.289   6.812
10722SOL    HW133065   7.023   3.344   6.855
10722SOL    HW233066   0.153   3.299   6.863
10723SOL     OW33067   5.445   3.595   6.710
10723SOL    HW133068   5.494   3.665   6.762
10723SOL    HW233069   5.510   3.525   6.680
10724SOL     OW33070   3.845   6.579   5.997
10724SOL    HW133071   3.932   6.602   5.955
10724SOL    HW233072   3.820   6.486   5.973
10725SOL     OW33073   0.112   5.479   4.242
10725SOL    HW133074   0.211   5.494   4.238
10725SOL    HW233075   0.070   5.510   4.156
10726SOL     OW33076   6.435   0.003   4.794
10726SOL    HW133077   6.521   6.980   4.786
10726SOL    HW233078   6.364   6.984   4.740
10727SOL     OW33079   1.917   5.390   5.746
10727SOL    HW133080   1.854   5.341   5.686
10727SOL    HW233081   1.884   5.484   5.759
10728SOL     OW33082   5.908   6.761   2.721
10728SOL    HW133083   5.925   6.663   2.712
10728SOL    HW233084   5.811   6.780   2.708
10729SOL     OW33085   6.536   1.509   2.678
10729SOL    HW133086   6.627   1.547   2.664
10729SOL    HW233087   6.498   1.481   2.589
10730SOL     OW33088   2.588   6.479   2.150
10730SOL    HW133089   2.669   6.424   2.127
10730SOL    HW233090   2.543   6.509   2.066
10731SOL     OW33091   2.443   5.457   0.644
10731SOL    HW133092   2.504   5.516   0.591
10731SOL    HW233093   2.493   5.418   0.721
10732SOL     OW33094   6.615   0.397   2.879
10732SOL    HW133095   6.708   0.412   2.845
10732SOL    HW233096   6.616   0.396   2.979
10733SOL     OW33097   6.133   2.150   6.869
10733SOL    HW133098   6.045   2.165   6.824
10733SOL    HW233099   6.126   2.173   6.966
10734SOL     OW33100   0.945   0.476   6.382
10734SOL    HW133101   0.858   0.470   6.333
10734SOL    HW233102   0.950   0.564   6.430
10735SOL     OW33103   1.014   4.910   2.141
10735SOL    HW133104   1.067   4.865   2.214
10735SOL    HW233105   0.925   4.937   2.177
10736SOL     OW33106   0.472   1.056   3.327
10736SOL    HW133107   0.459   1.012   3.238
10736SOL    HW233108   0.533   1.135   3.317
10737SOL     OW33109   0.799   1.834   0.532
10737SOL    HW133110   0.790   1.734   0.530
10737SOL    HW233111   0.754   1.873   0.452
10738SOL     OW33112   2.126   0.212   2.750
10738SOL    HW133113   2.141   0.246   2.657
10738SOL    HW233114   2.207   0.160   2.780
10739SOL     OW33115   6.901   1.837   2.398
10739SOL    HW133116   6.903   1.745   2.359
10739SOL    HW233117   6.867   1.901   2.329
10740SOL     OW33118   1.430   5.931   5.934
10740SOL    HW133119   1.513   5.987   5.941
10740SOL    HW233120   1.444   5.845   5.983
10741SOL     OW33121   1.953   1.651   3.207
10741SOL    HW133122   1.973   1.604   3.293
10741SOL    HW233123   2.036   1.652   3.150
10742SOL     OW33124   6.013   6.992   2.005
10742SOL    HW133125   6.016   0.022   1.924
10742SOL    HW233126   5.919   6.991   2.041
10743SOL     OW33127   2.864   1.582   4.262
10743SOL    HW133128   2.959   1.596   4.291
10743SOL    HW233129   2.841   1.648   4.190
10744SOL     OW33130   3.130   1.480   2.255
10744SOL    HW133131   3.041   1.515   2.284
10744SOL    HW233132   3.190   1.471   2.334
10745SOL     OW33133   2.177   4.588   0.402
10745SOL    HW133134   2.257   4.647   0.398
10745SOL    HW233135   2.123   4.599   0.318
10746SOL     OW33136   2.206   5.607   1.226
10746SOL    HW133137   2.147   5.572   1.299
10746SOL    HW233138   2.197   5.548   1.146
10747SOL     OW33139   5.456   1.473   3.012
10747SOL    HW133140   5.440   1.571   3.000
10747SOL    HW233141   5.553   1.453   2.996
10748SOL     OW33142   5.364   5.813   1.294
10748SOL    HW133143   5.268   5.795   1.273
10748SOL    HW233144   5.422   5.747   1.245
10749SOL     OW33145   7.001   4.669   2.596
10749SOL    HW133146   7.000   4.620   2.683
10749SOL    HW233147   0.021   4.757   2.608
10750SOL     OW33148   4.863   4.189   4.483
10750SOL    HW133149   4.877   4.116   4.417
10750SOL    HW233150   4.843   4.149   4.573
10751SOL     OW33151   1.167   3.119   4.945
10751SOL    HW133152   1.241   3.061   4.980
10751SOL    HW233153   1.104   3.063   4.892
10752SOL     OW33154   5.720   4.734   0.071
10752SOL    HW133155   5.681   4.643   0.057
10752SOL    HW233156   5.732   4.750   0.169
10753SOL     OW33157   5.247   0.332   3.875
10753SOL    HW133158   5.304   0.270   3.928
10753SOL    HW233159   5.249   0.423   3.916
10754SOL     OW33160   1.495   2.654   2.213
10754SOL    HW133161   1.523   2.749   2.226
10754SOL    HW233162   1.451   2.621   2.297
10755SOL     OW33163   6.922   2.089   0.808
10755SOL    HW133164   6.897   1.999   0.772
10755SOL    HW233165   6.847   2.153   0.791
10756SOL     OW33166   6.447   2.591   0.140
10756SOL    HW133167   6.412   2.670   0.190
10756SOL    HW233168   6.420   2.507   0.187
10757SOL     OW33169   0.142   4.093   0.857
10757SOL    HW133170   0.230   4.047   0.861
10757SOL    HW233171   0.104   4.085   0.765
10758SOL     OW33172   0.559   5.247   5.885
10758SOL    HW133173   0.625   5.211   5.819
10758SOL    HW233174   0.561   5.190   5.967
10759SOL     OW33175   1.618   3.295   6.292
10759SOL    HW133176   1.644   3.326   6.200
10759SOL    HW233177   1.576   3.371   6.342
10760SOL     OW33178   0.442   5.720   0.924
10760SOL    HW133179   0.353   5.734   0.968
10760SOL    HW233180   0.509   5.781   0.966
10761SOL     OW33181   1.128   2.672   6.352
10761SOL    HW133182   1.212   2.720   6.330
10761SOL    HW233183   1.135   2.633   6.444
10762SOL     OW33184   4.863   1.176   5.551
10762SOL    HW133185   4.793   1.211   5.612
10762SOL    HW233186   4.917   1.252   5.514
10763SOL     OW33187   4.623   0.197   1.896
10763SOL    HW133188   4.672   0.128   1.949
10763SOL    HW233189   4.583   0.155   1.815
10764SOL     OW33190   5.516   1.403   6.241
10764SOL    HW133191   5.517   1.435   6.335
10764SOL    HW233192   5.505   1.481   6.179
10765SOL     OW33193   5.872   1.294   2.269
10765SOL    HW133194   5.790   1.269   2.319
10765SOL    HW233195   5.893   1.224   2.201
10766SOL     OW33196   2.253   3.973   0.086
10766SOL    HW133197   2.262   3.879   0.052
10766SOL    HW233198   2.158   3.989   0.114
10767SOL     OW33199   1.634   6.232   0.804
10767SOL    HW133200   1.690   6.184   0.870
10767SOL    HW233201   1.692   6.280   0.738
10768SOL     OW33202   5.129   5.692   6.935
10768SOL    HW133203   5.044   5.651   6.903
10768SOL    HW233204   5.114   5.788   6.956
10769SOL     OW33205   2.746   4.342   5.317
10769SOL    HW133206   2.814   4.391   5.262
10769SOL    HW233207   2.663   4.329   5.263
10770SOL     OW33208   5.534   0.222   4.458
10770SOL    HW133209   5.553   0.187   4.366
10770SOL    HW233210   5.465   0.166   4.501
10771SOL     OW33211   4.242   0.033   5.397
10771SOL    HW133212   4.227   6.977   5.450
10771SOL    HW233213   4.338   0.061   5.405
10772SOL     OW33214   6.668   6.457   3.554
10772SOL    HW133215   6.582   6.479   3.599
10772SOL    HW233216   6.725   6.402   3.616
10773SOL     OW33217   6.975   4.415   6.805
10773SOL    HW133218   6.905   4.439   6.872
10773SOL    HW233219   0.022   4.367   6.851
10774SOL     OW33220   1.599   2.424   1.409
10774SOL    HW133221   1.526   2.411   1.342
10774SOL    HW233222   1.596   2.518   1.444
10775SOL     OW33223   2.096   4.298   0.955
10775SOL    HW133224   2.044   4.372   0.912
10775SOL    HW233225   2.192   4.304   0.927
10776SOL     OW33226   0.294   6.364   2.099
10776SOL    HW133227   0.219   6.393   2.039
10776SOL    HW233228   0.266   6.372   2.194
10777SOL     OW33229   3.997   0.372   3.097
10777SOL    HW133230   3.956   0.462   3.116
10777SOL    HW233231   3.996   0.317   3.180
10778SOL     OW33232   6.548   6.761   4.729
10778SOL    HW133233   6.611   6.700   4.779
10778SOL    HW233234   6.538   6.728   4.635
10779SOL     OW33235   0.160   4.516   2.433
10779SOL    HW133236   0.226   4.590   2.421
10779SOL    HW233237   0.082   4.549   2.487
10780SOL     OW33238   0.373   5.615   4.082
10780SOL    HW133239   0.295   5.585   4.026
10780SOL    HW233240   0.453   5.628   4.023
10781SOL     OW33241   5.036   1.464   4.273
10781SOL    HW133242   4.988   1.550   4.256
10781SOL    HW233243   5.024   1.403   4.195
10782SOL     OW33244   6.271   2.752   3.962
10782SOL    HW133245   6.335   2.770   4.037
10782SOL    HW233246   6.186   2.802   3.980
10783SOL     OW33247   2.054   3.176   2.441
10783SOL    HW133248   2.116   3.098   2.448
10783SOL    HW233249   2.077   3.229   2.360
10784SOL     OW33250   2.746   6.721   2.034
10784SOL    HW133251   2.784   6.636   1.997
10784SOL    HW233252   2.665   6.746   1.982
10785SOL     OW33253   1.433   5.273   1.432
10785SOL    HW133254   1.465   5.366   1.451
10785SOL    HW233255   1.407   5.266   1.335
10786SOL     OW33256   5.296   2.120   2.160
10786SOL    HW133257   5.268   2.037   2.113
10786SOL    HW233258   5.323   2.098   2.253
10787SOL     OW33259   3.009   1.318   4.273
10787SOL    HW133260   3.102   1.288   4.295
10787SOL    HW233261   2.996   1.413   4.301
10788SOL     OW33262   1.976   3.959   0.572
10788SOL    HW133263   1.980   4.059   0.561
10788SOL    HW233264   2.057   3.919   0.528
10789SOL     OW33265   6.111   0.448   0.111
10789SOL    HW133266   6.088   0.527   0.054
10789SOL    HW233267   6.037   0.430   0.175
10790SOL     OW33268   0.068   0.744   5.770
10790SOL    HW133269   0.021   0.658   5.786
10790SOL    HW233270   0.167   0.731   5.779
10791SOL     OW33271   1.916   1.613   1.701
10791SOL    HW133272   1.832   1.662   1.722
10791SOL    HW233273   1.904   1.516   1.722
10792SOL     OW33274   3.307   3.089   1.706
10792SOL    HW133275   3.230   3.027   1.691
10792SOL    HW233276   3.287   3.149   1.784
10793SOL     OW33277   5.587   2.250   4.147
10793SOL    HW133278   5.635   2.223   4.063
10793SOL    HW233279   5.497   2.206   4.148
10794SOL     OW33280   3.674   4.010   2.005
10794SOL    HW133281   3.758   3.962   2.032
10794SOL    HW233282   3.637   4.059   2.084
10795SOL     OW33283   6.305   3.790   2.653
10795SOL    HW133284   6.306   3.858   2.580
10795SOL    HW233285   6.211   3.761   2.671
10796SOL     OW33286   3.797   0.223   6.333
10796SOL    HW133287   3.871   0.239   6.397
10796SOL    HW233288   3.734   0.155   6.371
10797SOL     OW33289   4.102   2.660   0.493
10797SOL    HW133290   4.128   2.755   0.477
10797SOL    HW233291   4.010   2.657   0.531
10798SOL     OW33292   2.325   0.186   0.016
10798SOL    HW133293   2.369   0.249   0.080
10798SOL    HW233294   2.232   0.218   7.024
10799SOL     OW33295   3.387   1.733   2.497
10799SOL    HW133296   3.433   1.773   2.576
10799SOL    HW233297   3.366   1.637   2.516
10800SOL     OW33298   1.962   6.014   0.752
10800SOL    HW133299   2.057   6.036   0.731
10800SOL    HW233300   1.954   5.991   0.849
10801SOL     OW33301   1.852   6.855   4.437
10801SOL    HW133302   1.777   6.861   4.371
10801SOL    HW233303   1.879   6.947   4.465
10802SOL     OW33304   2.351   2.774   4.279
10802SOL    HW133305   2.326   2.709   4.350
10802SOL    HW233306   2.397   2.726   4.205
10803SOL     OW33307   5.148   4.752   5.280
10803SOL    HW133308   5.245   4.751   5.256
10803SOL    HW233309   5.112   4.659   5.276
10804SOL     OW33310   0.046   4.368   0.630
10804SOL    HW133311   6.979   4.347   0.655
10804SOL    HW233312   0.053   4.465   0.604
10805SOL     OW33313   3.488   0.354   6.868
10805SOL    HW133314   3.499   0.304   6.782
10805SOL    HW233315   3.484   0.452   6.849
10806SOL     OW33316   5.745   4.252   0.180
10806SOL    HW133317   5.769   4.199   0.099
10806SOL    HW233318   5.808   4.329   0.188
10807SOL     OW33319   3.657   6.816   3.564
10807SOL    HW133320   3.644   6.760   3.646
10807SOL    HW233321   3.572   6.863   3.542
10808SOL     OW33322   6.983   3.745   6.977
10808SOL    HW133323   7.003   3.758   0.046
10808SOL    HW233324   6.885   3.759   6.961
10809SOL     OW33325   2.728   0.621   4.321
10809SOL    HW133326   2.754   0.555   4.391
10809SOL    HW233327   2.707   0.573   4.236
10810SOL     OW33328   0.695   1.626   5.691
10810SOL    HW133329   0.708   1.530   5.668
10810SOL    HW233330   0.600   1.642   5.718
10811SOL     OW33331   3.795   5.112   5.606
10811SOL    HW133332   3.736   5.136   5.529
10811SOL    HW233333   3.853   5.190   5.630
10812SOL     OW33334   0.626   2.980   2.372
10812SOL    HW133335   0.708   2.998   2.427
10812SOL    HW233336   0.645   3.001   2.276
10813SOL     OW33337   2.652   6.163   1.437
10813SOL    HW133338   2.622   6.112   1.517
10813SOL    HW233339   2.643   6.105   1.356
10814SOL     OW33340   1.554   0.261   5.820
10814SOL    HW133341   1.642   0.218   5.795
10814SOL    HW233342   1.503   0.199   5.879
10815SOL     OW33343   4.627   4.678   3.471
10815SOL    HW133344   4.628   4.590   3.519
10815SOL    HW233345   4.692   4.675   3.395
10816SOL     OW33346   1.776   1.304   2.115
10816SOL    HW133347   1.807   1.210   2.102
10816SOL    HW233348   1.689   1.317   2.066
10817SOL     OW33349   5.238   6.271   2.955
10817SOL    HW133350   5.161   6.314   2.907
10817SOL    HW233351   5.287   6.340   3.007
10818SOL     OW33352   5.806   2.516   5.842
10818SOL    HW133353   5.854   2.604   5.845
10818SOL    HW233354   5.820   2.473   5.753
10819SOL     OW33355   0.943   3.665   6.724
10819SOL    HW133356   0.849   3.646   6.755
10819SOL    HW233357   0.944   3.672   6.624
10820SOL     OW33358   0.173   6.733   3.915
10820SOL    HW133359   0.175   6.727   4.015
10820SOL    HW233360   0.134   6.821   3.887
10821SOL     OW33361   6.226   6.111   2.828
10821SOL    HW133362   6.282   6.034   2.857
10821SOL    HW233363   6.278   6.169   2.765
10822SOL     OW33364   1.339   3.522   2.872
10822SOL    HW133365   1.285   3.606   2.869
10822SOL    HW233366   1.429   3.538   2.831
10823SOL     OW33367   1.604   5.503   1.752
10823SOL    HW133368   1.509   5.513   1.722
10823SOL    HW233369   1.608   5.517   1.851
10824SOL     OW33370   5.061   6.721   3.567
10824SOL    HW133371   5.094   6.806   3.606
10824SOL    HW233372   5.072   6.647   3.634
10825SOL     OW33373   2.607   1.772   0.520
10825SOL    HW133374   2.680   1.797   0.584
10825SOL    HW233375   2.574   1.855   0.474
10826SOL     OW33376   6.447   3.174   2.570
10826SOL    HW133377   6.439   3.272   2.557
10826SOL    HW233378   6.544   3.148   2.564
10827SOL     OW33379   6.364   3.672   3.644
10827SOL    HW133380   6.442   3.675   3.706
10827SOL    HW233381   6.371   3.591   3.585
10828SOL     OW33382   0.884   6.094   1.778
10828SOL    HW133383   0.801   6.109   1.833
10828SOL    HW233384   0.886   6.158   1.702
10829SOL     OW33385   2.659   3.252   1.014
10829SOL    HW133386   2.724   3.177   1.020
10829SOL    HW233387   2.569   3.217   0.987
10830SOL     OW33388   6.154   2.525   3.842
10830SOL    HW133389   6.242   2.526   3.793
10830SOL    HW233390   6.158   2.592   3.916
10831SOL     OW33391   5.015   0.348   1.752
10831SOL    HW133392   5.056   0.433   1.786
10831SOL    HW233393   4.924   0.336   1.793
10832SOL     OW33394   0.735   1.954   0.831
10832SOL    HW133395   0.770   1.907   0.750
10832SOL    HW233396   0.750   1.897   0.911
10833SOL     OW33397   2.355   0.513   3.702
10833SOL    HW133398   2.312   0.578   3.640
10833SOL    HW233399   2.307   0.426   3.698
10834SOL     OW33400   0.399   1.168   5.387
10834SOL    HW133401   0.385   1.261   5.353
10834SOL    HW233402   0.330   1.148   5.456
10835SOL     OW33403   6.081   1.332   1.087
10835SOL    HW133404   5.992   1.378   1.078
10835SOL    HW233405   6.148   1.398   1.121
10836SOL     OW33406   6.782   1.760   5.538
10836SOL    HW133407   6.856   1.741   5.474
10836SOL    HW233408   6.741   1.674   5.568
10837SOL     OW33409   6.790   4.501   6.977
10837SOL    HW133410   6.705   4.451   6.962
10837SOL    HW233411   6.787   4.587   6.925
10838SOL     OW33412   5.849   0.606   5.259
10838SOL    HW133413   5.840   0.705   5.248
10838SOL    HW233414   5.790   0.574   5.333
10839SOL     OW33415   2.643   3.077   6.946
10839SOL    HW133416   2.648   3.103   6.850
10839SOL    HW233417   2.667   3.156   7.003
10840SOL     OW33418   3.690   5.836   1.487
10840SOL    HW133419   3.686   5.910   1.420
10840SOL    HW233420   3.705   5.874   1.578
10841SOL     OW33421   3.447   5.692   5.697
10841SOL    HW133422   3.399   5.647   5.772
10841SOL    HW233423   3.389   5.764   5.659
10842SOL     OW33424   6.208   2.820   1.169
10842SOL    HW133425   6.228   2.831   1.072
10842SOL    HW233426   6.271   2.754   1.210
10843SOL     OW33427   0.819   1.751   1.592
10843SOL    HW133428   0.795   1.668   1.542
10843SOL    HW233429   0.903   1.789   1.555
10844SOL     OW33430   6.875   6.433   4.414
10844SOL    HW133431   6.845   6.351   4.462
10844SOL    HW233432   6.796   6.480   4.375
10845SOL     OW33433   2.250   1.117   1.454
10845SOL    HW133434   2.272   1.067   1.370
10845SOL    HW233435   2.197   1.058   1.515
10846SOL     OW33436   4.834   1.955   0.789
10846SOL    HW133437   4.842   1.861   0.822
10846SOL    HW233438   4.768   2.005   0.846
10847SOL     OW33439   2.607   2.212   6.128
10847SOL    HW133440   2.695   2.257   6.116
10847SOL    HW233441   2.577   2.220   6.223
10848SOL     OW33442   2.786   1.311   6.831
10848SOL    HW133443   2.852   1.386   6.831
10848SOL    HW233444   2.805   1.249   6.907
10849SOL     OW33445   3.984   4.823   3.751
10849SOL    HW133446   3.962   4.822   3.849
10849SOL    HW233447   3.937   4.899   3.707
10850SOL     OW33448   3.797   6.986   6.843
10850SOL    HW133449   3.795   6.963   6.941
10850SOL    HW233450   3.848   0.043   6.830
10851SOL     OW33451   2.982   2.811   5.866
10851SOL    HW133452   3.055   2.759   5.823
10851SOL    HW233453   3.012   2.842   5.956
10852SOL     OW33454   0.338   0.415   6.754
10852SOL    HW133455   0.336   0.325   6.798
10852SOL    HW233456   0.261   0.470   6.788
10853SOL     OW33457   3.928   1.777   4.413
10853SOL    HW133458   3.864   1.701   4.409
10853SOL    HW233459   3.880   1.861   4.439
10854SOL     OW33460   5.937   0.166   6.706
10854SOL    HW133461   5.933   0.265   6.693
10854SOL    HW233462   5.943   0.145   6.803
10855SOL     OW33463   2.809   5.966   2.803
10855SOL    HW133464   2.821   5.892   2.870
10855SOL    HW233465   2.711   5.980   2.787
10856SOL     OW33466   6.233   0.169   0.933
10856SOL    HW133467   6.223   0.090   0.874
10856SOL    HW233468   6.239   0.252   0.877
10857SOL     OW33469   6.401   3.113   3.197
10857SOL    HW133470   6.393   3.111   3.097
10857SOL    HW233471   6.486   3.068   3.224
10858SOL     OW33472   2.009   3.088   6.517
10858SOL    HW133473   2.010   3.078   6.616
10858SOL    HW233474   1.964   3.174   6.492
10859SOL     OW33475   1.500   3.834   3.406
10859SOL    HW133476   1.575   3.776   3.373
10859SOL    HW233477   1.494   3.827   3.505
10860SOL     OW33478   6.428   0.987   6.832
10860SOL    HW133479   6.397   1.006   6.739
10860SOL    HW233480   6.394   1.057   6.894
10861SOL     OW33481   3.832   2.452   1.712
10861SOL    HW133482   3.843   2.536   1.766
10861SOL    HW233483   3.759   2.396   1.751
10862SOL     OW33484   2.258   1.862   6.141
10862SOL    HW133485   2.308   1.855   6.228
10862SOL    HW233486   2.280   1.950   6.098
10863SOL     OW33487   3.081   0.834   2.745
10863SOL    HW133488   3.080   0.881   2.833
10863SOL    HW233489   2.999   0.777   2.736
10864SOL     OW33490   2.003   4.694   1.632
10864SOL    HW133491   2.096   4.666   1.605
10864SOL    HW233492   1.948   4.612   1.650
10865SOL     OW33493   6.064   3.106   3.588
10865SOL    HW133494   5.983   3.048   3.582
10865SOL    HW233495   6.116   3.099   3.503
10866SOL     OW33496   5.774   3.199   0.945
10866SOL    HW133497   5.749   3.138   0.870
10866SOL    HW233498   5.872   3.191   0.963
10867SOL     OW33499   2.692   2.572   0.358
10867SOL    HW133500   2.609   2.528   0.395
10867SOL    HW233501   2.726   2.639   0.424
10868SOL     OW33502   1.396   2.109   2.994
10868SOL    HW133503   1.374   2.102   2.897
10868SOL    HW233504   1.323   2.066   3.048
10869NA      NA33505   0.866   1.915   6.415
10870NA      NA33506   4.548   4.488   5.084
10871NA      NA33507   1.698   4.593   2.601
10872NA      NA33508   5.124   4.432   3.880
10873NA      NA33509   4.377   2.475   5.241
10874NA      NA33510   3.185   4.543   1.602
10875NA      NA33511   0.898   4.636   0.183
10876NA      NA33512   4.040   4.367   1.566
10877NA      NA33513   4.582   3.832   1.066
10878NA      NA33514   3.724   1.189   5.779
10879NA      NA33515   4.973   5.695   1.800
10880NA      NA33516   1.545   0.499   5.781
10881NA      NA33517   4.926   4.949   2.083
10882NA      NA33518   3.555   3.257   0.512
   7.02755   7.02755   7.02755
