Generated by trjconv : CNT in water t= 102.00000
33518
    1C        C    1   2.848   2.772   4.750
    1C        C    2   2.902   2.719   4.869
    1C        C    3   2.846   2.772   4.986
    1C        C    4   2.855   2.778   4.261
    1C        C    5   2.906   2.731   4.384
    1C        C    6   2.850   2.773   4.507
    1C        C    7   3.014   2.639   4.627
    1C        C    8   2.899   2.721   4.628
    1C        C    9   3.079   2.601   4.747
    1C        C   10   3.014   2.632   4.868
    1C        C   11   3.187   2.495   4.980
    1C        C   12   3.061   2.556   4.976
    1C        C   13   2.852   2.772   3.773
    1C        C   14   2.905   2.723   3.895
    1C        C   15   2.856   2.777   4.016
    1C        C   16   3.017   2.642   4.141
    1C        C   17   2.909   2.732   4.139
    1C        C   18   3.080   2.607   4.263
    1C        C   19   3.019   2.646   4.385
    1C        C   20   3.208   2.552   4.505
    1C        C   21   3.076   2.602   4.506
    1C        C   22   3.279   2.530   4.625
    1C        C   23   3.213   2.553   4.748
    1C        C   24   3.417   2.492   4.866
    1C        C   25   3.275   2.507   4.867
    1C        C   26   3.493   2.484   4.983
    1C        C   27   2.852   2.772   3.282
    1C        C   28   2.905   2.723   3.404
    1C        C   29   2.851   2.769   3.526
    1C        C   30   3.018   2.643   3.651
    1C        C   31   2.902   2.725   3.650
    1C        C   32   3.077   2.607   3.775
    1C        C   33   3.019   2.640   3.899
    1C        C   34   3.212   2.553   4.019
    1C        C   35   3.080   2.602   4.021
    1C        C   36   3.282   2.533   4.141
    1C        C   37   3.210   2.551   4.261
    1C        C   38   3.416   2.505   4.386
    1C        C   39   3.277   2.531   4.383
    1C        C   40   3.491   2.506   4.506
    1C        C   41   3.419   2.510   4.627
    1C        C   42   3.635   2.490   4.747
    1C        C   43   3.493   2.489   4.745
    1C        C   44   3.708   2.496   4.867
    1C        C   45   3.632   2.484   4.984
    1C        C   46   2.835   2.755   2.793
    1C        C   47   2.897   2.718   2.915
    1C        C   48   2.848   2.766   3.038
    1C        C   49   3.021   2.644   3.159
    1C        C   50   2.905   2.724   3.161
    1C        C   51   3.081   2.611   3.282
    1C        C   52   3.020   2.641   3.406
    1C        C   53   3.209   2.553   3.529
    1C        C   54   3.077   2.604   3.530
    1C        C   55   3.277   2.536   3.652
    1C        C   56   3.208   2.555   3.773
    1C        C   57   3.416   2.509   3.895
    1C        C   58   3.278   2.537   3.895
    1C        C   59   3.486   2.502   4.017
    1C        C   60   3.421   2.511   4.143
    1C        C   61   3.630   2.505   4.261
    1C        C   62   3.489   2.500   4.266
    1C        C   63   3.703   2.507   4.383
    1C        C   64   3.632   2.506   4.505
    1C        C   65   3.840   2.547   4.625
    1C        C   66   3.706   2.502   4.625
    1C        C   67   3.909   2.566   4.746
    1C        C   68   3.846   2.526   4.866
    1C        C   69   4.056   2.585   4.983
    1C        C   70   3.927   2.531   4.980
    1C        C   71   2.829   2.742   2.309
    1C        C   72   2.887   2.700   2.430
    1C        C   73   2.835   2.750   2.551
    1C        C   74   3.011   2.631   2.672
    1C        C   75   2.890   2.705   2.673
    1C        C   76   3.075   2.599   2.794
    1C        C   77   3.013   2.637   2.915
    1C        C   78   3.208   2.549   3.038
    1C        C   79   3.079   2.606   3.036
    1C        C   80   3.277   2.532   3.160
    1C        C   81   3.211   2.556   3.282
    1C        C   82   3.415   2.506   3.405
    1C        C   83   3.276   2.532   3.406
    1C        C   84   3.486   2.499   3.527
    1C        C   85   3.416   2.512   3.650
    1C        C   86   3.627   2.505   3.773
    1C        C   87   3.486   2.504   3.772
    1C        C   88   3.697   2.513   3.895
    1C        C   89   3.628   2.505   4.017
    1C        C   90   3.836   2.547   4.137
    1C        C   91   3.700   2.510   4.139
    1C        C   92   3.905   2.572   4.257
    1C        C   93   3.839   2.544   4.379
    1C        C   94   4.029   2.637   4.500
    1C        C   95   3.904   2.571   4.502
    1C        C   96   4.093   2.672   4.621
    1C        C   97   4.035   2.631   4.743
    1C        C   98   4.195   2.764   4.863
    1C        C   99   4.102   2.655   4.867
    1C        C  100   4.221   2.839   4.978
    1C        C  101   2.823   2.733   2.072
    1C        C  102   2.999   2.601   2.188
    1C        C  103   2.885   2.688   2.189
    1C        C  104   3.066   2.580   2.312
    1C        C  105   3.006   2.623   2.432
    1C        C  106   3.204   2.539   2.551
    1C        C  107   3.074   2.593   2.552
    1C        C  108   3.274   2.523   2.673
    1C        C  109   3.206   2.545   2.795
    1C        C  110   3.415   2.500   2.915
    1C        C  111   3.275   2.523   2.916
    1C        C  112   3.485   2.498   3.037
    1C        C  113   3.417   2.509   3.160
    1C        C  114   3.627   2.501   3.283
    1C        C  115   3.486   2.502   3.283
    1C        C  116   3.699   2.511   3.405
    1C        C  117   3.627   2.506   3.526
    1C        C  118   3.832   2.550   3.648
    1C        C  119   3.696   2.512   3.649
    1C        C  120   3.899   2.574   3.770
    1C        C  121   3.835   2.547   3.893
    1C        C  122   4.024   2.644   4.013
    1C        C  123   3.902   2.572   4.014
    1C        C  124   4.085   2.681   4.135
    1C        C  125   4.032   2.635   4.257
    1C        C  126   4.197   2.768   4.378
    1C        C  127   4.092   2.673   4.379
    1C        C  128   4.249   2.819   4.499
    1C        C  129   4.196   2.767   4.620
    1C        C  130   4.328   2.935   4.738
    1C        C  131   4.245   2.820   4.742
    1C        C  132   4.364   2.999   4.859
    1C        C  133   4.294   2.957   4.973
    1C        C  134   3.172   2.469   2.083
    1C        C  135   3.038   2.508   2.086
    1C        C  136   3.261   2.485   2.191
    1C        C  137   3.199   2.528   2.310
    1C        C  138   3.409   2.485   2.426
    1C        C  139   3.270   2.510   2.430
    1C        C  140   3.481   2.481   2.548
    1C        C  141   3.412   2.491   2.671
    1C        C  142   3.624   2.492   2.794
    1C        C  143   3.483   2.484   2.792
    1C        C  144   3.696   2.505   2.915
    1C        C  145   3.627   2.497   3.038
    1C        C  146   3.832   2.547   3.157
    1C        C  147   3.696   2.507   3.160
    1C        C  148   3.899   2.569   3.279
    1C        C  149   3.837   2.541   3.403
    1C        C  150   4.029   2.628   3.524
    1C        C  151   3.901   2.568   3.526
    1C        C  152   4.088   2.669   3.646
    1C        C  153   4.026   2.637   3.768
    1C        C  154   4.191   2.773   3.889
    1C        C  155   4.081   2.683   3.890
    1C        C  156   4.245   2.818   4.011
    1C        C  157   4.194   2.770   4.135
    1C        C  158   4.342   2.923   4.252
    1C        C  159   4.248   2.818   4.256
    1C        C  160   4.378   2.987   4.373
    1C        C  161   4.336   2.930   4.496
    1C        C  162   4.441   3.116   4.618
    1C        C  163   4.369   2.995   4.617
    1C        C  164   4.470   3.184   4.739
    1C        C  165   4.437   3.120   4.860
    1C        C  166   4.519   3.318   4.975
    1C        C  167   4.492   3.181   4.973
    1C        C  168   3.476   2.435   2.073
    1C        C  169   3.400   2.459   2.188
    1C        C  170   3.621   2.474   2.306
    1C        C  171   3.479   2.468   2.304
    1C        C  172   3.694   2.490   2.427
    1C        C  173   3.622   2.491   2.548
    1C        C  174   3.827   2.546   2.666
    1C        C  175   3.691   2.509   2.670
    1C        C  176   3.892   2.576   2.788
    1C        C  177   3.832   2.542   2.911
    1C        C  178   4.027   2.624   3.033
    1C        C  179   3.899   2.565   3.034
    1C        C  180   4.090   2.659   3.154
    1C        C  181   4.026   2.630   3.277
    1C        C  182   4.195   2.754   3.397
    1C        C  183   4.087   2.663   3.400
    1C        C  184   4.246   2.805   3.518
    1C        C  185   4.199   2.758   3.643
    1C        C  186   4.339   2.918   3.765
    1C        C  187   4.245   2.812   3.764
    1C        C  188   4.376   2.980   3.886
    1C        C  189   4.334   2.927   4.010
    1C        C  190   4.450   3.107   4.129
    1C        C  191   4.380   2.985   4.131
    1C        C  192   4.477   3.173   4.251
    1C        C  193   4.446   3.110   4.373
    1C        C  194   4.507   3.315   4.496
    1C        C  195   4.469   3.179   4.495
    1C        C  196   4.524   3.389   4.615
    1C        C  197   4.511   3.320   4.738
    1C        C  198   4.555   3.535   4.854
    1C        C  199   4.535   3.393   4.858
    1C        C  200   4.587   3.619   4.965
    1C        C  201   3.616   2.427   2.071
    1C        C  202   3.827   2.520   2.182
    1C        C  203   3.693   2.469   2.184
    1C        C  204   3.898   2.545   2.303
    1C        C  205   3.830   2.527   2.426
    1C        C  206   4.026   2.622   2.545
    1C        C  207   3.899   2.560   2.545
    1C        C  208   4.087   2.662   2.666
    1C        C  209   4.021   2.633   2.788
    1C        C  210   4.195   2.754   2.911
    1C        C  211   4.084   2.666   2.910
    1C        C  212   4.252   2.797   3.033
    1C        C  213   4.201   2.747   3.154
    1C        C  214   4.339   2.911   3.274
    1C        C  215   4.250   2.801   3.275
    1C        C  216   4.376   2.973   3.396
    1C        C  217   4.333   2.916   3.518
    1C        C  218   4.432   3.103   3.641
    1C        C  219   4.375   2.974   3.640
    1C        C  220   4.463   3.172   3.761
    1C        C  221   4.441   3.105   3.884
    1C        C  222   4.503   3.309   4.006
    1C        C  223   4.475   3.170   4.005
    1C        C  224   4.510   3.382   4.127
    1C        C  225   4.507   3.311   4.249
    1C        C  226   4.521   3.523   4.371
    1C        C  227   4.516   3.382   4.372
    1C        C  228   4.518   3.598   4.491
    1C        C  229   4.525   3.530   4.615
    1C        C  230   4.501   3.745   4.729
    1C        C  231   4.533   3.606   4.733
    1C        C  232   4.496   3.820   4.848
    1C        C  233   4.548   3.753   4.960
    1C        C  234   4.028   2.601   2.068
    1C        C  235   3.903   2.539   2.066
    1C        C  236   4.090   2.650   2.183
    1C        C  237   4.026   2.607   2.301
    1C        C  238   4.202   2.732   2.421
    1C        C  239   4.089   2.645   2.421
    1C        C  240   4.254   2.785   2.542
    1C        C  241   4.199   2.748   2.666
    1C        C  242   4.341   2.905   2.782
    1C        C  243   4.249   2.798   2.788
    1C        C  244   4.381   2.962   2.905
    1C        C  245   4.343   2.905   3.029
    1C        C  246   4.446   3.091   3.151
    1C        C  247   4.378   2.967   3.151
    1C        C  248   4.462   3.163   3.271
    1C        C  249   4.434   3.102   3.396
    1C        C  250   4.494   3.305   3.516
    1C        C  251   4.457   3.168   3.519
    1C        C  252   4.510   3.375   3.637
    1C        C  253   4.501   3.308   3.761
    1C        C  254   4.527   3.518   3.881
    1C        C  255   4.515   3.377   3.883
    1C        C  256   4.519   3.590   4.003
    1C        C  257   4.518   3.523   4.127
    1C        C  258   4.493   3.733   4.243
    1C        C  259   4.515   3.594   4.249
    1C        C  260   4.471   3.804   4.364
    1C        C  261   4.483   3.735   4.486
    1C        C  262   4.426   3.941   4.602
    1C        C  263   4.473   3.808   4.606
    1C        C  264   4.400   4.010   4.723
    1C        C  265   4.435   3.947   4.844
    1C        C  266   4.321   4.131   4.959
    1C        C  267   4.401   4.017   4.961
    1C        C  268   4.268   2.777   2.063
    1C        C  269   4.203   2.735   2.180
    1C        C  270   4.353   2.888   2.304
    1C        C  271   4.256   2.784   2.302
    1C        C  272   4.393   2.952   2.423
    1C        C  273   4.350   2.889   2.542
    1C        C  274   4.452   3.083   2.663
    1C        C  275   4.390   2.956   2.659
    1C        C  276   4.475   3.151   2.785
    1C        C  277   4.451   3.085   2.908
    1C        C  278   4.506   3.292   3.025
    1C        C  279   4.478   3.153   3.028
    1C        C  280   4.512   3.365   3.146
    1C        C  281   4.503   3.298   3.270
    1C        C  282   4.514   3.512   3.392
    1C        C  283   4.506   3.371   3.391
    1C        C  284   4.512   3.583   3.513
    1C        C  285   4.515   3.516   3.638
    1C        C  286   4.494   3.727   3.755
    1C        C  287   4.518   3.588   3.759
    1C        C  288   4.472   3.794   3.877
    1C        C  289   4.493   3.729   4.001
    1C        C  290   4.423   3.932   4.116
    1C        C  291   4.474   3.801   4.121
    1C        C  292   4.396   4.001   4.237
    1C        C  293   4.424   3.937   4.361
    1C        C  294   4.329   4.131   4.479
    1C        C  295   4.393   4.005   4.481
    1C        C  296   4.289   4.193   4.600
    1C        C  297   4.326   4.132   4.721
    1C        C  298   4.202   4.314   4.838
    1C        C  299   4.280   4.193   4.841
    1C        C  300   4.172   4.401   4.947
    1C        C  301   4.356   2.885   2.063
    1C        C  302   4.471   3.069   2.179
    1C        C  303   4.398   2.946   2.182
    1C        C  304   4.481   3.145   2.299
    1C        C  305   4.453   3.080   2.421
    1C        C  306   4.512   3.286   2.539
    1C        C  307   4.481   3.148   2.542
    1C        C  308   4.520   3.358   2.660
    1C        C  309   4.508   3.288   2.782
    1C        C  310   4.528   3.503   2.902
    1C        C  311   4.513   3.362   2.903
    1C        C  312   4.519   3.576   3.022
    1C        C  313   4.513   3.506   3.145
    1C        C  314   4.483   3.717   3.265
    1C        C  315   4.510   3.578   3.267
    1C        C  316   4.474   3.788   3.387
    1C        C  317   4.491   3.723   3.512
    1C        C  318   4.425   3.927   3.631
    1C        C  319   4.475   3.795   3.632
    1C        C  320   4.393   3.990   3.753
    1C        C  321   4.417   3.924   3.876
    1C        C  322   4.325   4.120   3.992
    1C        C  323   4.394   3.997   3.994
    1C        C  324   4.282   4.180   4.113
    1C        C  325   4.329   4.125   4.235
    1C        C  326   4.192   4.289   4.354
    1C        C  327   4.289   4.187   4.355
    1C        C  328   4.138   4.342   4.473
    1C        C  329   4.190   4.294   4.596
    1C        C  330   4.033   4.443   4.715
    1C        C  331   4.141   4.351   4.715
    1C        C  332   3.973   4.491   4.833
    1C        C  333   4.053   4.476   4.947
    1C        C  334   4.551   3.270   2.061
    1C        C  335   4.535   3.131   2.067
    1C        C  336   4.539   3.351   2.175
    1C        C  337   4.520   3.281   2.296
    1C        C  338   4.523   3.496   2.415
    1C        C  339   4.528   3.355   2.417
    1C        C  340   4.517   3.570   2.535
    1C        C  341   4.522   3.500   2.657
    1C        C  342   4.488   3.709   2.777
    1C        C  343   4.523   3.572   2.779
    1C        C  344   4.475   3.781   2.897
    1C        C  345   4.488   3.713   3.021
    1C        C  346   4.420   3.916   3.140
    1C        C  347   4.468   3.783   3.142
    1C        C  348   4.391   3.981   3.262
    1C        C  349   4.426   3.921   3.385
    1C        C  350   4.321   4.106   3.504
    1C        C  351   4.398   3.988   3.506
    1C        C  352   4.273   4.164   3.624
    1C        C  353   4.320   4.111   3.746
    1C        C  354   4.182   4.272   3.867
    1C        C  355   4.280   4.170   3.868
    1C        C  356   4.128   4.322   3.987
    1C        C  357   4.182   4.280   4.110
    1C        C  358   4.014   4.408   4.234
    1C        C  359   4.131   4.328   4.233
    1C        C  360   3.955   4.450   4.355
    1C        C  361   4.018   4.416   4.477
    1C        C  362   3.830   4.520   4.596
    1C        C  363   3.960   4.465   4.596
    1C        C  364   3.764   4.552   4.716
    1C        C  365   3.841   4.540   4.834
    1C        C  366   3.633   4.589   4.951
    1C        C  367   3.770   4.562   4.953
    1C        C  368   4.514   3.568   2.053
    1C        C  369   4.521   3.491   2.170
    1C        C  370   4.508   3.704   2.289
    1C        C  371   4.519   3.564   2.291
    1C        C  372   4.486   3.778   2.407
    1C        C  373   4.497   3.709   2.530
    1C        C  374   4.431   3.909   2.651
    1C        C  375   4.481   3.777   2.653
    1C        C  376   4.397   3.977   2.770
    1C        C  377   4.427   3.914   2.893
    1C        C  378   4.321   4.097   3.012
    1C        C  379   4.397   3.978   3.015
    1C        C  380   4.278   4.156   3.133
    1C        C  381   4.319   4.103   3.257
    1C        C  382   4.180   4.261   3.379
    1C        C  383   4.278   4.159   3.380
    1C        C  384   4.125   4.311   3.499
    1C        C  385   4.176   4.266   3.623
    1C        C  386   4.011   4.399   3.745
    1C        C  387   4.127   4.317   3.745
    1C        C  388   3.948   4.437   3.865
    1C        C  389   4.008   4.396   3.987
    1C        C  390   3.823   4.495   4.111
    1C        C  391   3.951   4.435   4.110
    1C        C  392   3.753   4.516   4.232
    1C        C  393   3.824   4.504   4.353
    1C        C  394   3.621   4.564   4.475
    1C        C  395   3.759   4.536   4.474
    1C        C  396   3.549   4.570   4.597
    1C        C  397   3.624   4.571   4.717
    1C        C  398   3.412   4.556   4.841
    1C        C  399   3.552   4.575   4.838
    1C        C  400   3.343   4.527   4.959
    1C        C  401   4.505   3.706   2.052
    1C        C  402   4.456   3.916   2.169
    1C        C  403   4.495   3.781   2.171
    1C        C  404   4.415   3.978   2.289
    1C        C  405   4.440   3.912   2.412
    1C        C  406   4.329   4.098   2.528
    1C        C  407   4.407   3.980   2.531
    1C        C  408   4.279   4.154   2.647
    1C        C  409   4.324   4.098   2.768
    1C        C  410   4.180   4.254   2.890
    1C        C  411   4.283   4.157   2.890
    1C        C  412   4.124   4.298   3.011
    1C        C  413   4.177   4.255   3.135
    1C        C  414   4.006   4.381   3.254
    1C        C  415   4.124   4.305   3.257
    1C        C  416   3.946   4.419   3.377
    1C        C  417   4.009   4.391   3.500
    1C        C  418   3.815   4.478   3.621
    1C        C  419   3.947   4.426   3.622
    1C        C  420   3.750   4.502   3.744
    1C        C  421   3.817   4.488   3.867
    1C        C  422   3.612   4.536   3.990
    1C        C  423   3.751   4.512   3.990
    1C        C  424   3.542   4.548   4.112
    1C        C  425   3.614   4.540   4.233
    1C        C  426   3.406   4.545   4.359
    1C        C  427   3.546   4.561   4.355
    1C        C  428   3.335   4.543   4.481
    1C        C  429   3.409   4.553   4.601
    1C        C  430   3.198   4.515   4.725
    1C        C  431   3.337   4.545   4.722
    1C        C  432   3.131   4.491   4.848
    1C        C  433   3.206   4.502   4.966
    1C        C  434   4.384   4.123   2.050
    1C        C  435   4.452   4.001   2.058
    1C        C  436   4.305   4.161   2.163
    1C        C  437   4.332   4.093   2.285
    1C        C  438   4.185   4.251   2.402
    1C        C  439   4.284   4.150   2.405
    1C        C  440   4.130   4.302   2.522
    1C        C  441   4.177   4.252   2.645
    1C        C  442   4.009   4.380   2.766
    1C        C  443   4.123   4.297   2.768
    1C        C  444   3.947   4.417   2.887
    1C        C  445   4.007   4.378   3.009
    1C        C  446   3.818   4.474   3.130
    1C        C  447   3.945   4.413   3.131
    1C        C  448   3.752   4.499   3.253
    1C        C  449   3.817   4.476   3.376
    1C        C  450   3.610   4.529   3.499
    1C        C  451   3.749   4.500   3.498
    1C        C  452   3.545   4.539   3.623
    1C        C  453   3.613   4.536   3.747
    1C        C  454   3.401   4.544   3.866
    1C        C  455   3.542   4.553   3.868
    1C        C  456   3.333   4.535   3.989
    1C        C  457   3.401   4.541   4.113
    1C        C  458   3.197   4.503   4.242
    1C        C  459   3.335   4.535   4.238
    1C        C  460   3.129   4.482   4.363
    1C        C  461   3.198   4.508   4.484
    1C        C  462   2.997   4.437   4.607
    1C        C  463   3.126   4.496   4.605
    1C        C  464   2.933   4.400   4.727
    1C        C  465   2.998   4.439   4.848
    1C        C  466   2.808   4.335   4.961
    1C        C  467   2.912   4.429   4.962
    1C        C  468   4.129   4.287   2.042
    1C        C  469   4.192   4.249   2.161
    1C        C  470   4.012   4.375   2.277
    1C        C  471   4.131   4.298   2.280
    1C        C  472   3.947   4.407   2.398
    1C        C  473   4.008   4.374   2.521
    1C        C  474   3.816   4.465   2.644
    1C        C  475   3.947   4.412   2.643
    1C        C  476   3.748   4.492   2.765
    1C        C  477   3.817   4.472   2.887
    1C        C  478   3.611   4.518   3.009
    1C        C  479   3.751   4.500   3.008
    1C        C  480   3.542   4.530   3.132
    1C        C  481   3.613   4.523   3.254
    1C        C  482   3.400   4.533   3.379
    1C        C  483   3.541   4.529   3.376
    1C        C  484   3.331   4.528   3.502
    1C        C  485   3.404   4.540   3.623
    1C        C  486   3.194   4.498   3.749
    1C        C  487   3.331   4.531   3.744
    1C        C  488   3.129   4.477   3.873
    1C        C  489   3.198   4.495   3.995
    1C        C  490   3.007   4.412   4.119
    1C        C  491   3.133   4.476   4.119
    1C        C  492   2.947   4.372   4.240
    1C        C  493   3.003   4.418   4.362
    1C        C  494   2.829   4.306   4.484
    1C        C  495   2.938   4.395   4.486
    1C        C  496   2.780   4.255   4.606
    1C        C  497   2.823   4.310   4.729
    1C        C  498   2.662   4.167   4.845
    1C        C  499   2.759   4.270   4.847
    1C        C  500   2.595   4.118   4.958
    1C        C  501   4.010   4.361   2.043
    1C        C  502   3.818   4.468   2.157
    1C        C  503   3.948   4.412   2.157
    1C        C  504   3.747   4.483   2.278
    1C        C  505   3.815   4.458   2.399
    1C        C  506   3.610   4.509   2.524
    1C        C  507   3.749   4.482   2.521
    1C        C  508   3.538   4.514   2.645
    1C        C  509   3.609   4.516   2.767
    1C        C  510   3.398   4.527   2.887
    1C        C  511   3.540   4.533   2.888
    1C        C  512   3.331   4.516   3.010
    1C        C  513   3.401   4.524   3.133
    1C        C  514   3.195   4.491   3.259
    1C        C  515   3.332   4.524   3.256
    1C        C  516   3.125   4.475   3.381
    1C        C  517   3.193   4.498   3.503
    1C        C  518   3.004   4.407   3.627
    1C        C  519   3.129   4.472   3.626
    1C        C  520   2.948   4.367   3.751
    1C        C  521   3.008   4.404   3.874
    1C        C  522   2.840   4.279   3.998
    1C        C  523   2.950   4.367   3.997
    1C        C  524   2.792   4.227   4.121
    1C        C  525   2.837   4.284   4.242
    1C        C  526   2.697   4.132   4.366
    1C        C  527   2.778   4.248   4.365
    1C        C  528   2.653   4.077   4.488
    1C        C  529   2.691   4.145   4.606
    1C        C  530   2.586   3.961   4.735
    1C        C  531   2.641   4.092   4.727
    1C        C  532   2.543   3.900   4.855
    1C        C  533   2.527   3.995   4.961
    1C        C  534   3.620   4.558   2.042
    1C        C  535   3.752   4.512   2.042
    1C        C  536   3.539   4.540   2.158
    1C        C  537   3.608   4.512   2.280
    1C        C  538   3.397   4.508   2.402
    1C        C  539   3.538   4.513   2.402
    1C        C  540   3.324   4.501   2.523
    1C        C  541   3.396   4.512   2.644
    1C        C  542   3.188   4.482   2.768
    1C        C  543   3.326   4.513   2.766
    1C        C  544   3.124   4.458   2.892
    1C        C  545   3.193   4.483   3.012
    1C        C  546   3.004   4.396   3.137
    1C        C  547   3.130   4.460   3.137
    1C        C  548   2.944   4.364   3.261
    1C        C  549   3.002   4.405   3.383
    1C        C  550   2.836   4.276   3.507
    1C        C  551   2.943   4.367   3.506
    1C        C  552   2.782   4.233   3.631
    1C        C  553   2.835   4.283   3.752
    1C        C  554   2.697   4.125   3.878
    1C        C  555   2.788   4.233   3.875
    1C        C  556   2.657   4.064   3.999
    1C        C  557   2.698   4.122   4.121
    1C        C  558   2.593   3.944   4.248
    1C        C  559   2.656   4.070   4.246
    1C        C  560   2.563   3.883   4.372
    1C        C  561   2.587   3.952   4.492
    1C        C  562   2.526   3.752   4.617
    1C        C  563   2.564   3.888   4.616
    1C        C  564   2.515   3.683   4.740
    1C        C  565   2.525   3.758   4.861
    1C        C  566   2.535   3.547   4.980
    1C        C  567   2.528   3.686   4.981
    1C        C  568   3.332   4.477   2.042
    1C        C  569   3.398   4.517   2.159
    1C        C  570   3.186   4.479   2.281
    1C        C  571   3.325   4.511   2.280
    1C        C  572   3.115   4.463   2.402
    1C        C  573   3.185   4.478   2.524
    1C        C  574   2.990   4.402   2.650
    1C        C  575   3.117   4.465   2.647
    1C        C  576   2.935   4.358   2.772
    1C        C  577   2.999   4.392   2.893
    1C        C  578   2.825   4.277   3.017
    1C        C  579   2.940   4.359   3.017
    1C        C  580   2.779   4.226   3.141
    1C        C  581   2.835   4.274   3.261
    1C        C  582   2.702   4.112   3.387
    1C        C  583   2.789   4.223   3.385
    1C        C  584   2.661   4.060   3.512
    1C        C  585   2.694   4.123   3.635
    1C        C  586   2.592   3.938   3.758
    1C        C  587   2.653   4.066   3.758
    1C        C  588   2.567   3.873   3.881
    1C        C  589   2.595   3.937   4.004
    1C        C  590   2.533   3.738   4.129
    1C        C  591   2.572   3.874   4.128
    1C        C  592   2.521   3.671   4.253
    1C        C  593   2.529   3.746   4.372
    1C        C  594   2.512   3.538   4.498
    1C        C  595   2.515   3.679   4.496
    1C        C  596   2.521   3.468   4.620
    1C        C  597   2.523   3.541   4.740
    1C        C  598   2.538   3.330   4.860
    1C        C  599   2.532   3.471   4.863
    1C        C  600   2.533   3.250   4.975
    1C        C  601   3.200   4.438   2.043
    1C        C  602   2.988   4.392   2.160
    1C        C  603   3.123   4.439   2.160
    1C        C  604   2.929   4.356   2.284
    1C        C  605   2.991   4.396   2.404
    1C        C  606   2.823   4.272   2.529
    1C        C  607   2.934   4.359   2.528
    1C        C  608   2.773   4.221   2.651
    1C        C  609   2.825   4.269   2.773
    1C        C  610   2.685   4.113   2.900
    1C        C  611   2.773   4.224   2.897
    1C        C  612   2.644   4.059   3.024
    1C        C  613   2.688   4.118   3.145
    1C        C  614   2.593   3.928   3.268
    1C        C  615   2.656   4.054   3.267
    1C        C  616   2.566   3.869   3.394
    1C        C  617   2.594   3.936   3.515
    1C        C  618   2.524   3.735   3.640
    1C        C  619   2.568   3.870   3.637
    1C        C  620   2.513   3.667   3.763
    1C        C  621   2.524   3.738   3.885
    1C        C  622   2.506   3.528   4.011
    1C        C  623   2.513   3.669   4.007
    1C        C  624   2.514   3.459   4.133
    1C        C  625   2.511   3.530   4.255
    1C        C  626   2.543   3.324   4.380
    1C        C  627   2.511   3.462   4.379
    1C        C  628   2.567   3.257   4.502
    1C        C  629   2.538   3.328   4.621
    1C        C  630   2.596   3.120   4.745
    1C        C  631   2.549   3.255   4.741
    1C        C  632   2.620   3.050   4.866
    1C        C  633   2.564   3.113   4.982
    1C        C  634   2.784   4.305   2.057
    1C        C  635   2.893   4.393   2.053
    1C        C  636   2.750   4.230   2.170
    1C        C  637   2.814   4.273   2.288
    1C        C  638   2.674   4.113   2.411
    1C        C  639   2.767   4.220   2.410
    1C        C  640   2.635   4.054   2.533
    1C        C  641   2.686   4.110   2.653
    1C        C  642   2.584   3.928   2.780
    1C        C  643   2.648   4.054   2.777
    1C        C  644   2.554   3.865   2.903
    1C        C  645   2.581   3.932   3.024
    1C        C  646   2.525   3.728   3.149
    1C        C  647   2.563   3.864   3.146
    1C        C  648   2.512   3.663   3.274
    1C        C  649   2.530   3.732   3.396
    1C        C  650   2.513   3.522   3.519
    1C        C  651   2.518   3.663   3.518
    1C        C  652   2.521   3.455   3.643
    1C        C  653   2.518   3.526   3.765
    1C        C  654   2.533   3.317   3.890
    1C        C  655   2.511   3.457   3.888
    1C        C  656   2.553   3.252   4.013
    1C        C  657   2.539   3.319   4.136
    1C        C  658   2.616   3.123   4.258
    1C        C  659   2.562   3.254   4.259
    1C        C  660   2.640   3.058   4.381
    1C        C  661   2.613   3.123   4.503
    1C        C  662   2.715   2.940   4.629
    1C        C  663   2.633   3.055   4.625
    1C        C  664   2.761   2.884   4.750
    1C        C  665   2.703   2.933   4.871
    1C        C  666   2.750   2.873   4.988
    1C        C  667   2.676   4.028   2.053
    1C        C  668   2.685   4.104   2.170
    1C        C  669   2.590   3.914   2.294
    1C        C  670   2.641   4.047   2.291
    1C        C  671   2.555   3.854   2.417
    1C        C  672   2.579   3.924   2.537
    1C        C  673   2.520   3.723   2.663
    1C        C  674   2.552   3.860   2.660
    1C        C  675   2.510   3.652   2.785
    1C        C  676   2.521   3.728   2.904
    1C        C  677   2.502   3.517   3.030
    1C        C  678   2.512   3.658   3.027
    1C        C  679   2.508   3.449   3.154
    1C        C  680   2.505   3.522   3.275
    1C        C  681   2.537   3.312   3.401
    1C        C  682   2.509   3.451   3.397
    1C        C  683   2.557   3.246   3.524
    1C        C  684   2.542   3.315   3.646
    1C        C  685   2.604   3.115   3.773
    1C        C  686   2.553   3.247   3.769
    1C        C  687   2.641   3.055   3.895
    1C        C  688   2.609   3.122   4.015
    1C        C  689   2.718   2.937   4.141
    1C        C  690   2.644   3.057   4.136
    1C        C  691   2.763   2.885   4.265
    1C        C  692   2.720   2.941   4.387
    1C        C  693   2.756   2.879   4.508
    1C        C  694   2.629   3.896   2.057
    1C        C  695   2.527   3.708   2.180
    1C        C  696   2.578   3.839   2.175
    1C        C  697   2.502   3.642   2.302
    1C        C  698   2.512   3.719   2.421
    1C        C  699   2.487   3.509   2.544
    1C        C  700   2.502   3.650   2.543
    1C        C  701   2.502   3.439   2.666
    1C        C  702   2.498   3.512   2.787
    1C        C  703   2.527   3.304   2.913
    1C        C  704   2.502   3.443   2.910
    1C        C  705   2.551   3.240   3.037
    1C        C  706   2.532   3.310   3.158
    1C        C  707   2.605   3.110   3.282
    1C        C  708   2.554   3.241   3.280
    1C        C  709   2.636   3.049   3.406
    1C        C  710   2.609   3.114   3.528
    1C        C  711   2.714   2.932   3.650
    1C        C  712   2.636   3.050   3.651
    1C        C  713   2.763   2.882   3.773
    1C        C  714   2.722   2.940   3.895
    1C        C  715   2.763   2.883   4.018
    1C        C  716   2.453   3.501   2.066
    1C        C  717   2.491   3.636   2.065
    1C        C  718   2.470   3.423   2.185
    1C        C  719   2.484   3.501   2.303
    1C        C  720   2.514   3.292   2.426
    1C        C  721   2.490   3.431   2.426
    1C        C  722   2.534   3.226   2.549
    1C        C  723   2.527   3.300   2.669
    1C        C  724   2.597   3.103   2.794
    1C        C  725   2.542   3.233   2.792
    1C        C  726   2.628   3.039   2.917
    1C        C  727   2.604   3.109   3.037
    1C        C  728   2.711   2.926   3.158
    1C        C  729   2.637   3.046   3.160
    1C        C  730   2.755   2.875   3.283
    1C        C  731   2.717   2.933   3.406
    1C        C  732   2.759   2.876   3.528
    1C        C  733   2.489   3.197   2.074
    1C        C  734   2.491   3.282   2.185
    1C        C  735   2.582   3.087   2.309
    1C        C  736   2.526   3.217   2.307
    1C        C  737   2.612   3.023   2.431
    1C        C  738   2.591   3.096   2.550
    1C        C  739   2.703   2.918   2.668
    1C        C  740   2.628   3.037   2.673
    1C        C  741   2.738   2.858   2.791
    1C        C  742   2.702   2.919   2.913
    1C        C  743   2.752   2.869   3.036
    1C        C  744   2.545   3.069   2.072
    1C        C  745   2.687   2.903   2.187
    1C        C  746   2.610   3.022   2.186
    1C        C  747   2.732   2.846   2.308
    1C        C  748   2.681   2.900   2.428
    1C        C  749   2.734   2.850   2.548
    1C        C  750   2.734   2.840   2.071
    1C        C  751   3.666   2.348   1.956
    1C        O  752   3.732   2.242   1.969
    1C        O  753   3.616   2.360   1.825
    1C        C  754   4.641   3.059   1.991
    1C        O  755   4.628   3.040   1.867
    1C        O  756   4.774   3.056   2.034
    1C        C  757   4.446   4.226   1.963
    1C        O  758   4.536   4.304   2.002
    1C        O  759   4.471   4.191   1.830
    1C        C  760   3.624   4.690   1.975
    1C        O  761   3.661   4.800   2.025
    1C        O  762   3.615   4.695   1.835
    1C        C  763   2.860   4.523   1.989
    1C        O  764   2.915   4.557   1.881
    1C        O  765   2.794   4.636   2.039
    1C        C  766   2.343   3.476   1.970
    1C        O  767   2.377   3.468   1.849
    1C        O  768   2.211   3.510   2.002
    1C        C  769   4.693   3.587   5.063
    1C        O  770   4.691   3.632   5.181
    1C        O  771   4.824   3.574   5.015
    1C        C  772   4.281   4.451   5.034
    1C        O  773   4.298   4.413   5.153
    1C        O  774   4.361   4.561   5.001
    1C        C  775   4.144   2.507   5.072
    1C        O  776   4.225   2.420   5.032
    1C        O  777   4.147   2.521   5.212
    1C        C  778   2.896   4.548   5.048
    1C        O  779   2.848   4.658   5.010
    1C        O  780   2.881   4.524   5.185
    1C        C  781   2.466   3.032   5.056
    1C        O  782   2.347   3.013   5.019
    1C        O  783   2.485   2.998   5.190
    1C        C  784   2.414   3.996   5.056
    1C        O  785   2.297   3.953   5.035
    1C        O  786   2.444   4.012   5.192
    1C        C  787   2.948   2.415   2.015
    1C        O  788   2.953   2.413   1.889
    1C        O  789   2.829   2.378   2.076
    1C        C  790   3.188   2.363   5.046
    1C        O  791   3.133   2.264   4.990
    1C        O  792   3.224   2.357   5.181
    1C        H  793   4.277   3.032   5.048
    1C        H  794   4.190   2.808   5.076
    1C        H  795   4.510   3.124   5.062
    1C        H  796   4.517   3.370   5.068
    1C        H  797   4.551   3.807   5.053
    1C        H  798   4.469   4.006   5.042
    1C        H  799   4.256   4.147   5.043
    1C        H  800   4.052   4.561   5.012
    1C        H  801   3.813   4.543   5.049
    1C        H  802   3.600   4.651   5.032
    1C        H  803   3.391   4.523   5.054
    1C        H  804   3.148   4.535   5.049
    1C        H  805   3.890   2.482   5.068
    1C        H  806   3.672   2.407   5.047
    1C        H  807   2.988   2.501   5.031
    1C        H  808   3.438   2.498   5.074
    1C        H  809   2.873   2.733   5.082
    1C        H  810   2.740   2.931   5.077
    1C        H  811   2.440   3.260   5.026
    1C        H  812   2.589   3.507   5.063
    1C        H  813   2.486   3.730   5.069
    1C        H  814   2.579   4.186   5.039
    1C        H  815   2.728   4.356   5.029
    1C        H  816   2.676   2.851   1.982
    1C        H  817   2.823   2.667   1.989
    1C        H  818   3.204   2.412   1.998
    1C        H  819   3.429   2.436   1.977
    1C        H  820   3.850   2.553   1.974
    1C        H  821   4.060   2.640   1.974
    1C        H  822   4.284   2.704   1.986
    1C        H  823   4.407   2.912   1.974
    1C        H  824   4.577   3.317   1.968
    1C        H  825   4.465   3.527   1.967
    1C        H  826   4.514   3.767   1.964
    1C        H  827   3.807   4.534   1.952
    1C        H  828   3.991   4.410   1.950
    1C        H  829   4.175   4.267   1.948
    1C        H  830   4.495   3.969   1.965
    1C        H  831   2.657   3.832   1.976
    1C        H  832   2.649   4.078   1.963
    1C        H  833   2.714   4.306   1.976
    1C        H  834   3.386   4.457   1.952
    1C        H  835   3.149   4.434   1.949
    1C        H  836   2.485   2.999   2.018
    1C        H  837   2.420   3.227   1.998
    1C        H  838   2.490   3.682   1.969
    2V3OU   H29  839   2.808   3.548   1.490
    2V3OU   C27  840   2.783   3.503   1.590
    2V3OU   H27  841   2.718   3.568   1.654
    2V3OU   H28  842   2.725   3.411   1.565
    2V3OU   O11  843   2.911   3.482   1.650
    2V3OU   C15  844   2.920   3.403   1.763
    2V3OU   C13  845   3.052   3.376   1.806
    2V3OU   C14  846   3.075   3.273   1.898
    2V3OU   C16  847   2.969   3.195   1.943
    2V3OU    H6  848   2.992   3.098   1.989
    2V3OU   C12  849   3.209   3.229   1.943
    2V3OU    O2  850   3.241   3.127   2.008
    2V3OU   C10  851   3.322   3.308   1.892
    2V3OU    C8  852   3.456   3.275   1.913
    2V3OU   O10  853   3.490   3.153   1.963
    2V3OU   H26  854   3.403   3.116   1.988
    2V3OU    C6  855   3.565   3.355   1.867
    2V3OU    C5  856   3.540   3.471   1.795
    2V3OU    C4  857   3.702   3.297   1.874
    2V3OU    H4  858   3.727   3.232   1.963
    2V3OU    H5  859   3.711   3.230   1.784
    2V3OU    C2  860   3.816   3.400   1.868
    2V3OU    O6  861   3.809   3.475   1.990
    2V3OU   H21  862   3.762   3.554   1.959
    2V3OU    C3  863   3.783   3.499   1.756
    2V3OU    H2  864   3.867   3.574   1.757
    2V3OU    H3  865   3.783   3.436   1.664
    2V3OU   C25  866   3.951   3.331   1.847
    2V3OU    O7  867   4.001   3.300   1.739
    2V3OU   C26  868   4.034   3.292   1.969
    2V3OU   H22  869   4.062   3.390   2.016
    2V3OU   H23  870   4.122   3.231   1.937
    2V3OU    O8  871   3.959   3.205   2.050
    2V3OU   H24  872   3.916   3.260   2.118
    2V3OU    C1  873   3.650   3.570   1.771
    2V3OU    H1  874   3.625   3.624   1.674
    2V3OU    O3  875   3.660   3.656   1.885
    2V3OU   C19  876   3.621   3.793   1.887
    2V3OU    H9  877   3.523   3.800   1.832
    2V3OU    O4  878   3.719   3.851   1.803
    2V3OU   C20  879   3.850   3.876   1.855
    2V3OU   H10  880   3.901   3.776   1.870
    2V3OU   C24  881   3.612   3.856   2.026
    2V3OU   H16  882   3.548   3.798   2.097
    2V3OU   H17  883   3.570   3.959   2.014
    2V3OU   C23  884   3.753   3.876   2.082
    2V3OU   H15  885   3.797   3.772   2.100
    2V3OU    N1  886   3.735   3.953   2.203
    2V3OU   H19  887   3.797   3.924   2.276
    2V3OU   H20  888   3.640   3.948   2.235
    2V3OU   C21  889   3.853   3.951   1.988
    2V3OU   H11  890   3.956   3.941   2.032
    2V3OU    O5  891   3.828   4.090   1.975
    2V3OU   H18  892   3.786   4.112   2.060
    2V3OU   C22  893   3.916   3.952   1.741
    2V3OU   H12  894   3.866   4.051   1.726
    2V3OU   H13  895   3.912   3.892   1.646
    2V3OU   H14  896   4.025   3.960   1.767
    2V3OU   C11  897   3.163   3.470   1.783
    2V3OU    O1  898   3.140   3.587   1.747
    2V3OU    C9  899   3.300   3.426   1.816
    2V3OU    C7  900   3.403   3.507   1.771
    2V3OU    O9  901   3.384   3.626   1.704
    2V3OU   H25  902   3.288   3.634   1.718
    2V3OU   C17  903   2.816   3.319   1.807
    2V3OU    H7  904   2.720   3.347   1.763
    2V3OU   C18  905   2.840   3.216   1.896
    2V3OU    H8  906   2.757   3.152   1.931
    3SOL     OW  907   1.533   3.992   1.280
    3SOL    HW1  908   1.558   3.944   1.364
    3SOL    HW2  909   1.541   4.091   1.295
    4SOL     OW  910   5.946   0.846   1.780
    4SOL    HW1  911   5.880   0.783   1.739
    4SOL    HW2  912   6.032   0.842   1.730
    5SOL     OW  913   4.054   1.527   1.014
    5SOL    HW1  914   3.955   1.539   1.023
    5SOL    HW2  915   4.100   1.608   1.049
    6SOL     OW  916   3.080   2.085   2.120
    6SOL    HW1  917   2.982   2.098   2.138
    6SOL    HW2  918   3.113   2.007   2.173
    7SOL     OW  919   5.382   2.067   2.149
    7SOL    HW1  920   5.294   2.029   2.178
    7SOL    HW2  921   5.456   2.017   2.194
    8SOL     OW  922   2.743   0.101   3.852
    8SOL    HW1  923   2.834   0.077   3.886
    8SOL    HW2  924   2.749   0.186   3.798
    9SOL     OW  925   1.773   4.951   5.872
    9SOL    HW1  926   1.680   4.923   5.895
    9SOL    HW2  927   1.838   4.883   5.906
   10SOL     OW  928   0.832   4.595   6.300
   10SOL    HW1  929   0.745   4.644   6.310
   10SOL    HW2  930   0.907   4.655   6.325
   11SOL     OW  931   4.104   6.539   0.232
   11SOL    HW1  932   4.077   6.620   0.180
   11SOL    HW2  933   4.022   6.490   0.263
   12SOL     OW  934   5.219   5.725   3.005
   12SOL    HW1  935   5.175   5.804   3.047
   12SOL    HW2  936   5.167   5.642   3.027
   13SOL     OW  937   2.853   6.292   3.884
   13SOL    HW1  938   2.952   6.301   3.888
   13SOL    HW2  939   2.827   6.245   3.799
   14SOL     OW  940   3.705   6.411   0.153
   14SOL    HW1  941   3.688   6.349   0.076
   14SOL    HW2  942   3.631   6.478   0.159
   15SOL     OW  943   1.156   6.583   0.150
   15SOL    HW1  944   1.198   6.547   0.066
   15SOL    HW2  945   1.064   6.546   0.159
   16SOL     OW  946   6.308   2.468   6.194
   16SOL    HW1  947   6.325   2.503   6.287
   16SOL    HW2  948   6.344   2.533   6.127
   17SOL     OW  949   5.366   6.478   3.996
   17SOL    HW1  950   5.311   6.525   3.927
   17SOL    HW2  951   5.436   6.423   3.949
   18SOL     OW  952   1.957   1.818   5.834
   18SOL    HW1  953   1.867   1.807   5.791
   18SOL    HW2  954   2.000   1.902   5.801
   19SOL     OW  955   0.179   0.260   2.846
   19SOL    HW1  956   0.081   0.269   2.830
   19SOL    HW2  957   0.223   0.348   2.834
   20SOL     OW  958   3.300   1.504   3.998
   20SOL    HW1  959   3.354   1.434   3.951
   20SOL    HW2  960   3.236   1.460   4.062
   21SOL     OW  961   2.865   1.530   1.691
   21SOL    HW1  962   2.898   1.488   1.775
   21SOL    HW2  963   2.923   1.608   1.667
   22SOL     OW  964   2.235   6.261   6.188
   22SOL    HW1  965   2.247   6.252   6.089
   22SOL    HW2  966   2.314   6.308   6.227
   23SOL     OW  967   4.602   6.588   3.788
   23SOL    HW1  968   4.577   6.682   3.811
   23SOL    HW2  969   4.541   6.554   3.716
   24SOL     OW  970   5.385   0.887   5.002
   24SOL    HW1  971   5.431   0.973   4.978
   24SOL    HW2  972   5.286   0.899   4.994
   25SOL     OW  973   3.753   5.627   0.242
   25SOL    HW1  974   3.728   5.716   0.205
   25SOL    HW2  975   3.685   5.600   0.311
   26SOL     OW  976   6.668   1.260   1.698
   26SOL    HW1  977   6.599   1.274   1.627
   26SOL    HW2  978   6.677   1.343   1.752
   27SOL     OW  979   6.050   0.388   2.222
   27SOL    HW1  980   6.123   0.351   2.280
   27SOL    HW2  981   5.982   0.317   2.205
   28SOL     OW  982   4.222   0.767   6.955
   28SOL    HW1  983   4.168   0.768   0.013
   28SOL    HW2  984   4.261   0.676   6.942
   29SOL     OW  985   4.891   2.498   1.498
   29SOL    HW1  986   4.935   2.467   1.414
   29SOL    HW2  987   4.947   2.472   1.576
   30SOL     OW  988   3.466   0.240   5.208
   30SOL    HW1  989   3.562   0.216   5.214
   30SOL    HW2  990   3.410   0.160   5.232
   31SOL     OW  991   0.737   1.132   5.073
   31SOL    HW1  992   0.820   1.082   5.051
   31SOL    HW2  993   0.758   1.207   5.136
   32SOL     OW  994   0.936   1.986   1.727
   32SOL    HW1  995   0.841   1.991   1.695
   32SOL    HW2  996   0.991   2.054   1.677
   33SOL     OW  997   1.988   2.541   5.945
   33SOL    HW1  998   1.994   2.580   6.037
   33SOL    HW2  999   2.081   2.523   5.910
   34SOL     OW 1000   2.317   6.902   4.719
   34SOL    HW1 1001   2.270   6.971   4.664
   34SOL    HW2 1002   2.353   6.945   4.802
   35SOL     OW 1003   5.163   1.448   0.464
   35SOL    HW1 1004   5.114   1.490   0.541
   35SOL    HW2 1005   5.121   1.479   0.379
   36SOL     OW 1006   1.849   1.014   5.886
   36SOL    HW1 1007   1.785   1.063   5.827
   36SOL    HW2 1008   1.924   1.075   5.913
   37SOL     OW 1009   2.766   6.602   1.325
   37SOL    HW1 1010   2.747   6.700   1.315
   37SOL    HW2 1011   2.849   6.579   1.275
   38SOL     OW 1012   6.823   6.323   3.372
   38SOL    HW1 1013   6.776   6.328   3.460
   38SOL    HW2 1014   6.776   6.379   3.305
   39SOL     OW 1015   6.638   3.284   5.500
   39SOL    HW1 1016   6.720   3.338   5.520
   39SOL    HW2 1017   6.563   3.316   5.558
   40SOL     OW 1018   5.864   1.143   2.503
   40SOL    HW1 1019   5.787   1.079   2.496
   40SOL    HW2 1020   5.944   1.096   2.539
   41SOL     OW 1021   1.544   6.810   4.905
   41SOL    HW1 1022   1.450   6.831   4.933
   41SOL    HW2 1023   1.573   6.724   4.947
   42SOL     OW 1024   3.406   0.249   6.505
   42SOL    HW1 1025   3.435   0.260   6.410
   42SOL    HW2 1026   3.306   0.260   6.511
   43SOL     OW 1027   5.484   6.418   5.379
   43SOL    HW1 1028   5.539   6.383   5.303
   43SOL    HW2 1029   5.546   6.447   5.453
   44SOL     OW 1030   0.362   2.805   6.357
   44SOL    HW1 1031   0.370   2.788   6.259
   44SOL    HW2 1032   0.401   2.896   6.378
   45SOL     OW 1033   2.810   1.225   2.118
   45SOL    HW1 1034   2.803   1.190   2.211
   45SOL    HW2 1035   2.731   1.196   2.065
   46SOL     OW 1036   1.588   3.607   4.373
   46SOL    HW1 1037   1.526   3.651   4.437
   46SOL    HW2 1038   1.663   3.563   4.423
   47SOL     OW 1039   6.754   4.610   3.282
   47SOL    HW1 1040   6.700   4.614   3.367
   47SOL    HW2 1041   6.820   4.535   3.288
   48SOL     OW 1042   0.181   2.386   4.986
   48SOL    HW1 1043   0.131   2.469   5.013
   48SOL    HW2 1044   0.123   2.306   5.004
   49SOL     OW 1045   4.619   3.660   0.840
   49SOL    HW1 1046   4.646   3.645   0.935
   49SOL    HW2 1047   4.680   3.608   0.780
   50SOL     OW 1048   6.343   3.580   4.870
   50SOL    HW1 1049   6.321   3.676   4.886
   50SOL    HW2 1050   6.411   3.573   4.797
   51SOL     OW 1051   3.502   4.987   3.019
   51SOL    HW1 1052   3.405   4.974   3.039
   51SOL    HW2 1053   3.524   4.938   2.934
   52SOL     OW 1054   2.961   1.494   2.413
   52SOL    HW1 1055   2.939   1.575   2.468
   52SOL    HW2 1056   2.984   1.522   2.320
   53SOL     OW 1057   4.928   6.873   4.109
   53SOL    HW1 1058   4.833   6.881   4.139
   53SOL    HW2 1059   4.975   6.960   4.122
   54SOL     OW 1060   3.026   5.154   5.608
   54SOL    HW1 1061   3.076   5.233   5.574
   54SOL    HW2 1062   2.928   5.167   5.593
   55SOL     OW 1063   4.035   1.674   6.116
   55SOL    HW1 1064   4.111   1.617   6.085
   55SOL    HW2 1065   3.956   1.616   6.136
   56SOL     OW 1066   1.376   0.807   2.387
   56SOL    HW1 1067   1.324   0.723   2.373
   56SOL    HW2 1068   1.336   0.860   2.461
   57SOL     OW 1069   4.941   1.030   0.544
   57SOL    HW1 1070   4.890   1.070   0.621
   57SOL    HW2 1071   4.887   0.958   0.502
   58SOL     OW 1072   0.019   6.487   6.668
   58SOL    HW1 1073   6.997   6.554   6.724
   58SOL    HW2 1074   0.071   6.426   6.728
   59SOL     OW 1075   1.361   0.466   5.957
   59SOL    HW1 1076   1.454   0.454   5.923
   59SOL    HW2 1077   1.347   0.407   6.037
   60SOL     OW 1078   4.438   6.898   5.201
   60SOL    HW1 1079   4.364   6.966   5.199
   60SOL    HW2 1080   4.401   6.809   5.175
   61SOL     OW 1081   4.886   0.289   3.689
   61SOL    HW1 1082   4.886   0.227   3.767
   61SOL    HW2 1083   4.977   0.292   3.649
   62SOL     OW 1084   1.650   0.303   4.050
   62SOL    HW1 1085   1.615   0.314   4.143
   62SOL    HW2 1086   1.612   0.375   3.992
   63SOL     OW 1087   6.517   2.634   3.316
   63SOL    HW1 1088   6.586   2.705   3.330
   63SOL    HW2 1089   6.535   2.558   3.378
   64SOL     OW 1090   6.300   3.904   6.596
   64SOL    HW1 1091   6.217   3.955   6.620
   64SOL    HW2 1092   6.319   3.837   6.668
   65SOL     OW 1093   6.701   4.977   5.005
   65SOL    HW1 1094   6.761   4.899   4.987
   65SOL    HW2 1095   6.694   5.034   4.923
   66SOL     OW 1096   3.309   0.458   6.902
   66SOL    HW1 1097   3.392   0.443   6.849
   66SOL    HW2 1098   3.235   0.485   6.840
   67SOL     OW 1099   5.639   6.039   5.186
   67SOL    HW1 1100   5.737   6.022   5.172
   67SOL    HW2 1101   5.589   5.953   5.177
   68SOL     OW 1102   5.949   1.664   6.158
   68SOL    HW1 1103   5.866   1.608   6.153
   68SOL    HW2 1104   5.974   1.693   6.065
   69SOL     OW 1105   2.738   4.260   6.278
   69SOL    HW1 1106   2.734   4.343   6.334
   69SOL    HW2 1107   2.724   4.283   6.182
   70SOL     OW 1108   0.018   5.721   2.563
   70SOL    HW1 1109   6.961   5.717   2.508
   70SOL    HW2 1110   0.046   5.817   2.572
   71SOL     OW 1111   2.221   2.821   3.297
   71SOL    HW1 1112   2.254   2.859   3.210
   71SOL    HW2 1113   2.299   2.805   3.358
   72SOL     OW 1114   2.842   5.596   3.875
   72SOL    HW1 1115   2.929   5.597   3.827
   72SOL    HW2 1116   2.858   5.611   3.973
   73SOL     OW 1117   3.743   1.653   0.112
   73SOL    HW1 1118   3.843   1.653   0.109
   73SOL    HW2 1119   3.712   1.647   0.207
   74SOL     OW 1120   5.209   6.358   6.669
   74SOL    HW1 1121   5.214   6.318   6.761
   74SOL    HW2 1122   5.286   6.325   6.614
   75SOL     OW 1123   3.594   6.049   5.389
   75SOL    HW1 1124   3.651   5.979   5.345
   75SOL    HW2 1125   3.561   6.014   5.476
   76SOL     OW 1126   1.897   2.300   1.055
   76SOL    HW1 1127   1.935   2.237   0.987
   76SOL    HW2 1128   1.931   2.277   1.146
   77SOL     OW 1129   5.722   5.022   5.206
   77SOL    HW1 1130   5.658   4.976   5.145
   77SOL    HW2 1131   5.731   5.118   5.178
   78SOL     OW 1132   6.301   6.240   6.010
   78SOL    HW1 1133   6.300   6.334   5.976
   78SOL    HW2 1134   6.229   6.187   5.965
   79SOL     OW 1135   3.479   0.370   0.740
   79SOL    HW1 1136   3.475   0.311   0.660
   79SOL    HW2 1137   3.422   0.331   0.813
   80SOL     OW 1138   6.410   1.535   4.534
   80SOL    HW1 1139   6.423   1.582   4.622
   80SOL    HW2 1140   6.498   1.523   4.488
   81SOL     OW 1141   1.592   0.818   3.016
   81SOL    HW1 1142   1.682   0.778   3.032
   81SOL    HW2 1143   1.562   0.867   3.097
   82SOL     OW 1144   6.655   5.047   6.842
   82SOL    HW1 1145   6.684   5.054   6.937
   82SOL    HW2 1146   6.731   5.075   6.783
   83SOL     OW 1147   7.013   6.549   0.666
   83SOL    HW1 1148   0.054   6.550   0.739
   83SOL    HW2 1149   7.005   6.640   0.625
   84SOL     OW 1150   5.241   3.811   2.301
   84SOL    HW1 1151   5.278   3.897   2.267
   84SOL    HW2 1152   5.152   3.827   2.343
   85SOL     OW 1153   0.814   1.718   5.211
   85SOL    HW1 1154   0.769   1.800   5.246
   85SOL    HW2 1155   0.752   1.640   5.219
   86SOL     OW 1156   0.521   0.689   5.680
   86SOL    HW1 1157   0.563   0.604   5.648
   86SOL    HW2 1158   0.559   0.766   5.628
   87SOL     OW 1159   4.672   2.279   0.397
   87SOL    HW1 1160   4.692   2.318   0.487
   87SOL    HW2 1161   4.690   2.181   0.399
   88SOL     OW 1162   5.374   1.140   0.792
   88SOL    HW1 1163   5.285   1.135   0.746
   88SOL    HW2 1164   5.447   1.125   0.725
   89SOL     OW 1165   1.776   2.715   6.842
   89SOL    HW1 1166   1.785   2.781   6.916
   89SOL    HW2 1167   1.680   2.691   6.830
   90SOL     OW 1168   6.339   6.039   3.872
   90SOL    HW1 1169   6.265   6.031   3.939
   90SOL    HW2 1170   6.314   6.108   3.804
   91SOL     OW 1171   5.206   4.543   4.045
   91SOL    HW1 1172   5.228   4.628   3.998
   91SOL    HW2 1173   5.228   4.465   3.986
   92SOL     OW 1174   2.930   4.894   1.164
   92SOL    HW1 1175   3.003   4.885   1.232
   92SOL    HW2 1176   2.969   4.931   1.079
   93SOL     OW 1177   3.364   4.858   5.773
   93SOL    HW1 1178   3.446   4.803   5.762
   93SOL    HW2 1179   3.366   4.903   5.862
   94SOL     OW 1180   3.028   5.820   0.018
   94SOL    HW1 1181   2.930   5.816   7.026
   94SOL    HW2 1182   3.061   5.729   0.045
   95SOL     OW 1183   0.380   0.550   3.989
   95SOL    HW1 1184   0.324   0.473   4.021
   95SOL    HW2 1185   0.454   0.516   3.931
   96SOL     OW 1186   2.210   0.278   5.210
   96SOL    HW1 1187   2.272   0.239   5.277
   96SOL    HW2 1188   2.121   0.294   5.252
   97SOL     OW 1189   5.854   3.355   4.296
   97SOL    HW1 1190   5.760   3.334   4.323
   97SOL    HW2 1191   5.869   3.454   4.304
   98SOL     OW 1192   5.106   2.568   6.262
   98SOL    HW1 1193   5.154   2.504   6.201
   98SOL    HW2 1194   5.172   2.629   6.305
   99SOL     OW 1195   4.106   2.736   0.819
   99SOL    HW1 1196   4.154   2.750   0.906
   99SOL    HW2 1197   4.146   2.795   0.749
  100SOL     OW 1198   0.674   6.497   6.667
  100SOL    HW1 1199   0.602   6.429   6.650
  100SOL    HW2 1200   0.742   6.458   6.730
  101SOL     OW 1201   0.508   5.830   4.042
  101SOL    HW1 1202   0.443   5.899   4.074
  101SOL    HW2 1203   0.551   5.786   4.121
  102SOL     OW 1204   3.980   0.650   3.407
  102SOL    HW1 1205   3.905   0.717   3.415
  102SOL    HW2 1206   3.965   0.594   3.326
  103SOL     OW 1207   4.213   2.035   1.670
  103SOL    HW1 1208   4.302   1.991   1.683
  103SOL    HW2 1209   4.175   2.060   1.759
  104SOL     OW 1210   6.467   5.500   2.641
  104SOL    HW1 1211   6.486   5.552   2.724
  104SOL    HW2 1212   6.542   5.436   2.624
  105SOL     OW 1213   6.424   0.937   6.736
  105SOL    HW1 1214   6.347   0.873   6.726
  105SOL    HW2 1215   6.456   0.936   6.830
  106SOL     OW 1216   2.537   6.121   6.425
  106SOL    HW1 1217   2.615   6.180   6.402
  106SOL    HW2 1218   2.567   6.051   6.490
  107SOL     OW 1219   1.275   2.807   1.219
  107SOL    HW1 1220   1.233   2.774   1.303
  107SOL    HW2 1221   1.374   2.793   1.223
  108SOL     OW 1222   5.010   4.789   6.657
  108SOL    HW1 1223   4.926   4.753   6.617
  108SOL    HW2 1224   5.051   4.855   6.595
  109SOL     OW 1225   0.596   0.189   0.872
  109SOL    HW1 1226   0.517   0.250   0.869
  109SOL    HW2 1227   0.570   0.101   0.912
  110SOL     OW 1228   3.559   5.990   5.648
  110SOL    HW1 1229   3.640   5.952   5.692
  110SOL    HW2 1230   3.526   6.068   5.701
  111SOL     OW 1231   3.684   0.689   3.682
  111SOL    HW1 1232   3.595   0.655   3.654
  111SOL    HW2 1233   3.681   0.717   3.778
  112SOL     OW 1234   5.946   5.632   5.653
  112SOL    HW1 1235   5.986   5.663   5.567
  112SOL    HW2 1236   5.848   5.653   5.654
  113SOL     OW 1237   6.921   4.385   3.836
  113SOL    HW1 1238   6.831   4.377   3.793
  113SOL    HW2 1239   6.961   4.293   3.845
  114SOL     OW 1240   0.657   6.586   0.553
  114SOL    HW1 1241   0.664   6.685   0.536
  114SOL    HW2 1242   0.584   6.569   0.619
  115SOL     OW 1243   4.953   1.413   3.840
  115SOL    HW1 1244   4.944   1.507   3.808
  115SOL    HW2 1245   4.957   1.411   3.940
  116SOL     OW 1246   6.456   4.629   2.329
  116SOL    HW1 1247   6.404   4.622   2.413
  116SOL    HW2 1248   6.543   4.580   2.339
  117SOL     OW 1249   1.241   0.506   6.271
  117SOL    HW1 1250   1.301   0.581   6.299
  117SOL    HW2 1251   1.153   0.543   6.241
  118SOL     OW 1252   0.309   0.845   1.930
  118SOL    HW1 1253   0.264   0.762   1.961
  118SOL    HW2 1254   0.246   0.897   1.872
  119SOL     OW 1255   6.840   2.331   6.504
  119SOL    HW1 1256   6.797   2.292   6.586
  119SOL    HW2 1257   6.779   2.399   6.463
  120SOL     OW 1258   6.228   6.999   0.970
  120SOL    HW1 1259   6.193   0.040   1.034
  120SOL    HW2 1260   6.293   6.940   1.017
  121SOL     OW 1261   2.441   3.984   6.613
  121SOL    HW1 1262   2.513   4.030   6.561
  121SOL    HW2 1263   2.475   3.896   6.645
  122SOL     OW 1264   1.196   3.755   5.078
  122SOL    HW1 1265   1.283   3.712   5.056
  122SOL    HW2 1266   1.210   3.853   5.094
  123SOL     OW 1267   6.952   1.998   1.195
  123SOL    HW1 1268   6.876   1.940   1.166
  123SOL    HW2 1269   7.020   1.942   1.244
  124SOL     OW 1270   5.301   3.210   0.355
  124SOL    HW1 1271   5.214   3.229   0.308
  124SOL    HW2 1272   5.320   3.112   0.349
  125SOL     OW 1273   1.593   2.348   1.816
  125SOL    HW1 1274   1.550   2.257   1.822
  125SOL    HW2 1275   1.522   2.418   1.822
  126SOL     OW 1276   2.356   4.503   0.995
  126SOL    HW1 1277   2.403   4.530   0.911
  126SOL    HW2 1278   2.422   4.488   1.068
  127SOL     OW 1279   6.926   5.182   5.774
  127SOL    HW1 1280   6.946   5.094   5.817
  127SOL    HW2 1281   6.925   5.171   5.674
  128SOL     OW 1282   4.438   3.049   1.439
  128SOL    HW1 1283   4.436   3.066   1.538
  128SOL    HW2 1284   4.446   2.951   1.422
  129SOL     OW 1285   3.631   3.822   6.220
  129SOL    HW1 1286   3.726   3.814   6.187
  129SOL    HW2 1287   3.569   3.787   6.150
  130SOL     OW 1288   1.315   1.087   4.231
  130SOL    HW1 1289   1.388   1.031   4.271
  130SOL    HW2 1290   1.245   1.105   4.300
  131SOL     OW 1291   4.690   1.237   2.885
  131SOL    HW1 1292   4.617   1.238   2.816
  131SOL    HW2 1293   4.755   1.164   2.864
  132SOL     OW 1294   1.142   2.746   1.472
  132SOL    HW1 1295   1.144   2.827   1.530
  132SOL    HW2 1296   1.180   2.668   1.523
  133SOL     OW 1297   5.897   6.086   2.868
  133SOL    HW1 1298   5.862   6.140   2.791
  133SOL    HW2 1299   5.987   6.119   2.893
  134SOL     OW 1300   6.718   2.839   3.290
  134SOL    HW1 1301   6.660   2.912   3.254
  134SOL    HW2 1302   6.813   2.870   3.291
  135SOL     OW 1303   5.138   1.680   3.586
  135SOL    HW1 1304   5.226   1.694   3.632
  135SOL    HW2 1305   5.143   1.598   3.529
  136SOL     OW 1306   5.346   4.106   5.640
  136SOL    HW1 1307   5.332   4.105   5.739
  136SOL    HW2 1308   5.259   4.126   5.595
  137SOL     OW 1309   5.096   0.092   5.340
  137SOL    HW1 1310   5.195   0.088   5.353
  137SOL    HW2 1311   5.061   0.003   5.313
  138SOL     OW 1312   6.843   5.155   4.580
  138SOL    HW1 1313   6.868   5.114   4.668
  138SOL    HW2 1314   6.868   5.252   4.580
  139SOL     OW 1315   2.829   5.214   5.167
  139SOL    HW1 1316   2.881   5.146   5.218
  139SOL    HW2 1317   2.858   5.213   5.071
  140SOL     OW 1318   5.635   5.226   4.003
  140SOL    HW1 1319   5.574   5.305   3.995
  140SOL    HW2 1320   5.608   5.172   4.083
  141SOL     OW 1321   1.207   1.837   4.916
  141SOL    HW1 1322   1.194   1.909   4.848
  141SOL    HW2 1323   1.121   1.819   4.964
  142SOL     OW 1324   1.497   6.142   1.707
  142SOL    HW1 1325   1.458   6.232   1.691
  142SOL    HW2 1326   1.538   6.108   1.622
  143SOL     OW 1327   5.410   5.188   2.095
  143SOL    HW1 1328   5.368   5.251   2.029
  143SOL    HW2 1329   5.339   5.143   2.148
  144SOL     OW 1330   1.285   6.594   6.242
  144SOL    HW1 1331   1.278   6.661   6.169
  144SOL    HW2 1332   1.324   6.636   6.324
  145SOL     OW 1333   0.451   5.479   0.488
  145SOL    HW1 1334   0.366   5.437   0.522
  145SOL    HW2 1335   0.428   5.560   0.434
  146SOL     OW 1336   5.342   6.748   0.250
  146SOL    HW1 1337   5.307   6.762   0.157
  146SOL    HW2 1338   5.374   6.654   0.259
  147SOL     OW 1339   6.675   2.947   0.766
  147SOL    HW1 1340   6.597   2.981   0.714
  147SOL    HW2 1341   6.758   2.953   0.711
  148SOL     OW 1342   0.892   5.239   5.326
  148SOL    HW1 1343   0.958   5.230   5.400
  148SOL    HW2 1344   0.801   5.256   5.364
  149SOL     OW 1345   2.980   0.850   3.897
  149SOL    HW1 1346   2.901   0.887   3.946
  149SOL    HW2 1347   2.951   0.820   3.806
  150SOL     OW 1348   6.959   5.007   6.947
  150SOL    HW1 1349   0.030   4.998   6.965
  150SOL    HW2 1350   6.928   4.929   6.891
  151SOL     OW 1351   3.928   1.506   1.355
  151SOL    HW1 1352   3.868   1.443   1.306
  151SOL    HW2 1353   3.910   1.599   1.327
  152SOL     OW 1354   2.770   0.780   4.774
  152SOL    HW1 1355   2.716   0.703   4.808
  152SOL    HW2 1356   2.761   0.857   4.836
  153SOL     OW 1357   2.162   0.476   2.599
  153SOL    HW1 1358   2.101   0.461   2.676
  153SOL    HW2 1359   2.112   0.465   2.513
  154SOL     OW 1360   0.086   2.349   1.606
  154SOL    HW1 1361   0.037   2.272   1.566
  154SOL    HW2 1362   0.097   2.421   1.538
  155SOL     OW 1363   0.247   0.877   2.927
  155SOL    HW1 1364   0.258   0.968   2.886
  155SOL    HW2 1365   0.322   0.818   2.898
  156SOL     OW 1366   6.195   1.643   1.305
  156SOL    HW1 1367   6.143   1.558   1.306
  156SOL    HW2 1368   6.192   1.683   1.214
  157SOL     OW 1369   6.026   3.453   2.888
  157SOL    HW1 1370   5.971   3.427   2.809
  157SOL    HW2 1371   5.989   3.410   2.970
  158SOL     OW 1372   3.133   0.777   2.633
  158SOL    HW1 1373   3.229   0.773   2.604
  158SOL    HW2 1374   3.116   0.865   2.676
  159SOL     OW 1375   4.699   4.441   1.856
  159SOL    HW1 1376   4.682   4.534   1.889
  159SOL    HW2 1377   4.637   4.377   1.902
  160SOL     OW 1378   6.716   4.811   5.860
  160SOL    HW1 1379   6.759   4.726   5.890
  160SOL    HW2 1380   6.664   4.795   5.776
  161SOL     OW 1381   2.143   4.775   4.892
  161SOL    HW1 1382   2.187   4.754   4.805
  161SOL    HW2 1383   2.211   4.771   4.966
  162SOL     OW 1384   4.626   5.903   0.610
  162SOL    HW1 1385   4.590   5.950   0.529
  162SOL    HW2 1386   4.639   5.806   0.589
  163SOL     OW 1387   4.166   6.748   1.519
  163SOL    HW1 1388   4.165   6.847   1.534
  163SOL    HW2 1389   4.088   6.707   1.565
  164SOL     OW 1390   6.307   3.206   0.847
  164SOL    HW1 1391   6.252   3.289   0.837
  164SOL    HW2 1392   6.404   3.229   0.847
  165SOL     OW 1393   4.952   3.341   6.796
  165SOL    HW1 1394   5.015   3.267   6.819
  165SOL    HW2 1395   4.874   3.341   6.859
  166SOL     OW 1396   0.435   6.217   3.092
  166SOL    HW1 1397   0.417   6.314   3.108
  166SOL    HW2 1398   0.351   6.171   3.065
  167SOL     OW 1399   6.296   2.635   6.719
  167SOL    HW1 1400   6.302   2.655   6.817
  167SOL    HW2 1401   6.209   2.589   6.700
  168SOL     OW 1402   2.172   4.752   1.128
  168SOL    HW1 1403   2.217   4.708   1.050
  168SOL    HW2 1404   2.089   4.799   1.096
  169SOL     OW 1405   2.517   0.063   2.089
  169SOL    HW1 1406   2.561   7.013   2.043
  169SOL    HW2 1407   2.586   0.118   2.135
  170SOL     OW 1408   0.312   1.823   4.079
  170SOL    HW1 1409   0.220   1.785   4.079
  170SOL    HW2 1410   0.365   1.783   4.005
  171SOL     OW 1411   4.016   4.113   0.657
  171SOL    HW1 1412   4.098   4.077   0.702
  171SOL    HW2 1413   4.040   4.195   0.605
  172SOL     OW 1414   6.824   2.126   4.975
  172SOL    HW1 1415   6.759   2.197   5.004
  172SOL    HW2 1416   6.897   2.119   5.043
  173SOL     OW 1417   6.869   6.893   4.806
  173SOL    HW1 1418   6.837   6.984   4.780
  173SOL    HW2 1419   6.921   6.898   4.891
  174SOL     OW 1420   2.370   5.174   3.840
  174SOL    HW1 1421   2.454   5.123   3.858
  174SOL    HW2 1422   2.316   5.181   3.924
  175SOL     OW 1423   1.788   6.355   2.234
  175SOL    HW1 1424   1.800   6.359   2.135
  175SOL    HW2 1425   1.820   6.441   2.275
  176SOL     OW 1426   1.913   4.141   1.470
  176SOL    HW1 1427   1.983   4.212   1.465
  176SOL    HW2 1428   1.823   4.184   1.477
  177SOL     OW 1429   5.085   2.280   3.210
  177SOL    HW1 1430   5.139   2.201   3.241
  177SOL    HW2 1431   5.007   2.292   3.271
  178SOL     OW 1432   5.102   4.133   6.468
  178SOL    HW1 1433   5.175   4.183   6.422
  178SOL    HW2 1434   5.105   4.154   6.566
  179SOL     OW 1435   3.184   0.680   0.829
  179SOL    HW1 1436   3.189   0.765   0.881
  179SOL    HW2 1437   3.113   0.621   0.867
  180SOL     OW 1438   0.687   1.124   6.939
  180SOL    HW1 1439   0.721   1.099   6.849
  180SOL    HW2 1440   0.708   1.220   6.958
  181SOL     OW 1441   3.741   2.367   6.486
  181SOL    HW1 1442   3.711   2.463   6.491
  181SOL    HW2 1443   3.837   2.361   6.513
  182SOL     OW 1444   4.154   2.295   3.797
  182SOL    HW1 1445   4.218   2.238   3.849
  182SOL    HW2 1446   4.110   2.360   3.859
  183SOL     OW 1447   4.826   1.251   1.543
  183SOL    HW1 1448   4.919   1.236   1.577
  183SOL    HW2 1449   4.804   1.182   1.475
  184SOL     OW 1450   1.267   4.980   3.149
  184SOL    HW1 1451   1.277   4.927   3.064
  184SOL    HW2 1452   1.350   4.972   3.203
  185SOL     OW 1453   1.465   3.609   6.474
  185SOL    HW1 1454   1.473   3.709   6.482
  185SOL    HW2 1455   1.518   3.578   6.396
  186SOL     OW 1456   6.132   0.465   3.051
  186SOL    HW1 1457   6.084   0.553   3.050
  186SOL    HW2 1458   6.091   0.406   3.121
  187SOL     OW 1459   5.364   0.831   4.073
  187SOL    HW1 1460   5.394   0.797   3.983
  187SOL    HW2 1461   5.265   0.838   4.075
  188SOL     OW 1462   5.849   2.160   3.425
  188SOL    HW1 1463   5.875   2.215   3.346
  188SOL    HW2 1464   5.790   2.085   3.395
  189SOL     OW 1465   2.346   5.211   2.975
  189SOL    HW1 1466   2.322   5.204   2.878
  189SOL    HW2 1467   2.304   5.136   3.026
  190SOL     OW 1468   3.824   1.190   5.159
  190SOL    HW1 1469   3.778   1.108   5.191
  190SOL    HW2 1470   3.762   1.269   5.169
  191SOL     OW 1471   5.996   5.659   6.390
  191SOL    HW1 1472   5.950   5.660   6.302
  191SOL    HW2 1473   6.050   5.743   6.402
  192SOL     OW 1474   6.559   0.077   1.883
  192SOL    HW1 1475   6.626   0.151   1.876
  192SOL    HW2 1476   6.483   0.094   1.821
  193SOL     OW 1477   5.207   3.161   6.805
  193SOL    HW1 1478   5.286   3.121   6.853
  193SOL    HW2 1479   5.221   3.259   6.793
  194SOL     OW 1480   2.974   0.824   3.076
  194SOL    HW1 1481   3.047   0.760   3.099
  194SOL    HW2 1482   3.013   0.908   3.038
  195SOL     OW 1483   1.537   5.308   3.913
  195SOL    HW1 1484   1.506   5.318   3.818
  195SOL    HW2 1485   1.473   5.249   3.962
  196SOL     OW 1486   1.568   1.879   6.825
  196SOL    HW1 1487   1.504   1.803   6.833
  196SOL    HW2 1488   1.532   1.945   6.759
  197SOL     OW 1489   2.031   1.255   1.414
  197SOL    HW1 1490   2.076   1.336   1.375
  197SOL    HW2 1491   1.980   1.208   1.342
  198SOL     OW 1492   4.087   1.399   3.104
  198SOL    HW1 1493   4.097   1.489   3.061
  198SOL    HW2 1494   4.159   1.339   3.070
  199SOL     OW 1495   1.133   2.398   4.336
  199SOL    HW1 1496   1.148   2.440   4.425
  199SOL    HW2 1497   1.108   2.469   4.270
  200SOL     OW 1498   0.323   2.620   0.701
  200SOL    HW1 1499   0.367   2.707   0.679
  200SOL    HW2 1500   0.371   2.577   0.777
  201SOL     OW 1501   0.845   0.395   5.678
  201SOL    HW1 1502   0.858   0.422   5.582
  201SOL    HW2 1503   0.889   0.461   5.738
  202SOL     OW 1504   4.730   0.190   6.245
  202SOL    HW1 1505   4.701   0.282   6.270
  202SOL    HW2 1506   4.754   0.188   6.148
  203SOL     OW 1507   5.449   3.078   5.208
  203SOL    HW1 1508   5.504   3.021   5.148
  203SOL    HW2 1509   5.421   3.026   5.289
  204SOL     OW 1510   0.222   0.649   5.892
  204SOL    HW1 1511   0.297   0.583   5.886
  204SOL    HW2 1512   0.254   0.738   5.860
  205SOL     OW 1513   0.913   2.697   2.289
  205SOL    HW1 1514   0.970   2.712   2.209
  205SOL    HW2 1515   0.891   2.600   2.297
  206SOL     OW 1516   0.327   3.229   1.028
  206SOL    HW1 1517   0.232   3.239   1.058
  206SOL    HW2 1518   0.382   3.196   1.105
  207SOL     OW 1519   5.098   1.965   3.615
  207SOL    HW1 1520   5.096   1.983   3.516
  207SOL    HW2 1521   5.170   2.020   3.657
  208SOL     OW 1522   0.985   4.219   4.767
  208SOL    HW1 1523   1.002   4.147   4.834
  208SOL    HW2 1524   0.949   4.179   4.683
  209SOL     OW 1525   6.681   4.502   2.365
  209SOL    HW1 1526   6.688   4.508   2.464
  209SOL    HW2 1527   6.770   4.519   2.324
  210SOL     OW 1528   4.300   2.514   0.066
  210SOL    HW1 1529   4.358   2.493   0.145
  210SOL    HW2 1530   4.352   2.565   7.025
  211SOL     OW 1531   1.313   0.365   3.436
  211SOL    HW1 1532   1.351   0.403   3.520
  211SOL    HW2 1533   1.356   0.408   3.357
  212SOL     OW 1534   1.641   3.926   3.398
  212SOL    HW1 1535   1.569   3.900   3.334
  212SOL    HW2 1536   1.608   3.912   3.492
  213SOL     OW 1537   1.769   5.296   1.329
  213SOL    HW1 1538   1.783   5.389   1.364
  213SOL    HW2 1539   1.779   5.295   1.230
  214SOL     OW 1540   4.432   5.964   2.401
  214SOL    HW1 1541   4.511   5.931   2.348
  214SOL    HW2 1542   4.384   5.887   2.441
  215SOL     OW 1543   2.436   4.973   2.082
  215SOL    HW1 1544   2.515   4.938   2.031
  215SOL    HW2 1545   2.399   4.901   2.140
  216SOL     OW 1546   1.418   0.051   2.439
  216SOL    HW1 1547   1.471   0.013   2.363
  216SOL    HW2 1548   1.433   7.024   2.521
  217SOL     OW 1549   1.211   3.624   6.098
  217SOL    HW1 1550   1.173   3.661   6.013
  217SOL    HW2 1551   1.200   3.524   6.098
  218SOL     OW 1552   0.749   2.327   5.680
  218SOL    HW1 1553   0.722   2.423   5.674
  218SOL    HW2 1554   0.807   2.314   5.760
  219SOL     OW 1555   4.105   0.179   0.373
  219SOL    HW1 1556   4.069   0.194   0.465
  219SOL    HW2 1557   4.030   0.153   0.311
  220SOL     OW 1558   3.339   7.009   0.945
  220SOL    HW1 1559   3.242   7.000   0.924
  220SOL    HW2 1560   3.362   0.078   0.954
  221SOL     OW 1561   5.392   5.242   0.971
  221SOL    HW1 1562   5.324   5.313   0.949
  221SOL    HW2 1563   5.403   5.181   0.892
  222SOL     OW 1564   2.052   4.415   6.675
  222SOL    HW1 1565   1.976   4.364   6.633
  222SOL    HW2 1566   2.139   4.380   6.640
  223SOL     OW 1567   6.504   2.830   5.425
  223SOL    HW1 1568   6.407   2.850   5.418
  223SOL    HW2 1569   6.533   2.836   5.521
  224SOL     OW 1570   2.322   1.571   6.066
  224SOL    HW1 1571   2.305   1.633   5.990
  224SOL    HW2 1572   2.315   1.476   6.034
  225SOL     OW 1573   4.951   3.805   6.052
  225SOL    HW1 1574   5.034   3.810   5.997
  225SOL    HW2 1575   4.920   3.898   6.075
  226SOL     OW 1576   1.050   1.657   6.463
  226SOL    HW1 1577   0.990   1.578   6.477
  226SOL    HW2 1578   1.069   1.667   6.366
  227SOL     OW 1579   2.347   4.113   1.798
  227SOL    HW1 1580   2.416   4.051   1.761
  227SOL    HW2 1581   2.318   4.178   1.727
  228SOL     OW 1582   1.352   0.385   2.874
  228SOL    HW1 1583   1.323   0.474   2.840
  228SOL    HW2 1584   1.448   0.369   2.850
  229SOL     OW 1585   5.184   4.573   6.644
  229SOL    HW1 1586   5.229   4.542   6.728
  229SOL    HW2 1587   5.111   4.636   6.667
  230SOL     OW 1588   4.665   5.942   4.616
  230SOL    HW1 1589   4.573   5.976   4.635
  230SOL    HW2 1590   4.658   5.854   4.567
  231SOL     OW 1591   5.097   1.395   0.172
  231SOL    HW1 1592   5.076   1.419   0.077
  231SOL    HW2 1593   5.020   1.345   0.211
  232SOL     OW 1594   1.182   2.215   6.163
  232SOL    HW1 1595   1.237   2.138   6.131
  232SOL    HW2 1596   1.091   2.209   6.123
  233SOL     OW 1597   2.755   1.468   3.658
  233SOL    HW1 1598   2.768   1.439   3.563
  233SOL    HW2 1599   2.828   1.530   3.684
  234SOL     OW 1600   5.549   1.188   6.420
  234SOL    HW1 1601   5.481   1.252   6.455
  234SOL    HW2 1602   5.518   1.094   6.438
  235SOL     OW 1603   4.893   3.451   2.301
  235SOL    HW1 1604   4.897   3.549   2.281
  235SOL    HW2 1605   4.863   3.438   2.395
  236SOL     OW 1606   4.336   3.689   6.354
  236SOL    HW1 1607   4.292   3.776   6.376
  236SOL    HW2 1608   4.323   3.669   6.257
  237SOL     OW 1609   6.136   4.198   2.632
  237SOL    HW1 1610   6.088   4.282   2.659
  237SOL    HW2 1611   6.195   4.216   2.553
  238SOL     OW 1612   5.974   1.649   0.449
  238SOL    HW1 1613   5.890   1.696   0.419
  238SOL    HW2 1614   5.981   1.561   0.404
  239SOL     OW 1615   1.303   4.009   0.393
  239SOL    HW1 1616   1.296   3.915   0.426
  239SOL    HW2 1617   1.220   4.034   0.344
  240SOL     OW 1618   6.462   4.032   3.324
  240SOL    HW1 1619   6.363   4.037   3.338
  240SOL    HW2 1620   6.483   4.057   3.229
  241SOL     OW 1621   2.872   1.540   4.068
  241SOL    HW1 1622   2.958   1.525   4.117
  241SOL    HW2 1623   2.824   1.453   4.059
  242SOL     OW 1624   3.454   3.961   3.805
  242SOL    HW1 1625   3.368   3.999   3.769
  242SOL    HW2 1626   3.468   3.870   3.767
  243SOL     OW 1627   4.661   2.991   6.436
  243SOL    HW1 1628   4.654   2.891   6.430
  243SOL    HW2 1629   4.678   3.018   6.531
  244SOL     OW 1630   6.117   3.574   6.249
  244SOL    HW1 1631   6.050   3.508   6.215
  244SOL    HW2 1632   6.189   3.526   6.299
  245SOL     OW 1633   3.032   1.708   3.049
  245SOL    HW1 1634   3.075   1.618   3.055
  245SOL    HW2 1635   3.041   1.744   2.956
  246SOL     OW 1636   6.016   1.712   3.404
  246SOL    HW1 1637   6.086   1.778   3.431
  246SOL    HW2 1638   6.057   1.621   3.393
  247SOL     OW 1639   2.184   1.807   0.658
  247SOL    HW1 1640   2.086   1.789   0.661
  247SOL    HW2 1641   2.211   1.834   0.566
  248SOL     OW 1642   2.126   1.589   2.222
  248SOL    HW1 1643   2.101   1.605   2.127
  248SOL    HW2 1644   2.226   1.589   2.230
  249SOL     OW 1645   5.362   6.968   4.675
  249SOL    HW1 1646   5.443   7.005   4.720
  249SOL    HW2 1647   5.388   6.894   4.614
  250SOL     OW 1648   3.783   2.701   0.583
  250SOL    HW1 1649   3.824   2.695   0.674
  250SOL    HW2 1650   3.700   2.647   0.580
  251SOL     OW 1651   4.302   3.869   5.501
  251SOL    HW1 1652   4.216   3.831   5.534
  251SOL    HW2 1653   4.307   3.858   5.402
  252SOL     OW 1654   5.622   6.471   5.615
  252SOL    HW1 1655   5.579   6.434   5.697
  252SOL    HW2 1656   5.699   6.530   5.641
  253SOL     OW 1657   4.154   5.203   5.532
  253SOL    HW1 1658   4.068   5.159   5.557
  253SOL    HW2 1659   4.207   5.222   5.615
  254SOL     OW 1660   6.186   2.897   4.161
  254SOL    HW1 1661   6.139   2.812   4.135
  254SOL    HW2 1662   6.223   2.887   4.253
  255SOL     OW 1663   1.902   4.749   5.985
  255SOL    HW1 1664   1.943   4.785   6.069
  255SOL    HW2 1665   1.973   4.707   5.929
  256SOL     OW 1666   4.681   3.020   5.785
  256SOL    HW1 1667   4.706   3.004   5.881
  256SOL    HW2 1668   4.721   3.107   5.755
  257SOL     OW 1669   4.672   6.211   2.731
  257SOL    HW1 1670   4.737   6.211   2.807
  257SOL    HW2 1671   4.703   6.148   2.660
  258SOL     OW 1672   2.755   3.774   6.190
  258SOL    HW1 1673   2.702   3.694   6.161
  258SOL    HW2 1674   2.724   3.855   6.141
  259SOL     OW 1675   4.360   0.363   2.456
  259SOL    HW1 1676   4.324   0.352   2.548
  259SOL    HW2 1677   4.316   0.442   2.413
  260SOL     OW 1678   4.149   5.198   3.641
  260SOL    HW1 1679   4.146   5.134   3.718
  260SOL    HW2 1680   4.225   5.172   3.580
  261SOL     OW 1681   5.022   4.823   0.611
  261SOL    HW1 1682   4.944   4.850   0.668
  261SOL    HW2 1683   5.054   4.733   0.641
  262SOL     OW 1684   2.204   3.847   1.070
  262SOL    HW1 1685   2.150   3.932   1.065
  262SOL    HW2 1686   2.227   3.817   0.978
  263SOL     OW 1687   1.262   6.878   4.286
  263SOL    HW1 1688   1.312   6.823   4.219
  263SOL    HW2 1689   1.246   6.824   4.368
  264SOL     OW 1690   6.954   2.838   0.047
  264SOL    HW1 1691   6.967   2.860   6.978
  264SOL    HW2 1692   6.918   2.745   0.055
  265SOL     OW 1693   5.893   6.784   3.987
  265SOL    HW1 1694   5.950   6.851   4.033
  265SOL    HW2 1695   5.814   6.761   4.044
  266SOL     OW 1696   5.173   2.255   5.482
  266SOL    HW1 1697   5.079   2.280   5.505
  266SOL    HW2 1698   5.175   2.161   5.447
  267SOL     OW 1699   1.375   0.773   5.227
  267SOL    HW1 1700   1.375   0.825   5.142
  267SOL    HW2 1701   1.386   0.835   5.304
  268SOL     OW 1702   3.949   1.198   0.751
  268SOL    HW1 1703   3.924   1.196   0.654
  268SOL    HW2 1704   3.889   1.137   0.802
  269SOL     OW 1705   3.264   2.096   0.205
  269SOL    HW1 1706   3.205   2.160   0.254
  269SOL    HW2 1707   3.302   2.141   0.124
  270SOL     OW 1708   0.686   6.727   6.972
  270SOL    HW1 1709   0.667   6.788   0.021
  270SOL    HW2 1710   0.603   6.679   6.945
  271SOL     OW 1711   0.241   1.838   6.302
  271SOL    HW1 1712   0.288   1.926   6.301
  271SOL    HW2 1713   0.147   1.851   6.335
  272SOL     OW 1714   3.161   5.988   3.900
  272SOL    HW1 1715   3.169   5.922   3.975
  272SOL    HW2 1716   3.241   6.048   3.899
  273SOL     OW 1717   1.740   4.889   5.610
  273SOL    HW1 1718   1.755   4.898   5.708
  273SOL    HW2 1719   1.824   4.912   5.561
  274SOL     OW 1720   3.677   1.073   4.210
  274SOL    HW1 1721   3.596   1.014   4.217
  274SOL    HW2 1722   3.751   1.022   4.166
  275SOL     OW 1723   0.413   6.921   2.799
  275SOL    HW1 1724   0.407   6.894   2.703
  275SOL    HW2 1725   0.321   6.927   2.838
  276SOL     OW 1726   0.618   0.264   4.505
  276SOL    HW1 1727   0.578   0.206   4.576
  276SOL    HW2 1728   0.669   0.339   4.547
  277SOL     OW 1729   2.450   3.125   0.860
  277SOL    HW1 1730   2.511   3.052   0.891
  277SOL    HW2 1731   2.438   3.191   0.934
  278SOL     OW 1732   6.971   2.703   3.101
  278SOL    HW1 1733   6.960   2.756   3.185
  278SOL    HW2 1734   6.893   2.719   3.041
  279SOL     OW 1735   5.510   2.778   4.358
  279SOL    HW1 1736   5.607   2.787   4.382
  279SOL    HW2 1737   5.492   2.684   4.328
  280SOL     OW 1738   2.114   5.275   1.835
  280SOL    HW1 1739   2.205   5.234   1.844
  280SOL    HW2 1740   2.123   5.374   1.831
  281SOL     OW 1741   2.662   3.816   1.071
  281SOL    HW1 1742   2.717   3.790   1.150
  281SOL    HW2 1743   2.591   3.881   1.099
  282SOL     OW 1744   3.584   2.080   5.943
  282SOL    HW1 1745   3.574   2.156   6.007
  282SOL    HW2 1746   3.535   2.101   5.859
  283SOL     OW 1747   5.334   3.024   6.530
  283SOL    HW1 1748   5.260   3.089   6.512
  283SOL    HW2 1749   5.314   2.937   6.485
  284SOL     OW 1750   0.633   2.946   3.619
  284SOL    HW1 1751   0.666   2.851   3.616
  284SOL    HW2 1752   0.598   2.965   3.711
  285SOL     OW 1753   6.060   4.654   3.973
  285SOL    HW1 1754   6.016   4.616   3.891
  285SOL    HW2 1755   6.140   4.707   3.946
  286SOL     OW 1756   3.463   4.166   6.851
  286SOL    HW1 1757   3.466   4.240   6.783
  286SOL    HW2 1758   3.379   4.174   6.904
  287SOL     OW 1759   2.008   3.614   0.800
  287SOL    HW1 1760   1.993   3.591   0.896
  287SOL    HW2 1761   2.071   3.692   0.794
  288SOL     OW 1762   4.720   1.397   7.003
  288SOL    HW1 1763   4.810   1.378   6.964
  288SOL    HW2 1764   4.649   1.364   6.940
  289SOL     OW 1765   2.301   4.596   5.966
  289SOL    HW1 1766   2.238   4.531   6.007
  289SOL    HW2 1767   2.368   4.547   5.909
  290SOL     OW 1768   0.141   2.391   5.597
  290SOL    HW1 1769   0.151   2.439   5.683
  290SOL    HW2 1770   0.170   2.296   5.608
  291SOL     OW 1771   0.231   1.530   2.808
  291SOL    HW1 1772   0.182   1.506   2.892
  291SOL    HW2 1773   0.329   1.516   2.821
  292SOL     OW 1774   2.095   0.659   3.303
  292SOL    HW1 1775   2.019   0.605   3.339
  292SOL    HW2 1776   2.144   0.606   3.234
  293SOL     OW 1777   4.625   5.333   4.160
  293SOL    HW1 1778   4.548   5.285   4.117
  293SOL    HW2 1779   4.597   5.365   4.251
  294SOL     OW 1780   5.549   6.518   6.364
  294SOL    HW1 1781   5.455   6.493   6.345
  294SOL    HW2 1782   5.572   6.603   6.314
  295SOL     OW 1783   5.118   0.610   3.709
  295SOL    HW1 1784   5.119   0.596   3.610
  295SOL    HW2 1785   5.087   0.703   3.729
  296SOL     OW 1786   2.928   1.873   3.248
  296SOL    HW1 1787   2.836   1.912   3.241
  296SOL    HW2 1788   2.945   1.815   3.169
  297SOL     OW 1789   1.419   3.806   3.883
  297SOL    HW1 1790   1.352   3.736   3.907
  297SOL    HW2 1791   1.382   3.896   3.904
  298SOL     OW 1792   6.238   5.136   1.119
  298SOL    HW1 1793   6.325   5.126   1.070
  298SOL    HW2 1794   6.163   5.133   1.053
  299SOL     OW 1795   6.333   2.512   4.761
  299SOL    HW1 1796   6.350   2.416   4.739
  299SOL    HW2 1797   6.404   2.545   4.822
  300SOL     OW 1798   5.908   0.665   3.000
  300SOL    HW1 1799   5.966   0.744   3.015
  300SOL    HW2 1800   5.853   0.679   2.917
  301SOL     OW 1801   5.713   3.631   6.324
  301SOL    HW1 1802   5.793   3.689   6.311
  301SOL    HW2 1803   5.687   3.632   6.421
  302SOL     OW 1804   0.483   0.231   3.872
  302SOL    HW1 1805   0.544   0.227   3.794
  302SOL    HW2 1806   0.505   0.309   3.929
  303SOL     OW 1807   5.078   0.881   3.185
  303SOL    HW1 1808   5.089   0.877   3.285
  303SOL    HW2 1809   5.155   0.836   3.141
  304SOL     OW 1810   2.438   0.238   3.691
  304SOL    HW1 1811   2.506   0.234   3.618
  304SOL    HW2 1812   2.407   0.146   3.712
  305SOL     OW 1813   1.624   3.468   0.477
  305SOL    HW1 1814   1.694   3.496   0.543
  305SOL    HW2 1815   1.667   3.423   0.399
  306SOL     OW 1816   1.923   1.175   4.057
  306SOL    HW1 1817   1.970   1.127   3.983
  306SOL    HW2 1818   1.844   1.225   4.020
  307SOL     OW 1819   4.108   0.252   0.897
  307SOL    HW1 1820   4.192   0.209   0.930
  307SOL    HW2 1821   4.082   0.325   0.960
  308SOL     OW 1822   0.937   5.918   3.980
  308SOL    HW1 1823   1.011   5.983   3.961
  308SOL    HW2 1824   0.963   5.859   4.056
  309SOL     OW 1825   3.422   4.970   4.894
  309SOL    HW1 1826   3.403   5.068   4.902
  309SOL    HW2 1827   3.352   4.928   4.836
  310SOL     OW 1828   0.345   6.207   5.587
  310SOL    HW1 1829   0.259   6.207   5.535
  310SOL    HW2 1830   0.332   6.256   5.673
  311SOL     OW 1831   0.600   6.515   1.152
  311SOL    HW1 1832   0.591   6.474   1.061
  311SOL    HW2 1833   0.509   6.530   1.191
  312SOL     OW 1834   4.621   2.137   5.054
  312SOL    HW1 1835   4.638   2.231   5.025
  312SOL    HW2 1836   4.577   2.087   4.979
  313SOL     OW 1837   1.581   4.358   1.853
  313SOL    HW1 1838   1.601   4.319   1.763
  313SOL    HW2 1839   1.530   4.443   1.841
  314SOL     OW 1840   3.649   6.223   0.621
  314SOL    HW1 1841   3.574   6.250   0.561
  314SOL    HW2 1842   3.695   6.142   0.584
  315SOL     OW 1843   0.771   2.074   3.446
  315SOL    HW1 1844   0.797   2.144   3.380
  315SOL    HW2 1845   0.725   2.117   3.524
  316SOL     OW 1846   2.610   2.477   3.889
  316SOL    HW1 1847   2.702   2.436   3.894
  316SOL    HW2 1848   2.592   2.528   3.973
  317SOL     OW 1849   6.966   1.718   0.141
  317SOL    HW1 1850   6.916   1.638   0.107
  317SOL    HW2 1851   6.904   1.776   0.193
  318SOL     OW 1852   1.998   4.286   0.699
  318SOL    HW1 1853   2.010   4.239   0.786
  318SOL    HW2 1854   2.005   4.220   0.624
  319SOL     OW 1855   1.816   6.432   0.817
  319SOL    HW1 1856   1.828   6.503   0.887
  319SOL    HW2 1857   1.880   6.448   0.742
  320SOL     OW 1858   5.900   3.539   0.602
  320SOL    HW1 1859   5.808   3.534   0.564
  320SOL    HW2 1860   5.958   3.469   0.560
  321SOL     OW 1861   2.083   2.632   1.162
  321SOL    HW1 1862   2.014   2.578   1.211
  321SOL    HW2 1863   2.138   2.684   1.227
  322SOL     OW 1864   3.797   3.203   5.271
  322SOL    HW1 1865   3.827   3.289   5.231
  322SOL    HW2 1866   3.872   3.137   5.270
  323SOL     OW 1867   0.300   3.759   1.413
  323SOL    HW1 1868   0.324   3.663   1.400
  323SOL    HW2 1869   0.322   3.810   1.330
  324SOL     OW 1870   0.815   2.746   4.958
  324SOL    HW1 1871   0.896   2.792   4.921
  324SOL    HW2 1872   0.844   2.668   5.014
  325SOL     OW 1873   2.173   2.733   1.856
  325SOL    HW1 1874   2.237   2.657   1.857
  325SOL    HW2 1875   2.208   2.804   1.794
  326SOL     OW 1876   1.475   5.220   6.375
  326SOL    HW1 1877   1.388   5.184   6.341
  326SOL    HW2 1878   1.464   5.250   6.469
  327SOL     OW 1879   6.387   5.003   5.407
  327SOL    HW1 1880   6.315   5.068   5.385
  327SOL    HW2 1881   6.403   4.942   5.329
  328SOL     OW 1882   4.198   5.104   2.347
  328SOL    HW1 1883   4.150   5.018   2.364
  328SOL    HW2 1884   4.138   5.181   2.369
  329SOL     OW 1885   3.374   3.698   3.378
  329SOL    HW1 1886   3.345   3.793   3.366
  329SOL    HW2 1887   3.390   3.657   3.288
  330SOL     OW 1888   3.520   0.165   1.770
  330SOL    HW1 1889   3.528   0.111   1.686
  330SOL    HW2 1890   3.448   0.127   1.828
  331SOL     OW 1891   5.141   5.095   5.830
  331SOL    HW1 1892   5.100   5.169   5.776
  331SOL    HW2 1893   5.236   5.083   5.803
  332SOL     OW 1894   3.280   1.993   2.638
  332SOL    HW1 1895   3.257   1.905   2.598
  332SOL    HW2 1896   3.342   1.980   2.715
  333SOL     OW 1897   4.105   5.994   6.508
  333SOL    HW1 1898   4.169   6.036   6.444
  333SOL    HW2 1899   4.034   6.060   6.533
  334SOL     OW 1900   4.062   0.128   2.231
  334SOL    HW1 1901   4.086   0.104   2.326
  334SOL    HW2 1902   4.089   0.054   2.170
  335SOL     OW 1903   2.990   6.850   3.322
  335SOL    HW1 1904   2.928   6.866   3.398
  335SOL    HW2 1905   2.958   6.773   3.268
  336SOL     OW 1906   2.958   0.680   3.637
  336SOL    HW1 1907   2.950   0.610   3.566
  336SOL    HW2 1908   2.898   0.657   3.714
  337SOL     OW 1909   6.844   3.747   1.467
  337SOL    HW1 1910   6.745   3.731   1.473
  337SOL    HW2 1911   6.882   3.692   1.392
  338SOL     OW 1912   3.266   2.797   1.099
  338SOL    HW1 1913   3.328   2.719   1.093
  338SOL    HW2 1914   3.266   2.833   1.192
  339SOL     OW 1915   4.341   6.653   2.972
  339SOL    HW1 1916   4.439   6.644   2.991
  339SOL    HW2 1917   4.301   6.562   2.964
  340SOL     OW 1918   4.846   3.961   4.633
  340SOL    HW1 1919   4.848   3.885   4.697
  340SOL    HW2 1920   4.829   4.047   4.682
  341SOL     OW 1921   5.498   5.233   4.523
  341SOL    HW1 1922   5.550   5.296   4.465
  341SOL    HW2 1923   5.410   5.275   4.548
  342SOL     OW 1924   6.231   4.528   0.980
  342SOL    HW1 1925   6.210   4.624   1.000
  342SOL    HW2 1926   6.313   4.524   0.923
  343SOL     OW 1927   3.194   0.455   2.142
  343SOL    HW1 1928   3.156   0.467   2.233
  343SOL    HW2 1929   3.294   0.460   2.147
  344SOL     OW 1930   2.267   4.985   0.442
  344SOL    HW1 1931   2.308   4.924   0.510
  344SOL    HW2 1932   2.204   5.048   0.487
  345SOL     OW 1933   0.829   0.203   4.796
  345SOL    HW1 1934   0.741   0.157   4.785
  345SOL    HW2 1935   0.903   0.139   4.776
  346SOL     OW 1936   1.110   0.225   2.887
  346SOL    HW1 1937   1.167   0.223   2.805
  346SOL    HW2 1938   1.168   0.218   2.968
  347SOL     OW 1939   4.946   6.673   6.447
  347SOL    HW1 1940   4.901   6.762   6.438
  347SOL    HW2 1941   4.897   6.617   6.514
  348SOL     OW 1942   3.842   5.509   1.557
  348SOL    HW1 1943   3.788   5.582   1.600
  348SOL    HW2 1944   3.913   5.549   1.499
  349SOL     OW 1945   1.033   4.489   2.144
  349SOL    HW1 1946   1.065   4.433   2.221
  349SOL    HW2 1947   0.942   4.457   2.117
  350SOL     OW 1948   4.358   3.365   1.160
  350SOL    HW1 1949   4.420   3.291   1.135
  350SOL    HW2 1950   4.355   3.373   1.260
  351SOL     OW 1951   3.279   1.897   0.378
  351SOL    HW1 1952   3.317   1.943   0.458
  351SOL    HW2 1953   3.279   1.960   0.301
  352SOL     OW 1954   2.986   0.952   6.860
  352SOL    HW1 1955   3.034   1.038   6.845
  352SOL    HW2 1956   3.013   0.886   6.790
  353SOL     OW 1957   2.201   6.347   1.001
  353SOL    HW1 1958   2.202   6.338   0.902
  353SOL    HW2 1959   2.109   6.372   1.032
  354SOL     OW 1960   4.818   1.514   0.802
  354SOL    HW1 1961   4.870   1.591   0.839
  354SOL    HW2 1962   4.743   1.491   0.863
  355SOL     OW 1963   0.116   2.665   2.520
  355SOL    HW1 1964   0.046   2.697   2.456
  355SOL    HW2 1965   0.172   2.595   2.476
  356SOL     OW 1966   4.001   5.416   3.515
  356SOL    HW1 1967   3.962   5.476   3.584
  356SOL    HW2 1968   4.051   5.342   3.559
  357SOL     OW 1969   0.149   5.382   5.534
  357SOL    HW1 1970   0.103   5.454   5.588
  357SOL    HW2 1971   0.098   5.367   5.450
  358SOL     OW 1972   5.537   0.496   1.215
  358SOL    HW1 1973   5.557   0.414   1.162
  358SOL    HW2 1974   5.489   0.562   1.157
  359SOL     OW 1975   1.534   1.593   1.852
  359SOL    HW1 1976   1.481   1.640   1.922
  359SOL    HW2 1977   1.549   1.498   1.879
  360SOL     OW 1978   4.137   6.806   7.020
  360SOL    HW1 1979   4.126   6.733   6.953
  360SOL    HW2 1980   4.127   6.895   6.974
  361SOL     OW 1981   4.740   0.108   2.198
  361SOL    HW1 1982   4.674   0.175   2.231
  361SOL    HW2 1983   4.820   0.107   2.259
  362SOL     OW 1984   3.094   3.392   0.864
  362SOL    HW1 1985   3.120   3.488   0.850
  362SOL    HW2 1986   3.151   3.353   0.937
  363SOL     OW 1987   4.444   4.641   4.249
  363SOL    HW1 1988   4.504   4.648   4.329
  363SOL    HW2 1989   4.359   4.690   4.266
  364SOL     OW 1990   1.119   5.402   5.844
  364SOL    HW1 1991   1.154   5.478   5.898
  364SOL    HW2 1992   1.178   5.388   5.764
  365SOL     OW 1993   4.625   6.409   1.889
  365SOL    HW1 1994   4.635   6.402   1.790
  365SOL    HW2 1995   4.628   6.317   1.929
  366SOL     OW 1996   6.079   0.958   6.883
  366SOL    HW1 1997   5.980   0.950   6.889
  366SOL    HW2 1998   6.103   1.055   6.871
  367SOL     OW 1999   5.316   2.703   1.067
  367SOL    HW1 2000   5.270   2.629   1.018
  367SOL    HW2 2001   5.266   2.721   1.152
  368SOL     OW 2002   1.127   4.943   4.892
  368SOL    HW1 2003   1.131   5.041   4.907
  368SOL    HW2 2004   1.188   4.917   4.817
  369SOL     OW 2005   1.103   3.637   1.935
  369SOL    HW1 2006   1.116   3.541   1.959
  369SOL    HW2 2007   1.179   3.691   1.972
  370SOL     OW 2008   3.741   1.173   5.550
  370SOL    HW1 2009   3.824   1.173   5.494
  370SOL    HW2 2010   3.677   1.240   5.513
  371SOL     OW 2011   4.077   2.746   6.866
  371SOL    HW1 2012   4.056   2.713   6.958
  371SOL    HW2 2013   4.133   2.829   6.873
  372SOL     OW 2014   0.549   6.273   6.332
  372SOL    HW1 2015   0.450   6.282   6.346
  372SOL    HW2 2016   0.566   6.212   6.255
  373SOL     OW 2017   0.207   7.005   0.045
  373SOL    HW1 2018   0.247   6.941   7.007
  373SOL    HW2 2019   0.114   6.976   0.067
  374SOL     OW 2020   3.145   1.044   1.554
  374SOL    HW1 2021   3.085   1.060   1.632
  374SOL    HW2 2022   3.227   0.995   1.584
  375SOL     OW 2023   6.865   4.719   3.050
  375SOL    HW1 2024   6.929   4.650   3.015
  375SOL    HW2 2025   6.826   4.687   3.137
  376SOL     OW 2026   2.302   2.876   3.611
  376SOL    HW1 2027   2.356   2.802   3.572
  376SOL    HW2 2028   2.248   2.841   3.687
  377SOL     OW 2029   4.910   1.681   3.746
  377SOL    HW1 2030   4.997   1.700   3.701
  377SOL    HW2 2031   4.916   1.706   3.843
  378SOL     OW 2032   5.183   2.991   4.838
  378SOL    HW1 2033   5.150   3.033   4.922
  378SOL    HW2 2034   5.254   3.048   4.798
  379SOL     OW 2035   6.456   3.825   1.081
  379SOL    HW1 2036   6.533   3.878   1.046
  379SOL    HW2 2037   6.484   3.777   1.164
  380SOL     OW 2038   1.136   2.479   0.995
  380SOL    HW1 2039   1.126   2.572   0.961
  380SOL    HW2 2040   1.213   2.474   1.059
  381SOL     OW 2041   3.741   3.399   1.075
  381SOL    HW1 2042   3.776   3.401   1.169
  381SOL    HW2 2043   3.648   3.437   1.074
  382SOL     OW 2044   2.956   6.042   0.803
  382SOL    HW1 2045   2.994   5.960   0.761
  382SOL    HW2 2046   2.938   6.024   0.900
  383SOL     OW 2047   6.266   2.707   7.018
  383SOL    HW1 2048   6.173   2.706   0.026
  383SOL    HW2 2049   6.315   2.786   0.029
  384SOL     OW 2050   1.701   5.806   5.344
  384SOL    HW1 2051   1.632   5.736   5.326
  384SOL    HW2 2052   1.723   5.808   5.441
  385SOL     OW 2053   4.599   5.636   0.614
  385SOL    HW1 2054   4.506   5.643   0.578
  385SOL    HW2 2055   4.655   5.583   0.550
  386SOL     OW 2056   3.324   6.357   6.058
  386SOL    HW1 2057   3.331   6.361   5.959
  386SOL    HW2 2058   3.400   6.303   6.095
  387SOL     OW 2059   0.450   0.627   5.388
  387SOL    HW1 2060   0.503   0.673   5.459
  387SOL    HW2 2061   0.451   0.528   5.404
  388SOL     OW 2062   6.577   2.509   4.894
  388SOL    HW1 2063   6.660   2.559   4.918
  388SOL    HW2 2064   6.565   2.432   4.957
  389SOL     OW 2065   4.280   4.588   1.372
  389SOL    HW1 2066   4.371   4.609   1.409
  389SOL    HW2 2067   4.284   4.501   1.322
  390SOL     OW 2068   3.581   1.988   0.156
  390SOL    HW1 2069   3.643   1.953   0.226
  390SOL    HW2 2070   3.490   2.000   0.195
  391SOL     OW 2071   3.301   4.426   5.309
  391SOL    HW1 2072   3.254   4.347   5.348
  391SOL    HW2 2073   3.237   4.502   5.300
  392SOL     OW 2074   1.327   3.341   1.655
  392SOL    HW1 2075   1.402   3.313   1.596
  392SOL    HW2 2076   1.362   3.406   1.723
  393SOL     OW 2077   1.292   3.958   1.763
  393SOL    HW1 2078   1.235   3.957   1.681
  393SOL    HW2 2079   1.320   4.052   1.783
  394SOL     OW 2080   0.191   1.235   6.519
  394SOL    HW1 2081   0.236   1.162   6.570
  394SOL    HW2 2082   0.093   1.216   6.512
  395SOL     OW 2083   5.429   4.730   1.102
  395SOL    HW1 2084   5.333   4.755   1.090
  395SOL    HW2 2085   5.444   4.638   1.066
  396SOL     OW 2086   2.004   1.208   1.688
  396SOL    HW1 2087   1.954   1.282   1.731
  396SOL    HW2 2088   2.020   1.230   1.592
  397SOL     OW 2089   4.384   2.160   5.202
  397SOL    HW1 2090   4.323   2.087   5.174
  397SOL    HW2 2091   4.475   2.146   5.161
  398SOL     OW 2092   1.464   1.550   4.549
  398SOL    HW1 2093   1.558   1.569   4.579
  398SOL    HW2 2094   1.439   1.458   4.577
  399SOL     OW 2095   6.085   6.054   4.023
  399SOL    HW1 2096   6.024   5.988   3.979
  399SOL    HW2 2097   6.033   6.135   4.051
  400SOL     OW 2098   6.151   0.416   4.539
  400SOL    HW1 2099   6.149   0.515   4.525
  400SOL    HW2 2100   6.246   0.384   4.535
  401SOL     OW 2101   0.455   4.935   5.963
  401SOL    HW1 2102   0.477   4.895   5.873
  401SOL    HW2 2103   0.540   4.965   6.007
  402SOL     OW 2104   6.299   0.977   3.044
  402SOL    HW1 2105   6.202   0.998   3.046
  402SOL    HW2 2106   6.313   0.878   3.051
  403SOL     OW 2107   3.015   1.133   5.064
  403SOL    HW1 2108   3.040   1.181   5.148
  403SOL    HW2 2109   3.098   1.112   5.012
  404SOL     OW 2110   3.473   5.379   3.695
  404SOL    HW1 2111   3.382   5.339   3.681
  404SOL    HW2 2112   3.493   5.443   3.620
  405SOL     OW 2113   2.183   4.802   4.287
  405SOL    HW1 2114   2.278   4.824   4.309
  405SOL    HW2 2115   2.122   4.851   4.349
  406SOL     OW 2116   0.035   5.802   5.480
  406SOL    HW1 2117   0.053   5.891   5.438
  406SOL    HW2 2118   0.048   5.809   5.579
  407SOL     OW 2119   1.762   3.176   4.399
  407SOL    HW1 2120   1.862   3.169   4.406
  407SOL    HW2 2121   1.721   3.147   4.486
  408SOL     OW 2122   2.513   1.535   3.745
  408SOL    HW1 2123   2.610   1.519   3.730
  408SOL    HW2 2124   2.479   1.599   3.677
  409SOL     OW 2125   0.376   3.398   2.374
  409SOL    HW1 2126   0.408   3.479   2.423
  409SOL    HW2 2127   0.425   3.317   2.406
  410SOL     OW 2128   1.524   1.117   1.493
  410SOL    HW1 2129   1.490   1.087   1.583
  410SOL    HW2 2130   1.580   1.045   1.453
  411SOL     OW 2131   0.168   2.907   1.541
  411SOL    HW1 2132   0.260   2.937   1.517
  411SOL    HW2 2133   0.171   2.859   1.629
  412SOL     OW 2134   1.386   5.137   2.502
  412SOL    HW1 2135   1.286   5.124   2.501
  412SOL    HW2 2136   1.409   5.217   2.557
  413SOL     OW 2137   5.714   5.967   2.662
  413SOL    HW1 2138   5.664   6.050   2.635
  413SOL    HW2 2139   5.790   5.992   2.722
  414SOL     OW 2140   1.885   6.617   3.478
  414SOL    HW1 2141   1.823   6.686   3.515
  414SOL    HW2 2142   1.914   6.644   3.386
  415SOL     OW 2143   5.998   0.997   0.282
  415SOL    HW1 2144   5.901   0.974   0.288
  415SOL    HW2 2145   6.050   0.937   0.343
  416SOL     OW 2146   5.498   3.357   4.874
  416SOL    HW1 2147   5.479   3.415   4.795
  416SOL    HW2 2148   5.492   3.411   4.958
  417SOL     OW 2149   2.087   2.085   6.066
  417SOL    HW1 2150   2.180   2.120   6.068
  417SOL    HW2 2151   2.072   2.026   6.145
  418SOL     OW 2152   4.056   6.804   4.622
  418SOL    HW1 2153   3.983   6.745   4.588
  418SOL    HW2 2154   4.095   6.765   4.705
  419SOL     OW 2155   0.268   0.081   0.845
  419SOL    HW1 2156   0.216   0.148   0.899
  419SOL    HW2 2157   0.321   0.023   0.907
  420SOL     OW 2158   4.578   0.849   6.728
  420SOL    HW1 2159   4.486   0.879   6.703
  420SOL    HW2 2160   4.576   0.811   6.821
  421SOL     OW 2161   5.187   3.776   2.713
  421SOL    HW1 2162   5.109   3.724   2.678
  421SOL    HW2 2163   5.267   3.717   2.720
  422SOL     OW 2164   4.993   3.269   1.753
  422SOL    HW1 2165   5.036   3.348   1.797
  422SOL    HW2 2166   4.992   3.192   1.818
  423SOL     OW 2167   3.607   1.006   6.566
  423SOL    HW1 2168   3.585   1.059   6.485
  423SOL    HW2 2169   3.695   0.960   6.554
  424SOL     OW 2170   1.032   3.592   3.806
  424SOL    HW1 2171   1.058   3.634   3.893
  424SOL    HW2 2172   1.052   3.494   3.809
  425SOL     OW 2173   2.707   0.843   6.106
  425SOL    HW1 2174   2.610   0.850   6.128
  425SOL    HW2 2175   2.750   0.933   6.117
  426SOL     OW 2176   2.515   2.189   4.237
  426SOL    HW1 2177   2.427   2.234   4.228
  426SOL    HW2 2178   2.587   2.252   4.205
  427SOL     OW 2179   4.207   2.297   2.920
  427SOL    HW1 2180   4.218   2.200   2.937
  427SOL    HW2 2181   4.215   2.348   3.006
  428SOL     OW 2182   3.015   2.082   6.023
  428SOL    HW1 2183   3.006   1.990   5.984
  428SOL    HW2 2184   3.072   2.139   5.964
  429SOL     OW 2185   0.510   5.518   4.248
  429SOL    HW1 2186   0.567   5.599   4.241
  429SOL    HW2 2187   0.462   5.504   4.161
  430SOL     OW 2188   1.367   0.041   3.765
  430SOL    HW1 2189   1.291   7.010   3.795
  430SOL    HW2 2190   1.448   0.020   3.820
  431SOL     OW 2191   2.529   1.691   1.151
  431SOL    HW1 2192   2.610   1.645   1.115
  431SOL    HW2 2193   2.548   1.788   1.167
  432SOL     OW 2194   4.908   1.946   1.608
  432SOL    HW1 2195   4.868   1.936   1.517
  432SOL    HW2 2196   4.946   1.858   1.637
  433SOL     OW 2197   1.332   5.206   0.896
  433SOL    HW1 2198   1.317   5.112   0.928
  433SOL    HW2 2199   1.249   5.259   0.909
  434SOL     OW 2200   4.519   5.891   3.827
  434SOL    HW1 2201   4.586   5.957   3.793
  434SOL    HW2 2202   4.427   5.929   3.816
  435SOL     OW 2203   3.773   1.847   6.010
  435SOL    HW1 2204   3.830   1.847   6.092
  435SOL    HW2 2205   3.699   1.913   6.021
  436SOL     OW 2206   4.793   6.989   2.776
  436SOL    HW1 2207   4.777   6.892   2.795
  436SOL    HW2 2208   4.706   0.011   2.776
  437SOL     OW 2209   6.372   0.732   5.041
  437SOL    HW1 2210   6.281   0.693   5.057
  437SOL    HW2 2211   6.413   0.757   5.129
  438SOL     OW 2212   0.267   4.509   2.543
  438SOL    HW1 2213   0.276   4.448   2.622
  438SOL    HW2 2214   0.216   4.463   2.471
  439SOL     OW 2215   0.003   0.706   4.719
  439SOL    HW1 2216   7.005   0.802   4.711
  439SOL    HW2 2217   0.090   0.698   4.767
  440SOL     OW 2218   4.032   1.450   0.734
  440SOL    HW1 2219   4.041   1.480   0.829
  440SOL    HW2 2220   4.005   1.354   0.733
  441SOL     OW 2221   0.187   4.272   2.660
  441SOL    HW1 2222   0.113   4.206   2.652
  441SOL    HW2 2223   0.263   4.231   2.711
  442SOL     OW 2224   5.466   2.761   5.346
  442SOL    HW1 2225   5.420   2.696   5.285
  442SOL    HW2 2226   5.401   2.832   5.373
  443SOL     OW 2227   5.234   3.332   1.904
  443SOL    HW1 2228   5.187   3.351   1.990
  443SOL    HW2 2229   5.322   3.379   1.904
  444SOL     OW 2230   4.123   1.099   1.489
  444SOL    HW1 2231   4.143   1.194   1.463
  444SOL    HW2 2232   4.201   1.041   1.465
  445SOL     OW 2233   1.642   5.499   2.643
  445SOL    HW1 2234   1.693   5.572   2.689
  445SOL    HW2 2235   1.600   5.439   2.711
  446SOL     OW 2236   5.449   6.869   1.447
  446SOL    HW1 2237   5.540   6.853   1.485
  446SOL    HW2 2238   5.437   6.815   1.364
  447SOL     OW 2239   5.887   4.665   1.037
  447SOL    HW1 2240   5.827   4.736   1.073
  447SOL    HW2 2241   5.899   4.593   1.105
  448SOL     OW 2242   2.566   0.054   3.335
  448SOL    HW1 2243   2.509   0.001   3.398
  448SOL    HW2 2244   2.518   0.065   3.248
  449SOL     OW 2245   1.423   3.949   4.860
  449SOL    HW1 2246   1.429   4.032   4.804
  449SOL    HW2 2247   1.378   3.970   4.946
  450SOL     OW 2248   0.591   4.865   3.760
  450SOL    HW1 2249   0.597   4.904   3.852
  450SOL    HW2 2250   0.623   4.771   3.762
  451SOL     OW 2251   1.202   1.894   1.496
  451SOL    HW1 2252   1.106   1.878   1.476
  451SOL    HW2 2253   1.248   1.929   1.414
  452SOL     OW 2254   4.693   5.832   2.344
  452SOL    HW1 2255   4.692   5.860   2.248
  452SOL    HW2 2256   4.710   5.734   2.350
  453SOL     OW 2257   3.254   1.011   6.309
  453SOL    HW1 2258   3.181   0.943   6.309
  453SOL    HW2 2259   3.233   1.082   6.242
  454SOL     OW 2260   6.780   3.518   6.450
  454SOL    HW1 2261   6.698   3.538   6.503
  454SOL    HW2 2262   6.831   3.445   6.495
  455SOL     OW 2263   6.048   4.903   5.746
  455SOL    HW1 2264   6.050   4.833   5.675
  455SOL    HW2 2265   6.085   4.866   5.831
  456SOL     OW 2266   2.793   0.995   2.768
  456SOL    HW1 2267   2.702   0.966   2.737
  456SOL    HW2 2268   2.784   1.043   2.855
  457SOL     OW 2269   2.266   6.687   0.133
  457SOL    HW1 2270   2.207   6.737   0.196
  457SOL    HW2 2271   2.228   6.596   0.116
  458SOL     OW 2272   2.717   1.738   3.404
  458SOL    HW1 2273   2.816   1.724   3.394
  458SOL    HW2 2274   2.694   1.739   3.502
  459SOL     OW 2275   4.133   0.130   3.294
  459SOL    HW1 2276   4.047   0.177   3.315
  459SOL    HW2 2277   4.175   0.099   3.380
  460SOL     OW 2278   0.859   1.372   6.185
  460SOL    HW1 2279   0.873   1.375   6.284
  460SOL    HW2 2280   0.771   1.329   6.165
  461SOL     OW 2281   1.133   4.919   5.418
  461SOL    HW1 2282   1.157   4.883   5.328
  461SOL    HW2 2283   1.035   4.906   5.435
  462SOL     OW 2284   3.520   4.045   4.662
  462SOL    HW1 2285   3.486   3.989   4.586
  462SOL    HW2 2286   3.596   4.102   4.630
  463SOL     OW 2287   5.121   6.422   3.316
  463SOL    HW1 2288   5.099   6.324   3.315
  463SOL    HW2 2289   5.161   6.446   3.404
  464SOL     OW 2290   3.958   5.138   6.511
  464SOL    HW1 2291   4.012   5.063   6.474
  464SOL    HW2 2292   4.008   5.182   6.586
  465SOL     OW 2293   0.729   3.819   0.960
  465SOL    HW1 2294   0.815   3.867   0.944
  465SOL    HW2 2295   0.656   3.864   0.910
  466SOL     OW 2296   4.213   5.668   4.666
  466SOL    HW1 2297   4.301   5.671   4.712
  466SOL    HW2 2298   4.149   5.731   4.710
  467SOL     OW 2299   5.768   6.739   2.118
  467SOL    HW1 2300   5.818   6.781   2.193
  467SOL    HW2 2301   5.722   6.809   2.064
  468SOL     OW 2302   2.735   6.309   6.496
  468SOL    HW1 2303   2.677   6.304   6.578
  468SOL    HW2 2304   2.831   6.311   6.524
  469SOL     OW 2305   3.324   5.009   4.592
  469SOL    HW1 2306   3.298   5.032   4.498
  469SOL    HW2 2307   3.246   4.966   4.638
  470SOL     OW 2308   2.354   4.370   2.779
  470SOL    HW1 2309   2.345   4.298   2.710
  470SOL    HW2 2310   2.271   4.375   2.834
  471SOL     OW 2311   1.367   2.189   4.216
  471SOL    HW1 2312   1.453   2.143   4.196
  471SOL    HW2 2313   1.386   2.271   4.270
  472SOL     OW 2314   5.652   3.677   6.630
  472SOL    HW1 2315   5.607   3.713   6.711
  472SOL    HW2 2316   5.751   3.675   6.644
  473SOL     OW 2317   6.332   2.870   1.934
  473SOL    HW1 2318   6.255   2.810   1.913
  473SOL    HW2 2319   6.298   2.962   1.954
  474SOL     OW 2320   4.801   6.509   3.966
  474SOL    HW1 2321   4.715   6.545   3.930
  474SOL    HW2 2322   4.822   6.555   4.053
  475SOL     OW 2323   5.529   1.785   0.191
  475SOL    HW1 2324   5.573   1.864   0.149
  475SOL    HW2 2325   5.450   1.815   0.244
  476SOL     OW 2326   0.773   4.173   0.831
  476SOL    HW1 2327   0.680   4.144   0.855
  476SOL    HW2 2328   0.789   4.155   0.734
  477SOL     OW 2329   1.621   4.685   3.769
  477SOL    HW1 2330   1.635   4.590   3.795
  477SOL    HW2 2331   1.527   4.713   3.789
  478SOL     OW 2332   5.114   6.210   2.147
  478SOL    HW1 2333   5.051   6.238   2.219
  478SOL    HW2 2334   5.078   6.129   2.100
  479SOL     OW 2335   3.122   3.985   3.397
  479SOL    HW1 2336   3.029   4.013   3.419
  479SOL    HW2 2337   3.124   3.887   3.375
  480SOL     OW 2338   0.976   0.870   2.814
  480SOL    HW1 2339   0.906   0.803   2.789
  480SOL    HW2 2340   1.020   0.905   2.731
  481SOL     OW 2341   0.348   6.919   0.462
  481SOL    HW1 2342   0.331   6.858   0.385
  481SOL    HW2 2343   0.446   6.938   0.469
  482SOL     OW 2344   3.978   5.066   1.704
  482SOL    HW1 2345   3.957   5.028   1.794
  482SOL    HW2 2346   3.913   5.138   1.683
  483SOL     OW 2347   5.743   2.417   4.088
  483SOL    HW1 2348   5.669   2.433   4.022
  483SOL    HW2 2349   5.796   2.337   4.060
  484SOL     OW 2350   2.356   4.356   3.828
  484SOL    HW1 2351   2.444   4.396   3.803
  484SOL    HW2 2352   2.283   4.401   3.777
  485SOL     OW 2353   5.579   3.163   1.712
  485SOL    HW1 2354   5.536   3.195   1.628
  485SOL    HW2 2355   5.676   3.144   1.695
  486SOL     OW 2356   5.907   6.003   6.113
  486SOL    HW1 2357   5.988   5.945   6.107
  486SOL    HW2 2358   5.825   5.945   6.112
  487SOL     OW 2359   0.362   6.855   5.801
  487SOL    HW1 2360   0.365   6.921   5.876
  487SOL    HW2 2361   0.455   6.829   5.776
  488SOL     OW 2362   2.132   5.737   3.653
  488SOL    HW1 2363   2.210   5.694   3.698
  488SOL    HW2 2364   2.059   5.670   3.642
  489SOL     OW 2365   1.782   5.792   6.418
  489SOL    HW1 2366   1.880   5.806   6.434
  489SOL    HW2 2367   1.729   5.836   6.490
  490SOL     OW 2368   0.735   3.959   4.641
  490SOL    HW1 2369   0.659   3.934   4.582
  490SOL    HW2 2370   0.777   3.877   4.679
  491SOL     OW 2371   0.237   2.844   0.450
  491SOL    HW1 2372   0.322   2.865   0.497
  491SOL    HW2 2373   0.161   2.848   0.515
  492SOL     OW 2374   1.148   2.572   5.831
  492SOL    HW1 2375   1.150   2.655   5.887
  492SOL    HW2 2376   1.238   2.558   5.790
  493SOL     OW 2377   2.173   5.955   5.069
  493SOL    HW1 2378   2.252   5.919   5.018
  493SOL    HW2 2379   2.110   5.880   5.090
  494SOL     OW 2380   2.654   6.671   4.513
  494SOL    HW1 2381   2.705   6.735   4.571
  494SOL    HW2 2382   2.560   6.705   4.503
  495SOL     OW 2383   3.603   4.270   6.269
  495SOL    HW1 2384   3.631   4.365   6.259
  495SOL    HW2 2385   3.681   4.210   6.250
  496SOL     OW 2386   4.932   1.591   3.130
  496SOL    HW1 2387   4.967   1.601   3.037
  496SOL    HW2 2388   4.912   1.682   3.167
  497SOL     OW 2389   4.674   1.663   0.372
  497SOL    HW1 2390   4.594   1.700   0.421
  497SOL    HW2 2391   4.691   1.569   0.401
  498SOL     OW 2392   0.118   6.879   1.482
  498SOL    HW1 2393   0.170   6.797   1.456
  498SOL    HW2 2394   0.027   6.852   1.514
  499SOL     OW 2395   2.970   5.806   0.611
  499SOL    HW1 2396   2.879   5.809   0.652
  499SOL    HW2 2397   2.970   5.743   0.533
  500SOL     OW 2398   5.340   2.154   0.015
  500SOL    HW1 2399   5.400   2.227   7.008
  500SOL    HW2 2400   5.320   2.170   0.111
  501SOL     OW 2401   1.098   1.351   4.650
  501SOL    HW1 2402   1.037   1.357   4.728
  501SOL    HW2 2403   1.193   1.358   4.681
  502SOL     OW 2404   2.772   4.790   6.923
  502SOL    HW1 2405   2.781   4.700   6.965
  502SOL    HW2 2406   2.696   4.839   6.964
  503SOL     OW 2407   4.387   4.933   0.584
  503SOL    HW1 2408   4.463   4.891   0.534
  503SOL    HW2 2409   4.389   4.902   0.680
  504SOL     OW 2410   6.680   6.196   1.758
  504SOL    HW1 2411   6.731   6.112   1.744
  504SOL    HW2 2412   6.741   6.266   1.796
  505SOL     OW 2413   5.218   5.822   5.393
  505SOL    HW1 2414   5.193   5.917   5.377
  505SOL    HW2 2415   5.179   5.765   5.321
  506SOL     OW 2416   4.403   5.008   2.217
  506SOL    HW1 2417   4.380   4.918   2.181
  506SOL    HW2 2418   4.327   5.042   2.272
  507SOL     OW 2419   3.063   0.725   1.148
  507SOL    HW1 2420   2.975   0.680   1.131
  507SOL    HW2 2421   3.063   0.768   1.238
  508SOL     OW 2422   0.062   3.955   2.946
  508SOL    HW1 2423   0.145   3.900   2.933
  508SOL    HW2 2424   0.037   3.954   3.042
  509SOL     OW 2425   4.594   0.463   6.001
  509SOL    HW1 2426   4.659   0.526   5.958
  509SOL    HW2 2427   4.578   0.491   6.096
  510SOL     OW 2428   6.698   4.118   0.041
  510SOL    HW1 2429   6.765   4.044   0.057
  510SOL    HW2 2430   6.640   4.095   6.991
  511SOL     OW 2431   0.368   2.050   0.347
  511SOL    HW1 2432   0.269   2.066   0.339
  511SOL    HW2 2433   0.397   1.990   0.273
  512SOL     OW 2434   0.304   2.002   4.320
  512SOL    HW1 2435   0.287   1.931   4.251
  512SOL    HW2 2436   0.384   1.976   4.374
  513SOL     OW 2437   4.881   1.066   2.820
  513SOL    HW1 2438   4.833   0.999   2.876
  513SOL    HW2 2439   4.976   1.074   2.851
  514SOL     OW 2440   5.831   0.575   4.363
  514SOL    HW1 2441   5.766   0.650   4.350
  514SOL    HW2 2442   5.829   0.545   4.458
  515SOL     OW 2443   4.028   0.145   5.751
  515SOL    HW1 2444   3.931   0.165   5.746
  515SOL    HW2 2445   4.074   0.180   5.670
  516SOL     OW 2446   2.159   5.811   2.412
  516SOL    HW1 2447   2.229   5.860   2.360
  516SOL    HW2 2448   2.089   5.777   2.350
  517SOL     OW 2449   3.284   5.927   1.478
  517SOL    HW1 2450   3.230   6.005   1.510
  517SOL    HW2 2451   3.374   5.928   1.522
  518SOL     OW 2452   2.118   3.896   3.969
  518SOL    HW1 2453   2.049   3.964   3.996
  518SOL    HW2 2454   2.102   3.811   4.020
  519SOL     OW 2455   6.927   0.318   1.959
  519SOL    HW1 2456   6.913   0.249   2.029
  519SOL    HW2 2457   7.023   0.347   1.959
  520SOL     OW 2458   1.770   4.085   0.945
  520SOL    HW1 2459   1.848   4.041   0.990
  520SOL    HW2 2460   1.748   4.170   0.992
  521SOL     OW 2461   6.492   6.446   4.803
  521SOL    HW1 2462   6.478   6.369   4.742
  521SOL    HW2 2463   6.572   6.498   4.772
  522SOL     OW 2464   3.761   4.168   1.531
  522SOL    HW1 2465   3.791   4.225   1.455
  522SOL    HW2 2466   3.729   4.228   1.606
  523SOL     OW 2467   0.873   0.281   0.957
  523SOL    HW1 2468   0.790   0.225   0.953
  523SOL    HW2 2469   0.848   0.378   0.947
  524SOL     OW 2470   6.638   2.163   1.525
  524SOL    HW1 2471   6.633   2.198   1.431
  524SOL    HW2 2472   6.550   2.174   1.569
  525SOL     OW 2473   0.528   3.629   5.381
  525SOL    HW1 2474   0.545   3.600   5.287
  525SOL    HW2 2475   0.498   3.550   5.436
  526SOL     OW 2476   3.426   0.621   3.675
  526SOL    HW1 2477   3.394   0.628   3.770
  526SOL    HW2 2478   3.362   0.669   3.615
  527SOL     OW 2479   0.605   0.890   0.818
  527SOL    HW1 2480   0.592   0.989   0.809
  527SOL    HW2 2481   0.700   0.867   0.798
  528SOL     OW 2482   0.012   3.095   4.347
  528SOL    HW1 2483   0.057   3.027   4.404
  528SOL    HW2 2484   6.941   3.094   4.365
  529SOL     OW 2485   1.918   0.263   0.324
  529SOL    HW1 2486   1.930   0.310   0.236
  529SOL    HW2 2487   1.953   0.321   0.397
  530SOL     OW 2488   3.519   4.124   0.988
  530SOL    HW1 2489   3.619   4.122   0.995
  530SOL    HW2 2490   3.493   4.172   0.904
  531SOL     OW 2491   1.620   0.416   0.617
  531SOL    HW1 2492   1.603   0.428   0.519
  531SOL    HW2 2493   1.626   0.319   0.639
  532SOL     OW 2494   1.421   2.059   6.643
  532SOL    HW1 2495   1.405   2.010   6.557
  532SOL    HW2 2496   1.337   2.059   6.698
  533SOL     OW 2497   3.971   0.335   4.476
  533SOL    HW1 2498   3.942   0.242   4.455
  533SOL    HW2 2499   3.984   0.386   4.391
  534SOL     OW 2500   2.148   4.767   1.759
  534SOL    HW1 2501   2.154   4.687   1.700
  534SOL    HW2 2502   2.237   4.813   1.762
  535SOL     OW 2503   4.967   3.457   3.850
  535SOL    HW1 2504   4.914   3.537   3.824
  535SOL    HW2 2505   4.931   3.420   3.936
  536SOL     OW 2506   6.454   0.089   2.360
  536SOL    HW1 2507   6.487   0.029   2.287
  536SOL    HW2 2508   6.486   0.182   2.343
  537SOL     OW 2509   3.574   2.123   3.768
  537SOL    HW1 2510   3.654   2.182   3.778
  537SOL    HW2 2511   3.516   2.130   3.849
  538SOL     OW 2512   3.348   4.841   5.161
  538SOL    HW1 2513   3.394   4.872   5.077
  538SOL    HW2 2514   3.249   4.835   5.145
  539SOL     OW 2515   1.067   6.843   0.183
  539SOL    HW1 2516   1.109   6.755   0.159
  539SOL    HW2 2517   0.974   6.827   0.215
  540SOL     OW 2518   0.999   0.322   4.023
  540SOL    HW1 2519   1.035   0.243   4.071
  540SOL    HW2 2520   0.927   0.294   3.960
  541SOL     OW 2521   4.353   6.142   3.785
  541SOL    HW1 2522   4.396   6.144   3.876
  541SOL    HW2 2523   4.410   6.193   3.721
  542SOL     OW 2524   3.591   0.498   5.530
  542SOL    HW1 2525   3.576   0.502   5.431
  542SOL    HW2 2526   3.638   0.413   5.553
  543SOL     OW 2527   6.077   2.397   4.009
  543SOL    HW1 2528   6.175   2.380   4.025
  543SOL    HW2 2529   6.025   2.314   4.029
  544SOL     OW 2530   1.602   3.357   1.260
  544SOL    HW1 2531   1.599   3.438   1.201
  544SOL    HW2 2532   1.534   3.291   1.228
  545SOL     OW 2533   5.707   0.246   1.359
  545SOL    HW1 2534   5.679   0.220   1.267
  545SOL    HW2 2535   5.802   0.219   1.374
  546SOL     OW 2536   6.950   4.426   2.857
  546SOL    HW1 2537   7.021   4.482   2.900
  546SOL    HW2 2538   6.952   4.334   2.896
  547SOL     OW 2539   5.423   0.951   6.393
  547SOL    HW1 2540   5.336   0.908   6.370
  547SOL    HW2 2541   5.452   0.921   6.484
  548SOL     OW 2542   4.153   1.901   0.023
  548SOL    HW1 2543   4.249   1.889   0.050
  548SOL    HW2 2544   4.124   1.994   0.041
  549SOL     OW 2545   5.887   1.717   1.434
  549SOL    HW1 2546   5.936   1.753   1.513
  549SOL    HW2 2547   5.928   1.631   1.405
  550SOL     OW 2548   0.188   5.987   3.335
  550SOL    HW1 2549   0.186   6.036   3.248
  550SOL    HW2 2550   0.245   5.905   3.327
  551SOL     OW 2551   6.148   1.165   0.601
  551SOL    HW1 2552   6.197   1.145   0.686
  551SOL    HW2 2553   6.053   1.135   0.609
  552SOL     OW 2554   0.311   5.824   5.810
  552SOL    HW1 2555   0.268   5.739   5.841
  552SOL    HW2 2556   0.363   5.806   5.727
  553SOL     OW 2557   2.742   1.211   6.950
  553SOL    HW1 2558   2.836   1.222   6.918
  553SOL    HW2 2559   2.723   1.278   7.022
  554SOL     OW 2560   5.196   6.741   1.302
  554SOL    HW1 2561   5.188   6.835   1.268
  554SOL    HW2 2562   5.159   6.736   1.394
  555SOL     OW 2563   1.328   3.807   5.861
  555SOL    HW1 2564   1.388   3.860   5.920
  555SOL    HW2 2565   1.381   3.736   5.814
  556SOL     OW 2566   5.591   0.257   4.323
  556SOL    HW1 2567   5.686   0.284   4.307
  556SOL    HW2 2568   5.562   0.192   4.252
  557SOL     OW 2569   6.816   4.310   6.900
  557SOL    HW1 2570   6.795   4.244   6.972
  557SOL    HW2 2571   6.751   4.386   6.904
  558SOL     OW 2572   2.964   3.851   2.451
  558SOL    HW1 2573   2.978   3.766   2.501
  558SOL    HW2 2574   2.906   3.834   2.371
  559SOL     OW 2575   6.498   6.432   5.853
  559SOL    HW1 2576   6.529   6.359   5.915
  559SOL    HW2 2577   6.524   6.521   5.890
  560SOL     OW 2578   6.660   3.162   4.042
  560SOL    HW1 2579   6.723   3.239   4.048
  560SOL    HW2 2580   6.566   3.194   4.047
  561SOL     OW 2581   0.831   2.940   0.023
  561SOL    HW1 2582   0.864   2.907   0.111
  561SOL    HW2 2583   0.880   2.894   6.977
  562SOL     OW 2584   4.364   0.063   4.739
  562SOL    HW1 2585   4.400   7.001   4.769
  562SOL    HW2 2586   4.300   0.049   4.664
  563SOL     OW 2587   1.642   1.183   4.406
  563SOL    HW1 2588   1.733   1.195   4.446
  563SOL    HW2 2589   1.634   1.235   4.322
  564SOL     OW 2590   6.831   1.484   6.154
  564SOL    HW1 2591   6.914   1.431   6.173
  564SOL    HW2 2592   6.842   1.534   6.069
  565SOL     OW 2593   3.325   3.754   3.985
  565SOL    HW1 2594   3.288   3.806   3.908
  565SOL    HW2 2595   3.387   3.684   3.952
  566SOL     OW 2596   2.934   0.458   3.271
  566SOL    HW1 2597   2.912   0.381   3.332
  566SOL    HW2 2598   2.861   0.526   3.275
  567SOL     OW 2599   2.547   2.708   5.535
  567SOL    HW1 2600   2.541   2.765   5.618
  567SOL    HW2 2601   2.610   2.750   5.470
  568SOL     OW 2602   0.276   6.291   0.220
  568SOL    HW1 2603   0.188   6.334   0.241
  568SOL    HW2 2604   0.349   6.338   0.271
  569SOL     OW 2605   6.111   2.704   0.390
  569SOL    HW1 2606   6.053   2.661   0.460
  569SOL    HW2 2607   6.192   2.648   0.375
  570SOL     OW 2608   2.630   0.336   6.286
  570SOL    HW1 2609   2.725   0.328   6.317
  570SOL    HW2 2610   2.606   0.433   6.277
  571SOL     OW 2611   2.042   5.080   2.000
  571SOL    HW1 2612   2.056   5.172   1.963
  571SOL    HW2 2613   2.062   5.081   2.099
  572SOL     OW 2614   2.839   0.383   4.253
  572SOL    HW1 2615   2.893   0.331   4.187
  572SOL    HW2 2616   2.886   0.468   4.276
  573SOL     OW 2617   0.077   0.993   5.181
  573SOL    HW1 2618   0.012   0.919   5.166
  573SOL    HW2 2619   0.105   1.031   5.093
  574SOL     OW 2620   2.316   2.247   5.624
  574SOL    HW1 2621   2.388   2.178   5.618
  574SOL    HW2 2622   2.324   2.297   5.710
  575SOL     OW 2623   3.876   2.756   0.103
  575SOL    HW1 2624   3.921   2.716   0.184
  575SOL    HW2 2625   3.787   2.712   0.090
  576SOL     OW 2626   2.169   3.103   2.958
  576SOL    HW1 2627   2.225   3.021   2.946
  576SOL    HW2 2628   2.105   3.089   3.033
  577SOL     OW 2629   0.283   1.269   1.690
  577SOL    HW1 2630   0.343   1.241   1.615
  577SOL    HW2 2631   0.208   1.203   1.700
  578SOL     OW 2632   2.439   6.538   6.713
  578SOL    HW1 2633   2.380   6.533   6.632
  578SOL    HW2 2634   2.503   6.614   6.703
  579SOL     OW 2635   2.355   4.352   2.077
  579SOL    HW1 2636   2.422   4.300   2.024
  579SOL    HW2 2637   2.402   4.419   2.134
  580SOL     OW 2638   4.614   5.657   4.472
  580SOL    HW1 2639   4.695   5.652   4.414
  580SOL    HW2 2640   4.567   5.569   4.473
  581SOL     OW 2641   1.541   2.674   4.491
  581SOL    HW1 2642   1.589   2.650   4.575
  581SOL    HW2 2643   1.548   2.773   4.476
  582SOL     OW 2644   5.339   5.487   4.212
  582SOL    HW1 2645   5.251   5.439   4.220
  582SOL    HW2 2646   5.322   5.584   4.194
  583SOL     OW 2647   4.503   5.925   5.746
  583SOL    HW1 2648   4.468   5.890   5.832
  583SOL    HW2 2649   4.434   5.912   5.674
  584SOL     OW 2650   4.774   0.576   5.206
  584SOL    HW1 2651   4.685   0.618   5.223
  584SOL    HW2 2652   4.765   0.477   5.202
  585SOL     OW 2653   2.928   0.912   1.771
  585SOL    HW1 2654   2.882   0.994   1.804
  585SOL    HW2 2655   3.024   0.913   1.799
  586SOL     OW 2656   4.339   0.043   0.662
  586SOL    HW1 2657   4.240   0.031   0.656
  586SOL    HW2 2658   4.362   0.139   0.647
  587SOL     OW 2659   4.561   2.127   1.683
  587SOL    HW1 2660   4.590   2.084   1.769
  587SOL    HW2 2661   4.547   2.057   1.614
  588SOL     OW 2662   2.037   5.213   3.372
  588SOL    HW1 2663   2.025   5.135   3.434
  588SOL    HW2 2664   2.132   5.242   3.374
  589SOL     OW 2665   3.113   5.763   0.966
  589SOL    HW1 2666   3.152   5.754   0.875
  589SOL    HW2 2667   3.091   5.860   0.983
  590SOL     OW 2668   4.355   2.125   0.465
  590SOL    HW1 2669   4.350   2.043   0.407
  590SOL    HW2 2670   4.447   2.164   0.460
  591SOL     OW 2671   3.229   6.245   4.234
  591SOL    HW1 2672   3.146   6.203   4.196
  591SOL    HW2 2673   3.205   6.301   4.313
  592SOL     OW 2674   3.874   2.200   4.285
  592SOL    HW1 2675   3.928   2.240   4.360
  592SOL    HW2 2676   3.777   2.200   4.310
  593SOL     OW 2677   2.933   2.016   6.568
  593SOL    HW1 2678   2.855   2.032   6.507
  593SOL    HW2 2679   3.000   2.090   6.556
  594SOL     OW 2680   4.984   1.096   1.758
  594SOL    HW1 2681   4.950   1.175   1.809
  594SOL    HW2 2682   5.041   1.039   1.818
  595SOL     OW 2683   5.639   5.695   2.678
  595SOL    HW1 2684   5.706   5.657   2.742
  595SOL    HW2 2685   5.659   5.792   2.663
  596SOL     OW 2686   6.498   4.989   4.102
  596SOL    HW1 2687   6.455   5.061   4.047
  596SOL    HW2 2688   6.596   4.987   4.083
  597SOL     OW 2689   2.468   0.650   6.623
  597SOL    HW1 2690   2.457   0.748   6.602
  597SOL    HW2 2691   2.409   0.626   6.700
  598SOL     OW 2692   2.936   3.303   4.654
  598SOL    HW1 2693   3.008   3.265   4.596
  598SOL    HW2 2694   2.855   3.322   4.598
  599SOL     OW 2695   1.067   4.818   1.880
  599SOL    HW1 2696   1.035   4.728   1.849
  599SOL    HW2 2697   1.135   4.853   1.816
  600SOL     OW 2698   6.672   3.770   5.095
  600SOL    HW1 2699   6.655   3.674   5.075
  600SOL    HW2 2700   6.771   3.786   5.104
  601SOL     OW 2701   1.626   6.579   5.071
  601SOL    HW1 2702   1.624   6.581   5.171
  601SOL    HW2 2703   1.549   6.524   5.037
  602SOL     OW 2704   2.262   0.016   3.788
  602SOL    HW1 2705   2.285   6.946   3.779
  602SOL    HW2 2706   2.205   0.029   3.869
  603SOL     OW 2707   1.478   1.700   5.335
  603SOL    HW1 2708   1.474   1.628   5.266
  603SOL    HW2 2709   1.401   1.762   5.322
  604SOL     OW 2710   6.663   2.250   1.926
  604SOL    HW1 2711   6.749   2.205   1.952
  604SOL    HW2 2712   6.587   2.201   1.969
  605SOL     OW 2713   6.852   6.379   1.820
  605SOL    HW1 2714   6.904   6.437   1.757
  605SOL    HW2 2715   6.914   6.339   1.887
  606SOL     OW 2716   3.879   6.622   4.566
  606SOL    HW1 2717   3.874   6.528   4.601
  606SOL    HW2 2718   3.792   6.669   4.583
  607SOL     OW 2719   1.454   4.332   6.089
  607SOL    HW1 2720   1.379   4.290   6.141
  607SOL    HW2 2721   1.496   4.263   6.029
  608SOL     OW 2722   2.935   1.103   5.654
  608SOL    HW1 2723   2.923   1.198   5.624
  608SOL    HW2 2724   2.853   1.051   5.631
  609SOL     OW 2725   3.482   2.758   2.035
  609SOL    HW1 2726   3.388   2.746   2.003
  609SOL    HW2 2727   3.537   2.679   2.007
  610SOL     OW 2728   5.204   3.800   1.230
  610SOL    HW1 2729   5.185   3.703   1.241
  610SOL    HW2 2730   5.186   3.827   1.136
  611SOL     OW 2731   3.711   0.208   2.720
  611SOL    HW1 2732   3.666   0.119   2.711
  611SOL    HW2 2733   3.679   0.269   2.648
  612SOL     OW 2734   3.966   4.688   5.207
  612SOL    HW1 2735   3.955   4.763   5.142
  612SOL    HW2 2736   3.884   4.680   5.264
  613SOL     OW 2737   4.695   5.022   5.445
  613SOL    HW1 2738   4.607   5.031   5.399
  613SOL    HW2 2739   4.727   4.928   5.439
  614SOL     OW 2740   3.761   5.352   5.603
  614SOL    HW1 2741   3.790   5.388   5.514
  614SOL    HW2 2742   3.663   5.364   5.613
  615SOL     OW 2743   0.745   4.765   2.380
  615SOL    HW1 2744   0.678   4.704   2.338
  615SOL    HW2 2745   0.832   4.759   2.331
  616SOL     OW 2746   6.418   3.744   3.632
  616SOL    HW1 2747   6.472   3.823   3.662
  616SOL    HW2 2748   6.479   3.669   3.608
  617SOL     OW 2749   3.399   5.700   6.361
  617SOL    HW1 2750   3.425   5.606   6.380
  617SOL    HW2 2751   3.352   5.738   6.441
  618SOL     OW 2752   1.557   1.112   2.415
  618SOL    HW1 2753   1.582   1.207   2.431
  618SOL    HW2 2754   1.638   1.059   2.392
  619SOL     OW 2755   0.824   0.991   0.130
  619SOL    HW1 2756   0.874   1.071   0.160
  619SOL    HW2 2757   0.772   1.012   0.047
  620SOL     OW 2758   4.878   3.773   1.134
  620SOL    HW1 2759   4.938   3.839   1.090
  620SOL    HW2 2760   4.865   3.798   1.230
  621SOL     OW 2761   0.725   4.918   1.744
  621SOL    HW1 2762   0.797   4.864   1.701
  621SOL    HW2 2763   0.699   4.993   1.683
  622SOL     OW 2764   1.005   0.161   0.303
  622SOL    HW1 2765   1.096   0.129   0.277
  622SOL    HW2 2766   0.942   0.147   0.227
  623SOL     OW 2767   0.707   4.744   6.660
  623SOL    HW1 2768   0.640   4.677   6.630
  623SOL    HW2 2769   0.799   4.703   6.659
  624SOL     OW 2770   0.560   2.314   1.966
  624SOL    HW1 2771   0.657   2.339   1.967
  624SOL    HW2 2772   0.510   2.373   2.029
  625SOL     OW 2773   2.508   1.314   1.790
  625SOL    HW1 2774   2.434   1.324   1.857
  625SOL    HW2 2775   2.472   1.332   1.699
  626SOL     OW 2776   2.944   6.542   4.384
  626SOL    HW1 2777   2.933   6.622   4.326
  626SOL    HW2 2778   3.040   6.516   4.388
  627SOL     OW 2779   4.827   0.963   0.160
  627SOL    HW1 2780   4.878   0.938   0.077
  627SOL    HW2 2781   4.731   0.937   0.149
  628SOL     OW 2782   5.130   4.074   3.765
  628SOL    HW1 2783   5.204   4.046   3.704
  628SOL    HW2 2784   5.137   4.024   3.851
  629SOL     OW 2785   1.436   6.180   0.568
  629SOL    HW1 2786   1.441   6.278   0.586
  629SOL    HW2 2787   1.450   6.163   0.471
  630SOL     OW 2788   3.735   2.026   1.280
  630SOL    HW1 2789   3.731   2.039   1.379
  630SOL    HW2 2790   3.826   1.993   1.254
  631SOL     OW 2791   2.197   6.790   5.251
  631SOL    HW1 2792   2.214   6.694   5.228
  631SOL    HW2 2793   2.256   6.817   5.327
  632SOL     OW 2794   1.939   1.406   1.170
  632SOL    HW1 2795   2.027   1.413   1.218
  632SOL    HW2 2796   1.911   1.497   1.140
  633SOL     OW 2797   2.474   0.136   6.258
  633SOL    HW1 2798   2.433   0.131   6.167
  633SOL    HW2 2799   2.536   0.213   6.262
  634SOL     OW 2800   3.664   6.193   0.311
  634SOL    HW1 2801   3.680   6.284   0.274
  634SOL    HW2 2802   3.750   6.143   0.317
  635SOL     OW 2803   2.645   0.480   2.786
  635SOL    HW1 2804   2.684   0.422   2.714
  635SOL    HW2 2805   2.710   0.552   2.809
  636SOL     OW 2806   5.328   5.012   0.102
  636SOL    HW1 2807   5.269   4.985   0.178
  636SOL    HW2 2808   5.405   4.949   0.095
  637SOL     OW 2809   4.914   4.163   0.931
  637SOL    HW1 2810   4.970   4.126   0.857
  637SOL    HW2 2811   4.848   4.229   0.894
  638SOL     OW 2812   5.198   1.382   2.339
  638SOL    HW1 2813   5.112   1.358   2.385
  638SOL    HW2 2814   5.264   1.414   2.407
  639SOL     OW 2815   4.337   4.724   2.113
  639SOL    HW1 2816   4.374   4.632   2.129
  639SOL    HW2 2817   4.252   4.716   2.061
  640SOL     OW 2818   2.841   4.233   5.997
  640SOL    HW1 2819   2.940   4.219   5.999
  640SOL    HW2 2820   2.819   4.300   5.926
  641SOL     OW 2821   6.646   5.817   4.728
  641SOL    HW1 2822   6.671   5.774   4.642
  641SOL    HW2 2823   6.645   5.748   4.801
  642SOL     OW 2824   1.460   5.141   5.577
  642SOL    HW1 2825   1.558   5.157   5.564
  642SOL    HW2 2826   1.441   5.132   5.675
  643SOL     OW 2827   5.492   6.409   4.997
  643SOL    HW1 2828   5.394   6.424   5.011
  643SOL    HW2 2829   5.536   6.397   5.086
  644SOL     OW 2830   1.635   6.133   2.195
  644SOL    HW1 2831   1.687   6.049   2.184
  644SOL    HW2 2832   1.695   6.206   2.227
  645SOL     OW 2833   6.017   3.186   3.318
  645SOL    HW1 2834   6.037   3.092   3.343
  645SOL    HW2 2835   6.009   3.242   3.401
  646SOL     OW 2836   1.637   1.905   4.692
  646SOL    HW1 2837   1.564   1.904   4.760
  646SOL    HW2 2838   1.725   1.919   4.738
  647SOL     OW 2839   5.683   3.270   0.573
  647SOL    HW1 2840   5.689   3.265   0.673
  647SOL    HW2 2841   5.721   3.186   0.534
  648SOL     OW 2842   5.948   2.387   2.502
  648SOL    HW1 2843   5.863   2.387   2.556
  648SOL    HW2 2844   5.935   2.331   2.420
  649SOL     OW 2845   4.219   5.067   1.307
  649SOL    HW1 2846   4.312   5.072   1.344
  649SOL    HW2 2847   4.194   4.971   1.294
  650SOL     OW 2848   4.551   3.889   1.074
  650SOL    HW1 2849   4.615   3.919   1.144
  650SOL    HW2 2850   4.550   3.789   1.069
  651SOL     OW 2851   0.782   5.405   6.249
  651SOL    HW1 2852   0.786   5.488   6.194
  651SOL    HW2 2853   0.691   5.396   6.289
  652SOL     OW 2854   3.805   1.098   2.847
  652SOL    HW1 2855   3.808   1.185   2.897
  652SOL    HW2 2856   3.723   1.047   2.874
  653SOL     OW 2857   3.925   5.069   3.484
  653SOL    HW1 2858   3.981   5.125   3.545
  653SOL    HW2 2859   3.973   4.983   3.465
  654SOL     OW 2860   6.331   4.811   0.366
  654SOL    HW1 2861   6.307   4.733   0.309
  654SOL    HW2 2862   6.360   4.887   0.308
  655SOL     OW 2863   0.967   1.028   0.504
  655SOL    HW1 2864   0.867   1.027   0.501
  655SOL    HW2 2865   1.003   0.953   0.449
  656SOL     OW 2866   2.863   6.433   2.276
  656SOL    HW1 2867   2.836   6.529   2.286
  656SOL    HW2 2868   2.795   6.385   2.222
  657SOL     OW 2869   3.347   1.645   6.633
  657SOL    HW1 2870   3.427   1.705   6.625
  657SOL    HW2 2871   3.267   1.691   6.595
  658SOL     OW 2872   3.604   5.054   6.120
  658SOL    HW1 2873   3.523   5.018   6.073
  658SOL    HW2 2874   3.684   5.000   6.094
  659SOL     OW 2875   2.773   0.128   6.887
  659SOL    HW1 2876   2.713   0.206   6.867
  659SOL    HW2 2877   2.724   0.063   6.945
  660SOL     OW 2878   3.712   5.660   3.395
  660SOL    HW1 2879   3.796   5.715   3.394
  660SOL    HW2 2880   3.653   5.689   3.319
  661SOL     OW 2881   5.519   5.309   3.094
  661SOL    HW1 2882   5.528   5.409   3.084
  661SOL    HW2 2883   5.572   5.264   3.023
  662SOL     OW 2884   3.635   1.280   0.386
  662SOL    HW1 2885   3.658   1.343   0.460
  662SOL    HW2 2886   3.669   1.317   0.299
  663SOL     OW 2887   2.336   4.586   5.091
  663SOL    HW1 2888   2.327   4.658   5.159
  663SOL    HW2 2889   2.346   4.497   5.137
  664SOL     OW 2890   6.479   1.118   6.982
  664SOL    HW1 2891   6.544   1.194   6.978
  664SOL    HW2 2892   6.501   1.059   0.032
  665SOL     OW 2893   2.366   5.469   2.768
  665SOL    HW1 2894   2.411   5.486   2.680
  665SOL    HW2 2895   2.403   5.385   2.808
  666SOL     OW 2896   3.886   0.942   1.820
  666SOL    HW1 2897   3.965   0.894   1.783
  666SOL    HW2 2898   3.877   1.031   1.776
  667SOL     OW 2899   1.159   6.785   2.694
  667SOL    HW1 2900   1.189   6.817   2.784
  667SOL    HW2 2901   1.133   6.689   2.700
  668SOL     OW 2902   5.382   3.650   0.714
  668SOL    HW1 2903   5.303   3.607   0.670
  668SOL    HW2 2904   5.418   3.590   0.785
  669SOL     OW 2905   5.150   1.596   2.636
  669SOL    HW1 2906   5.239   1.566   2.670
  669SOL    HW2 2907   5.111   1.524   2.578
  670SOL     OW 2908   2.740   2.048   3.124
  670SOL    HW1 2909   2.717   1.968   3.069
  670SOL    HW2 2910   2.768   2.123   3.064
  671SOL     OW 2911   3.492   6.817   1.341
  671SOL    HW1 2912   3.392   6.817   1.348
  671SOL    HW2 2913   3.529   6.737   1.389
  672SOL     OW 2914   1.356   6.720   2.492
  672SOL    HW1 2915   1.351   6.755   2.398
  672SOL    HW2 2916   1.290   6.768   2.549
  673SOL     OW 2917   5.742   6.620   0.046
  673SOL    HW1 2918   5.770   6.577   6.987
  673SOL    HW2 2919   5.673   6.689   0.028
  674SOL     OW 2920   7.000   1.141   4.109
  674SOL    HW1 2921   0.033   1.062   4.115
  674SOL    HW2 2922   6.950   1.151   4.195
  675SOL     OW 2923   6.268   2.904   2.708
  675SOL    HW1 2924   6.199   2.977   2.701
  675SOL    HW2 2925   6.257   2.840   2.632
  676SOL     OW 2926   2.108   5.786   6.071
  676SOL    HW1 2927   2.161   5.846   6.131
  676SOL    HW2 2928   2.112   5.693   6.107
  677SOL     OW 2929   5.160   1.326   0.909
  677SOL    HW1 2930   5.169   1.267   0.990
  677SOL    HW2 2931   5.171   1.270   0.826
  678SOL     OW 2932   1.927   4.746   4.680
  678SOL    HW1 2933   1.845   4.697   4.653
  678SOL    HW2 2934   1.917   4.781   4.773
  679SOL     OW 2935   5.604   1.404   5.276
  679SOL    HW1 2936   5.580   1.459   5.356
  679SOL    HW2 2937   5.559   1.315   5.282
  680SOL     OW 2938   4.883   0.186   3.947
  680SOL    HW1 2939   4.861   0.284   3.952
  680SOL    HW2 2940   4.816   0.134   3.999
  681SOL     OW 2941   4.415   4.906   2.631
  681SOL    HW1 2942   4.439   4.928   2.536
  681SOL    HW2 2943   4.336   4.960   2.658
  682SOL     OW 2944   0.787   0.948   3.260
  682SOL    HW1 2945   0.757   0.864   3.214
  682SOL    HW2 2946   0.784   0.934   3.359
  683SOL     OW 2947   4.173   3.498   1.025
  683SOL    HW1 2948   4.098   3.432   1.024
  683SOL    HW2 2949   4.251   3.458   1.074
  684SOL     OW 2950   6.677   0.796   6.497
  684SOL    HW1 2951   6.688   0.845   6.583
  684SOL    HW2 2952   6.692   0.698   6.512
  685SOL     OW 2953   3.444   0.544   2.821
  685SOL    HW1 2954   3.520   0.527   2.759
  685SOL    HW2 2955   3.364   0.490   2.792
  686SOL     OW 2956   4.656   0.290   4.858
  686SOL    HW1 2957   4.660   0.195   4.889
  686SOL    HW2 2958   4.703   0.349   4.924
  687SOL     OW 2959   1.000   2.059   3.841
  687SOL    HW1 2960   1.036   2.076   3.933
  687SOL    HW2 2961   1.070   2.014   3.786
  688SOL     OW 2962   6.704   1.175   6.695
  688SOL    HW1 2963   6.723   1.228   6.777
  688SOL    HW2 2964   6.609   1.190   6.668
  689SOL     OW 2965   1.418   5.355   5.955
  689SOL    HW1 2966   1.506   5.363   6.002
  689SOL    HW2 2967   1.386   5.445   5.929
  690SOL     OW 2968   5.871   3.335   2.697
  690SOL    HW1 2969   5.791   3.285   2.729
  690SOL    HW2 2970   5.855   3.368   2.604
  691SOL     OW 2971   5.417   1.403   0.798
  691SOL    HW1 2972   5.404   1.304   0.792
  691SOL    HW2 2973   5.335   1.444   0.839
  692SOL     OW 2974   2.309   0.618   4.951
  692SOL    HW1 2975   2.244   0.590   5.021
  692SOL    HW2 2976   2.265   0.618   4.861
  693SOL     OW 2977   5.329   5.692   3.876
  693SOL    HW1 2978   5.422   5.701   3.912
  693SOL    HW2 2979   5.326   5.722   3.781
  694SOL     OW 2980   4.443   6.318   5.383
  694SOL    HW1 2981   4.507   6.323   5.307
  694SOL    HW2 2982   4.409   6.224   5.392
  695SOL     OW 2983   3.077   0.626   4.004
  695SOL    HW1 2984   3.027   0.621   4.090
  695SOL    HW2 2985   3.044   0.704   3.951
  696SOL     OW 2986   5.154   4.529   3.282
  696SOL    HW1 2987   5.085   4.555   3.215
  696SOL    HW2 2988   5.174   4.606   3.342
  697SOL     OW 2989   0.896   5.909   2.219
  697SOL    HW1 2990   0.813   5.962   2.238
  697SOL    HW2 2991   0.970   5.940   2.277
  698SOL     OW 2992   5.738   6.514   0.279
  698SOL    HW1 2993   5.824   6.463   0.281
  698SOL    HW2 2994   5.732   6.565   0.193
  699SOL     OW 2995   2.797   2.677   0.786
  699SOL    HW1 2996   2.754   2.588   0.772
  699SOL    HW2 2997   2.831   2.683   0.880
  700SOL     OW 2998   3.230   0.678   3.177
  700SOL    HW1 2999   3.262   0.763   3.221
  700SOL    HW2 3000   3.232   0.604   3.244
  701SOL     OW 3001   5.883   5.110   1.447
  701SOL    HW1 3002   5.794   5.155   1.455
  701SOL    HW2 3003   5.879   5.041   1.374
  702SOL     OW 3004   3.274   1.008   4.342
  702SOL    HW1 3005   3.265   1.038   4.247
  702SOL    HW2 3006   3.278   1.087   4.402
  703SOL     OW 3007   2.866   2.141   6.265
  703SOL    HW1 3008   2.924   2.133   6.184
  703SOL    HW2 3009   2.778   2.098   6.248
  704SOL     OW 3010   1.375   2.576   5.685
  704SOL    HW1 3011   1.367   2.476   5.689
  704SOL    HW2 3012   1.448   2.601   5.621
  705SOL     OW 3013   0.341   6.452   5.240
  705SOL    HW1 3014   0.245   6.434   5.262
  705SOL    HW2 3015   0.399   6.420   5.314
  706SOL     OW 3016   4.563   1.132   5.273
  706SOL    HW1 3017   4.544   1.106   5.178
  706SOL    HW2 3018   4.583   1.229   5.279
  707SOL     OW 3019   3.643   4.955   3.955
  707SOL    HW1 3020   3.594   5.028   3.907
  707SOL    HW2 3021   3.578   4.897   4.003
  708SOL     OW 3022   3.877   6.889   3.783
  708SOL    HW1 3023   3.923   6.923   3.701
  708SOL    HW2 3024   3.906   6.943   3.862
  709SOL     OW 3025   2.844   0.202   1.695
  709SOL    HW1 3026   2.849   0.107   1.725
  709SOL    HW2 3027   2.866   0.262   1.772
  710SOL     OW 3028   4.675   2.792   1.825
  710SOL    HW1 3029   4.725   2.761   1.744
  710SOL    HW2 3030   4.663   2.891   1.822
  711SOL     OW 3031   0.150   2.222   6.268
  711SOL    HW1 3032   0.239   2.177   6.277
  711SOL    HW2 3033   0.125   2.263   6.355
  712SOL     OW 3034   5.334   4.177   0.798
  712SOL    HW1 3035   5.378   4.258   0.760
  712SOL    HW2 3036   5.383   4.095   0.768
  713SOL     OW 3037   4.104   2.761   5.300
  713SOL    HW1 3038   4.180   2.776   5.363
  713SOL    HW2 3039   4.106   2.667   5.266
  714SOL     OW 3040   5.133   5.178   3.338
  714SOL    HW1 3041   5.043   5.203   3.302
  714SOL    HW2 3042   5.175   5.110   3.279
  715SOL     OW 3043   6.704   5.300   5.431
  715SOL    HW1 3044   6.615   5.279   5.391
  715SOL    HW2 3045   6.757   5.216   5.440
  716SOL     OW 3046   2.152   2.024   2.635
  716SOL    HW1 3047   2.134   2.080   2.716
  716SOL    HW2 3048   2.067   2.015   2.583
  717SOL     OW 3049   5.158   4.431   4.538
  717SOL    HW1 3050   5.208   4.514   4.565
  717SOL    HW2 3051   5.128   4.440   4.443
  718SOL     OW 3052   5.959   1.736   5.167
  718SOL    HW1 3053   5.928   1.822   5.127
  718SOL    HW2 3054   6.044   1.750   5.216
  719SOL     OW 3055   5.348   0.282   3.366
  719SOL    HW1 3056   5.262   0.298   3.414
  719SOL    HW2 3057   5.328   0.254   3.272
  720SOL     OW 3058   2.518   1.689   0.312
  720SOL    HW1 3059   2.594   1.727   0.364
  720SOL    HW2 3060   2.486   1.606   0.357
  721SOL     OW 3061   0.416   1.552   3.259
  721SOL    HW1 3062   0.513   1.532   3.249
  721SOL    HW2 3063   0.392   1.632   3.204
  722SOL     OW 3064   4.367   6.577   0.340
  722SOL    HW1 3065   4.432   6.505   0.316
  722SOL    HW2 3066   4.274   6.547   0.321
  723SOL     OW 3067   2.431   5.637   3.641
  723SOL    HW1 3068   2.478   5.662   3.726
  723SOL    HW2 3069   2.475   5.684   3.564
  724SOL     OW 3070   1.050   1.441   4.401
  724SOL    HW1 3071   1.058   1.423   4.499
  724SOL    HW2 3072   1.139   1.468   4.364
  725SOL     OW 3073   1.370   3.610   2.731
  725SOL    HW1 3074   1.277   3.595   2.765
  725SOL    HW2 3075   1.367   3.663   2.647
  726SOL     OW 3076   1.793   4.436   0.610
  726SOL    HW1 3077   1.877   4.401   0.651
  726SOL    HW2 3078   1.715   4.414   0.670
  727SOL     OW 3079   4.578   5.832   5.355
  727SOL    HW1 3080   4.666   5.857   5.395
  727SOL    HW2 3081   4.541   5.753   5.402
  728SOL     OW 3082   6.604   3.596   4.149
  728SOL    HW1 3083   6.576   3.503   4.127
  728SOL    HW2 3084   6.696   3.612   4.114
  729SOL     OW 3085   0.697   3.881   1.657
  729SOL    HW1 3086   0.597   3.874   1.659
  729SOL    HW2 3087   0.737   3.804   1.707
  730SOL     OW 3088   4.708   0.870   3.263
  730SOL    HW1 3089   4.740   0.873   3.357
  730SOL    HW2 3090   4.764   0.932   3.207
  731SOL     OW 3091   4.383   5.119   6.308
  731SOL    HW1 3092   4.424   5.203   6.273
  731SOL    HW2 3093   4.360   5.059   6.231
  732SOL     OW 3094   4.732   1.608   4.464
  732SOL    HW1 3095   4.680   1.526   4.444
  732SOL    HW2 3096   4.827   1.595   4.435
  733SOL     OW 3097   6.235   6.494   3.159
  733SOL    HW1 3098   6.166   6.444   3.107
  733SOL    HW2 3099   6.195   6.576   3.199
  734SOL     OW 3100   6.194   6.315   2.602
  734SOL    HW1 3101   6.186   6.410   2.572
  734SOL    HW2 3102   6.128   6.259   2.553
  735SOL     OW 3103   4.803   0.612   2.645
  735SOL    HW1 3104   4.732   0.680   2.662
  735SOL    HW2 3105   4.822   0.563   2.730
  736SOL     OW 3106   1.603   1.845   4.182
  736SOL    HW1 3107   1.547   1.860   4.264
  736SOL    HW2 3108   1.547   1.859   4.100
  737SOL     OW 3109   4.711   1.256   6.741
  737SOL    HW1 3110   4.616   1.236   6.719
  737SOL    HW2 3111   4.763   1.170   6.745
  738SOL     OW 3112   2.044   4.275   1.178
  738SOL    HW1 3113   2.056   4.340   1.103
  738SOL    HW2 3114   2.042   4.324   1.265
  739SOL     OW 3115   2.823   6.889   4.616
  739SOL    HW1 3116   2.770   6.907   4.533
  739SOL    HW2 3117   2.905   6.947   4.616
  740SOL     OW 3118   5.381   3.579   2.710
  740SOL    HW1 3119   5.445   3.621   2.774
  740SOL    HW2 3120   5.356   3.488   2.743
  741SOL     OW 3121   2.499   0.889   3.140
  741SOL    HW1 3122   2.409   0.887   3.182
  741SOL    HW2 3123   2.543   0.800   3.150
  742SOL     OW 3124   1.825   6.726   1.886
  742SOL    HW1 3125   1.855   6.687   1.973
  742SOL    HW2 3126   1.824   6.826   1.894
  743SOL     OW 3127   0.798   6.370   3.410
  743SOL    HW1 3128   0.701   6.349   3.400
  743SOL    HW2 3129   0.811   6.432   3.487
  744SOL     OW 3130   4.422   1.883   0.096
  744SOL    HW1 3131   4.467   1.952   0.039
  744SOL    HW2 3132   4.473   1.798   0.091
  745SOL     OW 3133   2.605   6.502   5.130
  745SOL    HW1 3134   2.658   6.585   5.112
  745SOL    HW2 3135   2.637   6.429   5.068
  746SOL     OW 3136   6.801   4.616   5.563
  746SOL    HW1 3137   6.884   4.605   5.617
  746SOL    HW2 3138   6.726   4.644   5.622
  747SOL     OW 3139   5.029   5.912   3.150
  747SOL    HW1 3140   5.074   6.000   3.166
  747SOL    HW2 3141   4.950   5.925   3.090
  748SOL     OW 3142   5.599   5.413   2.074
  748SOL    HW1 3143   5.522   5.447   2.128
  748SOL    HW2 3144   5.604   5.314   2.082
  749SOL     OW 3145   4.844   3.676   3.736
  749SOL    HW1 3146   4.775   3.638   3.674
  749SOL    HW2 3147   4.840   3.775   3.734
  750SOL     OW 3148   2.416   2.244   1.639
  750SOL    HW1 3149   2.467   2.164   1.671
  750SOL    HW2 3150   2.450   2.271   1.549
  751SOL     OW 3151   4.458   0.083   0.177
  751SOL    HW1 3152   4.451   7.011   0.171
  751SOL    HW2 3153   4.522   0.107   0.250
  752SOL     OW 3154   3.564   2.309   5.409
  752SOL    HW1 3155   3.468   2.327   5.428
  752SOL    HW2 3156   3.572   2.237   5.340
  753SOL     OW 3157   3.720   3.562   4.860
  753SOL    HW1 3158   3.719   3.655   4.898
  753SOL    HW2 3159   3.701   3.497   4.933
  754SOL     OW 3160   5.783   0.144   0.246
  754SOL    HW1 3161   5.747   0.160   0.154
  754SOL    HW2 3162   5.724   0.189   0.313
  755SOL     OW 3163   4.119   4.499   5.347
  755SOL    HW1 3164   4.159   4.438   5.279
  755SOL    HW2 3165   4.077   4.577   5.300
  756SOL     OW 3166   2.225   5.263   6.116
  756SOL    HW1 3167   2.318   5.282   6.084
  756SOL    HW2 3168   2.177   5.207   6.048
  757SOL     OW 3169   2.497   6.321   2.746
  757SOL    HW1 3170   2.538   6.284   2.829
  757SOL    HW2 3171   2.445   6.249   2.699
  758SOL     OW 3172   3.148   1.248   3.742
  758SOL    HW1 3173   3.186   1.228   3.651
  758SOL    HW2 3174   3.060   1.202   3.752
  759SOL     OW 3175   0.383   2.721   4.144
  759SOL    HW1 3176   0.424   2.630   4.139
  759SOL    HW2 3177   0.389   2.755   4.238
  760SOL     OW 3178   6.219   5.277   3.283
  760SOL    HW1 3179   6.217   5.375   3.262
  760SOL    HW2 3180   6.310   5.251   3.314
  761SOL     OW 3181   3.933   3.286   5.974
  761SOL    HW1 3182   3.985   3.273   6.058
  761SOL    HW2 3183   3.875   3.207   5.957
  762SOL     OW 3184   3.431   5.605   4.139
  762SOL    HW1 3185   3.455   5.684   4.082
  762SOL    HW2 3186   3.389   5.535   4.081
  763SOL     OW 3187   5.923   0.568   0.169
  763SOL    HW1 3188   5.958   0.639   0.107
  763SOL    HW2 3189   6.000   0.519   0.210
  764SOL     OW 3190   5.573   0.443   5.500
  764SOL    HW1 3191   5.491   0.447   5.557
  764SOL    HW2 3192   5.604   0.348   5.493
  765SOL     OW 3193   6.502   6.455   0.681
  765SOL    HW1 3194   6.551   6.450   0.593
  765SOL    HW2 3195   6.444   6.537   0.681
  766SOL     OW 3196   2.385   2.052   5.053
  766SOL    HW1 3197   2.356   1.972   5.001
  766SOL    HW2 3198   2.351   2.135   5.008
  767SOL     OW 3199   7.011   6.081   4.509
  767SOL    HW1 3200   0.068   6.077   4.564
  767SOL    HW2 3201   6.973   5.989   4.501
  768SOL     OW 3202   2.140   5.315   2.281
  768SOL    HW1 3203   2.121   5.224   2.318
  768SOL    HW2 3204   2.061   5.374   2.298
  769SOL     OW 3205   2.688   2.365   4.690
  769SOL    HW1 3206   2.676   2.305   4.769
  769SOL    HW2 3207   2.763   2.429   4.709
  770SOL     OW 3208   1.358   4.528   5.441
  770SOL    HW1 3209   1.350   4.628   5.446
  770SOL    HW2 3210   1.452   4.504   5.416
  771SOL     OW 3211   1.054   5.786   3.438
  771SOL    HW1 3212   1.003   5.871   3.423
  771SOL    HW2 3213   1.146   5.796   3.400
  772SOL     OW 3214   5.661   4.149   0.712
  772SOL    HW1 3215   5.687   4.053   0.717
  772SOL    HW2 3216   5.731   4.200   0.660
  773SOL     OW 3217   0.765   3.738   3.362
  773SOL    HW1 3218   0.700   3.666   3.390
  773SOL    HW2 3219   0.853   3.696   3.339
  774SOL     OW 3220   1.993   0.354   3.035
  774SOL    HW1 3221   2.008   0.257   3.014
  774SOL    HW2 3222   1.901   0.366   3.071
  775SOL     OW 3223   1.953   4.838   2.606
  775SOL    HW1 3224   1.864   4.822   2.563
  775SOL    HW2 3225   1.958   4.934   2.635
  776SOL     OW 3226   3.074   5.122   6.756
  776SOL    HW1 3227   3.052   5.048   6.693
  776SOL    HW2 3228   3.092   5.206   6.704
  777SOL     OW 3229   2.141   4.065   0.205
  777SOL    HW1 3230   2.156   4.016   0.291
  777SOL    HW2 3231   2.212   4.039   0.140
  778SOL     OW 3232   3.179   6.785   1.273
  778SOL    HW1 3233   3.113   6.855   1.245
  778SOL    HW2 3234   3.155   6.751   1.364
  779SOL     OW 3235   7.022   2.032   3.623
  779SOL    HW1 3236   0.065   2.096   3.593
  779SOL    HW2 3237   6.936   2.052   3.576
  780SOL     OW 3238   0.641   1.852   4.149
  780SOL    HW1 3239   0.729   1.806   4.134
  780SOL    HW2 3240   0.595   1.864   4.062
  781SOL     OW 3241   0.653   4.472   0.186
  781SOL    HW1 3242   0.641   4.453   0.088
  781SOL    HW2 3243   0.592   4.413   0.239
  782SOL     OW 3244   1.754   3.493   5.143
  782SOL    HW1 3245   1.822   3.463   5.210
  782SOL    HW2 3246   1.718   3.583   5.169
  783SOL     OW 3247   6.483   4.933   6.337
  783SOL    HW1 3248   6.571   4.979   6.348
  783SOL    HW2 3249   6.491   4.862   6.267
  784SOL     OW 3250   2.825   6.237   0.675
  784SOL    HW1 3251   2.820   6.205   0.581
  784SOL    HW2 3252   2.872   6.169   0.731
  785SOL     OW 3253   1.284   6.778   4.544
  785SOL    HW1 3254   1.280   6.868   4.587
  785SOL    HW2 3255   1.258   6.708   4.611
  786SOL     OW 3256   6.719   1.128   3.661
  786SOL    HW1 3257   6.774   1.166   3.736
  786SOL    HW2 3258   6.737   1.179   3.577
  787SOL     OW 3259   2.455   0.206   0.863
  787SOL    HW1 3260   2.520   0.261   0.916
  787SOL    HW2 3261   2.496   0.183   0.774
  788SOL     OW 3262   2.525   2.296   1.402
  788SOL    HW1 3263   2.624   2.286   1.398
  788SOL    HW2 3264   2.502   2.393   1.407
  789SOL     OW 3265   4.285   4.917   1.672
  789SOL    HW1 3266   4.275   4.847   1.743
  789SOL    HW2 3267   4.355   4.888   1.606
  790SOL     OW 3268   0.538   2.249   2.623
  790SOL    HW1 3269   0.496   2.339   2.614
  790SOL    HW2 3270   0.588   2.244   2.710
  791SOL     OW 3271   2.907   5.536   4.411
  791SOL    HW1 3272   2.953   5.615   4.451
  791SOL    HW2 3273   2.818   5.523   4.454
  792SOL     OW 3274   1.589   0.859   0.483
  792SOL    HW1 3275   1.500   0.819   0.506
  792SOL    HW2 3276   1.577   0.932   0.417
  793SOL     OW 3277   2.424   5.892   3.916
  793SOL    HW1 3278   2.488   5.876   3.841
  793SOL    HW2 3279   2.331   5.901   3.879
  794SOL     OW 3280   3.398   3.170   2.953
  794SOL    HW1 3281   3.318   3.112   2.969
  794SOL    HW2 3282   3.467   3.117   2.903
  795SOL     OW 3283   3.619   0.517   6.248
  795SOL    HW1 3284   3.678   0.467   6.311
  795SOL    HW2 3285   3.651   0.612   6.241
  796SOL     OW 3286   1.373   3.169   6.971
  796SOL    HW1 3287   1.448   3.106   6.953
  796SOL    HW2 3288   1.408   3.263   6.974
  797SOL     OW 3289   4.991   6.979   0.846
  797SOL    HW1 3290   4.928   6.970   0.923
  797SOL    HW2 3291   4.945   6.953   0.761
  798SOL     OW 3292   4.368   6.452   0.635
  798SOL    HW1 3293   4.352   6.497   0.547
  798SOL    HW2 3294   4.283   6.411   0.667
  799SOL     OW 3295   2.049   2.273   5.565
  799SOL    HW1 3296   1.976   2.320   5.615
  799SOL    HW2 3297   2.123   2.252   5.629
  800SOL     OW 3298   6.068   3.118   2.657
  800SOL    HW1 3299   6.011   3.200   2.667
  800SOL    HW2 3300   6.018   3.050   2.603
  801SOL     OW 3301   2.190   5.527   5.689
  801SOL    HW1 3302   2.140   5.605   5.726
  801SOL    HW2 3303   2.129   5.448   5.685
  802SOL     OW 3304   5.293   2.839   6.347
  802SOL    HW1 3305   5.289   2.821   6.248
  802SOL    HW2 3306   5.368   2.787   6.387
  803SOL     OW 3307   2.464   1.166   5.017
  803SOL    HW1 3308   2.507   1.220   5.089
  803SOL    HW2 3309   2.370   1.197   5.004
  804SOL     OW 3310   5.422   0.530   2.500
  804SOL    HW1 3311   5.375   0.539   2.412
  804SOL    HW2 3312   5.371   0.581   2.570
  805SOL     OW 3313   3.589   0.726   3.295
  805SOL    HW1 3314   3.649   0.763   3.366
  805SOL    HW2 3315   3.528   0.797   3.261
  806SOL     OW 3316   2.235   5.921   6.257
  806SOL    HW1 3317   2.198   6.014   6.256
  806SOL    HW2 3318   2.331   5.923   6.232
  807SOL     OW 3319   1.149   5.970   6.098
  807SOL    HW1 3320   1.124   6.065   6.078
  807SOL    HW2 3321   1.132   5.950   6.194
  808SOL     OW 3322   5.733   3.366   6.954
  808SOL    HW1 3323   5.698   3.318   0.007
  808SOL    HW2 3324   5.659   3.383   6.890
  809SOL     OW 3325   2.212   4.640   6.975
  809SOL    HW1 3326   2.213   4.685   6.885
  809SOL    HW2 3327   2.280   4.567   6.975
  810SOL     OW 3328   3.622   3.314   6.906
  810SOL    HW1 3329   3.542   3.254   6.903
  810SOL    HW2 3330   3.680   3.296   6.827
  811SOL     OW 3331   5.842   4.911   4.466
  811SOL    HW1 3332   5.858   5.006   4.438
  811SOL    HW2 3333   5.779   4.910   4.544
  812SOL     OW 3334   0.654   3.136   2.142
  812SOL    HW1 3335   0.696   3.104   2.227
  812SOL    HW2 3336   0.640   3.235   2.147
  813SOL     OW 3337   1.137   2.098   4.386
  813SOL    HW1 3338   1.196   2.098   4.305
  813SOL    HW2 3339   1.055   2.152   4.366
  814SOL     OW 3340   0.413   4.851   3.162
  814SOL    HW1 3341   0.473   4.888   3.232
  814SOL    HW2 3342   0.442   4.884   3.072
  815SOL     OW 3343   4.765   1.855   4.305
  815SOL    HW1 3344   4.746   1.786   4.375
  815SOL    HW2 3345   4.859   1.845   4.273
  816SOL     OW 3346   5.364   4.693   6.455
  816SOL    HW1 3347   5.328   4.778   6.492
  816SOL    HW2 3348   5.290   4.627   6.443
  817SOL     OW 3349   1.258   4.153   6.847
  817SOL    HW1 3350   1.178   4.100   6.820
  817SOL    HW2 3351   1.229   4.227   6.908
  818SOL     OW 3352   6.393   2.252   4.700
  818SOL    HW1 3353   6.321   2.188   4.672
  818SOL    HW2 3354   6.478   2.227   4.654
  819SOL     OW 3355   4.988   2.475   1.771
  819SOL    HW1 3356   4.906   2.418   1.771
  819SOL    HW2 3357   4.974   2.554   1.831
  820SOL     OW 3358   2.147   2.198   4.675
  820SOL    HW1 3359   2.200   2.195   4.760
  820SOL    HW2 3360   2.174   2.121   4.617
  821SOL     OW 3361   5.306   3.452   5.714
  821SOL    HW1 3362   5.341   3.449   5.808
  821SOL    HW2 3363   5.382   3.463   5.650
  822SOL     OW 3364   0.581   4.219   3.267
  822SOL    HW1 3365   0.544   4.244   3.178
  822SOL    HW2 3366   0.554   4.288   3.335
  823SOL     OW 3367   0.837   3.393   5.718
  823SOL    HW1 3368   0.855   3.409   5.621
  823SOL    HW2 3369   0.923   3.390   5.768
  824SOL     OW 3370   5.930   1.050   5.856
  824SOL    HW1 3371   5.835   1.075   5.873
  824SOL    HW2 3372   5.986   1.132   5.849
  825SOL     OW 3373   6.212   5.532   1.094
  825SOL    HW1 3374   6.259   5.465   1.152
  825SOL    HW2 3375   6.279   5.577   1.034
  826SOL     OW 3376   3.860   1.775   6.795
  826SOL    HW1 3377   3.944   1.796   6.745
  826SOL    HW2 3378   3.798   1.853   6.791
  827SOL     OW 3379   3.985   3.980   4.937
  827SOL    HW1 3380   4.036   3.986   5.023
  827SOL    HW2 3381   4.020   4.047   4.873
  828SOL     OW 3382   6.271   6.035   5.634
  828SOL    HW1 3383   6.361   6.078   5.637
  828SOL    HW2 3384   6.215   6.068   5.710
  829SOL     OW 3385   3.240   3.480   2.563
  829SOL    HW1 3386   3.311   3.551   2.569
  829SOL    HW2 3387   3.232   3.434   2.651
  830SOL     OW 3388   6.295   4.458   0.183
  830SOL    HW1 3389   6.226   4.523   0.214
  830SOL    HW2 3390   6.346   4.425   0.262
  831SOL     OW 3391   4.527   0.023   1.296
  831SOL    HW1 3392   4.488   0.009   1.387
  831SOL    HW2 3393   4.567   0.115   1.290
  832SOL     OW 3394   2.800   1.994   4.796
  832SOL    HW1 3395   2.857   2.076   4.801
  832SOL    HW2 3396   2.729   2.007   4.726
  833SOL     OW 3397   2.651   2.059   6.446
  833SOL    HW1 3398   2.651   2.159   6.452
  833SOL    HW2 3399   2.601   2.020   6.523
  834SOL     OW 3400   5.522   3.302   0.182
  834SOL    HW1 3401   5.501   3.378   0.120
  834SOL    HW2 3402   5.439   3.271   0.227
  835SOL     OW 3403   0.569   0.059   4.092
  835SOL    HW1 3404   0.663   0.037   4.065
  835SOL    HW2 3405   0.523   0.107   4.018
  836SOL     OW 3406   3.701   1.228   4.494
  836SOL    HW1 3407   3.631   1.300   4.487
  836SOL    HW2 3408   3.735   1.206   4.402
  837SOL     OW 3409   1.828   0.693   0.497
  837SOL    HW1 3410   1.842   0.613   0.556
  837SOL    HW2 3411   1.734   0.725   0.506
  838SOL     OW 3412   1.723   5.171   3.751
  838SOL    HW1 3413   1.739   5.254   3.698
  838SOL    HW2 3414   1.685   5.196   3.841
  839SOL     OW 3415   1.116   1.891   0.322
  839SOL    HW1 3416   1.168   1.964   0.279
  839SOL    HW2 3417   1.177   1.816   0.347
  840SOL     OW 3418   5.385   5.170   6.654
  840SOL    HW1 3419   5.457   5.239   6.647
  840SOL    HW2 3420   5.416   5.095   6.713
  841SOL     OW 3421   3.310   4.552   6.821
  841SOL    HW1 3422   3.225   4.597   6.793
  841SOL    HW2 3423   3.385   4.583   6.763
  842SOL     OW 3424   3.678   6.266   6.957
  842SOL    HW1 3425   3.580   6.246   6.958
  842SOL    HW2 3426   3.724   6.203   6.894
  843SOL     OW 3427   1.372   1.344   2.139
  843SOL    HW1 3428   1.311   1.283   2.190
  843SOL    HW2 3429   1.320   1.390   2.067
  844SOL     OW 3430   6.241   0.753   1.363
  844SOL    HW1 3431   6.171   0.719   1.426
  844SOL    HW2 3432   6.213   0.736   1.269
  845SOL     OW 3433   3.563   0.892   2.212
  845SOL    HW1 3434   3.528   0.975   2.255
  845SOL    HW2 3435   3.517   0.878   2.124
  846SOL     OW 3436   2.735   1.778   0.486
  846SOL    HW1 3437   2.690   1.797   0.574
  846SOL    HW2 3438   2.730   1.860   0.428
  847SOL     OW 3439   2.803   4.273   1.219
  847SOL    HW1 3440   2.794   4.182   1.261
  847SOL    HW2 3441   2.891   4.312   1.244
  848SOL     OW 3442   6.921   5.825   0.395
  848SOL    HW1 3443   6.870   5.787   0.318
  848SOL    HW2 3444   6.863   5.825   0.477
  849SOL     OW 3445   5.945   3.686   6.619
  849SOL    HW1 3446   6.003   3.730   6.687
  849SOL    HW2 3447   6.000   3.661   6.539
  850SOL     OW 3448   0.847   0.649   5.164
  850SOL    HW1 3449   0.838   0.633   5.065
  850SOL    HW2 3450   0.941   0.630   5.192
  851SOL     OW 3451   6.373   3.333   6.120
  851SOL    HW1 3452   6.301   3.264   6.121
  851SOL    HW2 3453   6.437   3.313   6.045
  852SOL     OW 3454   0.683   4.136   2.300
  852SOL    HW1 3455   0.759   4.083   2.260
  852SOL    HW2 3456   0.597   4.106   2.260
  853SOL     OW 3457   2.584   2.916   6.826
  853SOL    HW1 3458   2.624   2.969   6.751
  853SOL    HW2 3459   2.622   2.823   6.826
  854SOL     OW 3460   5.657   6.794   6.525
  854SOL    HW1 3461   5.720   6.720   6.546
  854SOL    HW2 3462   5.605   6.772   6.443
  855SOL     OW 3463   5.835   1.367   7.014
  855SOL    HW1 3464   5.928   1.340   0.013
  855SOL    HW2 3465   5.837   1.460   6.977
  856SOL     OW 3466   2.049   6.108   0.737
  856SOL    HW1 3467   2.057   6.013   0.707
  856SOL    HW2 3468   1.958   6.125   0.773
  857SOL     OW 3469   6.361   5.357   5.628
  857SOL    HW1 3470   6.319   5.432   5.577
  857SOL    HW2 3471   6.437   5.319   5.575
  858SOL     OW 3472   4.550   3.330   0.309
  858SOL    HW1 3473   4.463   3.369   0.277
  858SOL    HW2 3474   4.593   3.394   0.373
  859SOL     OW 3475   4.599   6.351   5.604
  859SOL    HW1 3476   4.557   6.334   5.514
  859SOL    HW2 3477   4.595   6.449   5.625
  860SOL     OW 3478   5.407   3.449   5.998
  860SOL    HW1 3479   5.350   3.431   6.078
  860SOL    HW2 3480   5.474   3.376   5.987
  861SOL     OW 3481   2.342   5.962   2.275
  861SOL    HW1 3482   2.422   6.021   2.286
  861SOL    HW2 3483   2.336   5.931   2.181
  862SOL     OW 3484   0.557   3.933   3.384
  862SOL    HW1 3485   0.639   3.876   3.380
  862SOL    HW2 3486   0.584   4.030   3.378
  863SOL     OW 3487   6.975   0.608   0.194
  863SOL    HW1 3488   6.970   0.532   0.259
  863SOL    HW2 3489   6.971   0.695   0.244
  864SOL     OW 3490   5.640   7.017   4.670
  864SOL    HW1 3491   5.641   0.088   4.652
  864SOL    HW2 3492   5.693   6.998   4.753
  865SOL     OW 3493   1.869   6.433   4.992
  865SOL    HW1 3494   1.832   6.440   4.899
  865SOL    HW2 3495   1.818   6.494   5.053
  866SOL     OW 3496   3.451   6.362   1.940
  866SOL    HW1 3497   3.354   6.353   1.962
  866SOL    HW2 3498   3.475   6.459   1.935
  867SOL     OW 3499   5.727   2.328   6.641
  867SOL    HW1 3500   5.773   2.408   6.677
  867SOL    HW2 3501   5.656   2.356   6.576
  868SOL     OW 3502   7.003   1.957   2.406
  868SOL    HW1 3503   0.069   1.928   2.384
  868SOL    HW2 3504   7.005   2.016   2.487
  869SOL     OW 3505   6.874   3.988   3.487
  869SOL    HW1 3506   6.844   3.899   3.454
  869SOL    HW2 3507   6.795   4.048   3.497
  870SOL     OW 3508   3.742   5.122   2.035
  870SOL    HW1 3509   3.737   5.055   1.961
  870SOL    HW2 3510   3.655   5.123   2.085
  871SOL     OW 3511   4.105   1.901   3.134
  871SOL    HW1 3512   4.096   1.890   3.233
  871SOL    HW2 3513   4.137   1.815   3.094
  872SOL     OW 3514   6.955   3.006   5.260
  872SOL    HW1 3515   6.895   3.085   5.252
  872SOL    HW2 3516   6.903   2.923   5.238
  873SOL     OW 3517   4.960   6.636   6.158
  873SOL    HW1 3518   4.958   6.720   6.105
  873SOL    HW2 3519   5.003   6.653   6.247
  874SOL     OW 3520   4.676   4.391   0.497
  874SOL    HW1 3521   4.593   4.374   0.551
  874SOL    HW2 3522   4.691   4.489   0.489
  875SOL     OW 3523   5.468   5.493   0.508
  875SOL    HW1 3524   5.528   5.523   0.582
  875SOL    HW2 3525   5.454   5.394   0.515
  876SOL     OW 3526   6.880   6.580   1.232
  876SOL    HW1 3527   6.850   6.539   1.318
  876SOL    HW2 3528   6.876   6.679   1.240
  877SOL     OW 3529   2.868   3.673   6.660
  877SOL    HW1 3530   2.843   3.634   6.749
  877SOL    HW2 3531   2.914   3.603   6.605
  878SOL     OW 3532   4.088   6.462   4.086
  878SOL    HW1 3533   4.046   6.501   4.168
  878SOL    HW2 3534   4.035   6.384   4.054
  879SOL     OW 3535   6.061   0.399   0.844
  879SOL    HW1 3536   6.036   0.471   0.779
  879SOL    HW2 3537   5.979   0.371   0.896
  880SOL     OW 3538   3.037   3.031   2.598
  880SOL    HW1 3539   3.024   3.120   2.641
  880SOL    HW2 3540   2.972   2.966   2.637
  881SOL     OW 3541   4.158   1.723   6.809
  881SOL    HW1 3542   4.117   1.786   6.875
  881SOL    HW2 3543   4.241   1.684   6.849
  882SOL     OW 3544   1.202   3.599   4.274
  882SOL    HW1 3545   1.190   3.514   4.325
  882SOL    HW2 3546   1.249   3.666   4.332
  883SOL     OW 3547   2.871   0.347   2.627
  883SOL    HW1 3548   2.907   0.282   2.560
  883SOL    HW2 3549   2.944   0.409   2.655
  884SOL     OW 3550   4.734   3.297   5.715
  884SOL    HW1 3551   4.755   3.312   5.618
  884SOL    HW2 3552   4.637   3.316   5.731
  885SOL     OW 3553   3.921   2.477   6.182
  885SOL    HW1 3554   3.822   2.459   6.178
  885SOL    HW2 3555   3.950   2.521   6.097
  886SOL     OW 3556   3.518   0.209   6.923
  886SOL    HW1 3557   3.509   0.284   6.989
  886SOL    HW2 3558   3.441   0.147   6.932
  887SOL     OW 3559   4.358   1.564   4.094
  887SOL    HW1 3560   4.341   1.663   4.092
  887SOL    HW2 3561   4.457   1.548   4.095
  888SOL     OW 3562   6.788   6.991   3.392
  888SOL    HW1 3563   6.782   0.063   3.384
  888SOL    HW2 3564   6.795   6.950   3.300
  889SOL     OW 3565   0.901   3.480   6.870
  889SOL    HW1 3566   0.875   3.570   6.835
  889SOL    HW2 3567   0.991   3.486   6.913
  890SOL     OW 3568   2.690   5.374   3.995
  890SOL    HW1 3569   2.680   5.286   3.948
  890SOL    HW2 3570   2.749   5.434   3.940
  891SOL     OW 3571   5.984   5.667   0.821
  891SOL    HW1 3572   5.955   5.594   0.884
  891SOL    HW2 3573   6.060   5.718   0.862
  892SOL     OW 3574   2.900   4.741   6.300
  892SOL    HW1 3575   2.884   4.684   6.219
  892SOL    HW2 3576   2.824   4.730   6.364
  893SOL     OW 3577   2.676   6.807   2.933
  893SOL    HW1 3578   2.636   6.899   2.929
  893SOL    HW2 3579   2.700   6.777   2.841
  894SOL     OW 3580   1.613   3.806   1.514
  894SOL    HW1 3581   1.655   3.726   1.471
  894SOL    HW2 3582   1.514   3.796   1.513
  895SOL     OW 3583   0.560   6.248   3.327
  895SOL    HW1 3584   0.534   6.252   3.230
  895SOL    HW2 3585   0.484   6.209   3.379
  896SOL     OW 3586   6.371   6.407   5.354
  896SOL    HW1 3587   6.297   6.412   5.288
  896SOL    HW2 3588   6.425   6.324   5.339
  897SOL     OW 3589   5.624   0.588   6.501
  897SOL    HW1 3590   5.583   0.675   6.529
  897SOL    HW2 3591   5.560   0.514   6.520
  898SOL     OW 3592   4.060   6.024   3.078
  898SOL    HW1 3593   4.044   5.930   3.109
  898SOL    HW2 3594   4.096   6.078   3.153
  899SOL     OW 3595   6.971   4.958   6.639
  899SOL    HW1 3596   6.926   4.884   6.590
  899SOL    HW2 3597   6.919   5.043   6.628
  900SOL     OW 3598   5.644   6.097   0.765
  900SOL    HW1 3599   5.653   6.122   0.668
  900SOL    HW2 3600   5.689   6.009   0.780
  901SOL     OW 3601   1.398   1.082   2.080
  901SOL    HW1 3602   1.467   1.020   2.118
  901SOL    HW2 3603   1.415   1.175   2.113
  902SOL     OW 3604   6.393   4.352   1.459
  902SOL    HW1 3605   6.335   4.345   1.378
  902SOL    HW2 3606   6.476   4.403   1.437
  903SOL     OW 3607   6.563   2.590   0.308
  903SOL    HW1 3608   6.486   2.531   0.334
  903SOL    HW2 3609   6.575   2.662   0.376
  904SOL     OW 3610   3.053   1.834   2.818
  904SOL    HW1 3611   3.039   1.932   2.828
  904SOL    HW2 3612   3.076   1.813   2.723
  905SOL     OW 3613   5.893   2.514   6.781
  905SOL    HW1 3614   5.885   2.508   6.881
  905SOL    HW2 3615   5.940   2.599   6.757
  906SOL     OW 3616   6.530   3.289   6.555
  906SOL    HW1 3617   6.520   3.367   6.493
  906SOL    HW2 3618   6.534   3.321   6.650
  907SOL     OW 3619   4.987   3.622   6.761
  907SOL    HW1 3620   5.017   3.528   6.775
  907SOL    HW2 3621   4.922   3.648   6.832
  908SOL     OW 3622   2.746   4.709   2.540
  908SOL    HW1 3623   2.778   4.746   2.453
  908SOL    HW2 3624   2.680   4.636   2.524
  909SOL     OW 3625   5.349   4.996   6.441
  909SOL    HW1 3626   5.440   4.980   6.403
  909SOL    HW2 3627   5.355   5.064   6.514
  910SOL     OW 3628   2.724   3.273   1.304
  910SOL    HW1 3629   2.709   3.269   1.403
  910SOL    HW2 3630   2.639   3.249   1.257
  911SOL     OW 3631   1.243   5.447   6.521
  911SOL    HW1 3632   1.194   5.423   6.437
  911SOL    HW2 3633   1.215   5.387   6.595
  912SOL     OW 3634   4.936   2.143   2.870
  912SOL    HW1 3635   5.003   2.182   2.933
  912SOL    HW2 3636   4.910   2.052   2.902
  913SOL     OW 3637   5.024   0.092   3.380
  913SOL    HW1 3638   5.057   0.011   3.428
  913SOL    HW2 3639   5.026   0.076   3.282
  914SOL     OW 3640   2.690   6.977   0.056
  914SOL    HW1 3641   2.733   6.893   0.092
  914SOL    HW2 3642   2.592   6.961   0.043
  915SOL     OW 3643   6.116   5.843   0.557
  915SOL    HW1 3644   6.152   5.932   0.585
  915SOL    HW2 3645   6.054   5.856   0.479
  916SOL     OW 3646   0.863   2.411   2.295
  916SOL    HW1 3647   0.827   2.341   2.357
  916SOL    HW2 3648   0.928   2.370   2.233
  917SOL     OW 3649   6.906   0.121   0.421
  917SOL    HW1 3650   6.828   0.145   0.479
  917SOL    HW2 3651   6.978   0.080   0.478
  918SOL     OW 3652   1.791   5.319   0.766
  918SOL    HW1 3653   1.879   5.317   0.719
  918SOL    HW2 3654   1.804   5.347   0.861
  919SOL     OW 3655   5.383   1.634   4.473
  919SOL    HW1 3656   5.483   1.644   4.472
  919SOL    HW2 3657   5.348   1.655   4.564
  920SOL     OW 3658   2.871   4.748   2.264
  920SOL    HW1 3659   2.968   4.749   2.286
  920SOL    HW2 3660   2.854   4.685   2.188
  921SOL     OW 3661   5.037   5.764   4.651
  921SOL    HW1 3662   5.007   5.755   4.745
  921SOL    HW2 3663   5.137   5.771   4.649
  922SOL     OW 3664   4.164   3.627   3.692
  922SOL    HW1 3665   4.121   3.678   3.617
  922SOL    HW2 3666   4.147   3.674   3.778
  923SOL     OW 3667   2.233   3.359   5.868
  923SOL    HW1 3668   2.140   3.379   5.838
  923SOL    HW2 3669   2.295   3.360   5.790
  924SOL     OW 3670   0.252   3.806   2.739
  924SOL    HW1 3671   0.251   3.820   2.640
  924SOL    HW2 3672   0.344   3.783   2.770
  925SOL     OW 3673   5.738   1.784   0.365
  925SOL    HW1 3674   5.714   1.788   0.462
  925SOL    HW2 3675   5.655   1.787   0.309
  926SOL     OW 3676   0.452   1.495   2.046
  926SOL    HW1 3677   0.433   1.571   1.985
  926SOL    HW2 3678   0.535   1.447   2.015
  927SOL     OW 3679   5.783   4.066   3.628
  927SOL    HW1 3680   5.763   4.164   3.621
  927SOL    HW2 3681   5.879   4.053   3.653
  928SOL     OW 3682   3.010   5.346   0.201
  928SOL    HW1 3683   3.102   5.326   0.235
  928SOL    HW2 3684   3.000   5.308   0.109
  929SOL     OW 3685   6.773   1.604   5.484
  929SOL    HW1 3686   6.710   1.534   5.452
  929SOL    HW2 3687   6.865   1.565   5.490
  930SOL     OW 3688   5.485   5.314   5.733
  930SOL    HW1 3689   5.416   5.253   5.772
  930SOL    HW2 3690   5.478   5.404   5.774
  931SOL     OW 3691   6.257   2.591   2.916
  931SOL    HW1 3692   6.309   2.673   2.941
  931SOL    HW2 3693   6.246   2.532   2.996
  932SOL     OW 3694   3.530   0.379   3.537
  932SOL    HW1 3695   3.530   0.431   3.622
  932SOL    HW2 3696   3.441   0.335   3.525
  933SOL     OW 3697   1.468   5.015   2.090
  933SOL    HW1 3698   1.440   5.029   1.995
  933SOL    HW2 3699   1.563   4.984   2.093
  934SOL     OW 3700   1.864   4.651   6.444
  934SOL    HW1 3701   1.795   4.607   6.502
  934SOL    HW2 3702   1.821   4.682   6.359
  935SOL     OW 3703   5.562   3.325   3.989
  935SOL    HW1 3704   5.488   3.259   3.979
  935SOL    HW2 3705   5.647   3.286   3.953
  936SOL     OW 3706   1.624   0.200   6.542
  936SOL    HW1 3707   1.555   0.272   6.538
  936SOL    HW2 3708   1.615   0.150   6.628
  937SOL     OW 3709   4.917   1.467   5.840
  937SOL    HW1 3710   4.915   1.420   5.752
  937SOL    HW2 3711   4.977   1.418   5.903
  938SOL     OW 3712   5.513   5.839   4.269
  938SOL    HW1 3713   5.595   5.800   4.226
  938SOL    HW2 3714   5.432   5.794   4.232
  939SOL     OW 3715   0.407   6.793   5.231
  939SOL    HW1 3716   0.485   6.764   5.286
  939SOL    HW2 3717   0.352   6.714   5.205
  940SOL     OW 3718   2.049   5.141   0.376
  940SOL    HW1 3719   2.131   5.194   0.355
  940SOL    HW2 3720   1.979   5.201   0.416
  941SOL     OW 3721   3.128   0.505   6.683
  941SOL    HW1 3722   3.148   0.433   6.617
  941SOL    HW2 3723   3.035   0.492   6.719
  942SOL     OW 3724   0.482   5.051   0.460
  942SOL    HW1 3725   0.548   5.106   0.409
  942SOL    HW2 3726   0.498   5.062   0.558
  943SOL     OW 3727   2.582   5.734   3.155
  943SOL    HW1 3728   2.527   5.758   3.235
  943SOL    HW2 3729   2.545   5.779   3.074
  944SOL     OW 3730   0.260   6.865   4.348
  944SOL    HW1 3731   0.304   6.954   4.334
  944SOL    HW2 3732   0.319   6.808   4.405
  945SOL     OW 3733   0.912   5.602   6.896
  945SOL    HW1 3734   0.833   5.540   6.898
  945SOL    HW2 3735   0.896   5.673   6.828
  946SOL     OW 3736   4.837   3.078   3.427
  946SOL    HW1 3737   4.809   3.110   3.517
  946SOL    HW2 3738   4.853   3.157   3.367
  947SOL     OW 3739   3.649   4.158   4.403
  947SOL    HW1 3740   3.724   4.091   4.395
  947SOL    HW2 3741   3.614   4.179   4.312
  948SOL     OW 3742   4.062   0.552   2.717
  948SOL    HW1 3743   4.061   0.623   2.646
  948SOL    HW2 3744   3.978   0.559   2.771
  949SOL     OW 3745   2.724   6.662   6.220
  949SOL    HW1 3746   2.701   6.758   6.201
  949SOL    HW2 3747   2.723   6.647   6.319
  950SOL     OW 3748   0.177   6.792   2.020
  950SOL    HW1 3749   0.160   6.777   2.117
  950SOL    HW2 3750   0.263   6.842   2.008
  951SOL     OW 3751   2.382   6.927   3.539
  951SOL    HW1 3752   2.340   7.015   3.514
  951SOL    HW2 3753   2.311   6.858   3.548
  952SOL     OW 3754   3.374   1.133   1.896
  952SOL    HW1 3755   3.382   1.174   1.987
  952SOL    HW2 3756   3.413   1.196   1.828
  953SOL     OW 3757   6.076   4.607   5.625
  953SOL    HW1 3758   6.067   4.677   5.555
  953SOL    HW2 3759   6.143   4.538   5.595
  954SOL     OW 3760   4.888   6.237   2.321
  954SOL    HW1 3761   4.866   6.333   2.336
  954SOL    HW2 3762   4.863   6.183   2.402
  955SOL     OW 3763   1.501   4.852   6.834
  955SOL    HW1 3764   1.569   4.822   6.902
  955SOL    HW2 3765   1.409   4.838   6.870
  956SOL     OW 3766   5.793   0.598   1.286
  956SOL    HW1 3767   5.742   0.682   1.268
  956SOL    HW2 3768   5.729   0.524   1.307
  957SOL     OW 3769   5.832   1.872   3.297
  957SOL    HW1 3770   5.742   1.850   3.334
  957SOL    HW2 3771   5.902   1.825   3.350
  958SOL     OW 3772   5.248   0.071   1.735
  958SOL    HW1 3773   5.195   0.133   1.676
  958SOL    HW2 3774   5.187   0.030   1.803
  959SOL     OW 3775   4.358   6.396   4.214
  959SOL    HW1 3776   4.309   6.402   4.301
  959SOL    HW2 3777   4.297   6.422   4.139
  960SOL     OW 3778   1.045   0.005   0.006
  960SOL    HW1 3779   0.953   0.034   0.031
  960SOL    HW2 3780   1.078   6.965   0.073
  961SOL     OW 3781   3.762   6.946   2.961
  961SOL    HW1 3782   3.681   6.898   2.928
  961SOL    HW2 3783   3.735   0.008   2.997
  962SOL     OW 3784   6.486   0.382   5.370
  962SOL    HW1 3785   6.449   0.429   5.450
  962SOL    HW2 3786   6.411   0.345   5.315
  963SOL     OW 3787   5.836   3.196   1.073
  963SOL    HW1 3788   5.839   3.102   1.039
  963SOL    HW2 3789   5.928   3.234   1.075
  964SOL     OW 3790   4.899   4.355   5.293
  964SOL    HW1 3791   4.960   4.423   5.253
  964SOL    HW2 3792   4.938   4.264   5.279
  965SOL     OW 3793   6.057   2.847   3.678
  965SOL    HW1 3794   6.130   2.785   3.705
  965SOL    HW2 3795   5.968   2.802   3.688
  966SOL     OW 3796   4.668   2.146   4.388
  966SOL    HW1 3797   4.669   2.104   4.297
  966SOL    HW2 3798   4.588   2.114   4.438
  967SOL     OW 3799   5.160   4.047   6.145
  967SOL    HW1 3800   5.061   4.042   6.132
  967SOL    HW2 3801   5.187   3.995   6.226
  968SOL     OW 3802   3.399   0.939   1.591
  968SOL    HW1 3803   3.489   0.946   1.635
  968SOL    HW2 3804   3.369   0.844   1.593
  969SOL     OW 3805   3.748   4.350   5.963
  969SOL    HW1 3806   3.659   4.326   5.924
  969SOL    HW2 3807   3.808   4.382   5.890
  970SOL     OW 3808   6.354   0.177   6.072
  970SOL    HW1 3809   6.381   0.266   6.110
  970SOL    HW2 3810   6.297   0.128   6.139
  971SOL     OW 3811   5.752   4.687   2.371
  971SOL    HW1 3812   5.779   4.722   2.461
  971SOL    HW2 3813   5.668   4.633   2.381
  972SOL     OW 3814   0.080   3.099   0.786
  972SOL    HW1 3815   0.136   3.140   0.714
  972SOL    HW2 3816   0.137   3.043   0.845
  973SOL     OW 3817   6.741   3.514   6.198
  973SOL    HW1 3818   6.755   3.601   6.152
  973SOL    HW2 3819   6.746   3.526   6.297
  974SOL     OW 3820   7.017   5.152   3.773
  974SOL    HW1 3821   0.061   5.110   3.718
  974SOL    HW2 3822   6.961   5.211   3.716
  975SOL     OW 3823   2.637   6.877   1.959
  975SOL    HW1 3824   2.721   6.832   1.988
  975SOL    HW2 3825   2.593   6.824   1.887
  976SOL     OW 3826   6.412   3.216   3.059
  976SOL    HW1 3827   6.329   3.167   3.032
  976SOL    HW2 3828   6.387   3.291   3.120
  977SOL     OW 3829   0.396   0.893   2.559
  977SOL    HW1 3830   0.484   0.935   2.540
  977SOL    HW2 3831   0.385   0.812   2.500
  978SOL     OW 3832   5.744   3.356   1.900
  978SOL    HW1 3833   5.753   3.278   1.837
  978SOL    HW2 3834   5.648   3.385   1.903
  979SOL     OW 3835   0.664   4.039   6.568
  979SOL    HW1 3836   0.639   4.131   6.537
  979SOL    HW2 3837   0.641   3.972   6.497
  980SOL     OW 3838   3.113   1.524   4.707
  980SOL    HW1 3839   3.194   1.551   4.656
  980SOL    HW2 3840   3.046   1.598   4.706
  981SOL     OW 3841   6.683   6.422   5.134
  981SOL    HW1 3842   6.731   6.418   5.221
  981SOL    HW2 3843   6.632   6.508   5.128
  982SOL     OW 3844   6.388   0.844   5.526
  982SOL    HW1 3845   6.292   0.818   5.517
  982SOL    HW2 3846   6.416   0.837   5.622
  983SOL     OW 3847   0.210   4.929   4.675
  983SOL    HW1 3848   0.308   4.930   4.654
  983SOL    HW2 3849   0.162   4.875   4.606
  984SOL     OW 3850   0.799   2.442   3.255
  984SOL    HW1 3851   0.789   2.487   3.166
  984SOL    HW2 3852   0.853   2.358   3.244
  985SOL     OW 3853   6.446   4.469   5.114
  985SOL    HW1 3854   6.535   4.453   5.074
  985SOL    HW2 3855   6.457   4.495   5.210
  986SOL     OW 3856   5.422   5.021   1.158
  986SOL    HW1 3857   5.413   5.089   1.085
  986SOL    HW2 3858   5.480   4.946   1.127
  987SOL     OW 3859   5.261   4.846   4.022
  987SOL    HW1 3860   5.215   4.901   4.092
  987SOL    HW2 3861   5.348   4.888   3.998
  988SOL     OW 3862   2.713   4.501   1.434
  988SOL    HW1 3863   2.751   4.583   1.391
  988SOL    HW2 3864   2.778   4.426   1.426
  989SOL     OW 3865   0.575   1.719   1.015
  989SOL    HW1 3866   0.499   1.770   0.974
  989SOL    HW2 3867   0.607   1.649   0.951
  990SOL     OW 3868   3.505   0.405   3.911
  990SOL    HW1 3869   3.595   0.368   3.933
  990SOL    HW2 3870   3.492   0.491   3.961
  991SOL     OW 3871   0.158   5.087   3.500
  991SOL    HW1 3872   0.157   5.053   3.406
  991SOL    HW2 3873   0.177   5.185   3.500
  992SOL     OW 3874   0.447   2.703   1.117
  992SOL    HW1 3875   0.430   2.774   1.049
  992SOL    HW2 3876   0.539   2.667   1.104
  993SOL     OW 3877   1.133   5.202   0.355
  993SOL    HW1 3878   1.049   5.195   0.302
  993SOL    HW2 3879   1.204   5.245   0.299
  994SOL     OW 3880   3.237   6.400   6.832
  994SOL    HW1 3881   3.324   6.365   6.796
  994SOL    HW2 3882   3.217   6.488   6.789
  995SOL     OW 3883   5.967   3.603   5.538
  995SOL    HW1 3884   6.034   3.678   5.537
  995SOL    HW2 3885   5.896   3.620   5.470
  996SOL     OW 3886   3.675   6.202   5.941
  996SOL    HW1 3887   3.600   6.250   5.897
  996SOL    HW2 3888   3.761   6.225   5.895
  997SOL     OW 3889   1.796   6.237   4.054
  997SOL    HW1 3890   1.824   6.176   3.980
  997SOL    HW2 3891   1.862   6.229   4.130
  998SOL     OW 3892   6.471   0.583   6.615
  998SOL    HW1 3893   6.376   0.593   6.585
  998SOL    HW2 3894   6.475   0.521   6.693
  999SOL     OW 3895   4.702   4.262   2.469
  999SOL    HW1 3896   4.628   4.327   2.452
  999SOL    HW2 3897   4.702   4.237   2.566
 1000SOL     OW 3898   4.187   2.177   1.182
 1000SOL    HW1 3899   4.286   2.190   1.182
 1000SOL    HW2 3900   4.143   2.257   1.142
 1001SOL     OW 3901   3.604   6.411   2.340
 1001SOL    HW1 3902   3.508   6.427   2.361
 1001SOL    HW2 3903   3.657   6.494   2.360
 1002SOL     OW 3904   5.236   2.206   1.243
 1002SOL    HW1 3905   5.302   2.209   1.318
 1002SOL    HW2 3906   5.162   2.271   1.262
 1003SOL     OW 3907   0.473   0.301   3.415
 1003SOL    HW1 3908   0.400   0.237   3.441
 1003SOL    HW2 3909   0.517   0.269   3.331
 1004SOL     OW 3910   5.437   1.933   3.632
 1004SOL    HW1 3911   5.385   1.855   3.666
 1004SOL    HW2 3912   5.453   1.997   3.707
 1005SOL     OW 3913   1.201   4.335   2.549
 1005SOL    HW1 3914   1.108   4.312   2.577
 1005SOL    HW2 3915   1.202   4.427   2.509
 1006SOL     OW 3916   2.934   3.727   1.002
 1006SOL    HW1 3917   2.912   3.783   1.082
 1006SOL    HW2 3918   2.884   3.640   1.008
 1007SOL     OW 3919   5.140   0.928   7.013
 1007SOL    HW1 3920   5.099   0.874   0.059
 1007SOL    HW2 3921   5.114   1.024   7.025
 1008SOL     OW 3922   6.871   4.758   5.035
 1008SOL    HW1 3923   6.894   4.661   5.024
 1008SOL    HW2 3924   6.933   4.801   5.100
 1009SOL     OW 3925   6.740   5.424   6.458
 1009SOL    HW1 3926   6.648   5.439   6.493
 1009SOL    HW2 3927   6.736   5.362   6.379
 1010SOL     OW 3928   2.801   3.234   0.875
 1010SOL    HW1 3929   2.777   3.156   0.933
 1010SOL    HW2 3930   2.868   3.291   0.922
 1011SOL     OW 3931   6.503   5.465   2.183
 1011SOL    HW1 3932   6.506   5.378   2.231
 1011SOL    HW2 3933   6.498   5.540   2.249
 1012SOL     OW 3934   4.611   0.355   3.362
 1012SOL    HW1 3935   4.667   0.291   3.309
 1012SOL    HW2 3936   4.550   0.404   3.301
 1013SOL     OW 3937   0.247   0.019   6.775
 1013SOL    HW1 3938   0.247   0.100   6.835
 1013SOL    HW2 3939   0.158   7.000   6.782
 1014SOL     OW 3940   0.927   4.792   4.717
 1014SOL    HW1 3941   0.905   4.698   4.741
 1014SOL    HW2 3942   0.970   4.837   4.795
 1015SOL     OW 3943   3.255   6.457   0.096
 1015SOL    HW1 3944   3.182   6.525   0.108
 1015SOL    HW2 3945   3.250   6.420   0.003
 1016SOL     OW 3946   6.291   4.381   1.716
 1016SOL    HW1 3947   6.316   4.381   1.619
 1016SOL    HW2 3948   6.211   4.323   1.731
 1017SOL     OW 3949   2.203   2.038   2.152
 1017SOL    HW1 3950   2.298   2.053   2.178
 1017SOL    HW2 3951   2.152   2.000   2.230
 1018SOL     OW 3952   6.656   6.042   3.675
 1018SOL    HW1 3953   6.599   5.975   3.630
 1018SOL    HW2 3954   6.752   6.012   3.672
 1019SOL     OW 3955   6.721   4.637   0.903
 1019SOL    HW1 3956   6.779   4.666   0.827
 1019SOL    HW2 3957   6.747   4.688   0.986
 1020SOL     OW 3958   6.406   0.889   0.715
 1020SOL    HW1 3959   6.461   0.961   0.672
 1020SOL    HW2 3960   6.467   0.827   0.764
 1021SOL     OW 3961   6.930   6.056   1.282
 1021SOL    HW1 3962   6.909   6.082   1.188
 1021SOL    HW2 3963   6.988   6.126   1.324
 1022SOL     OW 3964   2.351   5.896   0.004
 1022SOL    HW1 3965   2.347   5.965   6.959
 1022SOL    HW2 3966   2.316   5.809   6.997
 1023SOL     OW 3967   0.719   1.593   3.065
 1023SOL    HW1 3968   0.690   1.547   3.149
 1023SOL    HW2 3969   0.771   1.676   3.088
 1024SOL     OW 3970   1.868   2.173   4.636
 1024SOL    HW1 3971   1.835   2.169   4.541
 1024SOL    HW2 3972   1.967   2.163   4.637
 1025SOL     OW 3973   4.789   3.563   0.650
 1025SOL    HW1 3974   4.820   3.468   0.643
 1025SOL    HW2 3975   4.734   3.586   0.569
 1026SOL     OW 3976   3.161   2.729   0.854
 1026SOL    HW1 3977   3.213   2.764   0.932
 1026SOL    HW2 3978   3.129   2.805   0.798
 1027SOL     OW 3979   0.782   6.561   0.877
 1027SOL    HW1 3980   0.720   6.566   0.799
 1027SOL    HW2 3981   0.847   6.636   0.873
 1028SOL     OW 3982   1.578   6.029   2.842
 1028SOL    HW1 3983   1.520   6.025   2.761
 1028SOL    HW2 3984   1.531   5.988   2.920
 1029SOL     OW 3985   0.906   0.857   6.110
 1029SOL    HW1 3986   0.829   0.920   6.107
 1029SOL    HW2 3987   0.989   0.908   6.133
 1030SOL     OW 3988   3.593   3.111   1.208
 1030SOL    HW1 3989   3.596   3.024   1.258
 1030SOL    HW2 3990   3.610   3.186   1.271
 1031SOL     OW 3991   3.374   3.369   1.321
 1031SOL    HW1 3992   3.361   3.281   1.366
 1031SOL    HW2 3993   3.300   3.431   1.346
 1032SOL     OW 3994   2.346   2.119   6.141
 1032SOL    HW1 3995   2.404   2.200   6.143
 1032SOL    HW2 3996   2.359   2.066   6.225
 1033SOL     OW 3997   1.180   6.264   2.036
 1033SOL    HW1 3998   1.270   6.223   2.020
 1033SOL    HW2 3999   1.109   6.198   2.011
 1034SOL     OW 4000   3.231   0.109   4.068
 1034SOL    HW1 4001   3.268   0.017   4.071
 1034SOL    HW2 4002   3.205   0.138   4.160
 1035SOL     OW 4003   1.281   2.009   5.972
 1035SOL    HW1 4004   1.192   1.988   6.013
 1035SOL    HW2 4005   1.279   1.984   5.875
 1036SOL     OW 4006   5.240   1.797   1.176
 1036SOL    HW1 4007   5.337   1.820   1.162
 1036SOL    HW2 4008   5.193   1.800   1.088
 1037SOL     OW 4009   1.409   2.885   2.445
 1037SOL    HW1 4010   1.479   2.830   2.400
 1037SOL    HW2 4011   1.395   2.852   2.538
 1038SOL     OW 4012   2.887   6.357   0.111
 1038SOL    HW1 4013   2.924   6.449   0.128
 1038SOL    HW2 4014   2.819   6.335   0.181
 1039SOL     OW 4015   3.578   3.045   3.749
 1039SOL    HW1 4016   3.483   3.048   3.718
 1039SOL    HW2 4017   3.637   3.086   3.680
 1040SOL     OW 4018   3.731   0.728   3.064
 1040SOL    HW1 4019   3.688   0.745   3.153
 1040SOL    HW2 4020   3.802   0.796   3.048
 1041SOL     OW 4021   6.889   5.986   6.488
 1041SOL    HW1 4022   6.958   6.007   6.557
 1041SOL    HW2 4023   6.804   6.034   6.510
 1042SOL     OW 4024   5.412   4.924   2.792
 1042SOL    HW1 4025   5.500   4.888   2.823
 1042SOL    HW2 4026   5.426   4.976   2.708
 1043SOL     OW 4027   3.012   2.220   3.720
 1043SOL    HW1 4028   3.100   2.198   3.679
 1043SOL    HW2 4029   3.019   2.217   3.819
 1044SOL     OW 4030   5.363   4.968   1.834
 1044SOL    HW1 4031   5.389   5.025   1.911
 1044SOL    HW2 4032   5.412   4.999   1.752
 1045SOL     OW 4033   2.254   0.864   3.245
 1045SOL    HW1 4034   2.181   0.798   3.255
 1045SOL    HW2 4035   2.217   0.951   3.212
 1046SOL     OW 4036   3.072   1.326   0.903
 1046SOL    HW1 4037   3.038   1.297   0.813
 1046SOL    HW2 4038   3.052   1.423   0.916
 1047SOL     OW 4039   3.455   6.470   3.481
 1047SOL    HW1 4040   3.501   6.550   3.443
 1047SOL    HW2 4041   3.497   6.387   3.445
 1048SOL     OW 4042   1.534   6.528   2.312
 1048SOL    HW1 4043   1.443   6.510   2.273
 1048SOL    HW2 4044   1.559   6.452   2.373
 1049SOL     OW 4045   4.380   6.035   5.317
 1049SOL    HW1 4046   4.457   5.980   5.350
 1049SOL    HW2 4047   4.298   5.979   5.313
 1050SOL     OW 4048   3.187   5.225   2.956
 1050SOL    HW1 4049   3.210   5.260   2.865
 1050SOL    HW2 4050   3.181   5.301   3.021
 1051SOL     OW 4051   0.871   6.976   6.525
 1051SOL    HW1 4052   0.773   6.966   6.542
 1051SOL    HW2 4053   0.922   6.925   6.595
 1052SOL     OW 4054   3.705   0.870   0.069
 1052SOL    HW1 4055   3.613   0.832   0.077
 1052SOL    HW2 4056   3.758   0.815   0.004
 1053SOL     OW 4057   5.646   2.557   3.190
 1053SOL    HW1 4058   5.635   2.476   3.132
 1053SOL    HW2 4059   5.556   2.595   3.212
 1054SOL     OW 4060   3.080   4.880   6.121
 1054SOL    HW1 4061   3.033   4.963   6.090
 1054SOL    HW2 4062   3.018   4.828   6.180
 1055SOL     OW 4063   5.054   6.267   6.469
 1055SOL    HW1 4064   5.100   6.302   6.550
 1055SOL    HW2 4065   5.121   6.224   6.408
 1056SOL     OW 4066   2.850   3.851   6.423
 1056SOL    HW1 4067   2.819   3.801   6.504
 1056SOL    HW2 4068   2.813   3.807   6.341
 1057SOL     OW 4069   2.852   1.921   1.110
 1057SOL    HW1 4070   2.908   1.914   1.027
 1057SOL    HW2 4071   2.892   1.863   1.182
 1058SOL     OW 4072   2.225   2.691   2.451
 1058SOL    HW1 4073   2.285   2.766   2.477
 1058SOL    HW2 4074   2.204   2.697   2.354
 1059SOL     OW 4075   2.646   6.449   1.868
 1059SOL    HW1 4076   2.582   6.405   1.931
 1059SOL    HW2 4077   2.594   6.501   1.800
 1060SOL     OW 4078   5.756   6.311   5.434
 1060SOL    HW1 4079   5.706   6.342   5.515
 1060SOL    HW2 4080   5.854   6.313   5.453
 1061SOL     OW 4081   6.943   3.957   0.328
 1061SOL    HW1 4082   6.892   3.926   0.247
 1061SOL    HW2 4083   6.953   4.056   0.325
 1062SOL     OW 4084   3.743   6.439   5.036
 1062SOL    HW1 4085   3.803   6.519   5.043
 1062SOL    HW2 4086   3.789   6.367   4.985
 1063SOL     OW 4087   3.026   6.436   6.043
 1063SOL    HW1 4088   3.026   6.336   6.050
 1063SOL    HW2 4089   3.030   6.476   6.134
 1064SOL     OW 4090   1.870   3.493   0.599
 1064SOL    HW1 4091   1.912   3.531   0.681
 1064SOL    HW2 4092   1.892   3.396   0.592
 1065SOL     OW 4093   4.284   0.990   4.171
 1065SOL    HW1 4094   4.372   1.012   4.212
 1065SOL    HW2 4095   4.211   1.003   4.239
 1066SOL     OW 4096   5.046   6.955   1.920
 1066SOL    HW1 4097   4.997   6.931   1.836
 1066SOL    HW2 4098   4.982   6.959   1.996
 1067SOL     OW 4099   2.437   1.072   0.211
 1067SOL    HW1 4100   2.454   1.036   0.303
 1067SOL    HW2 4101   2.386   1.005   0.158
 1068SOL     OW 4102   6.290   3.477   1.289
 1068SOL    HW1 4103   6.363   3.545   1.300
 1068SOL    HW2 4104   6.208   3.508   1.338
 1069SOL     OW 4105   6.878   4.098   1.760
 1069SOL    HW1 4106   6.797   4.063   1.714
 1069SOL    HW2 4107   6.874   4.198   1.764
 1070SOL     OW 4108   0.987   6.884   2.021
 1070SOL    HW1 4109   0.902   6.846   2.058
 1070SOL    HW2 4110   0.973   6.909   1.925
 1071SOL     OW 4111   6.969   2.970   5.790
 1071SOL    HW1 4112   6.965   3.024   5.706
 1071SOL    HW2 4113   6.998   2.877   5.768
 1072SOL     OW 4114   2.320   1.342   1.986
 1072SOL    HW1 4115   2.356   1.410   2.050
 1072SOL    HW2 4116   2.225   1.322   2.009
 1073SOL     OW 4117   4.878   1.838   3.232
 1073SOL    HW1 4118   4.956   1.850   3.293
 1073SOL    HW2 4119   4.811   1.911   3.250
 1074SOL     OW 4120   2.730   4.699   1.730
 1074SOL    HW1 4121   2.783   4.636   1.786
 1074SOL    HW2 4122   2.718   4.785   1.779
 1075SOL     OW 4123   5.724   3.636   5.374
 1075SOL    HW1 4124   5.634   3.673   5.351
 1075SOL    HW2 4125   5.735   3.546   5.332
 1076SOL     OW 4126   2.136   3.892   4.831
 1076SOL    HW1 4127   2.193   3.901   4.913
 1076SOL    HW2 4128   2.050   3.942   4.844
 1077SOL     OW 4129   0.555   6.929   0.156
 1077SOL    HW1 4130   0.480   6.876   0.195
 1077SOL    HW2 4131   0.519   7.002   0.098
 1078SOL     OW 4132   6.873   6.788   4.104
 1078SOL    HW1 4133   6.814   6.711   4.079
 1078SOL    HW2 4134   6.849   6.868   4.049
 1079SOL     OW 4135   0.874   6.776   2.319
 1079SOL    HW1 4136   0.801   6.841   2.298
 1079SOL    HW2 4137   0.935   6.814   2.388
 1080SOL     OW 4138   2.636   5.252   6.606
 1080SOL    HW1 4139   2.625   5.274   6.703
 1080SOL    HW2 4140   2.583   5.170   6.585
 1081SOL     OW 4141   0.236   5.656   4.231
 1081SOL    HW1 4142   0.203   5.635   4.323
 1081SOL    HW2 4143   0.308   5.591   4.206
 1082SOL     OW 4144   5.230   6.745   6.281
 1082SOL    HW1 4145   5.216   6.785   6.191
 1082SOL    HW2 4146   5.175   6.795   6.349
 1083SOL     OW 4147   4.884   4.238   1.207
 1083SOL    HW1 4148   4.957   4.306   1.215
 1083SOL    HW2 4149   4.865   4.222   1.110
 1084SOL     OW 4150   6.913   0.629   5.641
 1084SOL    HW1 4151   6.886   0.535   5.664
 1084SOL    HW2 4152   6.880   0.652   5.549
 1085SOL     OW 4153   1.444   3.782   4.533
 1085SOL    HW1 4154   1.525   3.828   4.569
 1085SOL    HW2 4155   1.376   3.849   4.505
 1086SOL     OW 4156   5.929   5.411   0.941
 1086SOL    HW1 4157   5.836   5.397   0.907
 1086SOL    HW2 4158   5.984   5.330   0.923
 1087SOL     OW 4159   2.851   0.110   5.669
 1087SOL    HW1 4160   2.845   0.125   5.571
 1087SOL    HW2 4161   2.930   0.052   5.689
 1088SOL     OW 4162   6.980   4.554   3.633
 1088SOL    HW1 4163   6.983   4.508   3.544
 1088SOL    HW2 4164   6.967   4.486   3.705
 1089SOL     OW 4165   6.480   4.073   4.220
 1089SOL    HW1 4166   6.529   4.110   4.299
 1089SOL    HW2 4167   6.475   3.973   4.228
 1090SOL     OW 4168   5.251   1.650   4.731
 1090SOL    HW1 4169   5.249   1.636   4.830
 1090SOL    HW2 4170   5.194   1.730   4.708
 1091SOL     OW 4171   2.418   2.677   3.474
 1091SOL    HW1 4172   2.455   2.628   3.395
 1091SOL    HW2 4173   2.441   2.627   3.557
 1092SOL     OW 4174   0.821   5.699   1.421
 1092SOL    HW1 4175   0.800   5.614   1.470
 1092SOL    HW2 4176   0.819   5.776   1.485
 1093SOL     OW 4177   1.809   6.778   2.548
 1093SOL    HW1 4178   1.793   6.764   2.450
 1093SOL    HW2 4179   1.854   6.698   2.586
 1094SOL     OW 4180   0.846   0.158   2.902
 1094SOL    HW1 4181   0.855   0.063   2.931
 1094SOL    HW2 4182   0.936   0.196   2.881
 1095SOL     OW 4183   6.007   3.532   0.264
 1095SOL    HW1 4184   6.072   3.506   0.192
 1095SOL    HW2 4185   6.007   3.462   0.335
 1096SOL     OW 4186   2.773   5.434   1.622
 1096SOL    HW1 4187   2.764   5.530   1.647
 1096SOL    HW2 4188   2.861   5.399   1.652
 1097SOL     OW 4189   3.336   5.438   4.522
 1097SOL    HW1 4190   3.393   5.505   4.474
 1097SOL    HW2 4191   3.388   5.398   4.597
 1098SOL     OW 4192   6.158   4.780   1.045
 1098SOL    HW1 4193   6.078   4.755   1.100
 1098SOL    HW2 4194   6.129   4.840   0.971
 1099SOL     OW 4195   4.693   0.584   5.714
 1099SOL    HW1 4196   4.731   0.528   5.640
 1099SOL    HW2 4197   4.594   0.587   5.707
 1100SOL     OW 4198   3.423   1.689   3.828
 1100SOL    HW1 4199   3.356   1.639   3.882
 1100SOL    HW2 4200   3.376   1.738   3.754
 1101SOL     OW 4201   6.223   3.091   6.137
 1101SOL    HW1 4202   6.238   3.001   6.178
 1101SOL    HW2 4203   6.141   3.132   6.176
 1102SOL     OW 4204   2.868   1.249   4.284
 1102SOL    HW1 4205   2.859   1.152   4.309
 1102SOL    HW2 4206   2.825   1.265   4.195
 1103SOL     OW 4207   2.532   6.856   6.789
 1103SOL    HW1 4208   2.620   6.810   6.805
 1103SOL    HW2 4209   2.488   6.872   6.877
 1104SOL     OW 4210   0.458   3.196   3.918
 1104SOL    HW1 4211   0.370   3.174   3.959
 1104SOL    HW2 4212   0.505   3.112   3.892
 1105SOL     OW 4213   5.495   0.826   5.688
 1105SOL    HW1 4214   5.585   0.804   5.649
 1105SOL    HW2 4215   5.488   0.788   5.780
 1106SOL     OW 4216   0.376   2.023   0.716
 1106SOL    HW1 4217   0.387   2.098   0.651
 1106SOL    HW2 4218   0.291   1.974   0.697
 1107SOL     OW 4219   1.205   1.149   0.410
 1107SOL    HW1 4220   1.289   1.133   0.461
 1107SOL    HW2 4221   1.126   1.136   0.471
 1108SOL     OW 4222   2.549   6.136   4.325
 1108SOL    HW1 4223   2.477   6.192   4.283
 1108SOL    HW2 4224   2.634   6.188   4.327
 1109SOL     OW 4225   4.971   1.655   4.029
 1109SOL    HW1 4226   4.953   1.738   4.083
 1109SOL    HW2 4227   4.942   1.575   4.081
 1110SOL     OW 4228   3.348   0.715   2.448
 1110SOL    HW1 4229   3.430   0.764   2.477
 1110SOL    HW2 4230   3.300   0.769   2.379
 1111SOL     OW 4231   5.251   3.774   6.772
 1111SOL    HW1 4232   5.190   3.853   6.778
 1111SOL    HW2 4233   5.220   3.714   6.698
 1112SOL     OW 4234   5.117   0.012   2.368
 1112SOL    HW1 4235   5.031   0.014   2.419
 1112SOL    HW2 4236   5.120   0.088   2.304
 1113SOL     OW 4237   5.246   4.809   2.500
 1113SOL    HW1 4238   5.190   4.730   2.472
 1113SOL    HW2 4239   5.336   4.778   2.528
 1114SOL     OW 4240   3.853   3.484   5.445
 1114SOL    HW1 4241   3.824   3.577   5.422
 1114SOL    HW2 4242   3.794   3.448   5.516
 1115SOL     OW 4243   2.825   4.460   5.779
 1115SOL    HW1 4244   2.923   4.478   5.775
 1115SOL    HW2 4245   2.776   4.546   5.794
 1116SOL     OW 4246   4.785   6.908   6.404
 1116SOL    HW1 4247   4.722   6.917   6.326
 1116SOL    HW2 4248   4.820   6.999   6.429
 1117SOL     OW 4249   1.467   2.964   1.776
 1117SOL    HW1 4250   1.541   3.011   1.824
 1117SOL    HW2 4251   1.484   2.969   1.677
 1118SOL     OW 4252   3.456   4.705   0.010
 1118SOL    HW1 4253   3.524   4.652   0.061
 1118SOL    HW2 4254   3.390   4.642   6.995
 1119SOL     OW 4255   3.815   4.999   4.150
 1119SOL    HW1 4256   3.751   5.051   4.206
 1119SOL    HW2 4257   3.765   4.952   4.077
 1120SOL     OW 4258   6.961   4.291   1.224
 1120SOL    HW1 4259   7.027   4.294   1.299
 1120SOL    HW2 4260   6.908   4.206   1.230
 1121SOL     OW 4261   6.523   4.880   4.483
 1121SOL    HW1 4262   6.438   4.904   4.437
 1121SOL    HW2 4263   6.578   4.820   4.424
 1122SOL     OW 4264   5.478   2.989   2.148
 1122SOL    HW1 4265   5.573   3.016   2.156
 1122SOL    HW2 4266   5.430   3.052   2.086
 1123SOL     OW 4267   3.865   1.632   2.883
 1123SOL    HW1 4268   3.875   1.726   2.915
 1123SOL    HW2 4269   3.813   1.579   2.951
 1124SOL     OW 4270   2.308   2.936   4.779
 1124SOL    HW1 4271   2.314   2.971   4.872
 1124SOL    HW2 4272   2.348   2.845   4.774
 1125SOL     OW 4273   0.801   3.728   3.708
 1125SOL    HW1 4274   0.890   3.687   3.732
 1125SOL    HW2 4275   0.735   3.655   3.689
 1126SOL     OW 4276   3.123   5.501   4.743
 1126SOL    HW1 4277   3.128   5.552   4.829
 1126SOL    HW2 4278   3.203   5.521   4.687
 1127SOL     OW 4279   5.856   6.650   3.133
 1127SOL    HW1 4280   5.757   6.663   3.135
 1127SOL    HW2 4281   5.898   6.721   3.077
 1128SOL     OW 4282   5.711   1.306   3.383
 1128SOL    HW1 4283   5.743   1.369   3.454
 1128SOL    HW2 4284   5.657   1.357   3.315
 1129SOL     OW 4285   1.897   0.480   0.638
 1129SOL    HW1 4286   1.862   0.387   0.654
 1129SOL    HW2 4287   1.910   0.526   0.725
 1130SOL     OW 4288   2.258   4.971   2.319
 1130SOL    HW1 4289   2.161   4.974   2.297
 1130SOL    HW2 4290   2.272   4.912   2.399
 1131SOL     OW 4291   1.459   5.856   4.339
 1131SOL    HW1 4292   1.525   5.908   4.285
 1131SOL    HW2 4293   1.484   5.861   4.436
 1132SOL     OW 4294   3.081   1.036   2.148
 1132SOL    HW1 4295   3.157   1.101   2.142
 1132SOL    HW2 4296   3.009   1.075   2.207
 1133SOL     OW 4297   1.275   6.994   4.724
 1133SOL    HW1 4298   1.283   6.955   4.815
 1133SOL    HW2 4299   1.353   0.027   4.706
 1134SOL     OW 4300   3.907   6.549   1.381
 1134SOL    HW1 4301   3.963   6.588   1.308
 1134SOL    HW2 4302   3.945   6.576   1.470
 1135SOL     OW 4303   1.876   5.730   3.957
 1135SOL    HW1 4304   1.906   5.816   4.001
 1135SOL    HW2 4305   1.870   5.658   4.026
 1136SOL     OW 4306   2.306   5.844   2.037
 1136SOL    HW1 4307   2.219   5.845   1.987
 1136SOL    HW2 4308   2.326   5.750   2.066
 1137SOL     OW 4309   0.666   5.264   5.484
 1137SOL    HW1 4310   0.656   5.215   5.570
 1137SOL    HW2 4311   0.602   5.341   5.482
 1138SOL     OW 4312   2.090   2.959   4.597
 1138SOL    HW1 4313   2.082   3.050   4.556
 1138SOL    HW2 4314   2.155   2.962   4.673
 1139SOL     OW 4315   2.621   5.537   4.448
 1139SOL    HW1 4316   2.599   5.484   4.529
 1139SOL    HW2 4317   2.571   5.500   4.369
 1140SOL     OW 4318   1.156   1.603   1.254
 1140SOL    HW1 4319   1.140   1.538   1.180
 1140SOL    HW2 4320   1.227   1.668   1.226
 1141SOL     OW 4321   6.037   4.787   6.212
 1141SOL    HW1 4322   5.981   4.844   6.271
 1141SOL    HW2 4323   6.073   4.843   6.137
 1142SOL     OW 4324   2.597   6.479   2.564
 1142SOL    HW1 4325   2.693   6.451   2.557
 1142SOL    HW2 4326   2.543   6.403   2.599
 1143SOL     OW 4327   1.326   3.804   2.007
 1143SOL    HW1 4328   1.424   3.813   2.025
 1143SOL    HW2 4329   1.297   3.878   1.946
 1144SOL     OW 4330   5.492   4.593   1.911
 1144SOL    HW1 4331   5.588   4.621   1.909
 1144SOL    HW2 4332   5.437   4.667   1.950
 1145SOL     OW 4333   6.868   1.283   1.048
 1145SOL    HW1 4334   6.862   1.263   1.146
 1145SOL    HW2 4335   6.850   1.380   1.033
 1146SOL     OW 4336   0.976   1.201   1.695
 1146SOL    HW1 4337   0.910   1.255   1.643
 1146SOL    HW2 4338   1.037   1.152   1.631
 1147SOL     OW 4339   3.358   6.383   1.212
 1147SOL    HW1 4340   3.346   6.435   1.127
 1147SOL    HW2 4341   3.353   6.285   1.193
 1148SOL     OW 4342   4.668   5.283   3.819
 1148SOL    HW1 4343   4.591   5.300   3.758
 1148SOL    HW2 4344   4.634   5.268   3.912
 1149SOL     OW 4345   4.738   2.996   1.144
 1149SOL    HW1 4346   4.806   3.013   1.216
 1149SOL    HW2 4347   4.654   2.962   1.186
 1150SOL     OW 4348   1.934   4.363   6.970
 1150SOL    HW1 4349   1.962   4.368   6.874
 1150SOL    HW2 4350   1.834   4.361   6.975
 1151SOL     OW 4351   6.647   5.931   3.941
 1151SOL    HW1 4352   6.597   5.938   4.027
 1151SOL    HW2 4353   6.601   5.985   3.871
 1152SOL     OW 4354   3.834   0.088   6.491
 1152SOL    HW1 4355   3.798   0.026   6.422
 1152SOL    HW2 4356   3.759   0.121   6.549
 1153SOL     OW 4357   6.374   0.990   1.157
 1153SOL    HW1 4358   6.403   0.904   1.198
 1153SOL    HW2 4359   6.300   0.973   1.092
 1154SOL     OW 4360   2.227   2.469   1.649
 1154SOL    HW1 4361   2.291   2.395   1.628
 1154SOL    HW2 4362   2.150   2.431   1.701
 1155SOL     OW 4363   2.670   6.016   5.040
 1155SOL    HW1 4364   2.649   6.082   4.968
 1155SOL    HW2 4365   2.757   5.971   5.020
 1156SOL     OW 4366   3.046   2.147   3.984
 1156SOL    HW1 4367   3.142   2.144   4.014
 1156SOL    HW2 4368   2.991   2.089   4.044
 1157SOL     OW 4369   3.753   1.142   5.841
 1157SOL    HW1 4370   3.659   1.115   5.862
 1157SOL    HW2 4371   3.766   1.143   5.742
 1158SOL     OW 4372   5.786   6.197   3.127
 1158SOL    HW1 4373   5.819   6.114   3.172
 1158SOL    HW2 4374   5.729   6.172   3.049
 1159SOL     OW 4375   6.175   6.667   2.131
 1159SOL    HW1 4376   6.228   6.710   2.058
 1159SOL    HW2 4377   6.162   6.570   2.110
 1160SOL     OW 4378   5.364   0.861   0.918
 1160SOL    HW1 4379   5.279   0.809   0.917
 1160SOL    HW2 4380   5.349   0.948   0.965
 1161SOL     OW 4381   0.670   5.605   0.132
 1161SOL    HW1 4382   0.584   5.556   0.142
 1161SOL    HW2 4383   0.664   5.693   0.180
 1162SOL     OW 4384   2.399   2.534   4.980
 1162SOL    HW1 4385   2.413   2.574   4.889
 1162SOL    HW2 4386   2.477   2.557   5.039
 1163SOL     OW 4387   5.841   3.518   1.719
 1163SOL    HW1 4388   5.827   3.464   1.802
 1163SOL    HW2 4389   5.874   3.609   1.743
 1164SOL     OW 4390   4.922   2.103   4.475
 1164SOL    HW1 4391   4.826   2.119   4.451
 1164SOL    HW2 4392   4.938   2.005   4.483
 1165SOL     OW 4393   4.188   6.408   2.996
 1165SOL    HW1 4394   4.145   6.437   3.081
 1165SOL    HW2 4395   4.137   6.444   2.918
 1166SOL     OW 4396   2.268   5.414   6.860
 1166SOL    HW1 4397   2.169   5.427   6.866
 1166SOL    HW2 4398   2.288   5.317   6.847
 1167SOL     OW 4399   5.474   4.552   2.383
 1167SOL    HW1 4400   5.428   4.474   2.427
 1167SOL    HW2 4401   5.441   4.560   2.288
 1168SOL     OW 4402   6.322   1.685   3.229
 1168SOL    HW1 4403   6.332   1.586   3.235
 1168SOL    HW2 4404   6.297   1.721   3.319
 1169SOL     OW 4405   5.763   0.700   5.295
 1169SOL    HW1 4406   5.669   0.679   5.266
 1169SOL    HW2 4407   5.794   0.781   5.246
 1170SOL     OW 4408   4.846   6.546   3.669
 1170SOL    HW1 4409   4.759   6.535   3.717
 1170SOL    HW2 4410   4.921   6.527   3.732
 1171SOL     OW 4411   1.207   0.141   1.137
 1171SOL    HW1 4412   1.157   0.184   1.213
 1171SOL    HW2 4413   1.298   0.183   1.129
 1172SOL     OW 4414   0.108   3.816   6.385
 1172SOL    HW1 4415   0.015   3.801   6.418
 1172SOL    HW2 4416   0.120   3.767   6.298
 1173SOL     OW 4417   3.360   1.599   0.398
 1173SOL    HW1 4418   3.460   1.604   0.394
 1173SOL    HW2 4419   3.321   1.680   0.355
 1174SOL     OW 4420   3.710   3.241   0.863
 1174SOL    HW1 4421   3.725   3.292   0.947
 1174SOL    HW2 4422   3.619   3.200   0.865
 1175SOL     OW 4423   3.266   3.333   4.067
 1175SOL    HW1 4424   3.304   3.268   4.000
 1175SOL    HW2 4425   3.288   3.301   4.159
 1176SOL     OW 4426   5.183   3.876   6.383
 1176SOL    HW1 4427   5.155   3.967   6.415
 1176SOL    HW2 4428   5.268   3.850   6.429
 1177SOL     OW 4429   6.324   2.307   5.171
 1177SOL    HW1 4430   6.361   2.388   5.217
 1177SOL    HW2 4431   6.398   2.258   5.125
 1178SOL     OW 4432   3.436   5.014   0.304
 1178SOL    HW1 4433   3.354   4.997   0.250
 1178SOL    HW2 4434   3.412   5.067   0.385
 1179SOL     OW 4435   2.445   5.706   0.398
 1179SOL    HW1 4436   2.453   5.618   0.443
 1179SOL    HW2 4437   2.349   5.735   0.397
 1180SOL     OW 4438   3.639   5.931   0.992
 1180SOL    HW1 4439   3.695   5.950   0.912
 1180SOL    HW2 4440   3.547   5.907   0.964
 1181SOL     OW 4441   0.401   5.725   0.392
 1181SOL    HW1 4442   0.305   5.707   0.416
 1181SOL    HW2 4443   0.405   5.795   0.321
 1182SOL     OW 4444   4.124   5.312   3.071
 1182SOL    HW1 4445   4.070   5.293   3.152
 1182SOL    HW2 4446   4.120   5.233   3.009
 1183SOL     OW 4447   1.907   3.571   6.089
 1183SOL    HW1 4448   1.968   3.507   6.135
 1183SOL    HW2 4449   1.959   3.627   6.025
 1184SOL     OW 4450   1.702   6.857   5.210
 1184SOL    HW1 4451   1.730   6.824   5.120
 1184SOL    HW2 4452   1.703   6.781   5.275
 1185SOL     OW 4453   6.943   1.200   6.457
 1185SOL    HW1 4454   6.892   1.230   6.538
 1185SOL    HW2 4455   6.886   1.140   6.402
 1186SOL     OW 4456   5.234   6.407   5.049
 1186SOL    HW1 4457   5.160   6.473   5.040
 1186SOL    HW2 4458   5.223   6.356   5.135
 1187SOL     OW 4459   6.315   0.349   5.851
 1187SOL    HW1 4460   6.370   0.397   5.919
 1187SOL    HW2 4461   6.275   0.267   5.892
 1188SOL     OW 4462   2.508   6.484   5.384
 1188SOL    HW1 4463   2.503   6.455   5.289
 1188SOL    HW2 4464   2.493   6.582   5.390
 1189SOL     OW 4465   6.287   3.670   3.373
 1189SOL    HW1 4466   6.305   3.702   3.466
 1189SOL    HW2 4467   6.204   3.616   3.371
 1190SOL     OW 4468   1.827   6.232   2.541
 1190SOL    HW1 4469   1.898   6.192   2.598
 1190SOL    HW2 4470   1.832   6.193   2.449
 1191SOL     OW 4471   4.728   5.389   2.721
 1191SOL    HW1 4472   4.761   5.297   2.704
 1191SOL    HW2 4473   4.681   5.424   2.640
 1192SOL     OW 4474   4.427   6.117   3.307
 1192SOL    HW1 4475   4.518   6.076   3.312
 1192SOL    HW2 4476   4.406   6.139   3.212
 1193SOL     OW 4477   6.720   5.046   3.432
 1193SOL    HW1 4478   6.787   4.979   3.400
 1193SOL    HW2 4479   6.728   5.056   3.531
 1194SOL     OW 4480   4.493   0.861   1.267
 1194SOL    HW1 4481   4.511   0.959   1.267
 1194SOL    HW2 4482   4.394   0.845   1.263
 1195SOL     OW 4483   6.040   2.630   2.605
 1195SOL    HW1 4484   6.014   2.541   2.567
 1195SOL    HW2 4485   6.139   2.643   2.593
 1196SOL     OW 4486   6.398   6.584   4.452
 1196SOL    HW1 4487   6.351   6.554   4.534
 1196SOL    HW2 4488   6.385   6.517   4.379
 1197SOL     OW 4489   3.081   6.696   0.845
 1197SOL    HW1 4490   3.051   6.633   0.773
 1197SOL    HW2 4491   3.004   6.717   0.904
 1198SOL     OW 4492   0.843   1.891   0.374
 1198SOL    HW1 4493   0.822   1.856   0.282
 1198SOL    HW2 4494   0.941   1.910   0.380
 1199SOL     OW 4495   5.039   4.801   2.014
 1199SOL    HW1 4496   5.118   4.761   2.060
 1199SOL    HW2 4497   5.019   4.748   1.931
 1200SOL     OW 4498   2.981   3.572   2.561
 1200SOL    HW1 4499   3.071   3.542   2.527
 1200SOL    HW2 4500   2.914   3.565   2.487
 1201SOL     OW 4501   1.837   1.966   4.341
 1201SOL    HW1 4502   1.744   1.945   4.312
 1201SOL    HW2 4503   1.899   1.961   4.263
 1202SOL     OW 4504   0.140   5.652   6.445
 1202SOL    HW1 4505   0.173   5.715   6.374
 1202SOL    HW2 4506   0.040   5.648   6.443
 1203SOL     OW 4507   4.792   6.095   5.696
 1203SOL    HW1 4508   4.738   6.040   5.632
 1203SOL    HW2 4509   4.811   6.184   5.657
 1204SOL     OW 4510   1.761   0.540   2.219
 1204SOL    HW1 4511   1.696   0.495   2.281
 1204SOL    HW2 4512   1.786   0.477   2.145
 1205SOL     OW 4513   5.520   3.728   1.770
 1205SOL    HW1 4514   5.474   3.812   1.799
 1205SOL    HW2 4515   5.616   3.748   1.750
 1206SOL     OW 4516   3.117   2.938   5.113
 1206SOL    HW1 4517   3.102   2.855   5.167
 1206SOL    HW2 4518   3.118   3.017   5.173
 1207SOL     OW 4519   1.972   6.681   2.145
 1207SOL    HW1 4520   1.991   6.592   2.186
 1207SOL    HW2 4521   2.056   6.720   2.108
 1208SOL     OW 4522   3.371   3.277   6.335
 1208SOL    HW1 4523   3.399   3.362   6.290
 1208SOL    HW2 4524   3.420   3.266   6.421
 1209SOL     OW 4525   3.614   6.746   5.421
 1209SOL    HW1 4526   3.585   6.787   5.335
 1209SOL    HW2 4527   3.713   6.732   5.421
 1210SOL     OW 4528   3.086   1.438   3.193
 1210SOL    HW1 4529   3.170   1.407   3.238
 1210SOL    HW2 4530   3.031   1.491   3.258
 1211SOL     OW 4531   0.789   3.692   0.570
 1211SOL    HW1 4532   0.849   3.703   0.649
 1211SOL    HW2 4533   0.780   3.595   0.547
 1212SOL     OW 4534   1.010   6.901   6.766
 1212SOL    HW1 4535   0.996   6.805   6.789
 1212SOL    HW2 4536   1.026   6.953   6.850
 1213SOL     OW 4537   5.544   2.699   0.580
 1213SOL    HW1 4538   5.453   2.660   0.574
 1213SOL    HW2 4539   5.539   2.789   0.624
 1214SOL     OW 4540   0.066   2.428   1.322
 1214SOL    HW1 4541   7.021   2.486   1.360
 1214SOL    HW2 4542   0.148   2.483   1.305
 1215SOL     OW 4543   0.932   4.458   4.273
 1215SOL    HW1 4544   0.954   4.509   4.190
 1215SOL    HW2 4545   1.012   4.404   4.301
 1216SOL     OW 4546   4.567   0.267   6.520
 1216SOL    HW1 4547   4.622   0.312   6.590
 1216SOL    HW2 4548   4.492   0.327   6.493
 1217SOL     OW 4549   2.354   4.558   0.454
 1217SOL    HW1 4550   2.394   4.475   0.493
 1217SOL    HW2 4551   2.403   4.638   0.490
 1218SOL     OW 4552   1.612   4.159   3.794
 1218SOL    HW1 4553   1.689   4.096   3.807
 1218SOL    HW2 4554   1.541   4.139   3.861
 1219SOL     OW 4555   4.155   5.862   2.240
 1219SOL    HW1 4556   4.179   5.879   2.335
 1219SOL    HW2 4557   4.119   5.946   2.198
 1220SOL     OW 4558   1.104   4.588   2.450
 1220SOL    HW1 4559   1.088   4.644   2.531
 1220SOL    HW2 4560   1.028   4.524   2.438
 1221SOL     OW 4561   5.923   3.356   6.157
 1221SOL    HW1 4562   5.990   3.309   6.215
 1221SOL    HW2 4563   5.831   3.336   6.189
 1222SOL     OW 4564   0.228   6.100   0.036
 1222SOL    HW1 4565   0.129   6.112   0.045
 1222SOL    HW2 4566   0.275   6.160   0.102
 1223SOL     OW 4567   3.118   6.281   0.430
 1223SOL    HW1 4568   3.131   6.192   0.474
 1223SOL    HW2 4569   3.078   6.269   0.340
 1224SOL     OW 4570   2.642   0.067   1.525
 1224SOL    HW1 4571   2.692   0.129   1.585
 1224SOL    HW2 4572   2.608   0.118   1.446
 1225SOL     OW 4573   3.209   4.481   6.378
 1225SOL    HW1 4574   3.279   4.456   6.445
 1225SOL    HW2 4575   3.241   4.560   6.326
 1226SOL     OW 4576   1.746   4.836   1.331
 1226SOL    HW1 4577   1.817   4.901   1.358
 1226SOL    HW2 4578   1.741   4.762   1.398
 1227SOL     OW 4579   6.940   4.117   6.430
 1227SOL    HW1 4580   7.018   4.077   6.382
 1227SOL    HW2 4581   6.971   4.187   6.493
 1228SOL     OW 4582   4.720   1.979   6.302
 1228SOL    HW1 4583   4.633   1.998   6.256
 1228SOL    HW2 4584   4.717   1.889   6.345
 1229SOL     OW 4585   3.513   4.660   6.636
 1229SOL    HW1 4586   3.507   4.710   6.550
 1229SOL    HW2 4587   3.587   4.699   6.692
 1230SOL     OW 4588   4.551   6.812   3.411
 1230SOL    HW1 4589   4.543   6.727   3.464
 1230SOL    HW2 4590   4.645   6.820   3.376
 1231SOL     OW 4591   1.993   3.284   5.025
 1231SOL    HW1 4592   1.998   3.377   5.062
 1231SOL    HW2 4593   1.906   3.271   4.978
 1232SOL     OW 4594   1.344   2.906   5.110
 1232SOL    HW1 4595   1.387   2.819   5.085
 1232SOL    HW2 4596   1.351   2.970   5.033
 1233SOL     OW 4597   0.727   3.816   5.150
 1233SOL    HW1 4598   0.644   3.762   5.138
 1233SOL    HW2 4599   0.807   3.760   5.125
 1234SOL     OW 4600   5.811   3.944   4.376
 1234SOL    HW1 4601   5.872   4.013   4.338
 1234SOL    HW2 4602   5.719   3.982   4.385
 1235SOL     OW 4603   6.546   5.397   3.561
 1235SOL    HW1 4604   6.546   5.460   3.638
 1235SOL    HW2 4605   6.562   5.447   3.476
 1236SOL     OW 4606   5.690   0.158   0.008
 1236SOL    HW1 4607   5.724   0.234   6.979
 1236SOL    HW2 4608   5.708   0.071   6.988
 1237SOL     OW 4609   3.002   4.969   6.462
 1237SOL    HW1 4610   3.084   4.927   6.500
 1237SOL    HW2 4611   2.953   4.903   6.406
 1238SOL     OW 4612   1.855   1.624   1.032
 1238SOL    HW1 4613   1.794   1.677   0.972
 1238SOL    HW2 4614   1.945   1.666   1.034
 1239SOL     OW 4615   6.630   6.071   6.539
 1239SOL    HW1 4616   6.561   6.017   6.491
 1239SOL    HW2 4617   6.616   6.062   6.637
 1240SOL     OW 4618   4.842   6.124   1.810
 1240SOL    HW1 4619   4.801   6.072   1.735
 1240SOL    HW2 4620   4.886   6.205   1.772
 1241SOL     OW 4621   6.417   3.785   4.212
 1241SOL    HW1 4622   6.494   3.722   4.205
 1241SOL    HW2 4623   6.333   3.741   4.180
 1242SOL     OW 4624   2.522   3.993   0.743
 1242SOL    HW1 4625   2.595   3.966   0.807
 1242SOL    HW2 4626   2.549   3.970   0.650
 1243SOL     OW 4627   2.233   4.924   5.200
 1243SOL    HW1 4628   2.201   5.018   5.187
 1243SOL    HW2 4629   2.313   4.908   5.142
 1244SOL     OW 4630   0.907   0.914   3.957
 1244SOL    HW1 4631   0.911   0.939   3.860
 1244SOL    HW2 4632   0.982   0.851   3.979
 1245SOL     OW 4633   3.358   3.635   6.894
 1245SOL    HW1 4634   3.422   3.599   6.962
 1245SOL    HW2 4635   3.335   3.730   6.917
 1246SOL     OW 4636   1.952   6.034   2.305
 1246SOL    HW1 4637   1.996   6.009   2.391
 1246SOL    HW2 4638   2.021   6.060   2.238
 1247SOL     OW 4639   1.802   6.486   6.237
 1247SOL    HW1 4640   1.884   6.429   6.240
 1247SOL    HW2 4641   1.740   6.452   6.166
 1248SOL     OW 4642   1.900   5.373   3.880
 1248SOL    HW1 4643   1.895   5.273   3.880
 1248SOL    HW2 4644   1.829   5.409   3.941
 1249SOL     OW 4645   5.734   2.989   3.331
 1249SOL    HW1 4646   5.728   2.920   3.404
 1249SOL    HW2 4647   5.828   3.022   3.325
 1250SOL     OW 4648   1.315   4.365   4.478
 1250SOL    HW1 4649   1.381   4.290   4.484
 1250SOL    HW2 4650   1.223   4.330   4.492
 1251SOL     OW 4651   3.959   0.171   4.771
 1251SOL    HW1 4652   4.025   0.230   4.818
 1251SOL    HW2 4653   3.891   0.227   4.724
 1252SOL     OW 4654   3.625   4.286   5.622
 1252SOL    HW1 4655   3.556   4.294   5.695
 1252SOL    HW2 4656   3.590   4.225   5.550
 1253SOL     OW 4657   3.794   5.423   3.220
 1253SOL    HW1 4658   3.834   5.513   3.237
 1253SOL    HW2 4659   3.765   5.416   3.124
 1254SOL     OW 4660   6.458   1.775   2.950
 1254SOL    HW1 4661   6.543   1.829   2.949
 1254SOL    HW2 4662   6.381   1.835   2.972
 1255SOL     OW 4663   7.012   6.804   6.884
 1255SOL    HW1 4664   0.011   6.828   6.791
 1255SOL    HW2 4665   6.927   6.752   6.882
 1256SOL     OW 4666   4.547   0.639   3.256
 1256SOL    HW1 4667   4.466   0.652   3.314
 1256SOL    HW2 4668   4.594   0.727   3.245
 1257SOL     OW 4669   6.629   1.220   3.966
 1257SOL    HW1 4670   6.633   1.236   4.065
 1257SOL    HW2 4671   6.594   1.128   3.949
 1258SOL     OW 4672   0.208   6.867   3.448
 1258SOL    HW1 4673   0.122   6.896   3.490
 1258SOL    HW2 4674   0.192   6.786   3.392
 1259SOL     OW 4675   4.117   1.959   4.382
 1259SOL    HW1 4676   4.109   2.017   4.300
 1259SOL    HW2 4677   4.212   1.930   4.392
 1260SOL     OW 4678   1.207   0.523   7.017
 1260SOL    HW1 4679   1.217   0.480   0.080
 1260SOL    HW2 4680   1.275   0.595   7.007
 1261SOL     OW 4681   6.877   4.882   1.106
 1261SOL    HW1 4682   6.811   4.824   1.153
 1261SOL    HW2 4683   6.956   4.898   1.166
 1262SOL     OW 4684   5.265   5.854   0.833
 1262SOL    HW1 4685   5.328   5.853   0.755
 1262SOL    HW2 4686   5.300   5.916   0.903
 1263SOL     OW 4687   1.280   2.110   3.436
 1263SOL    HW1 4688   1.201   2.154   3.478
 1263SOL    HW2 4689   1.353   2.102   3.504
 1264SOL     OW 4690   0.737   2.605   5.373
 1264SOL    HW1 4691   0.827   2.603   5.330
 1264SOL    HW2 4692   0.748   2.595   5.472
 1265SOL     OW 4693   5.981   6.619   4.651
 1265SOL    HW1 4694   6.010   6.690   4.715
 1265SOL    HW2 4695   5.903   6.570   4.689
 1266SOL     OW 4696   1.938   0.927   5.102
 1266SOL    HW1 4697   1.902   0.843   5.061
 1266SOL    HW2 4698   2.035   0.915   5.121
 1267SOL     OW 4699   4.196   0.096   2.480
 1267SOL    HW1 4700   4.229   0.028   2.545
 1267SOL    HW2 4701   4.268   0.163   2.462
 1268SOL     OW 4702   4.402   2.607   5.259
 1268SOL    HW1 4703   4.361   2.630   5.348
 1268SOL    HW2 4704   4.336   2.556   5.204
 1269SOL     OW 4705   6.021   1.982   4.411
 1269SOL    HW1 4706   6.058   2.057   4.356
 1269SOL    HW2 4707   6.096   1.936   4.459
 1270SOL     OW 4708   6.951   5.363   3.038
 1270SOL    HW1 4709   6.918   5.412   3.118
 1270SOL    HW2 4710   0.000   5.304   3.064
 1271SOL     OW 4711   1.220   1.434   1.456
 1271SOL    HW1 4712   1.209   1.336   1.439
 1271SOL    HW2 4713   1.205   1.485   1.371
 1272SOL     OW 4714   6.629   4.294   0.240
 1272SOL    HW1 4715   6.653   4.219   0.178
 1272SOL    HW2 4716   6.712   4.337   0.275
 1273SOL     OW 4717   1.382   4.646   5.133
 1273SOL    HW1 4718   1.334   4.731   5.158
 1273SOL    HW2 4719   1.467   4.668   5.085
 1274SOL     OW 4720   0.573   5.227   2.922
 1274SOL    HW1 4721   0.569   5.128   2.936
 1274SOL    HW2 4722   0.487   5.268   2.952
 1275SOL     OW 4723   2.550   0.915   2.680
 1275SOL    HW1 4724   2.525   0.928   2.584
 1275SOL    HW2 4725   2.467   0.920   2.736
 1276SOL     OW 4726   5.487   4.946   3.943
 1276SOL    HW1 4727   5.579   4.976   3.969
 1276SOL    HW2 4728   5.449   5.009   3.875
 1277SOL     OW 4729   0.241   6.161   0.537
 1277SOL    HW1 4730   0.330   6.122   0.511
 1277SOL    HW2 4731   0.245   6.261   0.528
 1278SOL     OW 4732   1.160   5.526   2.741
 1278SOL    HW1 4733   1.164   5.443   2.796
 1278SOL    HW2 4734   1.225   5.519   2.665
 1279SOL     OW 4735   1.902   2.357   0.208
 1279SOL    HW1 4736   1.825   2.293   0.208
 1279SOL    HW2 4737   1.945   2.359   0.298
 1280SOL     OW 4738   1.909   2.059   3.661
 1280SOL    HW1 4739   1.902   2.159   3.656
 1280SOL    HW2 4740   1.986   2.034   3.719
 1281SOL     OW 4741   4.398   6.074   4.356
 1281SOL    HW1 4742   4.482   6.038   4.315
 1281SOL    HW2 4743   4.409   6.171   4.375
 1282SOL     OW 4744   6.586   2.526   1.505
 1282SOL    HW1 4745   6.523   2.501   1.579
 1282SOL    HW2 4746   6.572   2.621   1.480
 1283SOL     OW 4747   6.645   3.315   4.980
 1283SOL    HW1 4748   6.646   3.364   5.067
 1283SOL    HW2 4749   6.720   3.347   4.922
 1284SOL     OW 4750   4.199   1.750   2.213
 1284SOL    HW1 4751   4.108   1.770   2.247
 1284SOL    HW2 4752   4.266   1.764   2.285
 1285SOL     OW 4753   4.068   1.256   5.246
 1285SOL    HW1 4754   3.979   1.233   5.207
 1285SOL    HW2 4755   4.132   1.278   5.172
 1286SOL     OW 4756   4.672   2.040   1.906
 1286SOL    HW1 4757   4.692   2.048   2.004
 1286SOL    HW2 4758   4.644   1.947   1.886
 1287SOL     OW 4759   6.358   4.670   4.936
 1287SOL    HW1 4760   6.340   4.597   5.001
 1287SOL    HW2 4761   6.290   4.667   4.862
 1288SOL     OW 4762   4.530   3.922   6.868
 1288SOL    HW1 4763   4.533   3.870   6.782
 1288SOL    HW2 4764   4.460   3.993   6.861
 1289SOL     OW 4765   6.935   0.150   1.741
 1289SOL    HW1 4766   6.937   0.228   1.803
 1289SOL    HW2 4767   7.027   0.132   1.706
 1290SOL     OW 4768   1.420   6.934   6.251
 1290SOL    HW1 4769   1.376   7.024   6.241
 1290SOL    HW2 4770   1.459   6.907   6.163
 1291SOL     OW 4771   6.766   5.082   3.143
 1291SOL    HW1 4772   6.840   5.015   3.155
 1291SOL    HW2 4773   6.687   5.036   3.103
 1292SOL     OW 4774   1.053   6.583   2.249
 1292SOL    HW1 4775   1.100   6.519   2.310
 1292SOL    HW2 4776   1.008   6.654   2.304
 1293SOL     OW 4777   3.377   1.501   0.108
 1293SOL    HW1 4778   3.361   1.494   0.206
 1293SOL    HW2 4779   3.297   1.469   0.058
 1294SOL     OW 4780   2.433   3.530   5.429
 1294SOL    HW1 4781   2.525   3.536   5.392
 1294SOL    HW2 4782   2.371   3.493   5.359
 1295SOL     OW 4783   6.468   4.542   0.834
 1295SOL    HW1 4784   6.485   4.464   0.773
 1295SOL    HW2 4785   6.555   4.580   0.864
 1296SOL     OW 4786   5.345   0.044   5.680
 1296SOL    HW1 4787   5.330   0.113   5.609
 1296SOL    HW2 4788   5.432   0.062   5.726
 1297SOL     OW 4789   0.660   0.045   2.036
 1297SOL    HW1 4790   0.576   0.077   2.080
 1297SOL    HW2 4791   0.694   0.115   1.973
 1298SOL     OW 4792   5.189   6.438   2.571
 1298SOL    HW1 4793   5.173   6.340   2.569
 1298SOL    HW2 4794   5.114   6.483   2.620
 1299SOL     OW 4795   1.104   3.429   5.309
 1299SOL    HW1 4796   1.047   3.448   5.389
 1299SOL    HW2 4797   1.186   3.486   5.313
 1300SOL     OW 4798   1.256   4.647   2.057
 1300SOL    HW1 4799   1.196   4.569   2.074
 1300SOL    HW2 4800   1.202   4.724   2.022
 1301SOL     OW 4801   0.809   0.574   1.031
 1301SOL    HW1 4802   0.714   0.600   1.010
 1301SOL    HW2 4803   0.819   0.562   1.129
 1302SOL     OW 4804   5.201   6.826   4.474
 1302SOL    HW1 4805   5.233   6.797   4.384
 1302SOL    HW2 4806   5.180   6.924   4.473
 1303SOL     OW 4807   3.893   6.147   1.598
 1303SOL    HW1 4808   3.845   6.188   1.521
 1303SOL    HW2 4809   3.959   6.214   1.635
 1304SOL     OW 4810   0.775   1.375   0.498
 1304SOL    HW1 4811   0.871   1.354   0.519
 1304SOL    HW2 4812   0.762   1.474   0.497
 1305SOL     OW 4813   5.414   3.721   6.452
 1305SOL    HW1 4814   5.494   3.748   6.505
 1305SOL    HW2 4815   5.433   3.730   6.354
 1306SOL     OW 4816   2.531   5.395   4.211
 1306SOL    HW1 4817   2.539   5.310   4.262
 1306SOL    HW2 4818   2.588   5.390   4.128
 1307SOL     OW 4819   2.889   2.277   3.283
 1307SOL    HW1 4820   2.842   2.278   3.371
 1307SOL    HW2 4821   2.821   2.269   3.209
 1308SOL     OW 4822   0.311   5.160   5.551
 1308SOL    HW1 4823   0.288   5.107   5.470
 1308SOL    HW2 4824   0.247   5.235   5.562
 1309SOL     OW 4825   5.448   4.112   6.592
 1309SOL    HW1 4826   5.418   4.095   6.686
 1309SOL    HW2 4827   5.430   4.207   6.567
 1310SOL     OW 4828   1.294   3.872   3.476
 1310SOL    HW1 4829   1.329   3.802   3.539
 1310SOL    HW2 4830   1.315   3.963   3.512
 1311SOL     OW 4831   6.840   5.895   0.641
 1311SOL    HW1 4832   6.798   5.869   0.728
 1311SOL    HW2 4833   6.936   5.921   0.657
 1312SOL     OW 4834   2.377   0.617   6.379
 1312SOL    HW1 4835   2.353   0.523   6.355
 1312SOL    HW2 4836   2.422   0.618   6.468
 1313SOL     OW 4837   6.488   6.040   2.735
 1313SOL    HW1 4838   6.555   5.991   2.680
 1313SOL    HW2 4839   6.534   6.109   2.790
 1314SOL     OW 4840   2.614   1.794   5.234
 1314SOL    HW1 4841   2.631   1.724   5.303
 1314SOL    HW2 4842   2.526   1.777   5.190
 1315SOL     OW 4843   6.167   1.314   3.745
 1315SOL    HW1 4844   6.259   1.318   3.783
 1315SOL    HW2 4845   6.115   1.242   3.792
 1316SOL     OW 4846   4.110   0.704   4.947
 1316SOL    HW1 4847   4.114   0.779   4.881
 1316SOL    HW2 4848   4.031   0.646   4.927
 1317SOL     OW 4849   3.026   3.479   5.917
 1317SOL    HW1 4850   3.056   3.397   5.869
 1317SOL    HW2 4851   2.928   3.492   5.903
 1318SOL     OW 4852   2.171   2.569   6.187
 1318SOL    HW1 4853   2.164   2.624   6.271
 1318SOL    HW2 4854   2.232   2.615   6.122
 1319SOL     OW 4855   6.998   6.826   0.551
 1319SOL    HW1 4856   6.910   6.837   0.598
 1319SOL    HW2 4857   0.036   6.893   0.586
 1320SOL     OW 4858   3.388   2.850   5.746
 1320SOL    HW1 4859   3.350   2.772   5.696
 1320SOL    HW2 4860   3.368   2.839   5.844
 1321SOL     OW 4861   5.109   2.727   6.762
 1321SOL    HW1 4862   5.190   2.713   6.706
 1321SOL    HW2 4863   5.091   2.825   6.771
 1322SOL     OW 4864   3.191   1.679   0.657
 1322SOL    HW1 4865   3.109   1.668   0.601
 1322SOL    HW2 4866   3.245   1.595   0.654
 1323SOL     OW 4867   3.725   7.025   0.575
 1323SOL    HW1 4868   3.743   6.980   0.487
 1323SOL    HW2 4869   3.807   7.019   0.632
 1324SOL     OW 4870   1.485   3.410   6.975
 1324SOL    HW1 4871   1.516   3.410   6.880
 1324SOL    HW2 4872   1.469   3.503   7.006
 1325SOL     OW 4873   2.651   5.322   6.175
 1325SOL    HW1 4874   2.721   5.252   6.190
 1325SOL    HW2 4875   2.681   5.385   6.104
 1326SOL     OW 4876   5.174   3.161   3.575
 1326SOL    HW1 4877   5.112   3.220   3.627
 1326SOL    HW2 4878   5.122   3.095   3.522
 1327SOL     OW 4879   6.075   5.804   1.361
 1327SOL    HW1 4880   6.143   5.863   1.403
 1327SOL    HW2 4881   6.086   5.711   1.394
 1328SOL     OW 4882   1.585   3.254   5.694
 1328SOL    HW1 4883   1.661   3.280   5.753
 1328SOL    HW2 4884   1.503   3.239   5.748
 1329SOL     OW 4885   0.649   2.859   3.143
 1329SOL    HW1 4886   0.709   2.897   3.073
 1329SOL    HW2 4887   0.578   2.926   3.166
 1330SOL     OW 4888   6.441   3.099   1.540
 1330SOL    HW1 4889   6.540   3.085   1.535
 1330SOL    HW2 4890   6.399   3.020   1.585
 1331SOL     OW 4891   4.572   1.930   2.957
 1331SOL    HW1 4892   4.632   1.961   3.030
 1331SOL    HW2 4893   4.557   1.832   2.965
 1332SOL     OW 4894   1.671   5.958   0.250
 1332SOL    HW1 4895   1.598   6.025   0.268
 1332SOL    HW2 4896   1.673   5.890   0.323
 1333SOL     OW 4897   3.772   4.077   3.310
 1333SOL    HW1 4898   3.803   4.171   3.328
 1333SOL    HW2 4899   3.773   4.061   3.211
 1334SOL     OW 4900   0.141   3.262   2.363
 1334SOL    HW1 4901   0.188   3.187   2.315
 1334SOL    HW2 4902   0.207   3.332   2.387
 1335SOL     OW 4903   1.407   3.455   2.036
 1335SOL    HW1 4904   1.403   3.505   1.949
 1335SOL    HW2 4905   1.443   3.516   2.107
 1336SOL     OW 4906   3.212   0.682   5.378
 1336SOL    HW1 4907   3.140   0.700   5.310
 1336SOL    HW2 4908   3.258   0.767   5.402
 1337SOL     OW 4909   0.039   1.130   3.635
 1337SOL    HW1 4910   6.993   1.160   3.697
 1337SOL    HW2 4911   0.094   1.209   3.607
 1338SOL     OW 4912   6.286   4.463   5.503
 1338SOL    HW1 4913   6.377   4.494   5.475
 1338SOL    HW2 4914   6.295   4.382   5.561
 1339SOL     OW 4915   0.350   0.771   6.973
 1339SOL    HW1 4916   0.398   0.705   6.915
 1339SOL    HW2 4917   0.371   0.864   6.941
 1340SOL     OW 4918   4.608   2.512   1.445
 1340SOL    HW1 4919   4.702   2.497   1.477
 1340SOL    HW2 4920   4.545   2.456   1.499
 1341SOL     OW 4921   4.729   0.066   0.011
 1341SOL    HW1 4922   4.703   6.999   0.033
 1341SOL    HW2 4923   4.740   0.118   0.096
 1342SOL     OW 4924   2.313   6.391   1.282
 1342SOL    HW1 4925   2.283   6.415   1.190
 1342SOL    HW2 4926   2.233   6.377   1.341
 1343SOL     OW 4927   5.837   6.179   3.482
 1343SOL    HW1 4928   5.797   6.252   3.427
 1343SOL    HW2 4929   5.923   6.149   3.441
 1344SOL     OW 4930   0.118   0.104   5.215
 1344SOL    HW1 4931   0.056   0.027   5.234
 1344SOL    HW2 4932   0.142   0.104   5.118
 1345SOL     OW 4933   0.067   6.118   0.884
 1345SOL    HW1 4934   0.113   6.041   0.929
 1345SOL    HW2 4935   6.997   6.116   0.906
 1346SOL     OW 4936   2.777   5.237   5.854
 1346SOL    HW1 4937   2.720   5.320   5.851
 1346SOL    HW2 4938   2.791   5.203   5.761
 1347SOL     OW 4939   1.284   6.704   6.696
 1347SOL    HW1 4940   1.192   6.679   6.666
 1347SOL    HW2 4941   1.321   6.774   6.634
 1348SOL     OW 4942   0.731   6.483   5.224
 1348SOL    HW1 4943   0.675   6.400   5.223
 1348SOL    HW2 4944   0.823   6.461   5.256
 1349SOL     OW 4945   4.812   3.076   3.691
 1349SOL    HW1 4946   4.892   3.017   3.686
 1349SOL    HW2 4947   4.803   3.112   3.784
 1350SOL     OW 4948   3.754   3.706   0.355
 1350SOL    HW1 4949   3.784   3.610   0.363
 1350SOL    HW2 4950   3.768   3.752   0.443
 1351SOL     OW 4951   6.606   2.435   5.539
 1351SOL    HW1 4952   6.662   2.512   5.509
 1351SOL    HW2 4953   6.532   2.469   5.598
 1352SOL     OW 4954   0.159   0.443   2.267
 1352SOL    HW1 4955   0.092   0.469   2.337
 1352SOL    HW2 4956   0.200   0.525   2.228
 1353SOL     OW 4957   0.871   1.060   0.779
 1353SOL    HW1 4958   0.787   1.058   0.725
 1353SOL    HW2 4959   0.950   1.070   0.718
 1354SOL     OW 4960   5.262   4.998   2.307
 1354SOL    HW1 4961   5.193   5.068   2.323
 1354SOL    HW2 4962   5.258   4.930   2.380
 1355SOL     OW 4963   6.358   3.581   5.266
 1355SOL    HW1 4964   6.373   3.673   5.302
 1355SOL    HW2 4965   6.315   3.525   5.337
 1356SOL     OW 4966   3.303   3.073   1.015
 1356SOL    HW1 4967   3.253   2.987   1.027
 1356SOL    HW2 4968   3.381   3.074   1.078
 1357SOL     OW 4969   6.870   3.422   5.534
 1357SOL    HW1 4970   6.843   3.489   5.465
 1357SOL    HW2 4971   6.849   3.457   5.625
 1358SOL     OW 4972   1.542   6.515   6.655
 1358SOL    HW1 4973   1.535   6.590   6.721
 1358SOL    HW2 4974   1.462   6.516   6.595
 1359SOL     OW 4975   6.992   4.364   1.729
 1359SOL    HW1 4976   6.971   4.330   1.637
 1359SOL    HW2 4977   6.907   4.393   1.774
 1360SOL     OW 4978   2.270   2.374   7.020
 1360SOL    HW1 4979   2.266   2.451   0.056
 1360SOL    HW2 4980   2.355   2.323   0.007
 1361SOL     OW 4981   6.514   5.285   4.620
 1361SOL    HW1 4982   6.553   5.236   4.543
 1361SOL    HW2 4983   6.477   5.220   4.687
 1362SOL     OW 4984   3.292   2.917   2.846
 1362SOL    HW1 4985   3.386   2.914   2.882
 1362SOL    HW2 4986   3.293   2.955   2.754
 1363SOL     OW 4987   0.997   5.950   5.129
 1363SOL    HW1 4988   1.012   5.852   5.139
 1363SOL    HW2 4989   1.059   5.987   5.061
 1364SOL     OW 4990   3.378   4.159   1.208
 1364SOL    HW1 4991   3.429   4.111   1.136
 1364SOL    HW2 4992   3.439   4.181   1.283
 1365SOL     OW 4993   0.314   3.907   6.798
 1365SOL    HW1 4994   0.271   3.840   6.737
 1365SOL    HW2 4995   0.297   3.881   6.893
 1366SOL     OW 4996   2.631   0.086   5.284
 1366SOL    HW1 4997   2.665   0.157   5.223
 1366SOL    HW2 4998   2.591   0.012   5.231
 1367SOL     OW 4999   2.050   0.973   2.670
 1367SOL    HW1 5000   2.019   0.950   2.763
 1367SOL    HW2 5001   2.124   0.912   2.643
 1368SOL     OW 5002   5.729   6.697   4.182
 1368SOL    HW1 5003   5.727   6.717   4.280
 1368SOL    HW2 5004   5.728   6.598   4.168
 1369SOL     OW 5005   0.782   0.709   3.102
 1369SOL    HW1 5006   0.730   0.627   3.077
 1369SOL    HW2 5007   0.753   0.786   3.045
 1370SOL     OW 5008   2.578   0.876   1.709
 1370SOL    HW1 5009   2.489   0.903   1.672
 1370SOL    HW2 5010   2.593   0.779   1.693
 1371SOL     OW 5011   4.097   0.912   6.528
 1371SOL    HW1 5012   4.114   0.944   6.435
 1371SOL    HW2 5013   4.150   0.967   6.593
 1372SOL     OW 5014   3.229   2.174   1.881
 1372SOL    HW1 5015   3.163   2.217   1.819
 1372SOL    HW2 5016   3.188   2.163   1.972
 1373SOL     OW 5017   1.370   5.982   1.018
 1373SOL    HW1 5018   1.439   5.925   0.974
 1373SOL    HW2 5019   1.415   6.051   1.074
 1374SOL     OW 5020   4.875   2.462   0.499
 1374SOL    HW1 5021   4.898   2.537   0.436
 1374SOL    HW2 5022   4.791   2.484   0.548
 1375SOL     OW 5023   0.569   4.190   5.909
 1375SOL    HW1 5024   0.665   4.167   5.926
 1375SOL    HW2 5025   0.563   4.263   5.841
 1376SOL     OW 5026   4.797   1.638   2.066
 1376SOL    HW1 5027   4.761   1.656   2.157
 1376SOL    HW2 5028   4.897   1.641   2.069
 1377SOL     OW 5029   0.557   5.227   4.840
 1377SOL    HW1 5030   0.517   5.139   4.863
 1377SOL    HW2 5031   0.599   5.267   4.921
 1378SOL     OW 5032   1.340   2.471   0.413
 1378SOL    HW1 5033   1.296   2.519   0.337
 1378SOL    HW2 5034   1.289   2.487   0.497
 1379SOL     OW 5035   3.736   5.978   1.696
 1379SOL    HW1 5036   3.815   6.038   1.682
 1379SOL    HW2 5037   3.661   6.006   1.636
 1380SOL     OW 5038   6.389   6.873   2.867
 1380SOL    HW1 5039   6.470   6.850   2.813
 1380SOL    HW2 5040   6.407   6.852   2.963
 1381SOL     OW 5041   6.017   1.443   1.421
 1381SOL    HW1 5042   5.944   1.403   1.476
 1381SOL    HW2 5043   6.106   1.414   1.457
 1382SOL     OW 5044   6.258   4.775   6.399
 1382SOL    HW1 5045   6.332   4.838   6.374
 1382SOL    HW2 5046   6.188   4.777   6.329
 1383SOL     OW 5047   2.555   0.219   0.613
 1383SOL    HW1 5048   2.509   0.248   0.530
 1383SOL    HW2 5049   2.654   0.220   0.598
 1384SOL     OW 5050   2.985   1.889   2.536
 1384SOL    HW1 5051   2.983   1.986   2.512
 1384SOL    HW2 5052   2.898   1.863   2.577
 1385SOL     OW 5053   5.653   3.177   2.782
 1385SOL    HW1 5054   5.648   3.122   2.865
 1385SOL    HW2 5055   5.569   3.166   2.729
 1386SOL     OW 5056   2.248   2.513   4.002
 1386SOL    HW1 5057   2.214   2.462   3.923
 1386SOL    HW2 5058   2.262   2.608   3.976
 1387SOL     OW 5059   2.663   0.789   5.142
 1387SOL    HW1 5060   2.655   0.698   5.183
 1387SOL    HW2 5061   2.572   0.823   5.118
 1388SOL     OW 5062   6.487   0.817   5.283
 1388SOL    HW1 5063   6.454   0.827   5.377
 1388SOL    HW2 5064   6.529   0.727   5.271
 1389SOL     OW 5065   6.710   0.803   4.911
 1389SOL    HW1 5066   6.616   0.804   4.944
 1389SOL    HW2 5067   6.757   0.722   4.945
 1390SOL     OW 5068   4.665   2.623   2.379
 1390SOL    HW1 5069   4.677   2.666   2.289
 1390SOL    HW2 5070   4.599   2.548   2.372
 1391SOL     OW 5071   6.100   1.197   4.851
 1391SOL    HW1 5072   6.031   1.181   4.781
 1391SOL    HW2 5073   6.128   1.110   4.892
 1392SOL     OW 5074   4.461   5.350   6.131
 1392SOL    HW1 5075   4.445   5.323   6.036
 1392SOL    HW2 5076   4.399   5.425   6.156
 1393SOL     OW 5077   6.057   0.548   6.221
 1393SOL    HW1 5078   6.125   0.493   6.269
 1393SOL    HW2 5079   6.075   0.545   6.123
 1394SOL     OW 5080   3.993   0.073   3.928
 1394SOL    HW1 5081   3.991   0.149   3.862
 1394SOL    HW2 5082   4.023   0.108   4.017
 1395SOL     OW 5083   1.096   5.316   2.438
 1395SOL    HW1 5084   1.036   5.395   2.445
 1395SOL    HW2 5085   1.142   5.316   2.349
 1396SOL     OW 5086   2.131   1.368   3.866
 1396SOL    HW1 5087   2.118   1.453   3.815
 1396SOL    HW2 5088   2.071   1.368   3.946
 1397SOL     OW 5089   0.981   5.572   4.646
 1397SOL    HW1 5090   0.951   5.644   4.584
 1397SOL    HW2 5091   0.970   5.602   4.741
 1398SOL     OW 5092   1.155   6.528   0.635
 1398SOL    HW1 5093   1.184   6.506   0.541
 1398SOL    HW2 5094   1.057   6.510   0.644
 1399SOL     OW 5095   4.213   0.376   0.207
 1399SOL    HW1 5096   4.241   0.342   0.118
 1399SOL    HW2 5097   4.175   0.301   0.261
 1400SOL     OW 5098   6.844   0.538   4.954
 1400SOL    HW1 5099   6.915   0.479   4.993
 1400SOL    HW2 5100   6.758   0.488   4.949
 1401SOL     OW 5101   5.377   0.265   2.560
 1401SOL    HW1 5102   5.358   0.364   2.563
 1401SOL    HW2 5103   5.317   0.218   2.624
 1402SOL     OW 5104   6.919   4.737   2.610
 1402SOL    HW1 5105   6.869   4.662   2.653
 1402SOL    HW2 5106   6.946   4.804   2.680
 1403SOL     OW 5107   3.461   3.523   6.252
 1403SOL    HW1 5108   3.555   3.519   6.288
 1403SOL    HW2 5109   3.464   3.546   6.155
 1404SOL     OW 5110   3.689   6.675   0.578
 1404SOL    HW1 5111   3.699   6.700   0.482
 1404SOL    HW2 5112   3.773   6.699   0.628
 1405SOL     OW 5113   0.790   4.048   1.463
 1405SOL    HW1 5114   0.724   4.024   1.392
 1405SOL    HW2 5115   0.783   3.982   1.538
 1406SOL     OW 5116   2.148   3.258   0.437
 1406SOL    HW1 5117   2.200   3.333   0.477
 1406SOL    HW2 5118   2.210   3.193   0.393
 1407SOL     OW 5119   0.257   2.984   1.271
 1407SOL    HW1 5120   0.229   2.902   1.322
 1407SOL    HW2 5121   0.325   3.034   1.324
 1408SOL     OW 5122   5.632   6.517   1.084
 1408SOL    HW1 5123   5.550   6.573   1.076
 1408SOL    HW2 5124   5.616   6.429   1.040
 1409SOL     OW 5125   6.779   1.030   5.761
 1409SOL    HW1 5126   6.725   1.000   5.682
 1409SOL    HW2 5127   6.721   1.084   5.822
 1410SOL     OW 5128   3.549   0.754   6.045
 1410SOL    HW1 5129   3.463   0.703   6.054
 1410SOL    HW2 5130   3.556   0.820   6.119
 1411SOL     OW 5131   3.442   5.233   6.632
 1411SOL    HW1 5132   3.401   5.254   6.543
 1411SOL    HW2 5133   3.535   5.198   6.618
 1412SOL     OW 5134   2.568   2.747   6.584
 1412SOL    HW1 5135   2.664   2.741   6.610
 1412SOL    HW2 5136   2.512   2.761   6.665
 1413SOL     OW 5137   1.506   2.139   4.911
 1413SOL    HW1 5138   1.455   2.084   4.845
 1413SOL    HW2 5139   1.575   2.194   4.864
 1414SOL     OW 5140   0.541   4.434   2.772
 1414SOL    HW1 5141   0.567   4.523   2.734
 1414SOL    HW2 5142   0.524   4.370   2.698
 1415SOL     OW 5143   2.703   1.535   4.853
 1415SOL    HW1 5144   2.643   1.544   4.931
 1415SOL    HW2 5145   2.750   1.446   4.856
 1416SOL     OW 5146   4.572   0.579   4.887
 1416SOL    HW1 5147   4.499   0.609   4.950
 1416SOL    HW2 5148   4.532   0.557   4.798
 1417SOL     OW 5149   3.612   3.483   5.950
 1417SOL    HW1 5150   3.577   3.461   5.859
 1417SOL    HW2 5151   3.615   3.401   6.006
 1418SOL     OW 5152   4.025   4.264   5.492
 1418SOL    HW1 5153   3.944   4.297   5.444
 1418SOL    HW2 5154   4.010   4.269   5.591
 1419SOL     OW 5155   1.448   5.837   2.001
 1419SOL    HW1 5156   1.423   5.748   2.040
 1419SOL    HW2 5157   1.431   5.836   1.902
 1420SOL     OW 5158   2.663   6.571   3.064
 1420SOL    HW1 5159   2.647   6.668   3.044
 1420SOL    HW2 5160   2.575   6.526   3.082
 1421SOL     OW 5161   1.135   4.823   6.117
 1421SOL    HW1 5162   1.127   4.729   6.082
 1421SOL    HW2 5163   1.114   4.888   6.044
 1422SOL     OW 5164   2.122   3.321   6.564
 1422SOL    HW1 5165   2.087   3.241   6.515
 1422SOL    HW2 5166   2.197   3.294   6.624
 1423SOL     OW 5167   4.120   0.961   4.743
 1423SOL    HW1 5168   4.155   0.971   4.836
 1423SOL    HW2 5169   4.034   1.011   4.734
 1424SOL     OW 5170   6.163   2.820   0.716
 1424SOL    HW1 5171   6.194   2.807   0.810
 1424SOL    HW2 5172   6.236   2.796   0.653
 1425SOL     OW 5173   5.431   7.021   3.452
 1425SOL    HW1 5174   5.456   0.033   3.541
 1425SOL    HW2 5175   5.352   0.043   3.416
 1426SOL     OW 5176   3.758   1.160   0.032
 1426SOL    HW1 5177   3.722   1.210   6.980
 1426SOL    HW2 5178   3.744   1.062   0.018
 1427SOL     OW 5179   1.590   0.471   3.848
 1427SOL    HW1 5180   1.502   0.515   3.829
 1427SOL    HW2 5181   1.652   0.538   3.888
 1428SOL     OW 5182   0.968   2.736   3.906
 1428SOL    HW1 5183   0.920   2.824   3.908
 1428SOL    HW2 5184   1.050   2.742   3.963
 1429SOL     OW 5185   6.528   1.004   1.761
 1429SOL    HW1 5186   6.478   1.007   1.847
 1429SOL    HW2 5187   6.584   1.086   1.751
 1430SOL     OW 5188   2.154   3.482   4.299
 1430SOL    HW1 5189   2.178   3.403   4.242
 1430SOL    HW2 5190   2.132   3.451   4.391
 1431SOL     OW 5191   2.869   1.328   0.162
 1431SOL    HW1 5192   2.855   1.249   0.220
 1431SOL    HW2 5193   2.952   1.315   0.107
 1432SOL     OW 5194   3.128   0.485   2.405
 1432SOL    HW1 5195   3.044   0.506   2.453
 1432SOL    HW2 5196   3.206   0.523   2.455
 1433SOL     OW 5197   2.716   0.421   4.014
 1433SOL    HW1 5198   2.763   0.349   3.963
 1433SOL    HW2 5199   2.739   0.412   4.111
 1434SOL     OW 5200   6.284   4.081   0.418
 1434SOL    HW1 5201   6.357   4.047   0.478
 1434SOL    HW2 5202   6.310   4.171   0.383
 1435SOL     OW 5203   1.307   0.297   3.743
 1435SOL    HW1 5204   1.310   0.318   3.841
 1435SOL    HW2 5205   1.343   0.205   3.728
 1436SOL     OW 5206   5.146   0.856   0.601
 1436SOL    HW1 5207   5.073   0.918   0.570
 1436SOL    HW2 5208   5.112   0.800   0.677
 1437SOL     OW 5209   3.921   0.693   7.006
 1437SOL    HW1 5210   3.897   0.715   0.073
 1437SOL    HW2 5211   3.991   0.757   6.973
 1438SOL     OW 5212   1.883   0.487   2.473
 1438SOL    HW1 5213   1.937   0.422   2.420
 1438SOL    HW2 5214   1.838   0.551   2.410
 1439SOL     OW 5215   0.240   4.559   6.916
 1439SOL    HW1 5216   0.181   4.618   6.862
 1439SOL    HW2 5217   0.222   4.573   7.013
 1440SOL     OW 5218   3.573   3.003   2.853
 1440SOL    HW1 5219   3.665   3.014   2.891
 1440SOL    HW2 5220   3.579   2.956   2.765
 1441SOL     OW 5221   6.536   2.792   4.225
 1441SOL    HW1 5222   6.463   2.743   4.272
 1441SOL    HW2 5223   6.615   2.731   4.213
 1442SOL     OW 5224   5.269   6.740   6.992
 1442SOL    HW1 5225   5.220   6.825   6.973
 1442SOL    HW2 5226   5.274   6.686   6.908
 1443SOL     OW 5227   1.087   2.435   3.011
 1443SOL    HW1 5228   1.044   2.491   2.940
 1443SOL    HW2 5229   1.098   2.489   3.094
 1444SOL     OW 5230   5.555   0.702   5.056
 1444SOL    HW1 5231   5.512   0.662   5.138
 1444SOL    HW2 5232   5.503   0.782   5.026
 1445SOL     OW 5233   6.234   2.225   0.512
 1445SOL    HW1 5234   6.156   2.235   0.574
 1445SOL    HW2 5235   6.268   2.131   0.516
 1446SOL     OW 5236   3.962   0.454   1.033
 1446SOL    HW1 5237   3.979   0.552   1.037
 1446SOL    HW2 5238   3.906   0.426   1.111
 1447SOL     OW 5239   5.212   1.418   4.995
 1447SOL    HW1 5240   5.226   1.376   5.084
 1447SOL    HW2 5241   5.170   1.508   5.007
 1448SOL     OW 5242   5.629   0.020   6.612
 1448SOL    HW1 5243   5.636   6.950   6.587
 1448SOL    HW2 5244   5.673   0.035   6.701
 1449SOL     OW 5245   4.713   5.529   0.860
 1449SOL    HW1 5246   4.625   5.519   0.907
 1449SOL    HW2 5247   4.698   5.569   0.770
 1450SOL     OW 5248   5.462   2.144   3.790
 1450SOL    HW1 5249   5.539   2.207   3.780
 1450SOL    HW2 5250   5.385   2.191   3.834
 1451SOL     OW 5251   1.540   7.007   1.813
 1451SOL    HW1 5252   1.515   7.005   1.717
 1451SOL    HW2 5253   1.614   0.046   1.827
 1452SOL     OW 5254   4.383   0.256   4.943
 1452SOL    HW1 5255   4.363   0.183   4.878
 1452SOL    HW2 5256   4.469   0.301   4.918
 1453SOL     OW 5257   4.656   4.280   4.146
 1453SOL    HW1 5258   4.587   4.325   4.089
 1453SOL    HW2 5259   4.630   4.287   4.242
 1454SOL     OW 5260   4.721   4.012   1.272
 1454SOL    HW1 5261   4.763   3.954   1.342
 1454SOL    HW2 5262   4.781   4.089   1.252
 1455SOL     OW 5263   2.295   2.299   1.225
 1455SOL    HW1 5264   2.345   2.213   1.237
 1455SOL    HW2 5265   2.360   2.374   1.217
 1456SOL     OW 5266   6.846   5.438   4.022
 1456SOL    HW1 5267   6.901   5.503   4.076
 1456SOL    HW2 5268   6.861   5.346   4.057
 1457SOL     OW 5269   1.704   0.349   3.607
 1457SOL    HW1 5270   1.748   0.278   3.661
 1457SOL    HW2 5271   1.651   0.409   3.667
 1458SOL     OW 5272   6.928   5.427   0.192
 1458SOL    HW1 5273   6.890   5.340   0.223
 1458SOL    HW2 5274   6.855   5.494   0.181
 1459SOL     OW 5275   2.610   0.290   1.348
 1459SOL    HW1 5276   2.656   0.269   1.262
 1459SOL    HW2 5277   2.651   0.371   1.389
 1460SOL     OW 5278   0.709   6.273   0.641
 1460SOL    HW1 5279   0.627   6.254   0.695
 1460SOL    HW2 5280   0.783   6.213   0.669
 1461SOL     OW 5281   4.551   4.617   1.405
 1461SOL    HW1 5282   4.535   4.583   1.312
 1461SOL    HW2 5283   4.631   4.572   1.443
 1462SOL     OW 5284   5.193   0.634   5.320
 1462SOL    HW1 5285   5.231   0.703   5.382
 1462SOL    HW2 5286   5.178   0.674   5.230
 1463SOL     OW 5287   0.367   1.324   5.114
 1463SOL    HW1 5288   0.338   1.251   5.176
 1463SOL    HW2 5289   0.415   1.394   5.165
 1464SOL     OW 5290   0.159   0.054   1.677
 1464SOL    HW1 5291   0.253   0.041   1.707
 1464SOL    HW2 5292   0.139   7.018   1.602
 1465SOL     OW 5293   0.187   6.861   4.824
 1465SOL    HW1 5294   0.216   6.935   4.764
 1465SOL    HW2 5295   0.143   6.789   4.769
 1466SOL     OW 5296   5.517   4.867   4.403
 1466SOL    HW1 5297   5.435   4.811   4.413
 1466SOL    HW2 5298   5.572   4.833   4.327
 1467SOL     OW 5299   5.963   3.968   2.637
 1467SOL    HW1 5300   6.034   4.037   2.638
 1467SOL    HW2 5301   5.971   3.912   2.554
 1468SOL     OW 5302   5.132   6.160   3.181
 1468SOL    HW1 5303   5.081   6.232   3.133
 1468SOL    HW2 5304   5.223   6.193   3.205
 1469SOL     OW 5305   0.135   0.880   2.498
 1469SOL    HW1 5306   0.067   0.949   2.520
 1469SOL    HW2 5307   0.224   0.909   2.532
 1470SOL     OW 5308   0.356   0.912   3.430
 1470SOL    HW1 5309   0.323   0.923   3.336
 1470SOL    HW2 5310   0.299   0.845   3.478
 1471SOL     OW 5311   6.288   0.779   0.497
 1471SOL    HW1 5312   6.319   0.832   0.576
 1471SOL    HW2 5313   6.349   0.700   0.485
 1472SOL     OW 5314   4.581   5.797   5.076
 1472SOL    HW1 5315   4.584   5.788   5.176
 1472SOL    HW2 5316   4.526   5.877   5.052
 1473SOL     OW 5317   5.879   4.405   3.379
 1473SOL    HW1 5318   5.877   4.500   3.410
 1473SOL    HW2 5319   5.905   4.346   3.455
 1474SOL     OW 5320   4.726   5.002   3.753
 1474SOL    HW1 5321   4.719   5.098   3.783
 1474SOL    HW2 5322   4.639   4.956   3.768
 1475SOL     OW 5323   6.971   0.958   3.215
 1475SOL    HW1 5324   6.965   0.900   3.297
 1475SOL    HW2 5325   6.893   0.939   3.156
 1476SOL     OW 5326   6.130   2.162   1.492
 1476SOL    HW1 5327   6.033   2.149   1.510
 1476SOL    HW2 5328   6.142   2.229   1.418
 1477SOL     OW 5329   3.034   6.333   3.599
 1477SOL    HW1 5330   2.947   6.320   3.552
 1477SOL    HW2 5331   3.072   6.423   3.574
 1478SOL     OW 5332   6.989   5.072   1.791
 1478SOL    HW1 5333   6.898   5.043   1.823
 1478SOL    HW2 5334   0.008   5.123   1.863
 1479SOL     OW 5335   0.862   5.174   0.909
 1479SOL    HW1 5336   0.871   5.083   0.951
 1479SOL    HW2 5337   0.788   5.224   0.953
 1480SOL     OW 5338   2.886   1.083   0.319
 1480SOL    HW1 5339   2.964   1.061   0.378
 1480SOL    HW2 5340   2.892   1.030   0.234
 1481SOL     OW 5341   6.960   2.221   5.923
 1481SOL    HW1 5342   0.015   2.264   5.960
 1481SOL    HW2 5343   6.970   2.121   5.926
 1482SOL     OW 5344   5.764   1.319   6.338
 1482SOL    HW1 5345   5.843   1.260   6.318
 1482SOL    HW2 5346   5.692   1.264   6.380
 1483SOL     OW 5347   6.066   2.579   6.550
 1483SOL    HW1 5348   6.014   2.494   6.563
 1483SOL    HW2 5349   6.003   2.655   6.535
 1484SOL     OW 5350   6.981   6.758   3.015
 1484SOL    HW1 5351   6.884   6.779   3.031
 1484SOL    HW2 5352   0.010   6.836   3.045
 1485SOL     OW 5353   5.833   2.690   3.716
 1485SOL    HW1 5354   5.807   2.688   3.619
 1485SOL    HW2 5355   5.751   2.682   3.773
 1486SOL     OW 5356   5.004   2.824   1.774
 1486SOL    HW1 5357   4.964   2.837   1.683
 1486SOL    HW2 5358   4.985   2.905   1.830
 1487SOL     OW 5359   6.621   1.331   5.578
 1487SOL    HW1 5360   6.705   1.277   5.588
 1487SOL    HW2 5361   6.559   1.284   5.515
 1488SOL     OW 5362   4.743   2.080   2.688
 1488SOL    HW1 5363   4.661   2.067   2.743
 1488SOL    HW2 5364   4.816   2.120   2.744
 1489SOL     OW 5365   3.947   4.887   5.030
 1489SOL    HW1 5366   3.856   4.907   4.994
 1489SOL    HW2 5367   4.011   4.875   4.954
 1490SOL     OW 5368   2.258   2.253   0.963
 1490SOL    HW1 5369   2.251   2.260   1.063
 1490SOL    HW2 5370   2.323   2.180   0.940
 1491SOL     OW 5371   6.936   2.263   5.542
 1491SOL    HW1 5372   7.011   2.329   5.533
 1491SOL    HW2 5373   6.861   2.305   5.593
 1492SOL     OW 5374   5.430   2.739   2.010
 1492SOL    HW1 5375   5.445   2.831   2.047
 1492SOL    HW2 5376   5.409   2.676   2.085
 1493SOL     OW 5377   5.427   0.971   5.287
 1493SOL    HW1 5378   5.404   0.942   5.194
 1493SOL    HW2 5379   5.370   0.921   5.353
 1494SOL     OW 5380   5.206   2.264   3.845
 1494SOL    HW1 5381   5.175   2.348   3.890
 1494SOL    HW2 5382   5.193   2.272   3.747
 1495SOL     OW 5383   1.704   2.398   2.280
 1495SOL    HW1 5384   1.662   2.377   2.369
 1495SOL    HW2 5385   1.792   2.443   2.295
 1496SOL     OW 5386   1.126   1.425   3.224
 1496SOL    HW1 5387   1.076   1.386   3.302
 1496SOL    HW2 5388   1.077   1.403   3.139
 1497SOL     OW 5389   5.337   4.369   5.859
 1497SOL    HW1 5390   5.419   4.409   5.818
 1497SOL    HW2 5391   5.359   4.279   5.895
 1498SOL     OW 5392   1.808   5.585   0.246
 1498SOL    HW1 5393   1.860   5.636   0.178
 1498SOL    HW2 5394   1.711   5.587   0.222
 1499SOL     OW 5395   0.289   4.677   4.887
 1499SOL    HW1 5396   0.200   4.677   4.841
 1499SOL    HW2 5397   0.356   4.628   4.830
 1500SOL     OW 5398   3.898   6.748   5.368
 1500SOL    HW1 5399   3.983   6.763   5.418
 1500SOL    HW2 5400   3.860   6.658   5.393
 1501SOL     OW 5401   4.392   0.422   6.388
 1501SOL    HW1 5402   4.355   0.436   6.480
 1501SOL    HW2 5403   4.322   0.382   6.329
 1502SOL     OW 5404   6.990   6.370   0.274
 1502SOL    HW1 5405   6.942   6.342   0.357
 1502SOL    HW2 5406   6.961   6.313   0.198
 1503SOL     OW 5407   3.244   3.858   5.376
 1503SOL    HW1 5408   3.188   3.784   5.415
 1503SOL    HW2 5409   3.320   3.878   5.438
 1504SOL     OW 5410   2.800   6.255   4.326
 1504SOL    HW1 5411   2.802   6.354   4.345
 1504SOL    HW2 5412   2.874   6.233   4.263
 1505SOL     OW 5413   4.591   5.052   1.898
 1505SOL    HW1 5414   4.525   5.088   1.964
 1505SOL    HW2 5415   4.599   5.114   1.820
 1506SOL     OW 5416   0.725   6.260   2.892
 1506SOL    HW1 5417   0.685   6.331   2.950
 1506SOL    HW2 5418   0.819   6.244   2.920
 1507SOL     OW 5419   2.037   0.991   6.442
 1507SOL    HW1 5420   2.103   1.052   6.400
 1507SOL    HW2 5421   2.069   0.896   6.434
 1508SOL     OW 5422   4.605   0.089   0.428
 1508SOL    HW1 5423   4.555   0.010   0.462
 1508SOL    HW2 5424   4.663   0.126   0.501
 1509SOL     OW 5425   5.380   1.627   0.437
 1509SOL    HW1 5426   5.307   1.569   0.472
 1509SOL    HW2 5427   5.431   1.579   0.366
 1510SOL     OW 5428   0.037   2.068   3.931
 1510SOL    HW1 5429   0.012   2.031   3.842
 1510SOL    HW2 5430   0.136   2.078   3.937
 1511SOL     OW 5431   1.220   2.766   0.420
 1511SOL    HW1 5432   1.213   2.865   0.432
 1511SOL    HW2 5433   1.281   2.728   0.489
 1512SOL     OW 5434   5.619   0.164   2.531
 1512SOL    HW1 5435   5.528   0.206   2.534
 1512SOL    HW2 5436   5.689   0.235   2.526
 1513SOL     OW 5437   3.324   1.118   2.593
 1513SOL    HW1 5438   3.238   1.069   2.584
 1513SOL    HW2 5439   3.363   1.135   2.502
 1514SOL     OW 5440   5.655   1.068   5.892
 1514SOL    HW1 5441   5.592   1.061   5.969
 1514SOL    HW2 5442   5.603   1.064   5.806
 1515SOL     OW 5443   6.657   5.365   4.903
 1515SOL    HW1 5444   6.609   5.294   4.853
 1515SOL    HW2 5445   6.736   5.326   4.951
 1516SOL     OW 5446   0.462   1.444   0.734
 1516SOL    HW1 5447   0.400   1.522   0.729
 1516SOL    HW2 5448   0.552   1.475   0.765
 1517SOL     OW 5449   3.555   4.879   3.454
 1517SOL    HW1 5450   3.565   4.974   3.484
 1517SOL    HW2 5451   3.591   4.870   3.362
 1518SOL     OW 5452   1.185   4.180   1.592
 1518SOL    HW1 5453   1.184   4.271   1.634
 1518SOL    HW2 5454   1.105   4.171   1.531
 1519SOL     OW 5455   0.063   4.703   0.979
 1519SOL    HW1 5456   0.060   4.614   1.025
 1519SOL    HW2 5457   0.006   4.768   1.030
 1520SOL     OW 5458   1.427   2.756   2.706
 1520SOL    HW1 5459   1.396   2.669   2.746
 1520SOL    HW2 5460   1.527   2.760   2.710
 1521SOL     OW 5461   2.697   3.986   5.988
 1521SOL    HW1 5462   2.756   4.066   5.997
 1521SOL    HW2 5463   2.700   3.953   5.894
 1522SOL     OW 5464   0.524   2.513   6.532
 1522SOL    HW1 5465   0.492   2.473   6.618
 1522SOL    HW2 5466   0.529   2.612   6.541
 1523SOL     OW 5467   6.666   1.485   0.504
 1523SOL    HW1 5468   6.572   1.463   0.477
 1523SOL    HW2 5469   6.692   1.429   0.583
 1524SOL     OW 5470   6.395   1.104   2.810
 1524SOL    HW1 5471   6.372   1.067   2.900
 1524SOL    HW2 5472   6.318   1.091   2.748
 1525SOL     OW 5473   4.980   1.872   6.144
 1525SOL    HW1 5474   5.007   1.838   6.054
 1525SOL    HW2 5475   4.999   1.970   6.150
 1526SOL     OW 5476   6.697   1.742   0.525
 1526SOL    HW1 5477   6.669   1.647   0.513
 1526SOL    HW2 5478   6.796   1.747   0.539
 1527SOL     OW 5479   2.977   1.950   5.422
 1527SOL    HW1 5480   2.969   2.024   5.355
 1527SOL    HW2 5481   2.999   1.865   5.375
 1528SOL     OW 5482   5.088   5.812   3.413
 1528SOL    HW1 5483   5.108   5.714   3.424
 1528SOL    HW2 5484   5.072   5.831   3.316
 1529SOL     OW 5485   3.243   1.017   4.977
 1529SOL    HW1 5486   3.239   1.008   4.877
 1529SOL    HW2 5487   3.261   0.928   5.018
 1530SOL     OW 5488   3.282   0.061   2.407
 1530SOL    HW1 5489   3.326   0.023   2.326
 1530SOL    HW2 5490   3.191   0.095   2.384
 1531SOL     OW 5491   6.608   0.180   5.974
 1531SOL    HW1 5492   6.508   0.186   5.969
 1531SOL    HW2 5493   6.634   0.085   5.991
 1532SOL     OW 5494   3.582   2.078   5.244
 1532SOL    HW1 5495   3.575   2.096   5.146
 1532SOL    HW2 5496   3.583   1.979   5.260
 1533SOL     OW 5497   5.570   2.805   6.921
 1533SOL    HW1 5498   5.641   2.743   6.887
 1533SOL    HW2 5499   5.549   2.872   6.849
 1534SOL     OW 5500   6.888   6.822   1.553
 1534SOL    HW1 5501   6.829   6.900   1.575
 1534SOL    HW2 5502   6.876   6.751   1.622
 1535SOL     OW 5503   4.893   5.456   3.861
 1535SOL    HW1 5504   4.874   5.547   3.898
 1535SOL    HW2 5505   4.807   5.409   3.842
 1536SOL     OW 5506   2.913   5.670   3.532
 1536SOL    HW1 5507   2.943   5.691   3.439
 1536SOL    HW2 5508   2.883   5.575   3.537
 1537SOL     OW 5509   2.252   5.411   4.182
 1537SOL    HW1 5510   2.349   5.400   4.205
 1537SOL    HW2 5511   2.215   5.490   4.231
 1538SOL     OW 5512   3.091   4.864   6.882
 1538SOL    HW1 5513   3.017   4.924   6.911
 1538SOL    HW2 5514   3.053   4.777   6.851
 1539SOL     OW 5515   3.372   4.885   1.804
 1539SOL    HW1 5516   3.443   4.815   1.796
 1539SOL    HW2 5517   3.318   4.886   1.720
 1540SOL     OW 5518   6.651   0.082   5.445
 1540SOL    HW1 5519   6.582   0.114   5.509
 1540SOL    HW2 5520   6.612   0.014   5.383
 1541SOL     OW 5521   4.627   1.942   0.648
 1541SOL    HW1 5522   4.612   1.867   0.713
 1541SOL    HW2 5523   4.691   2.008   0.688
 1542SOL     OW 5524   0.844   6.228   1.320
 1542SOL    HW1 5525   0.842   6.132   1.348
 1542SOL    HW2 5526   0.901   6.280   1.384
 1543SOL     OW 5527   2.997   3.878   4.184
 1543SOL    HW1 5528   3.063   3.931   4.237
 1543SOL    HW2 5529   2.943   3.821   4.245
 1544SOL     OW 5530   3.597   3.920   2.738
 1544SOL    HW1 5531   3.693   3.898   2.758
 1544SOL    HW2 5532   3.569   3.998   2.792
 1545SOL     OW 5533   6.895   0.516   4.588
 1545SOL    HW1 5534   6.939   0.576   4.654
 1545SOL    HW2 5535   6.933   0.532   4.497
 1546SOL     OW 5536   0.285   6.342   6.096
 1546SOL    HW1 5537   0.355   6.388   6.150
 1546SOL    HW2 5538   0.328   6.285   6.025
 1547SOL     OW 5539   3.890   6.080   6.802
 1547SOL    HW1 5540   3.878   6.149   6.731
 1547SOL    HW2 5541   3.943   6.003   6.765
 1548SOL     OW 5542   6.384   4.668   3.871
 1548SOL    HW1 5543   6.474   4.675   3.829
 1548SOL    HW2 5544   6.324   4.738   3.831
 1549SOL     OW 5545   6.247   1.682   1.554
 1549SOL    HW1 5546   6.220   1.680   1.458
 1549SOL    HW2 5547   6.177   1.638   1.610
 1550SOL     OW 5548   2.481   6.083   3.200
 1550SOL    HW1 5549   2.393   6.130   3.207
 1550SOL    HW2 5550   2.501   6.064   3.104
 1551SOL     OW 5551   0.564   3.295   1.176
 1551SOL    HW1 5552   0.659   3.275   1.151
 1551SOL    HW2 5553   0.538   3.384   1.139
 1552SOL     OW 5554   0.926   6.778   0.806
 1552SOL    HW1 5555   0.992   6.802   0.735
 1552SOL    HW2 5556   0.945   6.829   0.889
 1553SOL     OW 5557   5.747   1.778   5.916
 1553SOL    HW1 5558   5.847   1.769   5.910
 1553SOL    HW2 5559   5.704   1.719   5.848
 1554SOL     OW 5560   2.965   1.745   1.291
 1554SOL    HW1 5561   2.877   1.720   1.329
 1554SOL    HW2 5562   3.038   1.694   1.337
 1555SOL     OW 5563   4.139   0.940   6.236
 1555SOL    HW1 5564   4.048   0.945   6.195
 1555SOL    HW2 5565   4.196   0.878   6.182
 1556SOL     OW 5566   3.410   1.877   6.899
 1556SOL    HW1 5567   3.488   1.940   6.911
 1556SOL    HW2 5568   3.444   1.783   6.898
 1557SOL     OW 5569   1.657   2.938   0.430
 1557SOL    HW1 5570   1.745   2.948   0.476
 1557SOL    HW2 5571   1.619   2.848   0.451
 1558SOL     OW 5572   5.581   3.268   5.935
 1558SOL    HW1 5573   5.533   3.182   5.916
 1558SOL    HW2 5574   5.659   3.277   5.873
 1559SOL     OW 5575   2.591   4.946   3.618
 1559SOL    HW1 5576   2.522   4.880   3.589
 1559SOL    HW2 5577   2.618   5.003   3.540
 1560SOL     OW 5578   3.854   1.920   0.908
 1560SOL    HW1 5579   3.945   1.925   0.866
 1560SOL    HW2 5580   3.828   2.011   0.941
 1561SOL     OW 5581   6.241   6.058   1.137
 1561SOL    HW1 5582   6.226   6.081   1.233
 1561SOL    HW2 5583   6.258   6.142   1.085
 1562SOL     OW 5584   3.267   0.053   2.687
 1562SOL    HW1 5585   3.234   0.031   2.595
 1562SOL    HW2 5586   3.214   0.002   2.754
 1563SOL     OW 5587   2.824   2.310   3.955
 1563SOL    HW1 5588   2.918   2.277   3.966
 1563SOL    HW2 5589   2.764   2.232   3.938
 1564SOL     OW 5590   0.904   1.424   2.905
 1564SOL    HW1 5591   0.848   1.349   2.870
 1564SOL    HW2 5592   0.849   1.481   2.965
 1565SOL     OW 5593   4.236   1.311   4.791
 1565SOL    HW1 5594   4.288   1.390   4.759
 1565SOL    HW2 5595   4.139   1.325   4.773
 1566SOL     OW 5596   5.829   4.773   3.243
 1566SOL    HW1 5597   5.836   4.840   3.170
 1566SOL    HW2 5598   5.732   4.753   3.260
 1567SOL     OW 5599   5.381   0.874   4.656
 1567SOL    HW1 5600   5.293   0.919   4.640
 1567SOL    HW2 5601   5.366   0.776   4.671
 1568SOL     OW 5602   3.067   5.134   1.207
 1568SOL    HW1 5603   3.114   5.047   1.217
 1568SOL    HW2 5604   2.993   5.141   1.273
 1569SOL     OW 5605   3.091   1.222   2.989
 1569SOL    HW1 5606   3.118   1.295   2.926
 1569SOL    HW2 5607   3.066   1.263   3.077
 1570SOL     OW 5608   3.294   5.853   6.135
 1570SOL    HW1 5609   3.259   5.939   6.173
 1570SOL    HW2 5610   3.310   5.787   6.208
 1571SOL     OW 5611   0.259   3.137   3.601
 1571SOL    HW1 5612   0.328   3.196   3.643
 1571SOL    HW2 5613   0.263   3.046   3.643
 1572SOL     OW 5614   2.940   5.098   2.582
 1572SOL    HW1 5615   2.914   5.194   2.566
 1572SOL    HW2 5616   2.905   5.069   2.670
 1573SOL     OW 5617   5.574   5.908   6.923
 1573SOL    HW1 5618   5.501   5.963   6.964
 1573SOL    HW2 5619   5.638   5.879   6.993
 1574SOL     OW 5620   0.318   3.866   3.208
 1574SOL    HW1 5621   0.404   3.896   3.249
 1574SOL    HW2 5622   0.311   3.766   3.213
 1575SOL     OW 5623   6.626   2.365   0.166
 1575SOL    HW1 5624   6.568   2.300   0.214
 1575SOL    HW2 5625   6.623   2.454   0.212
 1576SOL     OW 5626   1.087   6.770   1.538
 1576SOL    HW1 5627   1.175   6.730   1.514
 1576SOL    HW2 5628   1.019   6.748   1.468
 1577SOL     OW 5629   3.791   5.817   5.358
 1577SOL    HW1 5630   3.707   5.770   5.387
 1577SOL    HW2 5631   3.842   5.757   5.296
 1578SOL     OW 5632   5.124   1.196   1.190
 1578SOL    HW1 5633   5.090   1.200   1.284
 1578SOL    HW2 5634   5.212   1.243   1.185
 1579SOL     OW 5635   2.009   2.609   1.622
 1579SOL    HW1 5636   2.098   2.573   1.651
 1579SOL    HW2 5637   2.021   2.699   1.580
 1580SOL     OW 5638   2.998   3.254   2.718
 1580SOL    HW1 5639   3.082   3.305   2.738
 1580SOL    HW2 5640   2.930   3.317   2.679
 1581SOL     OW 5641   6.334   4.973   5.687
 1581SOL    HW1 5642   6.238   4.964   5.712
 1581SOL    HW2 5643   6.341   5.014   5.596
 1582SOL     OW 5644   4.419   6.247   4.907
 1582SOL    HW1 5645   4.440   6.156   4.945
 1582SOL    HW2 5646   4.332   6.279   4.945
 1583SOL     OW 5647   1.235   4.771   4.709
 1583SOL    HW1 5648   1.145   4.795   4.673
 1583SOL    HW2 5649   1.238   4.673   4.728
 1584SOL     OW 5650   0.217   4.529   0.425
 1584SOL    HW1 5651   0.227   4.431   0.445
 1584SOL    HW2 5652   0.308   4.569   0.411
 1585SOL     OW 5653   4.255   6.402   3.532
 1585SOL    HW1 5654   4.243   6.435   3.625
 1585SOL    HW2 5655   4.324   6.330   3.530
 1586SOL     OW 5656   3.500   5.991   3.665
 1586SOL    HW1 5657   3.455   5.984   3.576
 1586SOL    HW2 5658   3.468   6.074   3.711
 1587SOL     OW 5659   3.094   6.181   6.760
 1587SOL    HW1 5660   3.143   6.268   6.753
 1587SOL    HW2 5661   3.053   6.173   6.851
 1588SOL     OW 5662   6.759   1.531   3.647
 1588SOL    HW1 5663   6.679   1.496   3.696
 1588SOL    HW2 5664   6.809   1.596   3.705
 1589SOL     OW 5665   6.570   4.243   3.964
 1589SOL    HW1 5666   6.598   4.311   4.032
 1589SOL    HW2 5667   6.575   4.151   4.005
 1590SOL     OW 5668   6.419   2.502   3.929
 1590SOL    HW1 5669   6.333   2.539   3.895
 1590SOL    HW2 5670   6.452   2.558   4.005
 1591SOL     OW 5671   1.239   6.086   1.303
 1591SOL    HW1 5672   1.280   6.081   1.212
 1591SOL    HW2 5673   1.239   6.180   1.335
 1592SOL     OW 5674   0.149   4.321   6.298
 1592SOL    HW1 5675   0.183   4.398   6.242
 1592SOL    HW2 5676   0.167   4.235   6.250
 1593SOL     OW 5677   3.368   7.022   0.010
 1593SOL    HW1 5678   3.398   6.929   7.020
 1593SOL    HW2 5679   3.271   7.022   0.034
 1594SOL     OW 5680   5.739   0.417   2.496
 1594SOL    HW1 5681   5.673   0.470   2.443
 1594SOL    HW2 5682   5.719   0.427   2.593
 1595SOL     OW 5683   0.205   3.732   0.520
 1595SOL    HW1 5684   0.251   3.648   0.549
 1595SOL    HW2 5685   0.273   3.798   0.486
 1596SOL     OW 5686   4.453   4.609   3.608
 1596SOL    HW1 5687   4.539   4.575   3.646
 1596SOL    HW2 5688   4.393   4.637   3.683
 1597SOL     OW 5689   3.896   6.215   6.550
 1597SOL    HW1 5690   3.821   6.243   6.491
 1597SOL    HW2 5691   3.959   6.292   6.563
 1598SOL     OW 5692   1.394   4.510   0.020
 1598SOL    HW1 5693   1.364   4.603   0.041
 1598SOL    HW2 5694   1.313   4.452   0.005
 1599SOL     OW 5695   4.440   5.539   2.857
 1599SOL    HW1 5696   4.413   5.635   2.861
 1599SOL    HW2 5697   4.536   5.533   2.828
 1600SOL     OW 5698   3.847   0.296   2.218
 1600SOL    HW1 5699   3.768   0.235   2.204
 1600SOL    HW2 5700   3.930   0.241   2.226
 1601SOL     OW 5701   6.342   0.446   5.601
 1601SOL    HW1 5702   6.348   0.408   5.693
 1601SOL    HW2 5703   6.276   0.521   5.600
 1602SOL     OW 5704   3.748   5.916   3.622
 1602SOL    HW1 5705   3.795   5.909   3.710
 1602SOL    HW2 5706   3.651   5.931   3.637
 1603SOL     OW 5707   3.309   5.629   3.330
 1603SOL    HW1 5708   3.357   5.697   3.274
 1603SOL    HW2 5709   3.371   5.593   3.400
 1604SOL     OW 5710   4.255   5.245   1.822
 1604SOL    HW1 5711   4.173   5.302   1.821
 1604SOL    HW2 5712   4.293   5.244   1.915
 1605SOL     OW 5713   4.786   5.263   0.778
 1605SOL    HW1 5714   4.718   5.257   0.705
 1605SOL    HW2 5715   4.782   5.354   0.820
 1606SOL     OW 5716   3.373   5.804   4.852
 1606SOL    HW1 5717   3.385   5.893   4.808
 1606SOL    HW2 5718   3.445   5.741   4.820
 1607SOL     OW 5719   4.440   5.225   2.775
 1607SOL    HW1 5720   4.516   5.169   2.809
 1607SOL    HW2 5721   4.465   5.322   2.783
 1608SOL     OW 5722   5.435   1.598   3.458
 1608SOL    HW1 5723   5.361   1.597   3.391
 1608SOL    HW2 5724   5.423   1.522   3.522
 1609SOL     OW 5725   2.681   6.904   1.310
 1609SOL    HW1 5726   2.686   6.963   1.390
 1609SOL    HW2 5727   2.603   6.930   1.254
 1610SOL     OW 5728   5.381   6.702   1.015
 1610SOL    HW1 5729   5.287   6.724   1.040
 1610SOL    HW2 5730   5.383   6.666   0.922
 1611SOL     OW 5731   1.522   4.550   1.055
 1611SOL    HW1 5732   1.470   4.514   1.133
 1611SOL    HW2 5733   1.535   4.649   1.067
 1612SOL     OW 5734   3.913   0.335   1.731
 1612SOL    HW1 5735   3.914   0.403   1.657
 1612SOL    HW2 5736   3.822   0.331   1.772
 1613SOL     OW 5737   6.814   6.092   2.305
 1613SOL    HW1 5738   6.861   6.176   2.332
 1613SOL    HW2 5739   6.880   6.029   2.263
 1614SOL     OW 5740   6.458   1.633   6.276
 1614SOL    HW1 5741   6.371   1.584   6.274
 1614SOL    HW2 5742   6.531   1.568   6.300
 1615SOL     OW 5743   1.098   3.920   6.407
 1615SOL    HW1 5744   1.000   3.927   6.422
 1615SOL    HW2 5745   1.117   3.856   6.332
 1616SOL     OW 5746   1.659   1.407   4.877
 1616SOL    HW1 5747   1.660   1.458   4.791
 1616SOL    HW2 5748   1.652   1.309   4.859
 1617SOL     OW 5749   6.501   6.511   3.265
 1617SOL    HW1 5750   6.423   6.529   3.207
 1617SOL    HW2 5751   6.489   6.558   3.353
 1618SOL     OW 5752   3.076   5.833   3.173
 1618SOL    HW1 5753   3.049   5.764   3.240
 1618SOL    HW2 5754   3.011   5.909   3.175
 1619SOL     OW 5755   1.435   4.050   0.074
 1619SOL    HW1 5756   1.379   4.032   7.020
 1619SOL    HW2 5757   1.396   4.125   0.126
 1620SOL     OW 5758   3.377   5.253   4.929
 1620SOL    HW1 5759   3.432   5.280   5.008
 1620SOL    HW2 5760   3.412   5.299   4.847
 1621SOL     OW 5761   5.079   6.215   0.454
 1621SOL    HW1 5762   5.092   6.299   0.507
 1621SOL    HW2 5763   4.984   6.207   0.426
 1622SOL     OW 5764   6.636   4.476   4.520
 1622SOL    HW1 5765   6.608   4.445   4.611
 1622SOL    HW2 5766   6.556   4.497   4.465
 1623SOL     OW 5767   7.010   2.156   3.317
 1623SOL    HW1 5768   6.948   2.081   3.293
 1623SOL    HW2 5769   6.957   2.240   3.329
 1624SOL     OW 5770   4.029   2.394   1.095
 1624SOL    HW1 5771   3.972   2.381   1.176
 1624SOL    HW2 5772   4.095   2.467   1.112
 1625SOL     OW 5773   0.233   6.003   1.065
 1625SOL    HW1 5774   0.238   5.955   1.152
 1625SOL    HW2 5775   0.261   6.099   1.078
 1626SOL     OW 5776   2.762   2.318   1.656
 1626SOL    HW1 5777   2.819   2.281   1.730
 1626SOL    HW2 5778   2.731   2.409   1.680
 1627SOL     OW 5779   4.025   1.963   5.506
 1627SOL    HW1 5780   4.122   1.942   5.490
 1627SOL    HW2 5781   4.015   2.061   5.524
 1628SOL     OW 5782   5.325   6.378   0.849
 1628SOL    HW1 5783   5.390   6.316   0.894
 1628SOL    HW2 5784   5.375   6.457   0.813
 1629SOL     OW 5785   1.894   0.583   3.628
 1629SOL    HW1 5786   1.887   0.666   3.574
 1629SOL    HW2 5787   1.809   0.530   3.619
 1630SOL     OW 5788   0.465   4.149   6.947
 1630SOL    HW1 5789   0.559   4.143   6.914
 1630SOL    HW2 5790   0.440   4.064   6.993
 1631SOL     OW 5791   6.633   3.865   0.255
 1631SOL    HW1 5792   6.656   3.895   0.162
 1631SOL    HW2 5793   6.555   3.918   0.289
 1632SOL     OW 5794   6.702   5.932   2.618
 1632SOL    HW1 5795   6.733   5.864   2.685
 1632SOL    HW2 5796   6.745   5.913   2.530
 1633SOL     OW 5797   5.828   3.680   4.365
 1633SOL    HW1 5798   5.847   3.640   4.455
 1633SOL    HW2 5799   5.833   3.779   4.370
 1634SOL     OW 5800   6.830   1.703   4.661
 1634SOL    HW1 5801   6.861   1.798   4.659
 1634SOL    HW2 5802   6.868   1.657   4.741
 1635SOL     OW 5803   4.005   6.519   2.827
 1635SOL    HW1 5804   3.937   6.561   2.887
 1635SOL    HW2 5805   3.958   6.460   2.760
 1636SOL     OW 5806   6.235   6.024   1.491
 1636SOL    HW1 5807   6.275   5.976   1.569
 1636SOL    HW2 5808   6.204   6.115   1.519
 1637SOL     OW 5809   0.831   0.330   2.210
 1637SOL    HW1 5810   0.822   0.374   2.299
 1637SOL    HW2 5811   0.865   0.237   2.222
 1638SOL     OW 5812   6.239   2.459   1.898
 1638SOL    HW1 5813   6.142   2.484   1.901
 1638SOL    HW2 5814   6.248   2.361   1.879
 1639SOL     OW 5815   5.444   2.501   2.731
 1639SOL    HW1 5816   5.401   2.590   2.743
 1639SOL    HW2 5817   5.397   2.450   2.659
 1640SOL     OW 5818   6.926   0.460   6.997
 1640SOL    HW1 5819   6.903   0.526   0.042
 1640SOL    HW2 5820   6.998   0.399   0.002
 1641SOL     OW 5821   6.251   2.396   3.098
 1641SOL    HW1 5822   6.298   2.400   3.187
 1641SOL    HW2 5823   6.252   2.302   3.065
 1642SOL     OW 5824   6.770   2.681   6.310
 1642SOL    HW1 5825   6.727   2.721   6.229
 1642SOL    HW2 5826   6.863   2.652   6.288
 1643SOL     OW 5827   2.155   5.945   3.873
 1643SOL    HW1 5828   2.193   5.888   3.946
 1643SOL    HW2 5829   2.121   5.886   3.800
 1644SOL     OW 5830   5.950   2.843   1.702
 1644SOL    HW1 5831   6.015   2.871   1.630
 1644SOL    HW2 5832   5.869   2.804   1.659
 1645SOL     OW 5833   2.297   0.626   5.313
 1645SOL    HW1 5834   2.379   0.574   5.287
 1645SOL    HW2 5835   2.325   0.711   5.357
 1646SOL     OW 5836   1.380   4.755   0.875
 1646SOL    HW1 5837   1.367   4.818   0.952
 1646SOL    HW2 5838   1.333   4.669   0.893
 1647SOL     OW 5839   5.603   2.675   3.884
 1647SOL    HW1 5840   5.651   2.743   3.939
 1647SOL    HW2 5841   5.509   2.705   3.868
 1648SOL     OW 5842   5.564   6.099   1.205
 1648SOL    HW1 5843   5.485   6.039   1.191
 1648SOL    HW2 5844   5.648   6.048   1.189
 1649SOL     OW 5845   3.893   0.511   3.188
 1649SOL    HW1 5846   3.860   0.425   3.228
 1649SOL    HW2 5847   3.819   0.555   3.138
 1650SOL     OW 5848   2.619   4.095   6.874
 1650SOL    HW1 5849   2.688   4.110   6.946
 1650SOL    HW2 5850   2.659   4.042   6.800
 1651SOL     OW 5851   0.905   2.638   3.444
 1651SOL    HW1 5852   0.851   2.565   3.403
 1651SOL    HW2 5853   0.889   2.723   3.394
 1652SOL     OW 5854   6.992   3.226   1.597
 1652SOL    HW1 5855   0.003   3.319   1.597
 1652SOL    HW2 5856   6.965   3.201   1.690
 1653SOL     OW 5857   0.362   4.720   3.415
 1653SOL    HW1 5858   0.353   4.697   3.512
 1653SOL    HW2 5859   0.271   4.723   3.373
 1654SOL     OW 5860   6.900   3.178   2.688
 1654SOL    HW1 5861   6.850   3.091   2.689
 1654SOL    HW2 5862   6.939   3.195   2.779
 1655SOL     OW 5863   6.682   0.232   5.239
 1655SOL    HW1 5864   6.626   0.314   5.249
 1655SOL    HW2 5865   6.690   0.187   5.328
 1656SOL     OW 5866   2.014   4.414   3.299
 1656SOL    HW1 5867   1.977   4.461   3.219
 1656SOL    HW2 5868   2.022   4.316   3.279
 1657SOL     OW 5869   0.944   7.005   5.273
 1657SOL    HW1 5870   0.912   7.014   5.368
 1657SOL    HW2 5871   0.867   6.980   5.214
 1658SOL     OW 5872   5.945   6.920   6.030
 1658SOL    HW1 5873   6.002   6.885   5.956
 1658SOL    HW2 5874   5.927   7.017   6.016
 1659SOL     OW 5875   4.218   6.819   6.204
 1659SOL    HW1 5876   4.243   6.915   6.216
 1659SOL    HW2 5877   4.299   6.767   6.176
 1660SOL     OW 5878   2.449   0.553   2.589
 1660SOL    HW1 5879   2.500   0.583   2.670
 1660SOL    HW2 5880   2.360   0.517   2.616
 1661SOL     OW 5881   4.489   4.426   2.443
 1661SOL    HW1 5882   4.395   4.400   2.420
 1661SOL    HW2 5883   4.488   4.507   2.503
 1662SOL     OW 5884   0.241   1.653   4.509
 1662SOL    HW1 5885   0.260   1.561   4.543
 1662SOL    HW2 5886   0.324   1.693   4.471
 1663SOL     OW 5887   4.828   4.791   6.985
 1663SOL    HW1 5888   4.748   4.847   6.963
 1663SOL    HW2 5889   4.909   4.830   6.942
 1664SOL     OW 5890   1.325   6.921   5.518
 1664SOL    HW1 5891   1.258   6.974   5.568
 1664SOL    HW2 5892   1.291   6.902   5.425
 1665SOL     OW 5893   2.650   4.418   0.279
 1665SOL    HW1 5894   2.565   4.448   0.236
 1665SOL    HW2 5895   2.712   4.497   0.287
 1666SOL     OW 5896   5.571   6.685   5.998
 1666SOL    HW1 5897   5.632   6.745   5.947
 1666SOL    HW2 5898   5.528   6.620   5.936
 1667SOL     OW 5899   0.430   6.074   1.472
 1667SOL    HW1 5900   0.357   6.036   1.416
 1667SOL    HW2 5901   0.500   6.114   1.413
 1668SOL     OW 5902   5.524   4.762   2.557
 1668SOL    HW1 5903   5.515   4.687   2.491
 1668SOL    HW2 5904   5.592   4.738   2.626
 1669SOL     OW 5905   6.177   3.775   5.576
 1669SOL    HW1 5906   6.199   3.815   5.486
 1669SOL    HW2 5907   6.144   3.848   5.636
 1670SOL     OW 5908   2.216   4.710   6.713
 1670SOL    HW1 5909   2.150   4.635   6.707
 1670SOL    HW2 5910   2.305   4.678   6.681
 1671SOL     OW 5911   6.110   2.592   1.000
 1671SOL    HW1 5912   6.173   2.520   0.974
 1671SOL    HW2 5913   6.018   2.569   0.969
 1672SOL     OW 5914   0.532   3.400   6.992
 1672SOL    HW1 5915   0.490   3.456   0.036
 1672SOL    HW2 5916   0.574   3.319   0.007
 1673SOL     OW 5917   1.587   0.739   4.567
 1673SOL    HW1 5918   1.609   0.775   4.476
 1673SOL    HW2 5919   1.600   0.811   4.635
 1674SOL     OW 5920   4.682   1.710   2.315
 1674SOL    HW1 5921   4.640   1.640   2.373
 1674SOL    HW2 5922   4.740   1.770   2.371
 1675SOL     OW 5923   5.510   0.635   0.963
 1675SOL    HW1 5924   5.604   0.629   0.930
 1675SOL    HW2 5925   5.472   0.725   0.941
 1676SOL     OW 5926   1.143   2.152   2.438
 1676SOL    HW1 5927   1.096   2.122   2.355
 1676SOL    HW2 5928   1.094   2.118   2.518
 1677SOL     OW 5929   3.980   3.126   3.615
 1677SOL    HW1 5930   4.024   3.124   3.704
 1677SOL    HW2 5931   4.026   3.194   3.557
 1678SOL     OW 5932   0.955   6.978   1.320
 1678SOL    HW1 5933   0.882   6.947   1.382
 1678SOL    HW2 5934   0.923   0.030   1.268
 1679SOL     OW 5935   0.875   2.091   6.581
 1679SOL    HW1 5936   0.937   2.168   6.564
 1679SOL    HW2 5937   0.857   2.044   6.494
 1680SOL     OW 5938   5.356   2.755   3.652
 1680SOL    HW1 5939   5.390   2.670   3.612
 1680SOL    HW2 5940   5.288   2.735   3.722
 1681SOL     OW 5941   2.414   5.936   4.502
 1681SOL    HW1 5942   2.492   5.981   4.458
 1681SOL    HW2 5943   2.432   5.928   4.600
 1682SOL     OW 5944   2.972   0.657   4.281
 1682SOL    HW1 5945   2.889   0.682   4.331
 1682SOL    HW2 5946   3.052   0.681   4.336
 1683SOL     OW 5947   6.271   4.917   2.577
 1683SOL    HW1 5948   6.216   4.874   2.506
 1683SOL    HW2 5949   6.308   4.847   2.638
 1684SOL     OW 5950   2.512   4.659   1.967
 1684SOL    HW1 5951   2.599   4.643   2.012
 1684SOL    HW2 5952   2.520   4.739   1.907
 1685SOL     OW 5953   6.871   1.716   5.262
 1685SOL    HW1 5954   6.811   1.716   5.342
 1685SOL    HW2 5955   6.831   1.771   5.189
 1686SOL     OW 5956   4.410   5.807   2.807
 1686SOL    HW1 5957   4.319   5.822   2.847
 1686SOL    HW2 5958   4.402   5.801   2.707
 1687SOL     OW 5959   5.446   4.489   1.661
 1687SOL    HW1 5960   5.422   4.392   1.667
 1687SOL    HW2 5961   5.436   4.531   1.751
 1688SOL     OW 5962   1.341   1.014   2.569
 1688SOL    HW1 5963   1.381   1.078   2.504
 1688SOL    HW2 5964   1.411   0.985   2.634
 1689SOL     OW 5965   4.683   0.799   1.013
 1689SOL    HW1 5966   4.680   0.795   1.113
 1689SOL    HW2 5967   4.700   0.893   0.984
 1690SOL     OW 5968   0.421   4.390   3.758
 1690SOL    HW1 5969   0.485   4.448   3.809
 1690SOL    HW2 5970   0.403   4.306   3.810
 1691SOL     OW 5971   4.647   2.775   5.291
 1691SOL    HW1 5972   4.667   2.805   5.385
 1691SOL    HW2 5973   4.559   2.814   5.262
 1692SOL     OW 5974   5.019   5.050   1.701
 1692SOL    HW1 5975   5.095   5.104   1.664
 1692SOL    HW2 5976   4.938   5.108   1.707
 1693SOL     OW 5977   5.455   0.165   5.033
 1693SOL    HW1 5978   5.508   0.086   5.002
 1693SOL    HW2 5979   5.518   0.238   5.061
 1694SOL     OW 5980   4.943   1.731   5.727
 1694SOL    HW1 5981   4.921   1.644   5.771
 1694SOL    HW2 5982   5.014   1.777   5.779
 1695SOL     OW 5983   4.306   0.959   6.737
 1695SOL    HW1 5984   4.250   0.894   6.788
 1695SOL    HW2 5985   4.301   1.049   6.780
 1696SOL     OW 5986   5.126   6.561   0.506
 1696SOL    HW1 5987   5.139   6.657   0.479
 1696SOL    HW2 5988   5.151   6.550   0.602
 1697SOL     OW 5989   4.912   2.038   2.170
 1697SOL    HW1 5990   4.933   2.089   2.086
 1697SOL    HW2 5991   4.968   2.074   2.245
 1698SOL     OW 5992   4.060   0.684   1.684
 1698SOL    HW1 5993   4.104   0.771   1.706
 1698SOL    HW2 5994   4.121   0.609   1.710
 1699SOL     OW 5995   2.702   6.726   0.218
 1699SOL    HW1 5996   2.659   6.651   0.169
 1699SOL    HW2 5997   2.636   6.767   0.281
 1700SOL     OW 5998   6.087   2.354   2.798
 1700SOL    HW1 5999   6.054   2.443   2.766
 1700SOL    HW2 6000   6.018   2.312   2.857
 1701SOL     OW 6001   6.945   5.852   4.613
 1701SOL    HW1 6002   6.878   5.780   4.596
 1701SOL    HW2 6003   6.918   5.905   4.693
 1702SOL     OW 6004   2.121   2.313   6.293
 1702SOL    HW1 6005   2.113   2.412   6.280
 1702SOL    HW2 6006   2.141   2.270   6.205
 1703SOL     OW 6007   2.228   1.861   1.405
 1703SOL    HW1 6008   2.184   1.872   1.316
 1703SOL    HW2 6009   2.318   1.905   1.404
 1704SOL     OW 6010   2.891   2.365   1.088
 1704SOL    HW1 6011   2.801   2.341   1.124
 1704SOL    HW2 6012   2.957   2.295   1.115
 1705SOL     OW 6013   3.850   2.425   0.730
 1705SOL    HW1 6014   3.826   2.521   0.748
 1705SOL    HW2 6015   3.943   2.420   0.693
 1706SOL     OW 6016   5.061   2.080   6.899
 1706SOL    HW1 6017   5.038   2.136   6.819
 1706SOL    HW2 6018   5.156   2.096   6.924
 1707SOL     OW 6019   4.353   1.512   2.035
 1707SOL    HW1 6020   4.254   1.526   2.027
 1707SOL    HW2 6021   4.388   1.475   1.948
 1708SOL     OW 6022   3.355   4.927   2.076
 1708SOL    HW1 6023   3.358   4.906   1.979
 1708SOL    HW2 6024   3.404   4.856   2.127
 1709SOL     OW 6025   4.925   5.071   0.889
 1709SOL    HW1 6026   4.923   5.105   0.983
 1709SOL    HW2 6027   4.882   5.138   0.828
 1710SOL     OW 6028   5.023   4.913   3.089
 1710SOL    HW1 6029   5.016   4.958   3.000
 1710SOL    HW2 6030   5.014   4.814   3.077
 1711SOL     OW 6031   4.359   4.671   6.587
 1711SOL    HW1 6032   4.291   4.705   6.652
 1711SOL    HW2 6033   4.416   4.602   6.631
 1712SOL     OW 6034   0.540   1.429   2.451
 1712SOL    HW1 6035   0.612   1.486   2.489
 1712SOL    HW2 6036   0.468   1.486   2.412
 1713SOL     OW 6037   3.952   0.875   3.115
 1713SOL    HW1 6038   3.925   0.945   3.181
 1713SOL    HW2 6039   4.031   0.825   3.150
 1714SOL     OW 6040   3.588   3.382   0.143
 1714SOL    HW1 6041   3.604   3.479   0.159
 1714SOL    HW2 6042   3.605   3.360   0.047
 1715SOL     OW 6043   2.311   6.872   2.735
 1715SOL    HW1 6044   2.270   6.939   2.674
 1715SOL    HW2 6045   2.339   6.792   2.682
 1716SOL     OW 6046   4.898   1.326   3.571
 1716SOL    HW1 6047   4.990   1.316   3.532
 1716SOL    HW2 6048   4.905   1.334   3.671
 1717SOL     OW 6049   3.147   6.643   5.185
 1717SOL    HW1 6050   3.201   6.559   5.196
 1717SOL    HW2 6051   3.096   6.660   5.269
 1718SOL     OW 6052   1.196   3.079   1.151
 1718SOL    HW1 6053   1.116   3.100   1.207
 1718SOL    HW2 6054   1.218   2.982   1.161
 1719SOL     OW 6055   1.195   5.277   2.838
 1719SOL    HW1 6056   1.176   5.283   2.936
 1719SOL    HW2 6057   1.149   5.197   2.800
 1720SOL     OW 6058   0.719   2.809   6.038
 1720SOL    HW1 6059   0.764   2.719   6.030
 1720SOL    HW2 6060   0.777   2.879   5.995
 1721SOL     OW 6061   1.179   2.182   0.699
 1721SOL    HW1 6062   1.083   2.199   0.676
 1721SOL    HW2 6063   1.232   2.170   0.615
 1722SOL     OW 6064   2.456   2.514   3.670
 1722SOL    HW1 6065   2.518   2.525   3.748
 1722SOL    HW2 6066   2.439   2.416   3.656
 1723SOL     OW 6067   5.753   3.901   0.688
 1723SOL    HW1 6068   5.834   3.857   0.725
 1723SOL    HW2 6069   5.698   3.833   0.639
 1724SOL     OW 6070   5.965   2.428   1.376
 1724SOL    HW1 6071   5.946   2.456   1.470
 1724SOL    HW2 6072   6.043   2.480   1.340
 1725SOL     OW 6073   1.688   5.878   6.670
 1725SOL    HW1 6074   1.714   5.909   6.762
 1725SOL    HW2 6075   1.589   5.862   6.667
 1726SOL     OW 6076   5.553   4.465   2.827
 1726SOL    HW1 6077   5.627   4.408   2.790
 1726SOL    HW2 6078   5.467   4.443   2.780
 1727SOL     OW 6079   3.126   3.806   3.069
 1727SOL    HW1 6080   3.190   3.877   3.095
 1727SOL    HW2 6081   3.079   3.832   2.984
 1728SOL     OW 6082   5.167   2.704   3.858
 1728SOL    HW1 6083   5.221   2.773   3.907
 1728SOL    HW2 6084   5.142   2.631   3.922
 1729SOL     OW 6085   1.236   2.959   2.808
 1729SOL    HW1 6086   1.325   2.923   2.779
 1729SOL    HW2 6087   1.237   3.058   2.804
 1730SOL     OW 6088   1.986   5.345   4.304
 1730SOL    HW1 6089   2.076   5.359   4.347
 1730SOL    HW2 6090   1.958   5.428   4.257
 1731SOL     OW 6091   6.370   4.989   3.631
 1731SOL    HW1 6092   6.450   5.021   3.682
 1731SOL    HW2 6093   6.384   5.006   3.534
 1732SOL     OW 6094   2.712   3.445   5.871
 1732SOL    HW1 6095   2.754   3.469   5.783
 1732SOL    HW2 6096   2.653   3.365   5.859
 1733SOL     OW 6097   2.095   3.417   6.271
 1733SOL    HW1 6098   2.088   3.318   6.282
 1733SOL    HW2 6099   2.037   3.462   6.339
 1734SOL     OW 6100   6.480   3.125   1.267
 1734SOL    HW1 6101   6.479   3.110   1.366
 1734SOL    HW2 6102   6.571   3.152   1.238
 1735SOL     OW 6103   4.040   5.314   5.956
 1735SOL    HW1 6104   4.032   5.392   6.018
 1735SOL    HW2 6105   3.956   5.260   5.960
 1736SOL     OW 6106   5.276   2.652   0.588
 1736SOL    HW1 6107   5.265   2.749   0.612
 1736SOL    HW2 6108   5.238   2.595   0.661
 1737SOL     OW 6109   4.555   1.839   5.153
 1737SOL    HW1 6110   4.543   1.898   5.073
 1737SOL    HW2 6111   4.652   1.840   5.180
 1738SOL     OW 6112   1.399   3.103   4.164
 1738SOL    HW1 6113   1.428   3.065   4.076
 1738SOL    HW2 6114   1.301   3.090   4.176
 1739SOL     OW 6115   5.793   0.781   3.590
 1739SOL    HW1 6116   5.805   0.696   3.641
 1739SOL    HW2 6117   5.785   0.761   3.493
 1740SOL     OW 6118   6.235   2.823   4.878
 1740SOL    HW1 6119   6.279   2.881   4.947
 1740SOL    HW2 6120   6.261   2.728   4.893
 1741SOL     OW 6121   0.169   2.155   4.550
 1741SOL    HW1 6122   0.162   2.082   4.483
 1741SOL    HW2 6123   0.228   2.127   4.626
 1742SOL     OW 6124   6.416   5.897   6.160
 1742SOL    HW1 6125   6.434   5.986   6.203
 1742SOL    HW2 6126   6.487   5.832   6.188
 1743SOL     OW 6127   1.824   1.480   2.191
 1743SOL    HW1 6128   1.891   1.490   2.118
 1743SOL    HW2 6129   1.760   1.557   2.188
 1744SOL     OW 6130   3.555   2.113   4.976
 1744SOL    HW1 6131   3.579   2.187   4.914
 1744SOL    HW2 6132   3.468   2.073   4.949
 1745SOL     OW 6133   6.127   6.636   1.118
 1745SOL    HW1 6134   6.135   6.551   1.065
 1745SOL    HW2 6135   6.032   6.650   1.144
 1746SOL     OW 6136   2.477   4.537   3.427
 1746SOL    HW1 6137   2.512   4.518   3.335
 1746SOL    HW2 6138   2.386   4.495   3.437
 1747SOL     OW 6139   4.601   0.254   2.408
 1747SOL    HW1 6140   4.513   0.298   2.425
 1747SOL    HW2 6141   4.675   0.321   2.419
 1748SOL     OW 6142   6.658   3.022   5.066
 1748SOL    HW1 6143   6.674   3.110   5.020
 1748SOL    HW2 6144   6.624   3.038   5.158
 1749SOL     OW 6145   0.888   4.951   1.044
 1749SOL    HW1 6146   0.851   4.919   1.131
 1749SOL    HW2 6147   0.986   4.932   1.040
 1750SOL     OW 6148   3.875   0.144   6.049
 1750SOL    HW1 6149   3.850   0.127   5.954
 1750SOL    HW2 6150   3.935   0.071   6.082
 1751SOL     OW 6151   6.164   3.017   5.181
 1751SOL    HW1 6152   6.254   3.010   5.136
 1751SOL    HW2 6153   6.139   3.114   5.189
 1752SOL     OW 6154   6.725   0.325   2.350
 1752SOL    HW1 6155   6.629   0.352   2.354
 1752SOL    HW2 6156   6.783   0.404   2.369
 1753SOL     OW 6157   6.235   1.379   1.974
 1753SOL    HW1 6158   6.284   1.346   2.055
 1753SOL    HW2 6159   6.140   1.400   1.998
 1754SOL     OW 6160   2.862   5.544   4.134
 1754SOL    HW1 6161   2.893   5.537   4.229
 1754SOL    HW2 6162   2.775   5.497   4.123
 1755SOL     OW 6163   6.090   6.719   4.408
 1755SOL    HW1 6164   6.034   6.684   4.483
 1755SOL    HW2 6165   6.053   6.687   4.321
 1756SOL     OW 6166   4.724   6.528   0.431
 1756SOL    HW1 6167   4.707   6.565   0.523
 1756SOL    HW2 6168   4.762   6.436   0.439
 1757SOL     OW 6169   2.286   5.353   5.025
 1757SOL    HW1 6170   2.296   5.451   5.009
 1757SOL    HW2 6171   2.375   5.309   5.021
 1758SOL     OW 6172   1.815   6.086   4.745
 1758SOL    HW1 6173   1.846   6.032   4.667
 1758SOL    HW2 6174   1.894   6.112   4.801
 1759SOL     OW 6175   1.289   6.500   0.386
 1759SOL    HW1 6176   1.243   6.491   0.298
 1759SOL    HW2 6177   1.350   6.580   0.383
 1760SOL     OW 6178   6.977   1.000   4.735
 1760SOL    HW1 6179   6.895   0.964   4.691
 1760SOL    HW2 6180   6.993   1.094   4.704
 1761SOL     OW 6181   5.605   1.368   2.479
 1761SOL    HW1 6182   5.561   1.329   2.399
 1761SOL    HW2 6183   5.702   1.345   2.479
 1762SOL     OW 6184   0.971   1.492   5.667
 1762SOL    HW1 6185   1.027   1.548   5.606
 1762SOL    HW2 6186   0.986   1.520   5.762
 1763SOL     OW 6187   0.542   3.825   3.822
 1763SOL    HW1 6188   0.636   3.831   3.788
 1763SOL    HW2 6189   0.492   3.908   3.796
 1764SOL     OW 6190   1.126   5.359   3.103
 1764SOL    HW1 6191   1.076   5.296   3.162
 1764SOL    HW2 6192   1.223   5.358   3.127
 1765SOL     OW 6193   5.563   3.505   2.500
 1765SOL    HW1 6194   5.515   3.551   2.574
 1765SOL    HW2 6195   5.594   3.572   2.433
 1766SOL     OW 6196   4.278   4.679   3.821
 1766SOL    HW1 6197   4.185   4.698   3.790
 1766SOL    HW2 6198   4.276   4.602   3.886
 1767SOL     OW 6199   0.426   4.688   2.406
 1767SOL    HW1 6200   0.369   4.630   2.463
 1767SOL    HW2 6201   0.399   4.783   2.416
 1768SOL     OW 6202   5.158   5.309   2.174
 1768SOL    HW1 6203   5.125   5.270   2.088
 1768SOL    HW2 6204   5.112   5.264   2.251
 1769SOL     OW 6205   5.984   0.320   0.406
 1769SOL    HW1 6206   5.921   0.270   0.347
 1769SOL    HW2 6207   6.025   0.257   0.472
 1770SOL     OW 6208   1.722   5.005   0.894
 1770SOL    HW1 6209   1.622   4.997   0.895
 1770SOL    HW2 6210   1.755   4.991   0.800
 1771SOL     OW 6211   2.055   2.946   5.877
 1771SOL    HW1 6212   2.055   3.019   5.808
 1771SOL    HW2 6213   1.962   2.909   5.887
 1772SOL     OW 6214   2.153   4.176   2.626
 1772SOL    HW1 6215   2.139   4.144   2.720
 1772SOL    HW2 6216   2.179   4.099   2.568
 1773SOL     OW 6217   2.066   6.199   6.511
 1773SOL    HW1 6218   2.023   6.245   6.588
 1773SOL    HW2 6219   2.044   6.247   6.426
 1774SOL     OW 6220   5.651   5.515   0.738
 1774SOL    HW1 6221   5.678   5.507   0.834
 1774SOL    HW2 6222   5.658   5.610   0.709
 1775SOL     OW 6223   2.182   5.357   0.235
 1775SOL    HW1 6224   2.100   5.402   0.200
 1775SOL    HW2 6225   2.260   5.418   0.223
 1776SOL     OW 6226   4.688   2.379   4.979
 1776SOL    HW1 6227   4.736   2.389   5.066
 1776SOL    HW2 6228   4.605   2.434   4.980
 1777SOL     OW 6229   4.861   6.385   0.081
 1777SOL    HW1 6230   4.897   6.291   0.074
 1777SOL    HW2 6231   4.890   6.425   0.168
 1778SOL     OW 6232   6.025   7.025   4.036
 1778SOL    HW1 6233   6.072   0.065   3.979
 1778SOL    HW2 6234   6.000   0.039   4.123
 1779SOL     OW 6235   5.350   0.316   4.080
 1779SOL    HW1 6236   5.271   0.354   4.032
 1779SOL    HW2 6237   5.321   0.243   4.141
 1780SOL     OW 6238   1.951   5.031   5.039
 1780SOL    HW1 6239   2.004   5.092   4.979
 1780SOL    HW2 6240   1.975   4.936   5.018
 1781SOL     OW 6241   4.238   0.995   4.976
 1781SOL    HW1 6242   4.334   0.982   5.000
 1781SOL    HW2 6243   4.205   1.082   5.013
 1782SOL     OW 6244   6.594   1.494   2.424
 1782SOL    HW1 6245   6.655   1.562   2.464
 1782SOL    HW2 6246   6.577   1.519   2.328
 1783SOL     OW 6247   1.745   3.826   6.413
 1783SOL    HW1 6248   1.809   3.883   6.362
 1783SOL    HW2 6249   1.741   3.735   6.373
 1784SOL     OW 6250   2.812   6.690   1.648
 1784SOL    HW1 6251   2.727   6.736   1.675
 1784SOL    HW2 6252   2.792   6.620   1.580
 1785SOL     OW 6253   1.263   6.815   4.942
 1785SOL    HW1 6254   1.229   6.737   4.888
 1785SOL    HW2 6255   1.212   6.820   5.028
 1786SOL     OW 6256   1.200   6.614   1.069
 1786SOL    HW1 6257   1.200   6.701   1.120
 1786SOL    HW2 6258   1.108   6.574   1.074
 1787SOL     OW 6259   2.443   3.398   6.356
 1787SOL    HW1 6260   2.409   3.428   6.445
 1787SOL    HW2 6261   2.496   3.314   6.366
 1788SOL     OW 6262   4.309   3.718   1.422
 1788SOL    HW1 6263   4.396   3.669   1.421
 1788SOL    HW2 6264   4.326   3.817   1.416
 1789SOL     OW 6265   6.318   3.909   2.348
 1789SOL    HW1 6266   6.354   3.817   2.331
 1789SOL    HW2 6267   6.219   3.905   2.356
 1790SOL     OW 6268   1.848   2.297   4.349
 1790SOL    HW1 6269   1.749   2.292   4.368
 1790SOL    HW2 6270   1.866   2.371   4.285
 1791SOL     OW 6271   5.082   0.314   3.509
 1791SOL    HW1 6272   5.049   0.403   3.479
 1791SOL    HW2 6273   5.031   0.242   3.463
 1792SOL     OW 6274   0.316   2.105   5.914
 1792SOL    HW1 6275   0.407   2.133   5.944
 1792SOL    HW2 6276   0.292   2.018   5.957
 1793SOL     OW 6277   0.322   0.882   5.827
 1793SOL    HW1 6278   0.332   0.926   5.738
 1793SOL    HW2 6279   0.409   0.840   5.853
 1794SOL     OW 6280   1.136   0.320   5.836
 1794SOL    HW1 6281   1.222   0.361   5.867
 1794SOL    HW2 6282   1.075   0.392   5.804
 1795SOL     OW 6283   5.523   4.445   1.044
 1795SOL    HW1 6284   5.541   4.354   1.007
 1795SOL    HW2 6285   5.569   4.455   1.132
 1796SOL     OW 6286   0.550   0.375   6.619
 1796SOL    HW1 6287   0.591   0.463   6.595
 1796SOL    HW2 6288   0.617   0.302   6.607
 1797SOL     OW 6289   2.016   4.950   5.431
 1797SOL    HW1 6290   1.992   5.046   5.442
 1797SOL    HW2 6291   2.067   4.938   5.346
 1798SOL     OW 6292   2.633   3.851   5.325
 1798SOL    HW1 6293   2.557   3.893   5.275
 1798SOL    HW2 6294   2.711   3.913   5.326
 1799SOL     OW 6295   3.003   1.591   0.909
 1799SOL    HW1 6296   2.996   1.661   0.838
 1799SOL    HW2 6297   3.071   1.618   0.977
 1800SOL     OW 6298   5.832   3.403   5.180
 1800SOL    HW1 6299   5.770   3.329   5.155
 1800SOL    HW2 6300   5.826   3.477   5.112
 1801SOL     OW 6301   0.850   0.157   3.180
 1801SOL    HW1 6302   0.855   0.138   3.082
 1801SOL    HW2 6303   0.887   0.249   3.198
 1802SOL     OW 6304   7.017   5.041   4.033
 1802SOL    HW1 6305   6.972   5.113   4.086
 1802SOL    HW2 6306   6.978   5.039   3.940
 1803SOL     OW 6307   0.269   0.128   3.511
 1803SOL    HW1 6308   0.262   0.174   3.600
 1803SOL    HW2 6309   0.251   0.030   3.523
 1804SOL     OW 6310   2.411   3.338   6.087
 1804SOL    HW1 6311   2.330   3.361   6.033
 1804SOL    HW2 6312   2.390   3.348   6.185
 1805SOL     OW 6313   6.515   5.280   0.676
 1805SOL    HW1 6314   6.551   5.200   0.628
 1805SOL    HW2 6315   6.430   5.255   0.724
 1806SOL     OW 6316   0.259   1.281   0.975
 1806SOL    HW1 6317   0.305   1.364   1.008
 1806SOL    HW2 6318   0.325   1.226   0.923
 1807SOL     OW 6319   0.385   2.479   2.598
 1807SOL    HW1 6320   0.319   2.433   2.539
 1807SOL    HW2 6321   0.450   2.530   2.542
 1808SOL     OW 6322   5.296   1.836   6.225
 1808SOL    HW1 6323   5.241   1.908   6.268
 1808SOL    HW2 6324   5.348   1.787   6.296
 1809SOL     OW 6325   4.716   0.293   5.228
 1809SOL    HW1 6326   4.717   0.299   5.328
 1809SOL    HW2 6327   4.698   0.199   5.200
 1810SOL     OW 6328   1.104   0.727   4.749
 1810SOL    HW1 6329   1.102   0.652   4.683
 1810SOL    HW2 6330   1.197   0.737   4.784
 1811SOL     OW 6331   3.796   5.669   1.987
 1811SOL    HW1 6332   3.774   5.686   1.891
 1811SOL    HW2 6333   3.844   5.748   2.024
 1812SOL     OW 6334   4.712   6.492   6.253
 1812SOL    HW1 6335   4.672   6.435   6.181
 1812SOL    HW2 6336   4.780   6.554   6.212
 1813SOL     OW 6337   4.909   4.366   2.054
 1813SOL    HW1 6338   4.859   4.357   1.968
 1813SOL    HW2 6339   4.870   4.302   2.121
 1814SOL     OW 6340   6.745   6.261   0.494
 1814SOL    HW1 6341   6.826   6.249   0.551
 1814SOL    HW2 6342   6.699   6.173   0.481
 1815SOL     OW 6343   5.383   6.262   1.358
 1815SOL    HW1 6344   5.379   6.352   1.314
 1815SOL    HW2 6345   5.446   6.203   1.308
 1816SOL     OW 6346   4.355   4.749   5.202
 1816SOL    HW1 6347   4.314   4.729   5.113
 1816SOL    HW2 6348   4.311   4.694   5.272
 1817SOL     OW 6349   0.038   2.495   3.758
 1817SOL    HW1 6350   0.093   2.572   3.790
 1817SOL    HW2 6351   0.098   2.428   3.714
 1818SOL     OW 6352   2.676   1.150   0.460
 1818SOL    HW1 6353   2.583   1.113   0.457
 1818SOL    HW2 6354   2.734   1.101   0.395
 1819SOL     OW 6355   1.800   4.333   2.549
 1819SOL    HW1 6356   1.753   4.268   2.489
 1819SOL    HW2 6357   1.884   4.365   2.505
 1820SOL     OW 6358   3.117   0.154   5.204
 1820SOL    HW1 6359   3.047   0.125   5.139
 1820SOL    HW2 6360   3.108   0.252   5.221
 1821SOL     OW 6361   3.814   1.759   2.142
 1821SOL    HW1 6362   3.872   1.792   2.217
 1821SOL    HW2 6363   3.800   1.833   2.076
 1822SOL     OW 6364   6.932   3.101   3.128
 1822SOL    HW1 6365   6.983   3.082   3.212
 1822SOL    HW2 6366   6.992   3.093   3.049
 1823SOL     OW 6367   4.310   6.389   1.873
 1823SOL    HW1 6368   4.403   6.354   1.878
 1823SOL    HW2 6369   4.278   6.413   1.965
 1824SOL     OW 6370   4.401   3.123   1.726
 1824SOL    HW1 6371   4.483   3.109   1.782
 1824SOL    HW2 6372   4.378   3.220   1.725
 1825SOL     OW 6373   0.957   2.585   5.238
 1825SOL    HW1 6374   0.994   2.553   5.325
 1825SOL    HW2 6375   1.016   2.657   5.201
 1826SOL     OW 6376   3.487   2.110   1.792
 1826SOL    HW1 6377   3.391   2.131   1.810
 1826SOL    HW2 6378   3.545   2.180   1.835
 1827SOL     OW 6379   5.677   5.736   0.582
 1827SOL    HW1 6380   5.747   5.706   0.517
 1827SOL    HW2 6381   5.715   5.806   0.643
 1828SOL     OW 6382   1.643   3.781   5.184
 1828SOL    HW1 6383   1.581   3.790   5.262
 1828SOL    HW2 6384   1.728   3.831   5.202
 1829SOL     OW 6385   3.671   0.378   1.841
 1829SOL    HW1 6386   3.617   0.459   1.818
 1829SOL    HW2 6387   3.612   0.297   1.841
 1830SOL     OW 6388   5.532   0.764   6.199
 1830SOL    HW1 6389   5.498   0.850   6.238
 1830SOL    HW2 6390   5.632   0.762   6.205
 1831SOL     OW 6391   3.685   5.176   0.205
 1831SOL    HW1 6392   3.603   5.127   0.234
 1831SOL    HW2 6393   3.694   5.169   0.105
 1832SOL     OW 6394   2.677   2.744   0.121
 1832SOL    HW1 6395   2.662   2.789   0.209
 1832SOL    HW2 6396   2.737   2.799   0.065
 1833SOL     OW 6397   5.458   1.438   6.821
 1833SOL    HW1 6398   5.472   1.511   6.888
 1833SOL    HW2 6399   5.543   1.386   6.811
 1834SOL     OW 6400   0.331   2.683   5.222
 1834SOL    HW1 6401   0.403   2.703   5.289
 1834SOL    HW2 6402   0.312   2.764   5.168
 1835SOL     OW 6403   6.521   6.693   1.548
 1835SOL    HW1 6404   6.452   6.622   1.540
 1835SOL    HW2 6405   6.590   6.665   1.614
 1836SOL     OW 6406   5.171   2.693   2.265
 1836SOL    HW1 6407   5.192   2.790   2.282
 1836SOL    HW2 6408   5.156   2.679   2.168
 1837SOL     OW 6409   3.259   2.103   6.853
 1837SOL    HW1 6410   3.177   2.096   6.796
 1837SOL    HW2 6411   3.316   2.022   6.840
 1838SOL     OW 6412   5.050   0.690   0.826
 1838SOL    HW1 6413   5.021   0.633   0.903
 1838SOL    HW2 6414   4.974   0.700   0.761
 1839SOL     OW 6415   0.204   0.317   0.648
 1839SOL    HW1 6416   0.229   0.323   0.552
 1839SOL    HW2 6417   0.217   0.223   0.681
 1840SOL     OW 6418   4.489   6.223   4.050
 1840SOL    HW1 6419   4.562   6.274   4.006
 1840SOL    HW2 6420   4.439   6.283   4.112
 1841SOL     OW 6421   1.438   1.115   1.790
 1841SOL    HW1 6422   1.400   1.080   1.875
 1841SOL    HW2 6423   1.371   1.172   1.744
 1842SOL     OW 6424   1.164   5.768   1.196
 1842SOL    HW1 6425   1.126   5.773   1.288
 1842SOL    HW2 6426   1.130   5.845   1.142
 1843SOL     OW 6427   2.497   1.042   6.120
 1843SOL    HW1 6428   2.491   1.106   6.197
 1843SOL    HW2 6429   2.472   0.950   6.151
 1844SOL     OW 6430   5.938   2.759   6.171
 1844SOL    HW1 6431   6.005   2.817   6.218
 1844SOL    HW2 6432   5.950   2.767   6.072
 1845SOL     OW 6433   1.010   1.998   2.926
 1845SOL    HW1 6434   1.070   2.064   2.972
 1845SOL    HW2 6435   1.066   1.933   2.875
 1846SOL     OW 6436   2.922   1.319   1.301
 1846SOL    HW1 6437   2.852   1.329   1.373
 1846SOL    HW2 6438   2.887   1.258   1.230
 1847SOL     OW 6439   1.555   5.781   5.996
 1847SOL    HW1 6440   1.485   5.716   5.967
 1847SOL    HW2 6441   1.517   5.843   6.064
 1848SOL     OW 6442   4.038   6.505   3.397
 1848SOL    HW1 6443   4.117   6.468   3.446
 1848SOL    HW2 6444   4.015   6.445   3.321
 1849SOL     OW 6445   4.836   2.435   2.114
 1849SOL    HW1 6446   4.768   2.390   2.172
 1849SOL    HW2 6447   4.804   2.526   2.089
 1850SOL     OW 6448   3.922   2.096   0.619
 1850SOL    HW1 6449   3.877   2.133   0.700
 1850SOL    HW2 6450   3.939   2.169   0.553
 1851SOL     OW 6451   6.937   4.496   4.991
 1851SOL    HW1 6452   6.874   4.425   5.024
 1851SOL    HW2 6453   0.004   4.463   5.001
 1852SOL     OW 6454   0.717   0.400   2.855
 1852SOL    HW1 6455   0.737   0.312   2.897
 1852SOL    HW2 6456   0.686   0.465   2.925
 1853SOL     OW 6457   0.176   2.319   5.999
 1853SOL    HW1 6458   0.151   2.297   6.094
 1853SOL    HW2 6459   0.249   2.258   5.969
 1854SOL     OW 6460   0.865   6.708   3.458
 1854SOL    HW1 6461   0.810   6.765   3.519
 1854SOL    HW2 6462   0.891   6.624   3.506
 1855SOL     OW 6463   5.571   3.006   4.551
 1855SOL    HW1 6464   5.627   2.943   4.497
 1855SOL    HW2 6465   5.475   2.990   4.531
 1856SOL     OW 6466   4.070   3.386   0.310
 1856SOL    HW1 6467   4.147   3.438   0.273
 1856SOL    HW2 6468   4.078   3.290   0.280
 1857SOL     OW 6469   3.680   1.212   6.814
 1857SOL    HW1 6470   3.644   1.137   6.759
 1857SOL    HW2 6471   3.631   1.296   6.792
 1858SOL     OW 6472   4.854   2.591   3.951
 1858SOL    HW1 6473   4.833   2.687   3.968
 1858SOL    HW2 6474   4.830   2.567   3.857
 1859SOL     OW 6475   6.247   1.256   4.043
 1859SOL    HW1 6476   6.174   1.307   3.996
 1859SOL    HW2 6477   6.309   1.321   4.088
 1860SOL     OW 6478   2.123   0.853   6.100
 1860SOL    HW1 6479   2.110   0.951   6.088
 1860SOL    HW2 6480   2.177   0.817   6.024
 1861SOL     OW 6481   6.679   6.667   4.464
 1861SOL    HW1 6482   6.714   6.594   4.523
 1861SOL    HW2 6483   6.589   6.641   4.428
 1862SOL     OW 6484   2.791   5.528   5.159
 1862SOL    HW1 6485   2.772   5.586   5.239
 1862SOL    HW2 6486   2.798   5.432   5.189
 1863SOL     OW 6487   0.180   2.611   1.112
 1863SOL    HW1 6488   0.151   2.539   1.049
 1863SOL    HW2 6489   0.280   2.616   1.113
 1864SOL     OW 6490   3.899   5.697   2.400
 1864SOL    HW1 6491   3.931   5.783   2.441
 1864SOL    HW2 6492   3.960   5.622   2.428
 1865SOL     OW 6493   6.078   2.190   5.831
 1865SOL    HW1 6494   6.067   2.155   5.924
 1865SOL    HW2 6495   6.092   2.289   5.833
 1866SOL     OW 6496   0.581   5.013   3.307
 1866SOL    HW1 6497   0.601   5.013   3.405
 1866SOL    HW2 6498   0.666   5.025   3.256
 1867SOL     OW 6499   0.549   2.500   1.601
 1867SOL    HW1 6500   0.647   2.515   1.602
 1867SOL    HW2 6501   0.509   2.544   1.521
 1868SOL     OW 6502   5.470   3.498   0.020
 1868SOL    HW1 6503   5.393   3.563   0.019
 1868SOL    HW2 6504   5.512   3.495   6.957
 1869SOL     OW 6505   4.761   0.919   4.570
 1869SOL    HW1 6506   4.793   0.834   4.528
 1869SOL    HW2 6507   4.758   0.907   4.670
 1870SOL     OW 6508   6.287   6.377   5.642
 1870SOL    HW1 6509   6.350   6.374   5.564
 1870SOL    HW2 6510   6.323   6.319   5.716
 1871SOL     OW 6511   0.435   6.563   6.944
 1871SOL    HW1 6512   0.362   6.582   7.011
 1871SOL    HW2 6513   0.397   6.514   6.866
 1872SOL     OW 6514   2.898   3.043   1.554
 1872SOL    HW1 6515   2.933   2.985   1.628
 1872SOL    HW2 6516   2.816   3.091   1.586
 1873SOL     OW 6517   6.486   1.169   0.609
 1873SOL    HW1 6518   6.415   1.187   0.541
 1873SOL    HW2 6519   6.467   1.222   0.692
 1874SOL     OW 6520   0.659   5.529   0.689
 1874SOL    HW1 6521   0.599   5.466   0.639
 1874SOL    HW2 6522   0.616   5.619   0.692
 1875SOL     OW 6523   0.136   5.733   1.529
 1875SOL    HW1 6524   0.089   5.684   1.456
 1875SOL    HW2 6525   0.172   5.668   1.596
 1876SOL     OW 6526   0.438   5.400   1.256
 1876SOL    HW1 6527   0.508   5.387   1.187
 1876SOL    HW2 6528   0.475   5.378   1.346
 1877SOL     OW 6529   0.960   1.625   2.316
 1877SOL    HW1 6530   1.004   1.695   2.259
 1877SOL    HW2 6531   1.026   1.553   2.335
 1878SOL     OW 6532   5.355   4.076   4.159
 1878SOL    HW1 6533   5.416   4.139   4.111
 1878SOL    HW2 6534   5.407   3.994   4.185
 1879SOL     OW 6535   4.814   6.263   4.348
 1879SOL    HW1 6536   4.726   6.258   4.396
 1879SOL    HW2 6537   4.888   6.270   4.415
 1880SOL     OW 6538   0.242   1.250   4.012
 1880SOL    HW1 6539   0.321   1.193   3.989
 1880SOL    HW2 6540   0.163   1.191   4.030
 1881SOL     OW 6541   1.887   1.802   3.919
 1881SOL    HW1 6542   1.922   1.875   3.977
 1881SOL    HW2 6543   1.930   1.716   3.943
 1882SOL     OW 6544   1.640   5.300   0.268
 1882SOL    HW1 6545   1.614   5.369   0.336
 1882SOL    HW2 6546   1.558   5.268   0.220
 1883SOL     OW 6547   2.081   2.439   3.001
 1883SOL    HW1 6548   2.058   2.500   3.076
 1883SOL    HW2 6549   1.999   2.415   2.950
 1884SOL     OW 6550   4.421   1.189   0.434
 1884SOL    HW1 6551   4.376   1.132   0.365
 1884SOL    HW2 6552   4.520   1.172   0.432
 1885SOL     OW 6553   6.952   1.708   0.560
 1885SOL    HW1 6554   6.983   1.646   0.489
 1885SOL    HW2 6555   6.998   1.796   0.550
 1886SOL     OW 6556   3.402   2.384   6.473
 1886SOL    HW1 6557   3.332   2.372   6.403
 1886SOL    HW2 6558   3.465   2.307   6.470
 1887SOL     OW 6559   0.645   6.318   4.853
 1887SOL    HW1 6560   0.675   6.411   4.830
 1887SOL    HW2 6561   0.560   6.323   4.906
 1888SOL     OW 6562   1.893   1.948   5.312
 1888SOL    HW1 6563   1.898   1.991   5.402
 1888SOL    HW2 6564   1.982   1.955   5.267
 1889SOL     OW 6565   3.033   2.804   6.890
 1889SOL    HW1 6566   3.115   2.748   6.897
 1889SOL    HW2 6567   2.963   2.767   6.951
 1890SOL     OW 6568   6.320   6.047   6.776
 1890SOL    HW1 6569   6.396   6.097   6.735
 1890SOL    HW2 6570   6.340   5.949   6.774
 1891SOL     OW 6571   5.225   3.559   6.564
 1891SOL    HW1 6572   5.166   3.523   6.491
 1891SOL    HW2 6573   5.293   3.620   6.524
 1892SOL     OW 6574   4.033   0.083   1.785
 1892SOL    HW1 6575   4.006   0.180   1.791
 1892SOL    HW2 6576   3.951   0.026   1.791
 1893SOL     OW 6577   2.959   1.426   5.185
 1893SOL    HW1 6578   3.011   1.447   5.102
 1893SOL    HW2 6579   2.870   1.389   5.159
 1894SOL     OW 6580   5.137   3.976   1.425
 1894SOL    HW1 6581   5.189   3.913   1.368
 1894SOL    HW2 6582   5.155   4.070   1.395
 1895SOL     OW 6583   4.340   0.459   3.823
 1895SOL    HW1 6584   4.426   0.506   3.845
 1895SOL    HW2 6585   4.360   0.366   3.794
 1896SOL     OW 6586   6.091   2.122   6.087
 1896SOL    HW1 6587   6.183   2.110   6.050
 1896SOL    HW2 6588   6.072   2.049   6.153
 1897SOL     OW 6589   5.494   5.300   3.571
 1897SOL    HW1 6590   5.575   5.354   3.548
 1897SOL    HW2 6591   5.421   5.322   3.506
 1898SOL     OW 6592   5.799   6.549   6.808
 1898SOL    HW1 6593   5.712   6.548   6.758
 1898SOL    HW2 6594   5.856   6.473   6.779
 1899SOL     OW 6595   1.583   2.090   3.026
 1899SOL    HW1 6596   1.505   2.030   3.043
 1899SOL    HW2 6597   1.651   2.041   2.971
 1900SOL     OW 6598   2.772   6.202   1.718
 1900SOL    HW1 6599   2.750   6.253   1.801
 1900SOL    HW2 6600   2.739   6.253   1.638
 1901SOL     OW 6601   1.629   1.575   6.253
 1901SOL    HW1 6602   1.723   1.584   6.285
 1901SOL    HW2 6603   1.567   1.614   6.321
 1902SOL     OW 6604   2.004   2.367   5.043
 1902SOL    HW1 6605   2.058   2.401   5.121
 1902SOL    HW2 6606   1.967   2.277   5.066
 1903SOL     OW 6607   6.747   3.932   3.941
 1903SOL    HW1 6608   6.757   3.963   4.036
 1903SOL    HW2 6609   6.821   3.870   3.917
 1904SOL     OW 6610   0.483   0.485   4.710
 1904SOL    HW1 6611   0.439   0.538   4.637
 1904SOL    HW2 6612   0.579   0.470   4.687
 1905SOL     OW 6613   6.530   2.701   4.535
 1905SOL    HW1 6614   6.537   2.712   4.634
 1905SOL    HW2 6615   6.608   2.746   4.491
 1906SOL     OW 6616   2.770   5.959   6.963
 1906SOL    HW1 6617   2.752   5.951   0.034
 1906SOL    HW2 6618   2.843   6.025   6.948
 1907SOL     OW 6619   4.153   6.086   3.340
 1907SOL    HW1 6620   4.141   5.997   3.384
 1907SOL    HW2 6621   4.250   6.109   3.336
 1908SOL     OW 6622   4.752   0.221   6.735
 1908SOL    HW1 6623   4.678   0.154   6.736
 1908SOL    HW2 6624   4.716   0.311   6.759
 1909SOL     OW 6625   4.257   5.248   4.573
 1909SOL    HW1 6626   4.282   5.214   4.482
 1909SOL    HW2 6627   4.328   5.224   4.639
 1910SOL     OW 6628   5.142   2.866   4.535
 1910SOL    HW1 6629   5.050   2.853   4.572
 1910SOL    HW2 6630   5.189   2.778   4.532
 1911SOL     OW 6631   7.011   3.705   6.091
 1911SOL    HW1 6632   0.021   3.734   6.003
 1911SOL    HW2 6633   6.915   3.735   6.097
 1912SOL     OW 6634   2.653   6.124   3.415
 1912SOL    HW1 6635   2.606   6.090   3.334
 1912SOL    HW2 6636   2.715   6.053   3.449
 1913SOL     OW 6637   1.102   4.166   5.540
 1913SOL    HW1 6638   1.123   4.129   5.630
 1913SOL    HW2 6639   1.175   4.140   5.476
 1914SOL     OW 6640   4.657   1.309   5.567
 1914SOL    HW1 6641   4.653   1.221   5.614
 1914SOL    HW2 6642   4.674   1.294   5.469
 1915SOL     OW 6643   3.474   0.518   5.248
 1915SOL    HW1 6644   3.477   0.420   5.227
 1915SOL    HW2 6645   3.391   0.538   5.301
 1916SOL     OW 6646   3.994   6.579   1.654
 1916SOL    HW1 6647   4.015   6.481   1.657
 1916SOL    HW2 6648   3.954   6.607   1.741
 1917SOL     OW 6649   3.487   2.964   4.128
 1917SOL    HW1 6650   3.510   3.061   4.134
 1917SOL    HW2 6651   3.528   2.916   4.206
 1918SOL     OW 6652   6.235   6.482   4.666
 1918SOL    HW1 6653   6.307   6.485   4.735
 1918SOL    HW2 6654   6.176   6.562   4.676
 1919SOL     OW 6655   6.629   6.940   1.622
 1919SOL    HW1 6656   6.576   6.957   1.705
 1919SOL    HW2 6657   6.605   6.850   1.585
 1920SOL     OW 6658   0.116   6.290   4.249
 1920SOL    HW1 6659   0.036   6.317   4.301
 1920SOL    HW2 6660   0.087   6.249   4.162
 1921SOL     OW 6661   0.812   6.621   6.446
 1921SOL    HW1 6662   0.817   6.686   6.371
 1921SOL    HW2 6663   0.747   6.653   6.515
 1922SOL     OW 6664   3.671   4.355   1.214
 1922SOL    HW1 6665   3.598   4.289   1.199
 1922SOL    HW2 6666   3.670   4.423   1.141
 1923SOL     OW 6667   1.973   2.721   0.913
 1923SOL    HW1 6668   2.019   2.681   0.992
 1923SOL    HW2 6669   1.891   2.769   0.942
 1924SOL     OW 6670   1.149   3.268   1.871
 1924SOL    HW1 6671   1.191   3.231   1.953
 1924SOL    HW2 6672   1.212   3.259   1.794
 1925SOL     OW 6673   3.456   4.096   0.396
 1925SOL    HW1 6674   3.405   4.033   0.454
 1925SOL    HW2 6675   3.539   4.052   0.361
 1926SOL     OW 6676   0.822   0.248   3.826
 1926SOL    HW1 6677   0.868   0.324   3.779
 1926SOL    HW2 6678   0.730   0.237   3.789
 1927SOL     OW 6679   4.332   3.949   0.263
 1927SOL    HW1 6680   4.237   3.980   0.261
 1927SOL    HW2 6681   4.390   4.023   0.298
 1928SOL     OW 6682   6.975   5.161   5.480
 1928SOL    HW1 6683   6.953   5.068   5.453
 1928SOL    HW2 6684   7.016   5.210   5.403
 1929SOL     OW 6685   1.475   6.705   3.278
 1929SOL    HW1 6686   1.444   6.687   3.185
 1929SOL    HW2 6687   1.462   6.622   3.334
 1930SOL     OW 6688   6.385   5.063   6.832
 1930SOL    HW1 6689   6.363   5.067   6.734
 1930SOL    HW2 6690   6.484   5.061   6.844
 1931SOL     OW 6691   0.660   2.269   5.088
 1931SOL    HW1 6692   0.608   2.354   5.081
 1931SOL    HW2 6693   0.758   2.288   5.081
 1932SOL     OW 6694   5.718   2.941   2.664
 1932SOL    HW1 6695   5.713   3.022   2.723
 1932SOL    HW2 6696   5.801   2.946   2.608
 1933SOL     OW 6697   2.588   4.730   1.193
 1933SOL    HW1 6698   2.637   4.803   1.146
 1933SOL    HW2 6699   2.496   4.761   1.218
 1934SOL     OW 6700   0.393   6.225   4.934
 1934SOL    HW1 6701   0.293   6.230   4.938
 1934SOL    HW2 6702   0.421   6.175   4.853
 1935SOL     OW 6703   2.347   0.903   4.000
 1935SOL    HW1 6704   2.322   0.902   3.903
 1935SOL    HW2 6705   2.428   0.847   4.014
 1936SOL     OW 6706   6.547   6.144   5.694
 1936SOL    HW1 6707   6.610   6.069   5.673
 1936SOL    HW2 6708   6.573   6.186   5.781
 1937SOL     OW 6709   4.710   0.399   2.877
 1937SOL    HW1 6710   4.663   0.388   2.789
 1937SOL    HW2 6711   4.651   0.449   2.940
 1938SOL     OW 6712   5.463   0.569   3.596
 1938SOL    HW1 6713   5.503   0.555   3.505
 1938SOL    HW2 6714   5.434   0.481   3.633
 1939SOL     OW 6715   2.215   0.464   3.119
 1939SOL    HW1 6716   2.120   0.446   3.091
 1939SOL    HW2 6717   2.275   0.452   3.040
 1940SOL     OW 6718   6.663   5.328   0.031
 1940SOL    HW1 6719   6.633   5.340   6.964
 1940SOL    HW2 6720   6.678   5.231   0.050
 1941SOL     OW 6721   5.290   4.961   3.187
 1941SOL    HW1 6722   5.197   4.928   3.203
 1941SOL    HW2 6723   5.297   5.001   3.095
 1942SOL     OW 6724   6.510   5.042   2.954
 1942SOL    HW1 6725   6.505   5.008   2.860
 1942SOL    HW2 6726   6.500   5.142   2.954
 1943SOL     OW 6727   3.352   5.395   2.207
 1943SOL    HW1 6728   3.327   5.491   2.192
 1943SOL    HW2 6729   3.269   5.339   2.212
 1944SOL     OW 6730   6.364   0.424   1.776
 1944SOL    HW1 6731   6.447   0.414   1.721
 1944SOL    HW2 6732   6.290   0.458   1.718
 1945SOL     OW 6733   2.867   4.793   4.091
 1945SOL    HW1 6734   2.784   4.769   4.040
 1945SOL    HW2 6735   2.852   4.879   4.140
 1946SOL     OW 6736   2.033   0.470   0.091
 1946SOL    HW1 6737   2.028   0.422   0.004
 1946SOL    HW2 6738   1.983   0.557   0.084
 1947SOL     OW 6739   5.498   6.736   4.050
 1947SOL    HW1 6740   5.452   6.648   4.062
 1947SOL    HW2 6741   5.569   6.746   4.119
 1948SOL     OW 6742   6.191   4.165   5.975
 1948SOL    HW1 6743   6.285   4.130   5.967
 1948SOL    HW2 6744   6.137   4.102   6.032
 1949SOL     OW 6745   5.509   3.768   6.881
 1949SOL    HW1 6746   5.539   3.763   6.976
 1949SOL    HW2 6747   5.418   3.727   6.872
 1950SOL     OW 6748   2.721   4.653   0.947
 1950SOL    HW1 6749   2.652   4.608   1.004
 1950SOL    HW2 6750   2.709   4.752   0.953
 1951SOL     OW 6751   6.633   2.160   6.996
 1951SOL    HW1 6752   6.700   2.088   7.014
 1951SOL    HW2 6753   6.633   2.226   0.045
 1952SOL     OW 6754   4.063   2.251   5.531
 1952SOL    HW1 6755   4.114   2.272   5.614
 1952SOL    HW2 6756   4.117   2.277   5.451
 1953SOL     OW 6757   0.180   3.541   5.347
 1953SOL    HW1 6758   0.255   3.477   5.363
 1953SOL    HW2 6759   0.213   3.635   5.357
 1954SOL     OW 6760   2.374   1.949   3.731
 1954SOL    HW1 6761   2.341   2.029   3.783
 1954SOL    HW2 6762   2.297   1.889   3.711
 1955SOL     OW 6763   6.529   6.058   2.300
 1955SOL    HW1 6764   6.482   6.111   2.371
 1955SOL    HW2 6765   6.627   6.052   2.322
 1956SOL     OW 6766   5.994   6.789   2.577
 1956SOL    HW1 6767   6.065   6.768   2.645
 1956SOL    HW2 6768   5.996   6.721   2.504
 1957SOL     OW 6769   0.632   6.727   5.317
 1957SOL    HW1 6770   0.687   6.756   5.395
 1957SOL    HW2 6771   0.658   6.635   5.290
 1958SOL     OW 6772   4.807   3.385   5.963
 1958SOL    HW1 6773   4.812   3.482   5.937
 1958SOL    HW2 6774   4.802   3.329   5.880
 1959SOL     OW 6775   1.893   2.130   6.643
 1959SOL    HW1 6776   1.866   2.091   6.555
 1959SOL    HW2 6777   1.859   2.224   6.649
 1960SOL     OW 6778   5.196   6.392   1.769
 1960SOL    HW1 6779   5.138   6.310   1.761
 1960SOL    HW2 6780   5.171   6.442   1.852
 1961SOL     OW 6781   5.930   5.183   4.461
 1961SOL    HW1 6782   5.876   5.240   4.524
 1961SOL    HW2 6783   6.026   5.187   4.488
 1962SOL     OW 6784   0.024   6.501   3.013
 1962SOL    HW1 6785   0.009   6.600   3.009
 1962SOL    HW2 6786   6.980   6.454   2.962
 1963SOL     OW 6787   1.458   7.020   2.716
 1963SOL    HW1 6788   1.467   6.924   2.743
 1963SOL    HW2 6789   1.418   0.045   2.791
 1964SOL     OW 6790   5.272   4.018   2.578
 1964SOL    HW1 6791   5.298   4.056   2.666
 1964SOL    HW2 6792   5.221   3.933   2.592
 1965SOL     OW 6793   2.254   5.416   3.733
 1965SOL    HW1 6794   2.293   5.335   3.777
 1965SOL    HW2 6795   2.328   5.477   3.703
 1966SOL     OW 6796   6.395   5.847   5.880
 1966SOL    HW1 6797   6.390   5.858   5.979
 1966SOL    HW2 6798   6.331   5.911   5.836
 1967SOL     OW 6799   4.603   2.672   4.484
 1967SOL    HW1 6800   4.561   2.756   4.517
 1967SOL    HW2 6801   4.533   2.601   4.477
 1968SOL     OW 6802   3.226   5.366   5.528
 1968SOL    HW1 6803   3.225   5.350   5.429
 1968SOL    HW2 6804   3.183   5.455   5.548
 1969SOL     OW 6805   6.457   2.480   1.740
 1969SOL    HW1 6806   6.367   2.489   1.783
 1969SOL    HW2 6807   6.528   2.475   1.810
 1970SOL     OW 6808   2.025   0.096   3.617
 1970SOL    HW1 6809   1.956   0.139   3.674
 1970SOL    HW2 6810   2.107   0.077   3.672
 1971SOL     OW 6811   0.408   6.999   6.025
 1971SOL    HW1 6812   0.339   7.024   6.092
 1971SOL    HW2 6813   0.499   7.005   6.067
 1972SOL     OW 6814   1.179   4.692   4.271
 1972SOL    HW1 6815   1.129   4.668   4.354
 1972SOL    HW2 6816   1.276   4.672   4.284
 1973SOL     OW 6817   2.817   3.095   0.256
 1973SOL    HW1 6818   2.901   3.138   0.289
 1973SOL    HW2 6819   2.740   3.120   0.315
 1974SOL     OW 6820   5.565   0.712   4.242
 1974SOL    HW1 6821   5.481   0.759   4.215
 1974SOL    HW2 6822   5.601   0.660   4.165
 1975SOL     OW 6823   3.205   1.177   3.447
 1975SOL    HW1 6824   3.261   1.227   3.380
 1975SOL    HW2 6825   3.265   1.119   3.502
 1976SOL     OW 6826   6.916   4.928   0.303
 1976SOL    HW1 6827   6.998   4.877   0.330
 1976SOL    HW2 6828   6.868   4.878   0.231
 1977SOL     OW 6829   2.046   2.670   4.802
 1977SOL    HW1 6830   2.085   2.746   4.854
 1977SOL    HW2 6831   1.991   2.705   4.727
 1978SOL     OW 6832   6.751   1.369   4.964
 1978SOL    HW1 6833   6.732   1.345   5.059
 1978SOL    HW2 6834   6.839   1.416   4.958
 1979SOL     OW 6835   5.970   5.370   3.647
 1979SOL    HW1 6836   5.927   5.312   3.578
 1979SOL    HW2 6837   6.056   5.407   3.610
 1980SOL     OW 6838   4.162   0.174   1.356
 1980SOL    HW1 6839   4.186   0.148   1.262
 1980SOL    HW2 6840   4.155   0.273   1.363
 1981SOL     OW 6841   4.773   3.131   1.645
 1981SOL    HW1 6842   4.713   3.093   1.715
 1981SOL    HW2 6843   4.834   3.198   1.688
 1982SOL     OW 6844   5.813   0.009   4.886
 1982SOL    HW1 6845   5.783   6.997   4.973
 1982SOL    HW2 6846   5.903   0.049   4.897
 1983SOL     OW 6847   0.926   3.664   2.809
 1983SOL    HW1 6848   0.917   3.674   2.909
 1983SOL    HW2 6849   0.964   3.574   2.788
 1984SOL     OW 6850   4.151   0.509   5.803
 1984SOL    HW1 6851   4.180   0.415   5.821
 1984SOL    HW2 6852   4.229   0.571   5.815
 1985SOL     OW 6853   1.502   0.191   1.592
 1985SOL    HW1 6854   1.521   0.177   1.689
 1985SOL    HW2 6855   1.559   0.265   1.557
 1986SOL     OW 6856   1.190   1.767   6.241
 1986SOL    HW1 6857   1.225   1.703   6.172
 1986SOL    HW2 6858   1.133   1.836   6.197
 1987SOL     OW 6859   2.576   3.395   6.654
 1987SOL    HW1 6860   2.626   3.403   6.567
 1987SOL    HW2 6861   2.629   3.438   6.727
 1988SOL     OW 6862   5.020   2.759   0.436
 1988SOL    HW1 6863   5.115   2.749   0.464
 1988SOL    HW2 6864   4.975   2.827   0.493
 1989SOL     OW 6865   2.566   0.408   4.401
 1989SOL    HW1 6866   2.653   0.368   4.370
 1989SOL    HW2 6867   2.564   0.505   4.376
 1990SOL     OW 6868   2.453   0.939   2.426
 1990SOL    HW1 6869   2.379   0.994   2.388
 1990SOL    HW2 6870   2.521   0.920   2.355
 1991SOL     OW 6871   4.053   5.582   4.438
 1991SOL    HW1 6872   4.002   5.667   4.450
 1991SOL    HW2 6873   4.101   5.559   4.523
 1992SOL     OW 6874   2.231   6.691   5.665
 1992SOL    HW1 6875   2.263   6.641   5.746
 1992SOL    HW2 6876   2.280   6.659   5.584
 1993SOL     OW 6877   3.720   3.203   4.886
 1993SOL    HW1 6878   3.770   3.135   4.939
 1993SOL    HW2 6879   3.753   3.202   4.792
 1994SOL     OW 6880   6.387   2.561   2.152
 1994SOL    HW1 6881   6.374   2.485   2.215
 1994SOL    HW2 6882   6.306   2.570   2.094
 1995SOL     OW 6883   5.222   2.562   1.391
 1995SOL    HW1 6884   5.287   2.638   1.402
 1995SOL    HW2 6885   5.217   2.510   1.476
 1996SOL     OW 6886   3.008   4.307   0.124
 1996SOL    HW1 6887   2.994   4.314   0.223
 1996SOL    HW2 6888   3.083   4.367   0.096
 1997SOL     OW 6889   5.479   0.741   3.849
 1997SOL    HW1 6890   5.440   0.692   3.770
 1997SOL    HW2 6891   5.559   0.692   3.883
 1998SOL     OW 6892   3.076   4.823   5.125
 1998SOL    HW1 6893   2.993   4.863   5.086
 1998SOL    HW2 6894   3.051   4.756   5.195
 1999SOL     OW 6895   1.787   0.993   2.295
 1999SOL    HW1 6896   1.820   0.917   2.238
 1999SOL    HW2 6897   1.849   1.071   2.284
 2000SOL     OW 6898   3.961   2.189   4.855
 2000SOL    HW1 6899   3.900   2.124   4.902
 2000SOL    HW2 6900   4.013   2.241   4.923
 2001SOL     OW 6901   3.345   2.798   0.446
 2001SOL    HW1 6902   3.374   2.852   0.367
 2001SOL    HW2 6903   3.273   2.734   0.419
 2002SOL     OW 6904   1.933   4.706   5.048
 2002SOL    HW1 6905   2.010   4.728   4.988
 2002SOL    HW2 6906   1.935   4.609   5.071
 2003SOL     OW 6907   6.185   5.721   3.562
 2003SOL    HW1 6908   6.099   5.768   3.576
 2003SOL    HW2 6909   6.246   5.739   3.640
 2004SOL     OW 6910   3.254   0.714   6.006
 2004SOL    HW1 6911   3.173   0.682   6.054
 2004SOL    HW2 6912   3.243   0.809   5.980
 2005SOL     OW 6913   3.116   6.168   6.087
 2005SOL    HW1 6914   3.115   6.127   6.178
 2005SOL    HW2 6915   3.171   6.252   6.088
 2006SOL     OW 6916   3.798   4.893   3.730
 2006SOL    HW1 6917   3.755   4.926   3.814
 2006SOL    HW2 6918   3.728   4.880   3.659
 2007SOL     OW 6919   5.973   5.102   0.242
 2007SOL    HW1 6920   5.875   5.093   0.222
 2007SOL    HW2 6921   5.986   5.109   0.341
 2008SOL     OW 6922   0.308   5.731   3.878
 2008SOL    HW1 6923   0.291   5.643   3.920
 2008SOL    HW2 6924   0.361   5.788   3.941
 2009SOL     OW 6925   0.754   0.264   1.878
 2009SOL    HW1 6926   0.797   0.334   1.935
 2009SOL    HW2 6927   0.807   0.252   1.794
 2010SOL     OW 6928   1.631   0.093   0.914
 2010SOL    HW1 6929   1.538   0.130   0.907
 2010SOL    HW2 6930   1.688   0.155   0.969
 2011SOL     OW 6931   6.916   2.552   5.334
 2011SOL    HW1 6932   6.882   2.462   5.307
 2011SOL    HW2 6933   6.855   2.591   5.403
 2012SOL     OW 6934   0.971   3.711   1.362
 2012SOL    HW1 6935   0.906   3.697   1.288
 2012SOL    HW2 6936   0.998   3.622   1.400
 2013SOL     OW 6937   4.022   1.402   2.207
 2013SOL    HW1 6938   3.990   1.447   2.123
 2013SOL    HW2 6939   3.964   1.323   2.227
 2014SOL     OW 6940   2.613   5.815   3.526
 2014SOL    HW1 6941   2.703   5.858   3.519
 2014SOL    HW2 6942   2.552   5.854   3.456
 2015SOL     OW 6943   3.216   6.847   6.820
 2015SOL    HW1 6944   3.292   6.790   6.850
 2015SOL    HW2 6945   3.244   6.901   6.741
 2016SOL     OW 6946   6.748   4.901   3.995
 2016SOL    HW1 6947   6.766   4.832   3.925
 2016SOL    HW2 6948   6.767   4.861   4.085
 2017SOL     OW 6949   3.006   5.569   2.431
 2017SOL    HW1 6950   3.045   5.573   2.339
 2017SOL    HW2 6951   2.989   5.662   2.464
 2018SOL     OW 6952   0.805   5.095   5.682
 2018SOL    HW1 6953   0.781   5.034   5.758
 2018SOL    HW2 6954   0.809   5.189   5.716
 2019SOL     OW 6955   6.314   1.683   2.368
 2019SOL    HW1 6956   6.338   1.623   2.292
 2019SOL    HW2 6957   6.236   1.646   2.417
 2020SOL     OW 6958   2.043   6.075   3.050
 2020SOL    HW1 6959   2.114   6.005   3.057
 2020SOL    HW2 6960   1.954   6.036   3.075
 2021SOL     OW 6961   0.988   6.590   1.720
 2021SOL    HW1 6962   1.035   6.585   1.808
 2021SOL    HW2 6963   0.999   6.681   1.681
 2022SOL     OW 6964   2.537   4.033   1.314
 2022SOL    HW1 6965   2.470   4.048   1.241
 2022SOL    HW2 6966   2.547   4.117   1.368
 2023SOL     OW 6967   6.956   0.819   5.853
 2023SOL    HW1 6968   6.923   0.901   5.805
 2023SOL    HW2 6969   6.954   0.741   5.790
 2024SOL     OW 6970   5.847   1.037   3.677
 2024SOL    HW1 6971   5.842   0.948   3.631
 2024SOL    HW2 6972   5.755   1.076   3.686
 2025SOL     OW 6973   6.683   1.042   1.394
 2025SOL    HW1 6974   6.584   1.051   1.390
 2025SOL    HW2 6975   6.711   1.031   1.490
 2026SOL     OW 6976   1.589   1.596   5.560
 2026SOL    HW1 6977   1.526   1.622   5.487
 2026SOL    HW2 6978   1.553   1.516   5.608
 2027SOL     OW 6979   0.546   1.299   2.681
 2027SOL    HW1 6980   0.477   1.229   2.662
 2027SOL    HW2 6981   0.555   1.358   2.601
 2028SOL     OW 6982   4.377   2.947   6.667
 2028SOL    HW1 6983   4.412   3.011   6.598
 2028SOL    HW2 6984   4.315   2.882   6.623
 2029SOL     OW 6985   1.486   0.422   0.354
 2029SOL    HW1 6986   1.467   0.346   0.292
 2029SOL    HW2 6987   1.399   0.461   0.386
 2030SOL     OW 6988   1.691   0.732   3.364
 2030SOL    HW1 6989   1.670   0.817   3.315
 2030SOL    HW2 6990   1.735   0.668   3.301
 2031SOL     OW 6991   4.973   6.746   2.475
 2031SOL    HW1 6992   5.040   6.757   2.401
 2031SOL    HW2 6993   5.008   6.789   2.558
 2032SOL     OW 6994   5.066   6.360   1.477
 2032SOL    HW1 6995   5.115   6.276   1.451
 2032SOL    HW2 6996   5.001   6.384   1.405
 2033SOL     OW 6997   5.694   5.064   0.180
 2033SOL    HW1 6998   5.674   5.145   0.125
 2033SOL    HW2 6999   5.666   4.982   0.131
 2034SOL     OW 7000   1.987   0.476   2.806
 2034SOL    HW1 7001   1.992   0.458   2.904
 2034SOL    HW2 7002   1.901   0.441   2.770
 2035SOL     OW 7003   1.330   2.960   2.209
 2035SOL    HW1 7004   1.345   2.941   2.306
 2035SOL    HW2 7005   1.318   3.058   2.196
 2036SOL     OW 7006   1.677   4.655   0.503
 2036SOL    HW1 7007   1.649   4.707   0.584
 2036SOL    HW2 7008   1.724   4.571   0.532
 2037SOL     OW 7009   0.018   1.359   6.249
 2037SOL    HW1 7010   0.066   1.447   6.252
 2037SOL    HW2 7011   7.021   1.331   6.342
 2038SOL     OW 7012   0.601   0.686   4.862
 2038SOL    HW1 7013   0.558   0.610   4.813
 2038SOL    HW2 7014   0.552   0.703   4.947
 2039SOL     OW 7015   0.828   5.777   2.541
 2039SOL    HW1 7016   0.823   5.862   2.488
 2039SOL    HW2 7017   0.875   5.794   2.628
 2040SOL     OW 7018   3.967   3.478   4.811
 2040SOL    HW1 7019   4.005   3.475   4.719
 2040SOL    HW2 7020   3.869   3.498   4.806
 2041SOL     OW 7021   6.037   4.371   6.025
 2041SOL    HW1 7022   6.103   4.298   6.006
 2041SOL    HW2 7023   6.057   4.450   5.968
 2042SOL     OW 7024   3.825   5.415   6.741
 2042SOL    HW1 7025   3.799   5.511   6.750
 2042SOL    HW2 7026   3.908   5.398   6.794
 2043SOL     OW 7027   4.918   4.551   2.262
 2043SOL    HW1 7028   4.894   4.477   2.199
 2043SOL    HW2 7029   4.851   4.626   2.253
 2044SOL     OW 7030   6.629   0.552   1.573
 2044SOL    HW1 7031   6.603   0.472   1.518
 2044SOL    HW2 7032   6.554   0.618   1.573
 2045SOL     OW 7033   1.965   5.218   6.282
 2045SOL    HW1 7034   1.907   5.172   6.214
 2045SOL    HW2 7035   2.061   5.192   6.267
 2046SOL     OW 7036   6.103   0.434   5.008
 2046SOL    HW1 7037   6.026   0.433   4.945
 2046SOL    HW2 7038   6.107   0.522   5.056
 2047SOL     OW 7039   5.471   2.649   0.114
 2047SOL    HW1 7040   5.509   2.706   0.041
 2047SOL    HW2 7041   5.541   2.635   0.185
 2048SOL     OW 7042   4.402   0.193   5.534
 2048SOL    HW1 7043   4.373   0.142   5.453
 2048SOL    HW2 7044   4.488   0.156   5.568
 2049SOL     OW 7045   5.092   0.242   0.283
 2049SOL    HW1 7046   5.003   0.196   0.291
 2049SOL    HW2 7047   5.161   0.175   0.256
 2050SOL     OW 7048   5.866   2.190   4.051
 2050SOL    HW1 7049   5.850   2.148   3.961
 2050SOL    HW2 7050   5.821   2.135   4.122
 2051SOL     OW 7051   1.704   5.013   0.570
 2051SOL    HW1 7052   1.675   4.974   0.483
 2051SOL    HW2 7053   1.631   5.073   0.604
 2052SOL     OW 7054   0.938   3.422   0.314
 2052SOL    HW1 7055   0.969   3.484   0.386
 2052SOL    HW2 7056   1.015   3.367   0.283
 2053SOL     OW 7057   5.584   0.542   0.513
 2053SOL    HW1 7058   5.625   0.549   0.422
 2053SOL    HW2 7059   5.635   0.600   0.577
 2054SOL     OW 7060   6.146   3.016   0.972
 2054SOL    HW1 7061   6.210   3.077   0.925
 2054SOL    HW2 7062   6.066   2.999   0.913
 2055SOL     OW 7063   5.866   2.787   4.039
 2055SOL    HW1 7064   5.856   2.853   4.114
 2055SOL    HW2 7065   5.951   2.736   4.052
 2056SOL     OW 7066   1.303   0.736   3.218
 2056SOL    HW1 7067   1.286   0.741   3.317
 2056SOL    HW2 7068   1.217   0.746   3.169
 2057SOL     OW 7069   0.142   2.609   4.067
 2057SOL    HW1 7070   0.117   2.546   4.141
 2057SOL    HW2 7071   0.229   2.653   4.087
 2058SOL     OW 7072   6.967   2.131   1.938
 2058SOL    HW1 7073   7.008   2.218   1.911
 2058SOL    HW2 7074   6.935   2.083   1.856
 2059SOL     OW 7075   1.633   1.480   6.841
 2059SOL    HW1 7076   1.568   1.550   6.812
 2059SOL    HW2 7077   1.692   1.517   6.914
 2060SOL     OW 7078   0.860   5.170   2.593
 2060SOL    HW1 7079   0.795   5.231   2.636
 2060SOL    HW2 7080   0.945   5.219   2.575
 2061SOL     OW 7081   6.649   1.520   1.810
 2061SOL    HW1 7082   6.712   1.525   1.888
 2061SOL    HW2 7083   6.558   1.549   1.839
 2062SOL     OW 7084   4.302   0.704   3.397
 2062SOL    HW1 7085   4.291   0.791   3.446
 2062SOL    HW2 7086   4.282   0.718   3.300
 2063SOL     OW 7087   2.164   2.542   6.654
 2063SOL    HW1 7088   2.191   2.454   6.615
 2063SOL    HW2 7089   2.094   2.526   6.724
 2064SOL     OW 7090   0.649   2.386   0.184
 2064SOL    HW1 7091   0.561   2.352   0.150
 2064SOL    HW2 7092   0.693   2.314   0.238
 2065SOL     OW 7093   6.493   3.241   2.186
 2065SOL    HW1 7094   6.540   3.329   2.183
 2065SOL    HW2 7095   6.447   3.225   2.098
 2066SOL     OW 7096   1.607   6.423   4.388
 2066SOL    HW1 7097   1.581   6.512   4.425
 2066SOL    HW2 7098   1.633   6.434   4.292
 2067SOL     OW 7099   6.680   0.057   1.269
 2067SOL    HW1 7100   6.739   7.006   1.252
 2067SOL    HW2 7101   6.709   0.103   1.353
 2068SOL     OW 7102   1.818   2.145   5.078
 2068SOL    HW1 7103   1.728   2.138   5.033
 2068SOL    HW2 7104   1.806   2.134   5.176
 2069SOL     OW 7105   0.679   1.996   1.631
 2069SOL    HW1 7106   0.630   2.083   1.641
 2069SOL    HW2 7107   0.633   1.926   1.685
 2070SOL     OW 7108   0.744   1.196   2.859
 2070SOL    HW1 7109   0.824   1.163   2.809
 2070SOL    HW2 7110   0.668   1.209   2.795
 2071SOL     OW 7111   1.510   6.663   4.463
 2071SOL    HW1 7112   1.592   6.718   4.480
 2071SOL    HW2 7113   1.431   6.705   4.509
 2072SOL     OW 7114   5.142   5.296   1.647
 2072SOL    HW1 7115   5.216   5.350   1.606
 2072SOL    HW2 7116   5.096   5.350   1.717
 2073SOL     OW 7117   2.791   6.874   5.997
 2073SOL    HW1 7118   2.766   6.970   6.011
 2073SOL    HW2 7119   2.716   6.827   5.950
 2074SOL     OW 7120   5.493   1.309   2.232
 2074SOL    HW1 7121   5.406   1.309   2.182
 2074SOL    HW2 7122   5.562   1.356   2.177
 2075SOL     OW 7123   4.486   3.546   6.514
 2075SOL    HW1 7124   4.519   3.472   6.456
 2075SOL    HW2 7125   4.427   3.607   6.461
 2076SOL     OW 7126   4.938   0.333   1.141
 2076SOL    HW1 7127   4.900   0.384   1.064
 2076SOL    HW2 7128   5.028   0.298   1.117
 2077SOL     OW 7129   5.581   0.796   2.631
 2077SOL    HW1 7130   5.506   0.819   2.693
 2077SOL    HW2 7131   5.634   0.721   2.670
 2078SOL     OW 7132   3.207   5.309   5.286
 2078SOL    HW1 7133   3.169   5.377   5.223
 2078SOL    HW2 7134   3.266   5.246   5.235
 2079SOL     OW 7135   5.451   1.392   3.940
 2079SOL    HW1 7136   5.534   1.350   3.906
 2079SOL    HW2 7137   5.372   1.353   3.894
 2080SOL     OW 7138   2.734   2.363   4.210
 2080SOL    HW1 7139   2.776   2.370   4.120
 2080SOL    HW2 7140   2.791   2.306   4.270
 2081SOL     OW 7141   0.660   6.643   4.990
 2081SOL    HW1 7142   0.562   6.626   4.987
 2081SOL    HW2 7143   0.699   6.598   5.071
 2082SOL     OW 7144   5.568   0.755   1.319
 2082SOL    HW1 7145   5.510   0.689   1.367
 2082SOL    HW2 7146   5.511   0.829   1.284
 2083SOL     OW 7147   3.074   5.568   5.612
 2083SOL    HW1 7148   3.065   5.634   5.687
 2083SOL    HW2 7149   2.984   5.542   5.579
 2084SOL     OW 7150   7.011   2.828   3.345
 2084SOL    HW1 7151   7.024   2.920   3.383
 2084SOL    HW2 7152   0.058   2.768   3.376
 2085SOL     OW 7153   5.305   0.072   5.967
 2085SOL    HW1 7154   5.283   0.106   6.059
 2085SOL    HW2 7155   5.326   7.002   5.971
 2086SOL     OW 7156   3.043   5.185   0.718
 2086SOL    HW1 7157   3.131   5.160   0.758
 2086SOL    HW2 7158   3.034   5.285   0.720
 2087SOL     OW 7159   5.139   0.077   3.886
 2087SOL    HW1 7160   5.052   0.112   3.921
 2087SOL    HW2 7161   5.202   0.153   3.869
 2088SOL     OW 7162   3.154   0.238   0.285
 2088SOL    HW1 7163   3.216   0.314   0.306
 2088SOL    HW2 7164   3.192   0.154   0.322
 2089SOL     OW 7165   3.968   0.415   6.874
 2089SOL    HW1 7166   3.962   0.418   6.775
 2089SOL    HW2 7167   3.956   0.506   6.912
 2090SOL     OW 7168   3.301   3.283   4.332
 2090SOL    HW1 7169   3.206   3.265   4.356
 2090SOL    HW2 7170   3.356   3.286   4.416
 2091SOL     OW 7171   1.986   4.707   0.851
 2091SOL    HW1 7172   1.990   4.744   0.758
 2091SOL    HW2 7173   1.948   4.777   0.912
 2092SOL     OW 7174   6.442   6.240   0.842
 2092SOL    HW1 7175   6.391   6.276   0.920
 2092SOL    HW2 7176   6.458   6.312   0.775
 2093SOL     OW 7177   1.301   2.584   1.667
 2093SOL    HW1 7178   1.275   2.499   1.713
 2093SOL    HW2 7179   1.289   2.661   1.731
 2094SOL     OW 7180   5.945   6.871   2.287
 2094SOL    HW1 7181   6.031   6.903   2.327
 2094SOL    HW2 7182   5.899   6.811   2.351
 2095SOL     OW 7183   6.317   5.077   5.049
 2095SOL    HW1 7184   6.375   5.157   5.068
 2095SOL    HW2 7185   6.235   5.081   5.106
 2096SOL     OW 7186   4.505   4.531   2.851
 2096SOL    HW1 7187   4.523   4.474   2.930
 2096SOL    HW2 7188   4.588   4.541   2.797
 2097SOL     OW 7189   0.295   2.600   0.309
 2097SOL    HW1 7190   0.387   2.624   0.275
 2097SOL    HW2 7191   0.251   2.682   0.344
 2098SOL     OW 7192   4.303   0.606   4.196
 2098SOL    HW1 7193   4.216   0.637   4.159
 2098SOL    HW2 7194   4.319   0.510   4.170
 2099SOL     OW 7195   3.140   1.864   4.166
 2099SOL    HW1 7196   3.188   1.806   4.231
 2099SOL    HW2 7197   3.056   1.898   4.209
 2100SOL     OW 7198   4.586   3.775   6.637
 2100SOL    HW1 7199   4.565   3.682   6.608
 2100SOL    HW2 7200   4.684   3.792   6.624
 2101SOL     OW 7201   6.996   6.974   3.555
 2101SOL    HW1 7202   6.926   6.980   3.483
 2101SOL    HW2 7203   6.959   7.012   3.640
 2102SOL     OW 7204   0.113   4.994   2.252
 2102SOL    HW1 7205   0.052   4.922   2.286
 2102SOL    HW2 7206   0.067   5.083   2.257
 2103SOL     OW 7207   3.397   3.989   6.358
 2103SOL    HW1 7208   3.426   4.079   6.393
 2103SOL    HW2 7209   3.478   3.933   6.340
 2104SOL     OW 7210   1.111   3.594   5.608
 2104SOL    HW1 7211   1.138   3.657   5.535
 2104SOL    HW2 7212   1.045   3.639   5.667
 2105SOL     OW 7213   5.903   5.561   1.698
 2105SOL    HW1 7214   5.842   5.556   1.776
 2105SOL    HW2 7215   5.937   5.655   1.687
 2106SOL     OW 7216   4.867   5.553   6.820
 2106SOL    HW1 7217   4.921   5.526   6.741
 2106SOL    HW2 7218   4.875   5.483   6.891
 2107SOL     OW 7219   4.273   4.086   6.244
 2107SOL    HW1 7220   4.348   4.049   6.189
 2107SOL    HW2 7221   4.185   4.060   6.203
 2108SOL     OW 7222   5.450   4.934   6.057
 2108SOL    HW1 7223   5.541   4.964   6.086
 2108SOL    HW2 7224   5.438   4.837   6.079
 2109SOL     OW 7225   5.595   6.795   3.042
 2109SOL    HW1 7226   5.625   6.861   3.111
 2109SOL    HW2 7227   5.500   6.814   3.017
 2110SOL     OW 7228   2.359   4.594   6.330
 2110SOL    HW1 7229   2.375   4.674   6.273
 2110SOL    HW2 7230   2.260   4.581   6.342
 2111SOL     OW 7231   1.126   2.803   0.051
 2111SOL    HW1 7232   1.029   2.808   0.078
 2111SOL    HW2 7233   1.162   2.896   0.043
 2112SOL     OW 7234   4.681   3.145   1.384
 2112SOL    HW1 7235   4.729   3.128   1.470
 2112SOL    HW2 7236   4.585   3.121   1.394
 2113SOL     OW 7237   0.072   0.588   2.497
 2113SOL    HW1 7238   0.078   0.687   2.510
 2113SOL    HW2 7239   0.118   0.542   2.572
 2114SOL     OW 7240   2.223   3.912   6.816
 2114SOL    HW1 7241   2.269   3.977   6.876
 2114SOL    HW2 7242   2.198   3.957   6.730
 2115SOL     OW 7243   2.533   4.932   2.447
 2115SOL    HW1 7244   2.608   4.880   2.489
 2115SOL    HW2 7245   2.446   4.886   2.466
 2116SOL     OW 7246   0.191   4.136   3.151
 2116SOL    HW1 7247   0.105   4.092   3.178
 2116SOL    HW2 7248   0.255   4.067   3.117
 2117SOL     OW 7249   0.528   5.023   0.745
 2117SOL    HW1 7250   0.465   5.100   0.745
 2117SOL    HW2 7251   0.488   4.947   0.797
 2118SOL     OW 7252   6.743   3.817   1.986
 2118SOL    HW1 7253   6.653   3.836   1.946
 2118SOL    HW2 7254   6.779   3.732   1.948
 2119SOL     OW 7255   2.877   6.224   1.317
 2119SOL    HW1 7256   2.894   6.263   1.226
 2119SOL    HW2 7257   2.840   6.132   1.308
 2120SOL     OW 7258   6.970   5.197   2.236
 2120SOL    HW1 7259   6.926   5.267   2.179
 2120SOL    HW2 7260   6.935   5.203   2.329
 2121SOL     OW 7261   0.796   5.139   4.740
 2121SOL    HW1 7262   0.855   5.114   4.817
 2121SOL    HW2 7263   0.705   5.162   4.773
 2122SOL     OW 7264   4.713   4.344   4.958
 2122SOL    HW1 7265   4.678   4.409   4.891
 2122SOL    HW2 7266   4.689   4.375   5.050
 2123SOL     OW 7267   6.301   4.653   3.408
 2123SOL    HW1 7268   6.209   4.641   3.446
 2123SOL    HW2 7269   6.323   4.750   3.405
 2124SOL     OW 7270   1.810   2.018   0.540
 2124SOL    HW1 7271   1.809   1.997   0.637
 2124SOL    HW2 7272   1.819   2.117   0.527
 2125SOL     OW 7273   3.116   6.972   0.767
 2125SOL    HW1 7274   3.124   6.872   0.764
 2125SOL    HW2 7275   3.051   7.002   0.697
 2126SOL     OW 7276   2.858   0.752   0.580
 2126SOL    HW1 7277   2.829   0.686   0.649
 2126SOL    HW2 7278   2.958   0.752   0.574
 2127SOL     OW 7279   5.496   3.536   5.098
 2127SOL    HW1 7280   5.494   3.579   5.188
 2127SOL    HW2 7281   5.482   3.605   5.027
 2128SOL     OW 7282   0.501   4.899   4.662
 2128SOL    HW1 7283   0.538   4.806   4.654
 2128SOL    HW2 7284   0.554   4.961   4.606
 2129SOL     OW 7285   3.967   2.038   5.867
 2129SOL    HW1 7286   4.063   2.042   5.894
 2129SOL    HW2 7287   3.919   1.970   5.924
 2130SOL     OW 7288   4.413   6.380   2.356
 2130SOL    HW1 7289   4.504   6.404   2.323
 2130SOL    HW2 7290   4.416   6.364   2.455
 2131SOL     OW 7291   6.792   1.871   0.275
 2131SOL    HW1 7292   6.716   1.819   0.313
 2131SOL    HW2 7293   6.853   1.901   0.349
 2132SOL     OW 7294   2.200   2.970   0.598
 2132SOL    HW1 7295   2.239   2.905   0.662
 2132SOL    HW2 7296   2.270   3.000   0.534
 2133SOL     OW 7297   3.071   2.569   5.744
 2133SOL    HW1 7298   3.001   2.631   5.708
 2133SOL    HW2 7299   3.074   2.578   5.844
 2134SOL     OW 7300   1.141   0.107   0.617
 2134SOL    HW1 7301   1.041   0.100   0.621
 2134SOL    HW2 7302   1.173   0.073   0.528
 2135SOL     OW 7303   0.537   3.646   4.040
 2135SOL    HW1 7304   0.564   3.712   3.970
 2135SOL    HW2 7305   0.531   3.555   4.000
 2136SOL     OW 7306   2.272   5.582   2.156
 2136SOL    HW1 7307   2.283   5.483   2.168
 2136SOL    HW2 7308   2.178   5.608   2.177
 2137SOL     OW 7309   2.229   5.790   4.094
 2137SOL    HW1 7310   2.305   5.742   4.138
 2137SOL    HW2 7311   2.174   5.725   4.041
 2138SOL     OW 7312   5.053   1.591   2.136
 2138SOL    HW1 7313   5.103   1.543   2.208
 2138SOL    HW2 7314   5.118   1.631   2.071
 2139SOL     OW 7315   2.731   0.903   5.548
 2139SOL    HW1 7316   2.762   0.903   5.453
 2139SOL    HW2 7317   2.692   0.813   5.570
 2140SOL     OW 7318   2.519   1.092   5.535
 2140SOL    HW1 7319   2.509   1.139   5.622
 2140SOL    HW2 7320   2.590   1.023   5.542
 2141SOL     OW 7321   6.376   4.518   2.590
 2141SOL    HW1 7322   6.422   4.434   2.559
 2141SOL    HW2 7323   6.366   4.515   2.690
 2142SOL     OW 7324   1.890   1.379   2.815
 2142SOL    HW1 7325   1.961   1.325   2.770
 2142SOL    HW2 7326   1.848   1.326   2.888
 2143SOL     OW 7327   1.552   4.766   0.273
 2143SOL    HW1 7328   1.597   4.705   0.338
 2143SOL    HW2 7329   1.508   4.841   0.322
 2144SOL     OW 7330   6.001   5.761   4.289
 2144SOL    HW1 7331   6.068   5.729   4.357
 2144SOL    HW2 7332   6.014   5.712   4.203
 2145SOL     OW 7333   4.306   6.986   3.470
 2145SOL    HW1 7334   4.337   0.049   3.501
 2145SOL    HW2 7335   4.384   6.935   3.434
 2146SOL     OW 7336   2.112   2.716   0.689
 2146SOL    HW1 7337   2.060   2.716   0.775
 2146SOL    HW2 7338   2.057   2.674   0.617
 2147SOL     OW 7339   5.897   0.776   4.621
 2147SOL    HW1 7340   5.965   0.745   4.555
 2147SOL    HW2 7341   5.842   0.698   4.651
 2148SOL     OW 7342   0.325   3.426   6.745
 2148SOL    HW1 7343   0.284   3.436   6.654
 2148SOL    HW2 7344   0.421   3.453   6.741
 2149SOL     OW 7345   0.488   0.089   6.993
 2149SOL    HW1 7346   0.502   0.164   0.030
 2149SOL    HW2 7347   0.404   0.104   6.941
 2150SOL     OW 7348   2.489   3.257   1.121
 2150SOL    HW1 7349   2.399   3.223   1.148
 2150SOL    HW2 7350   2.487   3.357   1.117
 2151SOL     OW 7351   1.309   5.416   0.306
 2151SOL    HW1 7352   1.245   5.449   0.375
 2151SOL    HW2 7353   1.402   5.425   0.340
 2152SOL     OW 7354   3.943   5.872   3.815
 2152SOL    HW1 7355   4.026   5.900   3.766
 2152SOL    HW2 7356   3.965   5.855   3.911
 2153SOL     OW 7357   4.703   1.495   3.447
 2153SOL    HW1 7358   4.770   1.453   3.508
 2153SOL    HW2 7359   4.742   1.579   3.408
 2154SOL     OW 7360   3.145   7.006   3.153
 2154SOL    HW1 7361   3.091   6.996   3.236
 2154SOL    HW2 7362   3.146   0.075   3.125
 2155SOL     OW 7363   4.852   6.688   1.468
 2155SOL    HW1 7364   4.827   6.773   1.421
 2155SOL    HW2 7365   4.952   6.682   1.473
 2156SOL     OW 7366   5.684   1.781   4.039
 2156SOL    HW1 7367   5.665   1.684   4.027
 2156SOL    HW2 7368   5.731   1.816   3.958
 2157SOL     OW 7369   3.651   5.878   3.921
 2157SOL    HW1 7370   3.671   5.780   3.916
 2157SOL    HW2 7371   3.588   5.903   3.848
 2158SOL     OW 7372   3.543   0.476   0.080
 2158SOL    HW1 7373   3.574   0.571   0.083
 2158SOL    HW2 7374   3.466   0.469   0.016
 2159SOL     OW 7375   1.157   0.593   5.558
 2159SOL    HW1 7376   1.197   0.613   5.468
 2159SOL    HW2 7377   1.063   0.561   5.546
 2160SOL     OW 7378   5.539   6.167   0.278
 2160SOL    HW1 7379   5.600   6.088   0.282
 2160SOL    HW2 7380   5.571   6.230   0.208
 2161SOL     OW 7381   1.150   2.616   2.505
 2161SOL    HW1 7382   1.060   2.600   2.463
 2161SOL    HW2 7383   1.160   2.714   2.525
 2162SOL     OW 7384   1.132   0.082   2.077
 2162SOL    HW1 7385   1.102   7.014   2.069
 2162SOL    HW2 7386   1.077   0.129   2.146
 2163SOL     OW 7387   1.611   3.325   2.402
 2163SOL    HW1 7388   1.610   3.323   2.502
 2163SOL    HW2 7389   1.704   3.305   2.370
 2164SOL     OW 7390   1.695   2.765   2.620
 2164SOL    HW1 7391   1.786   2.728   2.602
 2164SOL    HW2 7392   1.635   2.746   2.542
 2165SOL     OW 7393   0.084   1.477   3.921
 2165SOL    HW1 7394   0.144   1.404   3.952
 2165SOL    HW2 7395   0.003   1.481   3.980
 2166SOL     OW 7396   6.895   3.895   2.706
 2166SOL    HW1 7397   6.834   3.821   2.677
 2166SOL    HW2 7398   6.961   3.860   2.772
 2167SOL     OW 7399   2.848   1.977   3.713
 2167SOL    HW1 7400   2.856   1.934   3.803
 2167SOL    HW2 7401   2.901   2.062   3.712
 2168SOL     OW 7402   1.852   1.763   2.900
 2168SOL    HW1 7403   1.937   1.756   2.953
 2168SOL    HW2 7404   1.857   1.702   2.821
 2169SOL     OW 7405   0.485   0.273   1.851
 2169SOL    HW1 7406   0.442   0.183   1.843
 2169SOL    HW2 7407   0.584   0.263   1.847
 2170SOL     OW 7408   0.575   3.720   5.652
 2170SOL    HW1 7409   0.606   3.710   5.557
 2170SOL    HW2 7410   0.548   3.815   5.669
 2171SOL     OW 7411   0.522   5.365   1.620
 2171SOL    HW1 7412   0.594   5.423   1.584
 2171SOL    HW2 7413   0.514   5.377   1.718
 2172SOL     OW 7414   1.247   1.606   4.680
 2172SOL    HW1 7415   1.210   1.698   4.667
 2172SOL    HW2 7416   1.329   1.595   4.625
 2173SOL     OW 7417   5.816   0.272   5.185
 2173SOL    HW1 7418   5.730   0.306   5.148
 2173SOL    HW2 7419   5.865   0.346   5.231
 2174SOL     OW 7420   6.607   6.503   5.590
 2174SOL    HW1 7421   6.550   6.462   5.519
 2174SOL    HW2 7422   6.574   6.472   5.680
 2175SOL     OW 7423   2.880   3.988   5.392
 2175SOL    HW1 7424   2.901   4.049   5.469
 2175SOL    HW2 7425   2.909   4.031   5.307
 2176SOL     OW 7426   5.596   2.005   1.459
 2176SOL    HW1 7427   5.579   1.930   1.522
 2176SOL    HW2 7428   5.528   2.077   1.473
 2177SOL     OW 7429   0.213   0.205   3.791
 2177SOL    HW1 7430   0.177   0.175   3.879
 2177SOL    HW2 7431   0.310   0.228   3.800
 2178SOL     OW 7432   0.978   2.028   2.644
 2178SOL    HW1 7433   0.970   2.029   2.743
 2178SOL    HW2 7434   1.019   1.942   2.614
 2179SOL     OW 7435   1.284   4.132   6.249
 2179SOL    HW1 7436   1.338   4.052   6.279
 2179SOL    HW2 7437   1.235   4.170   6.327
 2180SOL     OW 7438   0.847   6.325   2.109
 2180SOL    HW1 7439   0.932   6.298   2.064
 2180SOL    HW2 7440   0.849   6.297   2.205
 2181SOL     OW 7441   4.062   4.819   4.570
 2181SOL    HW1 7442   4.152   4.785   4.544
 2181SOL    HW2 7443   4.053   4.915   4.543
 2182SOL     OW 7444   0.293   5.360   2.558
 2182SOL    HW1 7445   0.245   5.274   2.575
 2182SOL    HW2 7446   0.387   5.341   2.529
 2183SOL     OW 7447   3.394   2.762   7.007
 2183SOL    HW1 7448   3.316   2.700   6.998
 2183SOL    HW2 7449   3.366   2.842   0.033
 2184SOL     OW 7450   6.434   1.217   6.626
 2184SOL    HW1 7451   6.355   1.272   6.654
 2184SOL    HW2 7452   6.430   1.128   6.670
 2185SOL     OW 7453   0.688   0.488   0.001
 2185SOL    HW1 7454   0.669   0.403   6.980
 2185SOL    HW2 7455   0.782   0.488   0.034
 2186SOL     OW 7456   0.284   4.759   5.486
 2186SOL    HW1 7457   0.226   4.818   5.431
 2186SOL    HW2 7458   0.277   4.785   5.582
 2187SOL     OW 7459   0.467   5.520   3.281
 2187SOL    HW1 7460   0.491   5.483   3.191
 2187SOL    HW2 7461   0.549   5.522   3.339
 2188SOL     OW 7462   2.342   0.697   1.012
 2188SOL    HW1 7463   2.312   0.615   0.964
 2188SOL    HW2 7464   2.276   0.771   0.998
 2189SOL     OW 7465   2.646   1.941   1.274
 2189SOL    HW1 7466   2.667   1.928   1.371
 2189SOL    HW2 7467   2.729   1.928   1.220
 2190SOL     OW 7468   6.304   4.193   2.413
 2190SOL    HW1 7469   6.299   4.242   2.326
 2190SOL    HW2 7470   6.284   4.096   2.397
 2191SOL     OW 7471   2.822   0.255   0.528
 2191SOL    HW1 7472   2.790   0.251   0.434
 2191SOL    HW2 7473   2.861   0.346   0.546
 2192SOL     OW 7474   4.566   1.436   0.929
 2192SOL    HW1 7475   4.476   1.477   0.914
 2192SOL    HW2 7476   4.564   1.340   0.903
 2193SOL     OW 7477   1.282   6.422   6.035
 2193SOL    HW1 7478   1.273   6.484   6.113
 2193SOL    HW2 7479   1.345   6.461   5.968
 2194SOL     OW 7480   0.833   3.474   6.033
 2194SOL    HW1 7481   0.827   3.566   5.993
 2194SOL    HW2 7482   0.742   3.433   6.034
 2195SOL     OW 7483   0.545   3.902   6.357
 2195SOL    HW1 7484   0.510   3.818   6.397
 2195SOL    HW2 7485   0.542   3.895   6.257
 2196SOL     OW 7486   2.820   6.772   5.623
 2196SOL    HW1 7487   2.872   6.737   5.701
 2196SOL    HW2 7488   2.773   6.857   5.649
 2197SOL     OW 7489   2.754   5.177   5.530
 2197SOL    HW1 7490   2.669   5.229   5.527
 2197SOL    HW2 7491   2.753   5.107   5.458
 2198SOL     OW 7492   0.450   0.780   6.576
 2198SOL    HW1 7493   0.510   0.718   6.525
 2198SOL    HW2 7494   0.362   0.735   6.590
 2199SOL     OW 7495   4.532   6.638   4.385
 2199SOL    HW1 7496   4.541   6.623   4.287
 2199SOL    HW2 7497   4.444   6.681   4.405
 2200SOL     OW 7498   2.876   1.950   4.256
 2200SOL    HW1 7499   2.860   2.048   4.261
 2200SOL    HW2 7500   2.801   1.906   4.206
 2201SOL     OW 7501   6.043   4.042   3.714
 2201SOL    HW1 7502   6.056   3.946   3.737
 2201SOL    HW2 7503   6.120   4.095   3.750
 2202SOL     OW 7504   3.893   5.899   2.088
 2202SOL    HW1 7505   3.957   5.855   2.150
 2202SOL    HW2 7506   3.923   5.992   2.068
 2203SOL     OW 7507   2.280   3.222   0.684
 2203SOL    HW1 7508   2.334   3.176   0.755
 2203SOL    HW2 7509   2.208   3.161   0.651
 2204SOL     OW 7510   5.260   3.162   1.168
 2204SOL    HW1 7511   5.283   3.202   1.080
 2204SOL    HW2 7512   5.341   3.117   1.206
 2205SOL     OW 7513   0.875   5.081   0.369
 2205SOL    HW1 7514   0.904   5.088   0.464
 2205SOL    HW2 7515   0.797   5.141   0.353
 2206SOL     OW 7516   2.627   2.231   5.989
 2206SOL    HW1 7517   2.626   2.254   6.086
 2206SOL    HW2 7518   2.701   2.280   5.943
 2207SOL     OW 7519   4.859   6.163   0.782
 2207SOL    HW1 7520   4.956   6.154   0.805
 2207SOL    HW2 7521   4.818   6.072   0.778
 2208SOL     OW 7522   0.657   5.930   4.391
 2208SOL    HW1 7523   0.661   6.025   4.361
 2208SOL    HW2 7524   0.561   5.899   4.391
 2209SOL     OW 7525   3.177   5.874   4.145
 2209SOL    HW1 7526   3.247   5.859   4.215
 2209SOL    HW2 7527   3.092   5.905   4.189
 2210SOL     OW 7528   4.808   6.236   1.206
 2210SOL    HW1 7529   4.827   6.323   1.252
 2210SOL    HW2 7530   4.784   6.253   1.111
 2211SOL     OW 7531   0.011   1.494   0.723
 2211SOL    HW1 7532   0.032   1.516   0.818
 2211SOL    HW2 7533   6.991   1.572   0.680
 2212SOL     OW 7534   2.574   6.094   6.830
 2212SOL    HW1 7535   2.652   6.033   6.841
 2212SOL    HW2 7536   2.518   6.064   6.753
 2213SOL     OW 7537   3.590   2.113   4.340
 2213SOL    HW1 7538   3.617   2.017   4.336
 2213SOL    HW2 7539   3.573   2.139   4.435
 2214SOL     OW 7540   4.041   3.634   6.435
 2214SOL    HW1 7541   4.138   3.660   6.433
 2214SOL    HW2 7542   3.989   3.699   6.379
 2215SOL     OW 7543   4.500   0.012   6.635
 2215SOL    HW1 7544   4.495   0.072   6.715
 2215SOL    HW2 7545   4.531   0.064   6.556
 2216SOL     OW 7546   0.888   6.808   6.199
 2216SOL    HW1 7547   0.807   6.864   6.186
 2216SOL    HW2 7548   0.965   6.848   6.149
 2217SOL     OW 7549   4.197   0.399   3.402
 2217SOL    HW1 7550   4.156   0.399   3.311
 2217SOL    HW2 7551   4.198   0.492   3.438
 2218SOL     OW 7552   0.611   5.187   6.061
 2218SOL    HW1 7553   0.697   5.139   6.081
 2218SOL    HW2 7554   0.604   5.205   5.963
 2219SOL     OW 7555   5.666   0.901   0.798
 2219SOL    HW1 7556   5.571   0.910   0.830
 2219SOL    HW2 7557   5.729   0.934   0.868
 2220SOL     OW 7558   0.774   6.081   5.630
 2220SOL    HW1 7559   0.794   6.158   5.569
 2220SOL    HW2 7560   0.775   6.113   5.725
 2221SOL     OW 7561   6.891   1.220   3.840
 2221SOL    HW1 7562   6.946   1.193   3.918
 2221SOL    HW2 7563   6.799   1.246   3.871
 2222SOL     OW 7564   4.527   5.837   1.749
 2222SOL    HW1 7565   4.434   5.868   1.730
 2222SOL    HW2 7566   4.592   5.906   1.717
 2223SOL     OW 7567   6.574   6.223   5.435
 2223SOL    HW1 7568   6.574   6.209   5.534
 2223SOL    HW2 7569   6.584   6.135   5.389
 2224SOL     OW 7570   5.594   3.845   0.994
 2224SOL    HW1 7571   5.591   3.750   1.023
 2224SOL    HW2 7572   5.688   3.870   0.970
 2225SOL     OW 7573   0.587   6.855   3.203
 2225SOL    HW1 7574   0.610   6.926   3.136
 2225SOL    HW2 7575   0.547   6.897   3.284
 2226SOL     OW 7576   2.192   5.295   0.661
 2226SOL    HW1 7577   2.274   5.316   0.607
 2226SOL    HW2 7578   2.167   5.376   0.715
 2227SOL     OW 7579   4.194   1.951   2.029
 2227SOL    HW1 7580   4.129   1.882   2.062
 2227SOL    HW2 7581   4.268   1.961   2.096
 2228SOL     OW 7582   5.176   4.615   0.008
 2228SOL    HW1 7583   5.272   4.590   0.017
 2228SOL    HW2 7584   5.168   4.712   7.012
 2229SOL     OW 7585   3.534   3.586   4.274
 2229SOL    HW1 7586   3.528   3.685   4.263
 2229SOL    HW2 7587   3.442   3.548   4.287
 2230SOL     OW 7588   5.433   6.610   0.739
 2230SOL    HW1 7589   5.416   6.554   0.658
 2230SOL    HW2 7590   5.493   6.686   0.715
 2231SOL     OW 7591   1.215   0.357   6.771
 2231SOL    HW1 7592   1.206   0.401   6.681
 2231SOL    HW2 7593   1.239   0.426   6.839
 2232SOL     OW 7594   1.539   0.444   5.559
 2232SOL    HW1 7595   1.457   0.394   5.532
 2232SOL    HW2 7596   1.550   0.438   5.658
 2233SOL     OW 7597   2.818   3.962   0.834
 2233SOL    HW1 7598   2.829   3.894   0.907
 2233SOL    HW2 7599   2.860   4.048   0.863
 2234SOL     OW 7600   4.350   1.506   0.797
 2234SOL    HW1 7601   4.264   1.513   0.846
 2234SOL    HW2 7602   4.338   1.539   0.703
 2235SOL     OW 7603   2.333   1.104   2.797
 2235SOL    HW1 7604   2.377   1.170   2.859
 2235SOL    HW2 7605   2.298   1.152   2.717
 2236SOL     OW 7606   2.105   4.224   5.302
 2236SOL    HW1 7607   2.172   4.154   5.325
 2236SOL    HW2 7608   2.030   4.183   5.251
 2237SOL     OW 7609   6.513   4.833   5.209
 2237SOL    HW1 7610   6.604   4.835   5.249
 2237SOL    HW2 7611   6.514   4.882   5.122
 2238SOL     OW 7612   5.157   4.315   2.212
 2238SOL    HW1 7613   5.212   4.327   2.129
 2238SOL    HW2 7614   5.061   4.331   2.190
 2239SOL     OW 7615   3.954   6.982   3.529
 2239SOL    HW1 7616   4.007   6.929   3.462
 2239SOL    HW2 7617   3.945   0.049   3.496
 2240SOL     OW 7618   4.647   5.141   3.382
 2240SOL    HW1 7619   4.729   5.158   3.437
 2240SOL    HW2 7620   4.568   5.181   3.428
 2241SOL     OW 7621   0.265   0.297   2.062
 2241SOL    HW1 7622   0.229   0.345   2.142
 2241SOL    HW2 7623   0.344   0.347   2.026
 2242SOL     OW 7624   4.832   3.098   2.849
 2242SOL    HW1 7625   4.889   3.177   2.828
 2242SOL    HW2 7626   4.866   3.018   2.799
 2243SOL     OW 7627   1.300   6.439   0.864
 2243SOL    HW1 7628   1.260   6.463   0.776
 2243SOL    HW2 7629   1.294   6.518   0.926
 2244SOL     OW 7630   2.346   0.433   0.519
 2244SOL    HW1 7631   2.294   0.374   0.581
 2244SOL    HW2 7632   2.288   0.509   0.489
 2245SOL     OW 7633   0.495   0.534   0.182
 2245SOL    HW1 7634   0.552   0.513   0.102
 2245SOL    HW2 7635   0.408   0.572   0.151
 2246SOL     OW 7636   2.194   0.983   5.177
 2246SOL    HW1 7637   2.208   1.081   5.191
 2246SOL    HW2 7638   2.278   0.943   5.140
 2247SOL     OW 7639   3.175   3.930   2.588
 2247SOL    HW1 7640   3.087   3.918   2.543
 2247SOL    HW2 7641   3.221   4.011   2.549
 2248SOL     OW 7642   5.507   4.058   5.284
 2248SOL    HW1 7643   5.407   4.058   5.281
 2248SOL    HW2 7644   5.544   3.989   5.222
 2249SOL     OW 7645   2.293   6.758   3.806
 2249SOL    HW1 7646   2.208   6.728   3.849
 2249SOL    HW2 7647   2.306   6.707   3.721
 2250SOL     OW 7648   4.433   4.317   6.428
 2250SOL    HW1 7649   4.340   4.342   6.399
 2250SOL    HW2 7650   4.499   4.349   6.360
 2251SOL     OW 7651   5.214   6.850   5.752
 2251SOL    HW1 7652   5.253   6.938   5.725
 2251SOL    HW2 7653   5.127   6.836   5.705
 2252SOL     OW 7654   4.761   1.508   2.735
 2252SOL    HW1 7655   4.717   1.434   2.786
 2252SOL    HW2 7656   4.708   1.527   2.653
 2253SOL     OW 7657   0.647   3.463   0.545
 2253SOL    HW1 7658   0.560   3.466   0.594
 2253SOL    HW2 7659   0.630   3.473   0.447
 2254SOL     OW 7660   3.615   3.383   2.909
 2254SOL    HW1 7661   3.593   3.285   2.916
 2254SOL    HW2 7662   3.560   3.433   2.976
 2255SOL     OW 7663   3.102   4.150   5.941
 2255SOL    HW1 7664   3.152   4.161   5.856
 2255SOL    HW2 7665   3.166   4.155   6.018
 2256SOL     OW 7666   5.143   6.599   1.974
 2256SOL    HW1 7667   5.157   6.664   2.048
 2256SOL    HW2 7668   5.066   6.629   1.917
 2257SOL     OW 7669   0.047   1.305   4.648
 2257SOL    HW1 7670   0.017   1.396   4.678
 2257SOL    HW2 7671   0.119   1.272   4.709
 2258SOL     OW 7672   2.338   6.369   4.342
 2258SOL    HW1 7673   2.351   6.407   4.434
 2258SOL    HW2 7674   2.313   6.443   4.280
 2259SOL     OW 7675   6.237   2.074   4.561
 2259SOL    HW1 7676   6.189   2.107   4.480
 2259SOL    HW2 7677   6.278   1.985   4.541
 2260SOL     OW 7678   1.339   3.712   1.652
 2260SOL    HW1 7679   1.246   3.691   1.621
 2260SOL    HW2 7680   1.336   3.791   1.713
 2261SOL     OW 7681   5.636   3.851   0.094
 2261SOL    HW1 7682   5.654   3.950   0.093
 2261SOL    HW2 7683   5.703   3.805   0.152
 2262SOL     OW 7684   6.403   0.316   4.544
 2262SOL    HW1 7685   6.366   0.307   4.636
 2262SOL    HW2 7686   6.493   0.360   4.549
 2263SOL     OW 7687   1.452   4.386   0.289
 2263SOL    HW1 7688   1.540   4.363   0.330
 2263SOL    HW2 7689   1.465   4.455   0.217
 2264SOL     OW 7690   1.810   6.919   6.190
 2264SOL    HW1 7691   1.759   6.965   6.117
 2264SOL    HW2 7692   1.805   6.973   6.273
 2265SOL     OW 7693   0.854   6.168   4.056
 2265SOL    HW1 7694   0.917   6.103   4.014
 2265SOL    HW2 7695   0.904   6.231   4.115
 2266SOL     OW 7696   4.679   1.648   6.637
 2266SOL    HW1 7697   4.703   1.557   6.604
 2266SOL    HW2 7698   4.759   1.708   6.630
 2267SOL     OW 7699   4.919   2.941   4.294
 2267SOL    HW1 7700   4.944   2.946   4.390
 2267SOL    HW2 7701   4.980   2.999   4.240
 2268SOL     OW 7702   6.874   4.612   5.932
 2268SOL    HW1 7703   6.963   4.606   5.977
 2268SOL    HW2 7704   6.862   4.535   5.871
 2269SOL     OW 7705   1.887   2.976   5.001
 2269SOL    HW1 7706   1.939   3.053   5.038
 2269SOL    HW2 7707   1.934   2.890   5.021
 2270SOL     OW 7708   5.061   2.147   6.118
 2270SOL    HW1 7709   5.134   2.214   6.109
 2270SOL    HW2 7710   4.974   2.188   6.087
 2271SOL     OW 7711   5.862   4.646   5.990
 2271SOL    HW1 7712   5.820   4.556   5.979
 2271SOL    HW2 7713   5.811   4.699   6.058
 2272SOL     OW 7714   6.153   0.890   5.821
 2272SOL    HW1 7715   6.060   0.927   5.820
 2272SOL    HW2 7716   6.191   0.898   5.913
 2273SOL     OW 7717   1.858   2.768   2.118
 2273SOL    HW1 7718   1.941   2.822   2.102
 2273SOL    HW2 7719   1.858   2.688   2.058
 2274SOL     OW 7720   0.544   0.973   0.286
 2274SOL    HW1 7721   0.571   0.938   0.196
 2274SOL    HW2 7722   0.571   0.907   0.356
 2275SOL     OW 7723   5.524   4.955   2.298
 2275SOL    HW1 7724   5.527   4.876   2.358
 2275SOL    HW2 7725   5.429   4.985   2.286
 2276SOL     OW 7726   1.740   1.505   1.454
 2276SOL    HW1 7727   1.660   1.527   1.508
 2276SOL    HW2 7728   1.721   1.427   1.395
 2277SOL     OW 7729   3.263   4.022   3.157
 2277SOL    HW1 7730   3.218   4.038   3.245
 2277SOL    HW2 7731   3.362   4.038   3.166
 2278SOL     OW 7732   0.739   1.977   3.771
 2278SOL    HW1 7733   0.760   1.925   3.688
 2278SOL    HW2 7734   0.822   2.024   3.803
 2279SOL     OW 7735   0.452   5.761   5.384
 2279SOL    HW1 7736   0.483   5.850   5.350
 2279SOL    HW2 7737   0.507   5.735   5.464
 2280SOL     OW 7738   4.784   1.419   4.932
 2280SOL    HW1 7739   4.753   1.337   4.981
 2280SOL    HW2 7740   4.827   1.392   4.846
 2281SOL     OW 7741   4.980   6.501   2.826
 2281SOL    HW1 7742   4.894   6.515   2.776
 2281SOL    HW2 7743   5.008   6.586   2.870
 2282SOL     OW 7744   4.189   5.677   5.496
 2282SOL    HW1 7745   4.159   5.582   5.490
 2282SOL    HW2 7746   4.142   5.722   5.572
 2283SOL     OW 7747   1.165   0.584   3.478
 2283SOL    HW1 7748   1.218   0.505   3.447
 2283SOL    HW2 7749   1.224   0.665   3.481
 2284SOL     OW 7750   1.373   3.134   6.254
 2284SOL    HW1 7751   1.414   3.047   6.284
 2284SOL    HW2 7752   1.409   3.208   6.311
 2285SOL     OW 7753   1.434   3.842   6.835
 2285SOL    HW1 7754   1.378   3.768   6.800
 2285SOL    HW2 7755   1.447   3.911   6.763
 2286SOL     OW 7756   4.812   6.232   3.925
 2286SOL    HW1 7757   4.815   6.331   3.933
 2286SOL    HW2 7758   4.858   6.190   4.004
 2287SOL     OW 7759   1.530   1.054   3.502
 2287SOL    HW1 7760   1.460   0.990   3.468
 2287SOL    HW2 7761   1.569   1.105   3.426
 2288SOL     OW 7762   0.068   5.783   3.488
 2288SOL    HW1 7763   0.124   5.790   3.570
 2288SOL    HW2 7764   0.092   5.857   3.425
 2289SOL     OW 7765   0.964   6.089   1.996
 2289SOL    HW1 7766   0.933   6.055   2.085
 2289SOL    HW2 7767   1.018   6.019   1.949
 2290SOL     OW 7768   1.092   5.136   1.203
 2290SOL    HW1 7769   1.071   5.232   1.182
 2290SOL    HW2 7770   1.177   5.131   1.254
 2291SOL     OW 7771   3.092   1.702   5.636
 2291SOL    HW1 7772   3.114   1.772   5.568
 2291SOL    HW2 7773   3.173   1.680   5.689
 2292SOL     OW 7774   1.386   1.005   4.583
 2292SOL    HW1 7775   1.369   0.945   4.661
 2292SOL    HW2 7776   1.300   1.045   4.552
 2293SOL     OW 7777   5.270   5.592   1.858
 2293SOL    HW1 7778   5.323   5.649   1.920
 2293SOL    HW2 7779   5.232   5.649   1.785
 2294SOL     OW 7780   4.343   6.674   6.664
 2294SOL    HW1 7781   4.295   6.696   6.579
 2294SOL    HW2 7782   4.437   6.707   6.658
 2295SOL     OW 7783   0.611   2.156   1.122
 2295SOL    HW1 7784   0.513   2.168   1.138
 2295SOL    HW2 7785   0.631   2.170   1.025
 2296SOL     OW 7786   3.071   6.947   0.276
 2296SOL    HW1 7787   3.057   6.945   0.177
 2296SOL    HW2 7788   3.162   6.983   0.296
 2297SOL     OW 7789   3.994   4.781   5.594
 2297SOL    HW1 7790   3.952   4.706   5.644
 2297SOL    HW2 7791   3.939   4.802   5.513
 2298SOL     OW 7792   3.807   2.104   1.516
 2298SOL    HW1 7793   3.868   2.026   1.527
 2298SOL    HW2 7794   3.841   2.182   1.569
 2299SOL     OW 7795   5.202   6.251   6.925
 2299SOL    HW1 7796   5.259   6.177   6.962
 2299SOL    HW2 7797   5.108   6.240   6.957
 2300SOL     OW 7798   1.908   5.069   1.396
 2300SOL    HW1 7799   1.876   5.154   1.355
 2300SOL    HW2 7800   1.883   5.067   1.493
 2301SOL     OW 7801   3.882   3.358   2.878
 2301SOL    HW1 7802   3.783   3.345   2.886
 2301SOL    HW2 7803   3.923   3.274   2.843
 2302SOL     OW 7804   3.093   5.613   2.951
 2302SOL    HW1 7805   3.088   5.648   3.045
 2302SOL    HW2 7806   3.019   5.548   2.936
 2303SOL     OW 7807   1.050   3.116   4.429
 2303SOL    HW1 7808   1.100   3.093   4.512
 2303SOL    HW2 7809   0.955   3.086   4.437
 2304SOL     OW 7810   2.250   1.018   3.764
 2304SOL    HW1 7811   2.185   0.977   3.700
 2304SOL    HW2 7812   2.229   1.116   3.774
 2305SOL     OW 7813   3.699   5.555   2.232
 2305SOL    HW1 7814   3.732   5.594   2.146
 2305SOL    HW2 7815   3.743   5.602   2.309
 2306SOL     OW 7816   1.868   4.405   1.678
 2306SOL    HW1 7817   1.821   4.367   1.758
 2306SOL    HW2 7818   1.818   4.380   1.595
 2307SOL     OW 7819   0.778   2.087   3.048
 2307SOL    HW1 7820   0.808   2.099   3.143
 2307SOL    HW2 7821   0.858   2.074   2.989
 2308SOL     OW 7822   0.689   0.604   6.632
 2308SOL    HW1 7823   0.709   0.616   6.730
 2308SOL    HW2 7824   0.775   0.606   6.580
 2309SOL     OW 7825   3.341   5.432   6.817
 2309SOL    HW1 7826   3.372   5.361   6.754
 2309SOL    HW2 7827   3.419   5.464   6.872
 2310SOL     OW 7828   5.798   1.099   1.740
 2310SOL    HW1 7829   5.778   1.008   1.704
 2310SOL    HW2 7830   5.891   1.101   1.777
 2311SOL     OW 7831   2.585   0.174   2.528
 2311SOL    HW1 7832   2.660   0.220   2.575
 2311SOL    HW2 7833   2.595   0.075   2.536
 2312SOL     OW 7834   4.235   0.339   2.707
 2312SOL    HW1 7835   4.212   0.255   2.756
 2312SOL    HW2 7836   4.158   0.403   2.710
 2313SOL     OW 7837   4.714   4.205   2.172
 2313SOL    HW1 7838   4.638   4.234   2.113
 2313SOL    HW2 7839   4.700   4.242   2.264
 2314SOL     OW 7840   6.206   0.682   3.824
 2314SOL    HW1 7841   6.159   0.648   3.906
 2314SOL    HW2 7842   6.211   0.782   3.828
 2315SOL     OW 7843   4.422   4.226   5.902
 2315SOL    HW1 7844   4.420   4.140   5.954
 2315SOL    HW2 7845   4.331   4.267   5.902
 2316SOL     OW 7846   2.895   1.301   6.131
 2316SOL    HW1 7847   2.824   1.343   6.074
 2316SOL    HW2 7848   2.978   1.356   6.126
 2317SOL     OW 7849   6.311   6.428   4.217
 2317SOL    HW1 7850   6.238   6.490   4.244
 2317SOL    HW2 7851   6.271   6.349   4.169
 2318SOL     OW 7852   2.256   4.160   4.639
 2318SOL    HW1 7853   2.300   4.084   4.686
 2318SOL    HW2 7854   2.326   4.226   4.611
 2319SOL     OW 7855   2.002   5.373   4.718
 2319SOL    HW1 7856   2.026   5.323   4.801
 2319SOL    HW2 7857   1.910   5.412   4.728
 2320SOL     OW 7858   1.218   3.356   5.605
 2320SOL    HW1 7859   1.176   3.447   5.601
 2320SOL    HW2 7860   1.281   3.346   5.528
 2321SOL     OW 7861   2.770   4.978   6.111
 2321SOL    HW1 7862   2.837   5.036   6.063
 2321SOL    HW2 7863   2.789   4.882   6.091
 2322SOL     OW 7864   2.145   3.722   2.328
 2322SOL    HW1 7865   2.193   3.748   2.244
 2322SOL    HW2 7866   2.181   3.635   2.362
 2323SOL     OW 7867   2.780   4.916   1.583
 2323SOL    HW1 7868   2.770   4.824   1.622
 2323SOL    HW2 7869   2.791   4.982   1.657
 2324SOL     OW 7870   0.353   5.774   2.528
 2324SOL    HW1 7871   0.326   5.753   2.621
 2324SOL    HW2 7872   0.442   5.732   2.509
 2325SOL     OW 7873   6.669   5.068   1.635
 2325SOL    HW1 7874   6.574   5.041   1.621
 2325SOL    HW2 7875   6.724   5.034   1.559
 2326SOL     OW 7876   1.433   6.813   0.132
 2326SOL    HW1 7877   1.382   6.843   0.051
 2326SOL    HW2 7878   1.471   6.722   0.116
 2327SOL     OW 7879   0.008   0.279   3.066
 2327SOL    HW1 7880   0.065   0.342   3.012
 2327SOL    HW2 7881   0.043   0.274   3.159
 2328SOL     OW 7882   1.465   2.156   2.105
 2328SOL    HW1 7883   1.447   2.245   2.146
 2328SOL    HW2 7884   1.473   2.166   2.005
 2329SOL     OW 7885   0.946   4.272   3.826
 2329SOL    HW1 7886   0.875   4.216   3.868
 2329SOL    HW2 7887   1.020   4.213   3.794
 2330SOL     OW 7888   6.588   2.847   0.447
 2330SOL    HW1 7889   6.535   2.911   0.502
 2330SOL    HW2 7890   6.683   2.847   0.478
 2331SOL     OW 7891   3.851   5.941   0.045
 2331SOL    HW1 7892   3.879   6.022   7.020
 2331SOL    HW2 7893   3.902   5.938   0.131
 2332SOL     OW 7894   6.298   7.014   5.808
 2332SOL    HW1 7895   6.331   6.945   5.743
 2332SOL    HW2 7896   6.330   6.990   5.900
 2333SOL     OW 7897   7.023   4.853   2.855
 2333SOL    HW1 7898   6.999   4.811   2.943
 2333SOL    HW2 7899   7.007   4.951   2.859
 2334SOL     OW 7900   1.784   1.178   6.231
 2334SOL    HW1 7901   1.790   1.080   6.211
 2334SOL    HW2 7902   1.695   1.199   6.270
 2335SOL     OW 7903   6.049   1.616   3.931
 2335SOL    HW1 7904   6.083   1.647   4.020
 2335SOL    HW2 7905   6.111   1.648   3.859
 2336SOL     OW 7906   2.509   1.701   4.021
 2336SOL    HW1 7907   2.523   1.642   4.100
 2336SOL    HW2 7908   2.530   1.651   3.937
 2337SOL     OW 7909   4.196   1.722   1.439
 2337SOL    HW1 7910   4.215   1.665   1.519
 2337SOL    HW2 7911   4.270   1.712   1.372
 2338SOL     OW 7912   0.875   3.456   4.056
 2338SOL    HW1 7913   0.920   3.540   4.026
 2338SOL    HW2 7914   0.784   3.451   4.016
 2339SOL     OW 7915   3.247   3.356   2.834
 2339SOL    HW1 7916   3.302   3.288   2.884
 2339SOL    HW2 7917   3.251   3.443   2.883
 2340SOL     OW 7918   0.929   5.200   6.713
 2340SOL    HW1 7919   1.014   5.229   6.758
 2340SOL    HW2 7920   0.920   5.101   6.719
 2341SOL     OW 7921   2.446   4.794   3.056
 2341SOL    HW1 7922   2.535   4.750   3.068
 2341SOL    HW2 7923   2.395   4.748   2.983
 2342SOL     OW 7924   2.880   6.703   4.152
 2342SOL    HW1 7925   2.900   6.663   4.063
 2342SOL    HW2 7926   2.787   6.678   4.180
 2343SOL     OW 7927   2.223   6.676   3.124
 2343SOL    HW1 7928   2.162   6.705   3.198
 2343SOL    HW2 7929   2.295   6.617   3.161
 2344SOL     OW 7930   6.786   5.322   0.701
 2344SOL    HW1 7931   6.827   5.235   0.731
 2344SOL    HW2 7932   6.686   5.315   0.705
 2345SOL     OW 7933   2.205   5.501   4.583
 2345SOL    HW1 7934   2.119   5.460   4.614
 2345SOL    HW2 7935   2.275   5.430   4.578
 2346SOL     OW 7936   4.207   3.343   5.860
 2346SOL    HW1 7937   4.122   3.321   5.908
 2346SOL    HW2 7938   4.284   3.330   5.922
 2347SOL     OW 7939   1.181   1.990   1.090
 2347SOL    HW1 7940   1.118   2.068   1.089
 2347SOL    HW2 7941   1.247   2.003   1.164
 2348SOL     OW 7942   1.925   6.217   3.671
 2348SOL    HW1 7943   2.012   6.235   3.624
 2348SOL    HW2 7944   1.873   6.302   3.677
 2349SOL     OW 7945   1.015   4.184   6.661
 2349SOL    HW1 7946   0.968   4.096   6.664
 2349SOL    HW2 7947   0.965   4.251   6.716
 2350SOL     OW 7948   5.787   3.524   5.718
 2350SOL    HW1 7949   5.858   3.561   5.658
 2350SOL    HW2 7950   5.698   3.536   5.674
 2351SOL     OW 7951   3.011   4.877   3.170
 2351SOL    HW1 7952   2.973   4.964   3.141
 2351SOL    HW2 7953   3.091   4.855   3.114
 2352SOL     OW 7954   6.450   3.048   3.808
 2352SOL    HW1 7955   6.524   3.030   3.873
 2352SOL    HW2 7956   6.481   3.027   3.715
 2353SOL     OW 7957   4.249   5.203   5.268
 2353SOL    HW1 7958   4.307   5.121   5.264
 2353SOL    HW2 7959   4.208   5.210   5.359
 2354SOL     OW 7960   2.597   2.488   4.416
 2354SOL    HW1 7961   2.608   2.450   4.508
 2354SOL    HW2 7962   2.652   2.435   4.351
 2355SOL     OW 7963   2.311   6.177   5.159
 2355SOL    HW1 7964   2.250   6.101   5.134
 2355SOL    HW2 7965   2.384   6.184   5.091
 2356SOL     OW 7966   1.145   3.057   0.004
 2356SOL    HW1 7967   1.216   3.111   6.987
 2356SOL    HW2 7968   1.059   3.107   0.003
 2357SOL     OW 7969   3.791   1.419   1.625
 2357SOL    HW1 7970   3.792   1.491   1.694
 2357SOL    HW2 7971   3.860   1.438   1.555
 2358SOL     OW 7972   2.605   4.951   5.796
 2358SOL    HW1 7973   2.527   4.889   5.795
 2358SOL    HW2 7974   2.574   5.043   5.823
 2359SOL     OW 7975   0.671   0.262   5.067
 2359SOL    HW1 7976   0.585   0.301   5.034
 2359SOL    HW2 7977   0.735   0.254   4.991
 2360SOL     OW 7978   6.693   3.692   0.831
 2360SOL    HW1 7979   6.789   3.714   0.812
 2360SOL    HW2 7980   6.649   3.657   0.748
 2361SOL     OW 7981   2.853   1.402   6.375
 2361SOL    HW1 7982   2.859   1.338   6.298
 2361SOL    HW2 7983   2.840   1.495   6.339
 2362SOL     OW 7984   3.093   5.163   3.876
 2362SOL    HW1 7985   3.114   5.079   3.928
 2362SOL    HW2 7986   3.067   5.235   3.940
 2363SOL     OW 7987   3.677   1.934   3.576
 2363SOL    HW1 7988   3.653   2.001   3.646
 2363SOL    HW2 7989   3.748   1.972   3.517
 2364SOL     OW 7990   1.098   2.716   2.088
 2364SOL    HW1 7991   1.185   2.698   2.134
 2364SOL    HW2 7992   1.116   2.765   2.003
 2365SOL     OW 7993   6.318   1.834   6.665
 2365SOL    HW1 7994   6.302   1.914   6.723
 2365SOL    HW2 7995   6.345   1.864   6.573
 2366SOL     OW 7996   3.513   4.880   0.654
 2366SOL    HW1 7997   3.544   4.826   0.576
 2366SOL    HW2 7998   3.590   4.927   0.696
 2367SOL     OW 7999   2.005   3.356   0.121
 2367SOL    HW1 8000   2.073   3.322   0.056
 2367SOL    HW2 8001   2.002   3.296   0.201
 2368SOL     OW 8002   5.756   0.086   3.962
 2368SOL    HW1 8003   5.686   0.033   4.011
 2368SOL    HW2 8004   5.844   0.039   3.970
 2369SOL     OW 8005   2.081   6.885   4.352
 2369SOL    HW1 8006   2.181   6.894   4.352
 2369SOL    HW2 8007   2.055   6.795   4.386
 2370SOL     OW 8008   5.744   3.147   6.725
 2370SOL    HW1 8009   5.777   3.061   6.763
 2370SOL    HW2 8010   5.818   3.214   6.723
 2371SOL     OW 8011   2.319   6.543   2.145
 2371SOL    HW1 8012   2.344   6.572   2.237
 2371SOL    HW2 8013   2.274   6.618   2.097
 2372SOL     OW 8014   0.065   2.386   2.187
 2372SOL    HW1 8015   7.002   2.426   2.202
 2372SOL    HW2 8016   0.084   2.384   2.089
 2373SOL     OW 8017   1.631   3.719   5.739
 2373SOL    HW1 8018   1.621   3.803   5.685
 2373SOL    HW2 8019   1.681   3.740   5.823
 2374SOL     OW 8020   6.566   2.258   4.982
 2374SOL    HW1 8021   6.534   2.238   4.889
 2374SOL    HW2 8022   6.570   2.174   5.035
 2375SOL     OW 8023   3.173   5.508   5.855
 2375SOL    HW1 8024   3.191   5.420   5.899
 2375SOL    HW2 8025   3.133   5.493   5.764
 2376SOL     OW 8026   5.878   3.680   3.905
 2376SOL    HW1 8027   5.905   3.703   3.999
 2376SOL    HW2 8028   5.785   3.643   3.905
 2377SOL     OW 8029   3.189   4.064   3.712
 2377SOL    HW1 8030   3.165   4.106   3.800
 2377SOL    HW2 8031   3.135   3.980   3.701
 2378SOL     OW 8032   4.869   2.114   0.071
 2378SOL    HW1 8033   4.925   2.133   7.017
 2378SOL    HW2 8034   4.839   2.200   0.111
 2379SOL     OW 8035   6.610   1.301   0.170
 2379SOL    HW1 8036   6.524   1.345   0.197
 2379SOL    HW2 8037   6.648   1.251   0.248
 2380SOL     OW 8038   6.930   2.670   0.568
 2380SOL    HW1 8039   6.908   2.620   0.652
 2380SOL    HW2 8040   6.956   2.606   0.497
 2381SOL     OW 8041   2.141   5.981   3.486
 2381SOL    HW1 8042   2.075   5.942   3.422
 2381SOL    HW2 8043   2.162   5.914   3.558
 2382SOL     OW 8044   1.835   3.479   4.437
 2382SOL    HW1 8045   1.801   3.393   4.400
 2382SOL    HW2 8046   1.931   3.468   4.464
 2383SOL     OW 8047   6.603   6.735   1.277
 2383SOL    HW1 8048   6.531   6.770   1.217
 2383SOL    HW2 8049   6.569   6.730   1.371
 2384SOL     OW 8050   4.661   1.948   2.187
 2384SOL    HW1 8051   4.669   1.848   2.184
 2384SOL    HW2 8052   4.752   1.989   2.196
 2385SOL     OW 8053   0.230   0.649   0.166
 2385SOL    HW1 8054   0.132   0.627   0.161
 2385SOL    HW2 8055   0.255   0.706   0.088
 2386SOL     OW 8056   5.304   5.825   4.610
 2386SOL    HW1 8057   5.374   5.807   4.678
 2386SOL    HW2 8058   5.329   5.907   4.558
 2387SOL     OW 8059   1.908   1.231   4.548
 2387SOL    HW1 8060   1.889   1.152   4.606
 2387SOL    HW2 8061   1.997   1.220   4.504
 2388SOL     OW 8062   6.648   2.893   3.965
 2388SOL    HW1 8063   6.673   2.989   3.978
 2388SOL    HW2 8064   6.597   2.861   4.045
 2389SOL     OW 8065   4.722   4.526   3.587
 2389SOL    HW1 8066   4.725   4.478   3.675
 2389SOL    HW2 8067   4.768   4.470   3.517
 2390SOL     OW 8068   4.152   3.447   2.821
 2390SOL    HW1 8069   4.056   3.454   2.848
 2390SOL    HW2 8070   4.160   3.465   2.723
 2391SOL     OW 8071   5.065   4.489   5.950
 2391SOL    HW1 8072   5.152   4.441   5.940
 2391SOL    HW2 8073   5.071   4.554   6.026
 2392SOL     OW 8074   2.567   6.806   6.508
 2392SOL    HW1 8075   2.557   6.837   6.603
 2392SOL    HW2 8076   2.622   6.723   6.506
 2393SOL     OW 8077   4.815   4.405   5.818
 2393SOL    HW1 8078   4.909   4.433   5.831
 2393SOL    HW2 8079   4.758   4.439   5.893
 2394SOL     OW 8080   6.880   3.868   4.857
 2394SOL    HW1 8081   6.818   3.790   4.869
 2394SOL    HW2 8082   6.898   3.882   4.760
 2395SOL     OW 8083   4.775   6.992   5.889
 2395SOL    HW1 8084   4.784   0.053   5.935
 2395SOL    HW2 8085   4.797   7.002   5.792
 2396SOL     OW 8086   3.964   5.204   0.742
 2396SOL    HW1 8087   3.943   5.168   0.651
 2396SOL    HW2 8088   3.991   5.300   0.735
 2397SOL     OW 8089   0.233   4.013   4.392
 2397SOL    HW1 8090   0.268   4.106   4.391
 2397SOL    HW2 8091   0.219   3.982   4.486
 2398SOL     OW 8092   5.392   4.217   0.134
 2398SOL    HW1 8093   5.328   4.164   0.190
 2398SOL    HW2 8094   5.470   4.160   0.109
 2399SOL     OW 8095   4.090   1.000   0.982
 2399SOL    HW1 8096   4.145   0.981   0.900
 2399SOL    HW2 8097   4.080   1.098   0.994
 2400SOL     OW 8098   2.384   4.225   0.771
 2400SOL    HW1 8099   2.426   4.134   0.766
 2400SOL    HW2 8100   2.336   4.235   0.858
 2401SOL     OW 8101   5.631   5.740   6.566
 2401SOL    HW1 8102   5.700   5.736   6.639
 2401SOL    HW2 8103   5.624   5.651   6.522
 2402SOL     OW 8104   0.829   0.216   4.262
 2402SOL    HW1 8105   0.745   0.194   4.312
 2402SOL    HW2 8106   0.845   0.146   4.192
 2403SOL     OW 8107   0.696   2.580   5.647
 2403SOL    HW1 8108   0.616   2.591   5.706
 2403SOL    HW2 8109   0.769   2.641   5.678
 2404SOL     OW 8110   2.291   1.207   1.220
 2404SOL    HW1 8111   2.380   1.225   1.262
 2404SOL    HW2 8112   2.237   1.149   1.281
 2405SOL     OW 8113   3.341   4.130   2.486
 2405SOL    HW1 8114   3.405   4.131   2.409
 2405SOL    HW2 8115   3.370   4.197   2.554
 2406SOL     OW 8116   3.677   1.371   1.283
 2406SOL    HW1 8117   3.686   1.338   1.189
 2406SOL    HW2 8118   3.646   1.297   1.342
 2407SOL     OW 8119   5.865   2.116   3.756
 2407SOL    HW1 8120   5.869   2.155   3.664
 2407SOL    HW2 8121   5.890   2.019   3.753
 2408SOL     OW 8122   4.513   4.484   2.182
 2408SOL    HW1 8123   4.528   4.432   2.266
 2408SOL    HW2 8124   4.513   4.422   2.103
 2409SOL     OW 8125   2.567   3.813   1.487
 2409SOL    HW1 8126   2.567   3.892   1.426
 2409SOL    HW2 8127   2.642   3.821   1.552
 2410SOL     OW 8128   4.027   3.562   4.292
 2410SOL    HW1 8129   4.102   3.520   4.241
 2410SOL    HW2 8130   3.940   3.520   4.263
 2411SOL     OW 8131   5.621   6.634   4.893
 2411SOL    HW1 8132   5.579   6.548   4.924
 2411SOL    HW2 8133   5.564   6.711   4.924
 2412SOL     OW 8134   5.713   3.842   1.566
 2412SOL    HW1 8135   5.765   3.907   1.510
 2412SOL    HW2 8136   5.617   3.842   1.539
 2413SOL     OW 8137   5.528   0.184   1.556
 2413SOL    HW1 8138   5.452   0.247   1.541
 2413SOL    HW2 8139   5.598   0.199   1.486
 2414SOL     OW 8140   4.866   3.962   3.734
 2414SOL    HW1 8141   4.965   3.973   3.735
 2414SOL    HW2 8142   4.830   3.997   3.648
 2415SOL     OW 8143   5.881   1.390   2.396
 2415SOL    HW1 8144   5.964   1.436   2.426
 2415SOL    HW2 8145   5.886   1.293   2.421
 2416SOL     OW 8146   5.507   1.922   5.886
 2416SOL    HW1 8147   5.607   1.916   5.892
 2416SOL    HW2 8148   5.477   2.006   5.931
 2417SOL     OW 8149   3.190   3.075   4.734
 2417SOL    HW1 8150   3.248   3.067   4.653
 2417SOL    HW2 8151   3.094   3.083   4.706
 2418SOL     OW 8152   3.598   3.215   4.186
 2418SOL    HW1 8153   3.548   3.271   4.253
 2418SOL    HW2 8154   3.674   3.169   4.232
 2419SOL     OW 8155   0.666   6.467   3.050
 2419SOL    HW1 8156   0.580   6.491   3.006
 2419SOL    HW2 8157   0.683   6.530   3.127
 2420SOL     OW 8158   2.776   0.330   1.944
 2420SOL    HW1 8159   2.813   0.423   1.949
 2420SOL    HW2 8160   2.676   0.334   1.945
 2421SOL     OW 8161   1.545   2.929   4.445
 2421SOL    HW1 8162   1.597   2.972   4.518
 2421SOL    HW2 8163   1.493   2.998   4.395
 2422SOL     OW 8164   5.023   1.963   1.034
 2422SOL    HW1 8165   5.106   1.995   0.989
 2422SOL    HW2 8166   5.043   1.938   1.129
 2423SOL     OW 8167   2.734   6.206   2.405
 2423SOL    HW1 8168   2.778   6.117   2.394
 2423SOL    HW2 8169   2.798   6.269   2.448
 2424SOL     OW 8170   5.609   1.345   0.221
 2424SOL    HW1 8171   5.526   1.397   0.206
 2424SOL    HW2 8172   5.672   1.359   0.144
 2425SOL     OW 8173   6.208   0.493   4.093
 2425SOL    HW1 8174   6.295   0.519   4.050
 2425SOL    HW2 8175   6.226   0.459   4.185
 2426SOL     OW 8176   2.505   4.964   4.713
 2426SOL    HW1 8177   2.597   5.005   4.709
 2426SOL    HW2 8178   2.499   4.891   4.645
 2427SOL     OW 8179   5.937   6.374   5.066
 2427SOL    HW1 8180   5.982   6.313   5.131
 2427SOL    HW2 8181   5.849   6.403   5.103
 2428SOL     OW 8182   0.438   0.674   1.599
 2428SOL    HW1 8183   0.427   0.659   1.698
 2428SOL    HW2 8184   0.512   0.739   1.583
 2429SOL     OW 8185   5.416   5.609   1.080
 2429SOL    HW1 8186   5.508   5.647   1.068
 2429SOL    HW2 8187   5.396   5.547   1.004
 2430SOL     OW 8188   5.648   0.693   2.385
 2430SOL    HW1 8189   5.570   0.702   2.447
 2430SOL    HW2 8190   5.621   0.642   2.303
 2431SOL     OW 8191   4.028   0.717   2.149
 2431SOL    HW1 8192   4.002   0.644   2.086
 2431SOL    HW2 8193   3.956   0.786   2.151
 2432SOL     OW 8194   4.467   6.176   2.000
 2432SOL    HW1 8195   4.541   6.160   2.066
 2432SOL    HW2 8196   4.387   6.211   2.048
 2433SOL     OW 8197   4.299   0.449   6.903
 2433SOL    HW1 8198   4.376   0.430   6.964
 2433SOL    HW2 8199   4.215   0.409   6.941
 2434SOL     OW 8200   3.865   1.245   6.245
 2434SOL    HW1 8201   3.890   1.258   6.149
 2434SOL    HW2 8202   3.947   1.224   6.298
 2435SOL     OW 8203   6.515   5.721   5.129
 2435SOL    HW1 8204   6.468   5.799   5.087
 2435SOL    HW2 8205   6.487   5.713   5.225
 2436SOL     OW 8206   2.695   5.836   0.401
 2436SOL    HW1 8207   2.596   5.827   0.390
 2436SOL    HW2 8208   2.719   5.825   0.498
 2437SOL     OW 8209   0.224   6.349   5.793
 2437SOL    HW1 8210   0.196   6.405   5.714
 2437SOL    HW2 8211   0.148   6.290   5.820
 2438SOL     OW 8212   3.126   2.490   0.714
 2438SOL    HW1 8213   3.036   2.450   0.701
 2438SOL    HW2 8214   3.118   2.573   0.769
 2439SOL     OW 8215   5.986   3.932   5.413
 2439SOL    HW1 8216   5.935   3.880   5.345
 2439SOL    HW2 8217   6.047   3.997   5.368
 2440SOL     OW 8218   5.713   5.304   5.906
 2440SOL    HW1 8219   5.770   5.223   5.918
 2440SOL    HW2 8220   5.655   5.292   5.825
 2441SOL     OW 8221   5.757   2.367   0.571
 2441SOL    HW1 8222   5.827   2.300   0.596
 2441SOL    HW2 8223   5.668   2.322   0.568
 2442SOL     OW 8224   0.837   3.731   4.740
 2442SOL    HW1 8225   0.891   3.762   4.818
 2442SOL    HW2 8226   0.787   3.648   4.765
 2443SOL     OW 8227   2.609   4.522   6.189
 2443SOL    HW1 8228   2.648   4.485   6.273
 2443SOL    HW2 8229   2.512   4.541   6.203
 2444SOL     OW 8230   2.238   3.621   6.047
 2444SOL    HW1 8231   2.228   3.530   6.087
 2444SOL    HW2 8232   2.333   3.636   6.020
 2445SOL     OW 8233   0.566   0.667   1.139
 2445SOL    HW1 8234   0.472   0.663   1.105
 2445SOL    HW2 8235   0.566   0.663   1.239
 2446SOL     OW 8236   6.224   4.765   5.196
 2446SOL    HW1 8237   6.199   4.789   5.290
 2446SOL    HW2 8238   6.311   4.809   5.173
 2447SOL     OW 8239   0.776   1.455   0.181
 2447SOL    HW1 8240   0.849   1.516   0.213
 2447SOL    HW2 8241   0.722   1.424   0.258
 2448SOL     OW 8242   1.282   0.302   4.572
 2448SOL    HW1 8243   1.351   0.243   4.531
 2448SOL    HW2 8244   1.195   0.290   4.524
 2449SOL     OW 8245   0.225   3.901   5.658
 2449SOL    HW1 8246   0.316   3.931   5.687
 2449SOL    HW2 8247   0.232   3.856   5.569
 2450SOL     OW 8248   2.120   3.823   2.980
 2450SOL    HW1 8249   2.168   3.763   2.916
 2450SOL    HW2 8250   2.136   3.790   3.074
 2451SOL     OW 8251   1.959   5.967   4.085
 2451SOL    HW1 8252   2.013   5.992   4.005
 2451SOL    HW2 8253   2.020   5.940   4.160
 2452SOL     OW 8254   0.905   2.253   4.271
 2452SOL    HW1 8255   0.910   2.262   4.172
 2452SOL    HW2 8256   0.973   2.314   4.314
 2453SOL     OW 8257   0.083   3.951   1.531
 2453SOL    HW1 8258   0.139   3.898   1.467
 2453SOL    HW2 8259   7.014   3.933   1.513
 2454SOL     OW 8260   2.912   0.710   2.437
 2454SOL    HW1 8261   3.008   0.726   2.412
 2454SOL    HW2 8262   2.895   0.750   2.527
 2455SOL     OW 8263   5.720   5.960   0.301
 2455SOL    HW1 8264   5.700   5.862   0.292
 2455SOL    HW2 8265   5.805   5.981   0.254
 2456SOL     OW 8266   4.473   6.756   1.254
 2456SOL    HW1 8267   4.472   6.855   1.268
 2456SOL    HW2 8268   4.480   6.710   1.343
 2457SOL     OW 8269   5.416   6.260   1.617
 2457SOL    HW1 8270   5.346   6.324   1.649
 2457SOL    HW2 8271   5.413   6.255   1.518
 2458SOL     OW 8272   0.555   5.492   3.748
 2458SOL    HW1 8273   0.602   5.553   3.684
 2458SOL    HW2 8274   0.475   5.452   3.705
 2459SOL     OW 8275   2.235   0.475   0.873
 2459SOL    HW1 8276   2.271   0.390   0.834
 2459SOL    HW2 8277   2.222   0.543   0.801
 2460SOL     OW 8278   3.166   5.697   1.582
 2460SOL    HW1 8279   3.229   5.661   1.651
 2460SOL    HW2 8280   3.201   5.784   1.548
 2461SOL     OW 8281   5.454   1.128   2.647
 2461SOL    HW1 8282   5.362   1.161   2.628
 2461SOL    HW2 8283   5.500   1.105   2.561
 2462SOL     OW 8284   2.107   4.813   6.165
 2462SOL    HW1 8285   2.073   4.869   6.241
 2462SOL    HW2 8286   2.107   4.717   6.191
 2463SOL     OW 8287   6.833   1.725   4.099
 2463SOL    HW1 8288   6.738   1.751   4.117
 2463SOL    HW2 8289   6.838   1.625   4.090
 2464SOL     OW 8290   1.450   3.173   1.076
 2464SOL    HW1 8291   1.389   3.105   1.117
 2464SOL    HW2 8292   1.444   3.167   0.977
 2465SOL     OW 8293   6.210   5.450   3.547
 2465SOL    HW1 8294   6.209   5.550   3.548
 2465SOL    HW2 8295   6.303   5.418   3.531
 2466SOL     OW 8296   3.395   1.470   2.360
 2466SOL    HW1 8297   3.398   1.520   2.447
 2466SOL    HW2 8298   3.447   1.521   2.292
 2467SOL     OW 8299   6.855   1.325   5.758
 2467SOL    HW1 8300   6.851   1.234   5.715
 2467SOL    HW2 8301   6.776   1.337   5.818
 2468SOL     OW 8302   0.351   4.560   0.710
 2468SOL    HW1 8303   0.329   4.489   0.644
 2468SOL    HW2 8304   0.377   4.519   0.797
 2469SOL     OW 8305   2.951   3.184   5.814
 2469SOL    HW1 8306   3.010   3.213   5.739
 2469SOL    HW2 8307   2.864   3.234   5.809
 2470SOL     OW 8308   5.597   3.022   0.273
 2470SOL    HW1 8309   5.594   3.114   0.233
 2470SOL    HW2 8310   5.507   2.979   0.265
 2471SOL     OW 8311   1.001   0.305   3.455
 2471SOL    HW1 8312   1.069   0.233   3.441
 2471SOL    HW2 8313   0.987   0.354   3.369
 2472SOL     OW 8314   6.084   1.403   3.221
 2472SOL    HW1 8315   6.021   1.328   3.242
 2472SOL    HW2 8316   6.139   1.424   3.302
 2473SOL     OW 8317   0.792   6.889   4.878
 2473SOL    HW1 8318   0.733   6.966   4.903
 2473SOL    HW2 8319   0.762   6.807   4.927
 2474SOL     OW 8320   5.700   5.508   4.810
 2474SOL    HW1 8321   5.767   5.573   4.845
 2474SOL    HW2 8322   5.619   5.558   4.779
 2475SOL     OW 8323   3.976   2.304   0.231
 2475SOL    HW1 8324   3.882   2.277   0.250
 2475SOL    HW2 8325   4.034   2.283   0.311
 2476SOL     OW 8326   0.294   2.309   4.220
 2476SOL    HW1 8327   0.292   2.216   4.257
 2476SOL    HW2 8328   0.209   2.356   4.244
 2477SOL     OW 8329   4.522   4.847   1.558
 2477SOL    HW1 8330   4.561   4.786   1.489
 2477SOL    HW2 8331   4.592   4.871   1.625
 2478SOL     OW 8332   6.423   6.695   3.452
 2478SOL    HW1 8333   6.490   6.769   3.463
 2478SOL    HW2 8334   6.344   6.712   3.511
 2479SOL     OW 8335   0.511   3.585   0.245
 2479SOL    HW1 8336   0.609   3.582   0.229
 2479SOL    HW2 8337   0.492   3.646   0.322
 2480SOL     OW 8338   0.673   3.577   1.693
 2480SOL    HW1 8339   0.660   3.579   1.594
 2480SOL    HW2 8340   0.769   3.559   1.714
 2481SOL     OW 8341   4.328   5.398   2.432
 2481SOL    HW1 8342   4.270   5.337   2.485
 2481SOL    HW2 8343   4.272   5.458   2.376
 2482SOL     OW 8344   4.387   2.479   4.192
 2482SOL    HW1 8345   4.371   2.484   4.093
 2482SOL    HW2 8346   4.313   2.428   4.235
 2483SOL     OW 8347   0.684   1.890   6.395
 2483SOL    HW1 8348   0.712   1.799   6.366
 2483SOL    HW2 8349   0.644   1.886   6.486
 2484SOL     OW 8350   3.233   2.358   6.258
 2484SOL    HW1 8351   3.265   2.325   6.169
 2484SOL    HW2 8352   3.206   2.454   6.251
 2485SOL     OW 8353   0.477   6.145   2.269
 2485SOL    HW1 8354   0.430   6.078   2.211
 2485SOL    HW2 8355   0.484   6.232   2.220
 2486SOL     OW 8356   0.881   4.817   3.363
 2486SOL    HW1 8357   0.904   4.868   3.446
 2486SOL    HW2 8358   0.828   4.736   3.387
 2487SOL     OW 8359   3.208   0.900   1.008
 2487SOL    HW1 8360   3.211   0.997   1.031
 2487SOL    HW2 8361   3.148   0.852   1.072
 2488SOL     OW 8362   3.480   6.337   6.619
 2488SOL    HW1 8363   3.534   6.256   6.598
 2488SOL    HW2 8364   3.510   6.413   6.562
 2489SOL     OW 8365   0.228   5.925   4.131
 2489SOL    HW1 8366   0.229   5.830   4.162
 2489SOL    HW2 8367   0.255   5.985   4.206
 2490SOL     OW 8368   5.180   3.498   1.686
 2490SOL    HW1 8369   5.127   3.479   1.603
 2490SOL    HW2 8370   5.217   3.413   1.722
 2491SOL     OW 8371   0.894   4.299   2.684
 2491SOL    HW1 8372   0.908   4.337   2.775
 2491SOL    HW2 8373   0.879   4.201   2.690
 2492SOL     OW 8374   4.507   2.548   5.913
 2492SOL    HW1 8375   4.489   2.641   5.943
 2492SOL    HW2 8376   4.498   2.542   5.814
 2493SOL     OW 8377   6.166   1.718   4.145
 2493SOL    HW1 8378   6.204   1.669   4.223
 2493SOL    HW2 8379   6.232   1.787   4.115
 2494SOL     OW 8380   4.887   3.851   1.395
 2494SOL    HW1 8381   4.962   3.916   1.407
 2494SOL    HW2 8382   4.897   3.777   1.462
 2495SOL     OW 8383   5.825   1.441   3.955
 2495SOL    HW1 8384   5.803   1.412   4.048
 2495SOL    HW2 8385   5.906   1.499   3.956
 2496SOL     OW 8386   1.165   6.085   6.586
 2496SOL    HW1 8387   1.108   6.039   6.654
 2496SOL    HW2 8388   1.243   6.127   6.631
 2497SOL     OW 8389   5.485   2.057   6.141
 2497SOL    HW1 8390   5.548   2.080   6.215
 2497SOL    HW2 8391   5.437   1.971   6.163
 2498SOL     OW 8392   1.014   3.977   4.910
 2498SOL    HW1 8393   1.093   3.944   4.859
 2498SOL    HW2 8394   0.961   3.899   4.944
 2499SOL     OW 8395   6.162   0.560   5.966
 2499SOL    HW1 8396   6.239   0.616   5.997
 2499SOL    HW2 8397   6.193   0.498   5.894
 2500SOL     OW 8398   4.634   3.311   6.447
 2500SOL    HW1 8399   4.617   3.214   6.465
 2500SOL    HW2 8400   4.726   3.335   6.475
 2501SOL     OW 8401   6.473   4.709   0.588
 2501SOL    HW1 8402   6.447   4.635   0.649
 2501SOL    HW2 8403   6.400   4.726   0.522
 2502SOL     OW 8404   2.064   6.763   3.322
 2502SOL    HW1 8405   1.984   6.821   3.307
 2502SOL    HW2 8406   2.094   6.772   3.417
 2503SOL     OW 8407   4.946   6.282   4.815
 2503SOL    HW1 8408   5.046   6.294   4.815
 2503SOL    HW2 8409   4.909   6.317   4.729
 2504SOL     OW 8410   1.905   4.110   3.122
 2504SOL    HW1 8411   1.872   4.041   3.058
 2504SOL    HW2 8412   1.952   4.065   3.198
 2505SOL     OW 8413   4.465   4.878   3.909
 2505SOL    HW1 8414   4.372   4.859   3.877
 2505SOL    HW2 8415   4.512   4.791   3.925
 2506SOL     OW 8416   0.291   1.666   0.712
 2506SOL    HW1 8417   0.236   1.736   0.757
 2506SOL    HW2 8418   0.306   1.692   0.616
 2507SOL     OW 8419   6.393   5.756   1.204
 2507SOL    HW1 8420   6.309   5.801   1.171
 2507SOL    HW2 8421   6.451   5.824   1.249
 2508SOL     OW 8422   2.201   2.690   2.183
 2508SOL    HW1 8423   2.171   2.596   2.199
 2508SOL    HW2 8424   2.216   2.704   2.085
 2509SOL     OW 8425   5.145   1.823   3.348
 2509SOL    HW1 8426   5.229   1.877   3.352
 2509SOL    HW2 8427   5.140   1.763   3.428
 2510SOL     OW 8428   3.402   5.812   0.907
 2510SOL    HW1 8429   3.345   5.788   0.985
 2510SOL    HW2 8430   3.385   5.747   0.832
 2511SOL     OW 8431   0.803   6.730   4.412
 2511SOL    HW1 8432   0.775   6.637   4.436
 2511SOL    HW2 8433   0.832   6.779   4.495
 2512SOL     OW 8434   5.128   3.055   4.109
 2512SOL    HW1 8435   5.205   2.998   4.081
 2512SOL    HW2 8436   5.163   3.140   4.150
 2513SOL     OW 8437   0.426   4.892   1.625
 2513SOL    HW1 8438   0.379   4.975   1.595
 2513SOL    HW2 8439   0.507   4.917   1.679
 2514SOL     OW 8440   1.080   1.812   4.268
 2514SOL    HW1 8441   1.077   1.911   4.251
 2514SOL    HW2 8442   1.012   1.766   4.211
 2515SOL     OW 8443   0.920   4.764   0.403
 2515SOL    HW1 8444   0.908   4.847   0.348
 2515SOL    HW2 8445   0.945   4.790   0.497
 2516SOL     OW 8446   5.124   6.244   4.007
 2516SOL    HW1 8447   5.050   6.192   4.050
 2516SOL    HW2 8448   5.174   6.295   4.077
 2517SOL     OW 8449   2.698   4.919   0.486
 2517SOL    HW1 8450   2.688   4.993   0.553
 2517SOL    HW2 8451   2.795   4.897   0.473
 2518SOL     OW 8452   2.663   1.936   5.966
 2518SOL    HW1 8453   2.652   2.035   5.955
 2518SOL    HW2 8454   2.683   1.915   6.062
 2519SOL     OW 8455   5.085   4.331   4.767
 2519SOL    HW1 8456   5.117   4.237   4.780
 2519SOL    HW2 8457   5.112   4.363   4.676
 2520SOL     OW 8458   2.731   4.985   2.252
 2520SOL    HW1 8459   2.634   5.009   2.259
 2520SOL    HW2 8460   2.741   4.886   2.257
 2521SOL     OW 8461   6.025   6.921   5.762
 2521SOL    HW1 8462   5.955   6.987   5.735
 2521SOL    HW2 8463   6.111   6.969   5.780
 2522SOL     OW 8464   1.047   3.167   5.408
 2522SOL    HW1 8465   1.075   3.260   5.385
 2522SOL    HW2 8466   1.120   3.103   5.384
 2523SOL     OW 8467   6.617   2.823   6.688
 2523SOL    HW1 8468   6.704   2.871   6.703
 2523SOL    HW2 8469   6.635   2.726   6.671
 2524SOL     OW 8470   0.599   0.053   4.829
 2524SOL    HW1 8471   0.573   0.018   4.740
 2524SOL    HW2 8472   0.562   7.021   4.901
 2525SOL     OW 8473   1.757   4.295   2.812
 2525SOL    HW1 8474   1.786   4.272   2.719
 2525SOL    HW2 8475   1.836   4.324   2.866
 2526SOL     OW 8476   0.622   1.988   5.728
 2526SOL    HW1 8477   0.618   2.085   5.754
 2526SOL    HW2 8478   0.628   1.981   5.628
 2527SOL     OW 8479   5.744   6.801   3.700
 2527SOL    HW1 8480   5.801   6.799   3.782
 2527SOL    HW2 8481   5.648   6.814   3.727
 2528SOL     OW 8482   5.998   5.148   0.519
 2528SOL    HW1 8483   6.000   5.068   0.580
 2528SOL    HW2 8484   5.949   5.223   0.564
 2529SOL     OW 8485   5.325   3.819   5.129
 2529SOL    HW1 8486   5.330   3.910   5.088
 2529SOL    HW2 8487   5.230   3.787   5.128
 2530SOL     OW 8488   1.318   6.760   3.838
 2530SOL    HW1 8489   1.337   6.726   3.746
 2530SOL    HW2 8490   1.224   6.792   3.843
 2531SOL     OW 8491   5.162   1.210   0.629
 2531SOL    HW1 8492   5.170   1.287   0.566
 2531SOL    HW2 8493   5.113   1.136   0.584
 2532SOL     OW 8494   1.444   4.394   5.778
 2532SOL    HW1 8495   1.496   4.478   5.796
 2532SOL    HW2 8496   1.354   4.417   5.741
 2533SOL     OW 8497   5.828   6.597   5.272
 2533SOL    HW1 8498   5.903   6.653   5.307
 2533SOL    HW2 8499   5.806   6.526   5.338
 2534SOL     OW 8500   6.632   1.850   3.720
 2534SOL    HW1 8501   6.629   1.816   3.626
 2534SOL    HW2 8502   6.707   1.804   3.769
 2535SOL     OW 8503   1.888   0.906   3.033
 2535SOL    HW1 8504   1.858   0.983   2.976
 2535SOL    HW2 8505   1.949   0.847   2.981
 2536SOL     OW 8506   6.526   0.726   3.841
 2536SOL    HW1 8507   6.559   0.631   3.846
 2536SOL    HW2 8508   6.430   0.726   3.813
 2537SOL     OW 8509   4.392   5.227   1.485
 2537SOL    HW1 8510   4.369   5.323   1.469
 2537SOL    HW2 8511   4.451   5.195   1.411
 2538SOL     OW 8512   1.469   4.321   5.227
 2538SOL    HW1 8513   1.439   4.416   5.218
 2538SOL    HW2 8514   1.551   4.317   5.284
 2539SOL     OW 8515   2.717   0.586   5.981
 2539SOL    HW1 8516   2.802   0.589   5.929
 2539SOL    HW2 8517   2.687   0.679   6.001
 2540SOL     OW 8518   5.869   1.845   2.275
 2540SOL    HW1 8519   5.888   1.844   2.373
 2540SOL    HW2 8520   5.955   1.842   2.224
 2541SOL     OW 8521   0.298   0.157   5.853
 2541SOL    HW1 8522   0.355   0.110   5.921
 2541SOL    HW2 8523   0.343   0.152   5.764
 2542SOL     OW 8524   3.662   1.570   3.796
 2542SOL    HW1 8525   3.664   1.476   3.763
 2542SOL    HW2 8526   3.570   1.607   3.786
 2543SOL     OW 8527   0.406   2.338   4.773
 2543SOL    HW1 8528   0.356   2.383   4.847
 2543SOL    HW2 8529   0.407   2.397   4.692
 2544SOL     OW 8530   6.256   5.939   2.815
 2544SOL    HW1 8531   6.336   5.981   2.770
 2544SOL    HW2 8532   6.238   5.850   2.773
 2545SOL     OW 8533   6.445   1.921   0.265
 2545SOL    HW1 8534   6.394   1.872   0.194
 2545SOL    HW2 8535   6.398   1.913   0.352
 2546SOL     OW 8536   6.534   4.283   2.492
 2546SOL    HW1 8537   6.614   4.261   2.436
 2546SOL    HW2 8538   6.458   4.223   2.467
 2547SOL     OW 8539   5.603   3.573   1.090
 2547SOL    HW1 8540   5.682   3.620   1.129
 2547SOL    HW2 8541   5.598   3.480   1.127
 2548SOL     OW 8542   0.150   6.531   5.595
 2548SOL    HW1 8543   0.116   6.601   5.659
 2548SOL    HW2 8544   0.212   6.574   5.530
 2549SOL     OW 8545   3.062   3.213   0.373
 2549SOL    HW1 8546   3.162   3.206   0.371
 2549SOL    HW2 8547   3.032   3.228   0.467
 2550SOL     OW 8548   4.105   6.390   6.562
 2550SOL    HW1 8549   4.176   6.406   6.493
 2550SOL    HW2 8550   4.055   6.475   6.577
 2551SOL     OW 8551   3.702   5.071   0.806
 2551SOL    HW1 8552   3.643   5.143   0.845
 2551SOL    HW2 8553   3.775   5.113   0.752
 2552SOL     OW 8554   2.346   5.707   1.782
 2552SOL    HW1 8555   2.331   5.736   1.688
 2552SOL    HW2 8556   2.380   5.785   1.835
 2553SOL     OW 8557   4.163   1.309   0.048
 2553SOL    HW1 8558   4.144   1.220   0.007
 2553SOL    HW2 8559   4.109   1.380   0.001
 2554SOL     OW 8560   1.771   5.894   1.645
 2554SOL    HW1 8561   1.712   5.954   1.590
 2554SOL    HW2 8562   1.758   5.914   1.742
 2555SOL     OW 8563   5.713   6.971   4.410
 2555SOL    HW1 8564   5.711   6.994   4.507
 2555SOL    HW2 8565   5.688   6.875   4.398
 2556SOL     OW 8566   3.519   0.186   0.516
 2556SOL    HW1 8567   3.601   0.173   0.571
 2556SOL    HW2 8568   3.511   0.111   0.450
 2557SOL     OW 8569   2.933   0.947   0.107
 2557SOL    HW1 8570   2.891   0.857   0.120
 2557SOL    HW2 8571   2.969   0.954   0.014
 2558SOL     OW 8572   5.167   3.488   1.281
 2558SOL    HW1 8573   5.117   3.439   1.353
 2558SOL    HW2 8574   5.116   3.481   1.195
 2559SOL     OW 8575   0.771   4.071   3.941
 2559SOL    HW1 8576   0.756   4.034   4.033
 2559SOL    HW2 8577   0.790   3.995   3.878
 2560SOL     OW 8578   4.891   2.153   3.555
 2560SOL    HW1 8579   4.940   2.065   3.559
 2560SOL    HW2 8580   4.884   2.191   3.647
 2561SOL     OW 8581   3.867   0.102   4.372
 2561SOL    HW1 8582   3.791   0.147   4.325
 2561SOL    HW2 8583   3.885   0.013   4.328
 2562SOL     OW 8584   2.038   6.500   4.187
 2562SOL    HW1 8585   2.132   6.524   4.162
 2562SOL    HW2 8586   2.017   6.409   4.151
 2563SOL     OW 8587   3.641   2.539   6.276
 2563SOL    HW1 8588   3.548   2.572   6.292
 2563SOL    HW2 8589   3.706   2.601   6.319
 2564SOL     OW 8590   1.343   1.996   0.173
 2564SOL    HW1 8591   1.416   1.934   0.200
 2564SOL    HW2 8592   1.373   2.091   0.185
 2565SOL     OW 8593   1.014   1.660   0.545
 2565SOL    HW1 8594   1.098   1.692   0.589
 2565SOL    HW2 8595   0.935   1.701   0.592
 2566SOL     OW 8596   2.812   0.630   1.066
 2566SOL    HW1 8597   2.804   0.721   1.024
 2566SOL    HW2 8598   2.720   0.595   1.087
 2567SOL     OW 8599   2.010   1.185   0.209
 2567SOL    HW1 8600   1.954   1.267   0.198
 2567SOL    HW2 8601   2.003   1.129   0.127
 2568SOL     OW 8602   3.399   6.727   0.397
 2568SOL    HW1 8603   3.415   6.776   0.483
 2568SOL    HW2 8604   3.306   6.690   0.397
 2569SOL     OW 8605   1.952   0.464   0.915
 2569SOL    HW1 8606   1.888   0.394   0.947
 2569SOL    HW2 8607   2.045   0.427   0.919
 2570SOL     OW 8608   0.110   5.794   5.036
 2570SOL    HW1 8609   0.133   5.889   5.060
 2570SOL    HW2 8610   0.017   5.774   5.066
 2571SOL     OW 8611   3.251   3.721   4.442
 2571SOL    HW1 8612   3.301   3.805   4.419
 2571SOL    HW2 8613   3.269   3.652   4.372
 2572SOL     OW 8614   1.885   5.452   2.229
 2572SOL    HW1 8615   1.828   5.435   2.310
 2572SOL    HW2 8616   1.861   5.386   2.158
 2573SOL     OW 8617   0.040   1.879   4.422
 2573SOL    HW1 8618   0.047   1.884   4.322
 2573SOL    HW2 8619   0.121   1.834   4.459
 2574SOL     OW 8620   0.679   4.038   1.972
 2574SOL    HW1 8621   0.709   4.112   1.911
 2574SOL    HW2 8622   0.745   3.963   1.968
 2575SOL     OW 8623   5.535   3.412   6.777
 2575SOL    HW1 8624   5.435   3.414   6.773
 2575SOL    HW2 8625   5.572   3.472   6.706
 2576SOL     OW 8626   1.815   0.173   3.787
 2576SOL    HW1 8627   1.749   0.130   3.848
 2576SOL    HW2 8628   1.903   0.182   3.833
 2577SOL     OW 8629   2.254   6.088   1.566
 2577SOL    HW1 8630   2.310   6.005   1.571
 2577SOL    HW2 8631   2.164   6.065   1.530
 2578SOL     OW 8632   4.757   2.152   3.920
 2578SOL    HW1 8633   4.771   2.230   3.980
 2578SOL    HW2 8634   4.837   2.092   3.923
 2579SOL     OW 8635   6.676   1.301   5.972
 2579SOL    HW1 8636   6.685   1.400   5.966
 2579SOL    HW2 8637   6.580   1.277   5.982
 2580SOL     OW 8638   1.496   2.167   6.083
 2580SOL    HW1 8639   1.423   2.119   6.035
 2580SOL    HW2 8640   1.533   2.240   6.024
 2581SOL     OW 8641   6.501   7.018   4.598
 2581SOL    HW1 8642   6.418   6.962   4.591
 2581SOL    HW2 8643   6.522   0.031   4.509
 2582SOL     OW 8644   0.327   5.364   3.048
 2582SOL    HW1 8645   0.266   5.420   3.103
 2582SOL    HW2 8646   0.345   5.278   3.095
 2583SOL     OW 8647   2.003   1.064   6.983
 2583SOL    HW1 8648   1.928   1.128   6.965
 2583SOL    HW2 8649   2.088   1.100   6.945
 2584SOL     OW 8650   5.278   0.047   2.054
 2584SOL    HW1 8651   5.333   6.997   2.085
 2584SOL    HW2 8652   5.218   0.018   1.979
 2585SOL     OW 8653   4.413   1.111   1.568
 2585SOL    HW1 8654   4.444   1.017   1.587
 2585SOL    HW2 8655   4.470   1.175   1.619
 2586SOL     OW 8656   6.441   1.854   4.450
 2586SOL    HW1 8657   6.370   1.795   4.488
 2586SOL    HW2 8658   6.521   1.853   4.511
 2587SOL     OW 8659   6.824   6.650   2.543
 2587SOL    HW1 8660   6.795   6.741   2.513
 2587SOL    HW2 8661   6.771   6.581   2.493
 2588SOL     OW 8662   5.035   0.600   1.598
 2588SOL    HW1 8663   4.997   0.509   1.581
 2588SOL    HW2 8664   5.086   0.631   1.517
 2589SOL     OW 8665   5.725   6.163   0.532
 2589SOL    HW1 8666   5.714   6.100   0.455
 2589SOL    HW2 8667   5.787   6.237   0.507
 2590SOL     OW 8668   4.060   6.461   2.403
 2590SOL    HW1 8669   4.021   6.509   2.325
 2590SOL    HW2 8670   4.140   6.409   2.373
 2591SOL     OW 8671   5.680   0.458   1.743
 2591SOL    HW1 8672   5.669   0.363   1.711
 2591SOL    HW2 8673   5.710   0.458   1.838
 2592SOL     OW 8674   3.157   5.138   1.750
 2592SOL    HW1 8675   3.097   5.211   1.717
 2592SOL    HW2 8676   3.247   5.176   1.771
 2593SOL     OW 8677   3.312   6.642   2.687
 2593SOL    HW1 8678   3.335   6.680   2.598
 2593SOL    HW2 8679   3.248   6.702   2.734
 2594SOL     OW 8680   1.065   6.249   6.082
 2594SOL    HW1 8681   0.995   6.283   6.145
 2594SOL    HW2 8682   1.140   6.315   6.077
 2595SOL     OW 8683   6.242   3.314   3.975
 2595SOL    HW1 8684   6.179   3.347   3.905
 2595SOL    HW2 8685   6.190   3.285   4.056
 2596SOL     OW 8686   4.459   2.162   2.041
 2596SOL    HW1 8687   4.528   2.227   2.009
 2596SOL    HW2 8688   4.464   2.078   1.987
 2597SOL     OW 8689   1.957   2.504   6.866
 2597SOL    HW1 8690   1.918   2.440   6.800
 2597SOL    HW2 8691   1.902   2.587   6.870
 2598SOL     OW 8692   5.818   2.680   2.827
 2598SOL    HW1 8693   5.806   2.755   2.761
 2598SOL    HW2 8694   5.788   2.594   2.785
 2599SOL     OW 8695   4.763   4.100   6.775
 2599SOL    HW1 8696   4.785   4.075   6.681
 2599SOL    HW2 8697   4.691   4.040   6.810
 2600SOL     OW 8698   6.746   3.596   3.673
 2600SOL    HW1 8699   6.778   3.567   3.582
 2600SOL    HW2 8700   6.671   3.537   3.702
 2601SOL     OW 8701   3.569   3.210   5.792
 2601SOL    HW1 8702   3.477   3.211   5.833
 2601SOL    HW2 8703   3.589   3.119   5.757
 2602SOL     OW 8704   6.019   5.809   5.461
 2602SOL    HW1 8705   5.951   5.785   5.392
 2602SOL    HW2 8706   6.037   5.907   5.459
 2603SOL     OW 8707   2.430   3.016   0.116
 2603SOL    HW1 8708   2.422   2.920   0.144
 2603SOL    HW2 8709   2.391   3.027   0.025
 2604SOL     OW 8710   5.600   1.459   1.652
 2604SOL    HW1 8711   5.581   1.511   1.569
 2604SOL    HW2 8712   5.515   1.417   1.685
 2605SOL     OW 8713   5.009   4.495   3.578
 2605SOL    HW1 8714   5.003   4.553   3.497
 2605SOL    HW2 8715   4.943   4.528   3.647
 2606SOL     OW 8716   0.108   4.834   1.736
 2606SOL    HW1 8717   0.072   4.926   1.722
 2606SOL    HW2 8718   0.106   4.812   1.833
 2607SOL     OW 8719   0.913   1.900   4.984
 2607SOL    HW1 8720   0.837   1.835   4.990
 2607SOL    HW2 8721   0.897   1.962   4.907
 2608SOL     OW 8722   5.091   0.201   0.692
 2608SOL    HW1 8723   5.023   0.170   0.758
 2608SOL    HW2 8724   5.048   0.266   0.629
 2609SOL     OW 8725   0.292   2.396   4.527
 2609SOL    HW1 8726   0.247   2.310   4.502
 2609SOL    HW2 8727   0.228   2.471   4.518
 2610SOL     OW 8728   5.738   6.042   4.773
 2610SOL    HW1 8729   5.799   6.105   4.821
 2610SOL    HW2 8730   5.785   6.005   4.693
 2611SOL     OW 8731   3.241   6.302   1.632
 2611SOL    HW1 8732   3.207   6.386   1.590
 2611SOL    HW2 8733   3.340   6.307   1.642
 2612SOL     OW 8734   6.253   6.888   4.556
 2612SOL    HW1 8735   6.178   6.952   4.570
 2612SOL    HW2 8736   6.223   6.813   4.498
 2613SOL     OW 8737   4.242   0.619   0.855
 2613SOL    HW1 8738   4.151   0.648   0.824
 2613SOL    HW2 8739   4.271   0.539   0.803
 2614SOL     OW 8740   0.103   6.001   6.601
 2614SOL    HW1 8741   0.094   5.905   6.628
 2614SOL    HW2 8742   0.197   6.031   6.619
 2615SOL     OW 8743   5.595   5.357   1.739
 2615SOL    HW1 8744   5.681   5.327   1.780
 2615SOL    HW2 8745   5.531   5.382   1.812
 2616SOL     OW 8746   3.900   3.483   2.516
 2616SOL    HW1 8747   3.817   3.500   2.570
 2616SOL    HW2 8748   3.980   3.485   2.576
 2617SOL     OW 8749   3.775   0.326   1.465
 2617SOL    HW1 8750   3.836   0.403   1.480
 2617SOL    HW2 8751   3.818   0.242   1.499
 2618SOL     OW 8752   0.763   0.625   0.610
 2618SOL    HW1 8753   0.704   0.690   0.564
 2618SOL    HW2 8754   0.763   0.538   0.561
 2619SOL     OW 8755   5.251   1.614   1.398
 2619SOL    HW1 8756   5.223   1.668   1.319
 2619SOL    HW2 8757   5.350   1.626   1.412
 2620SOL     OW 8758   1.706   4.244   4.280
 2620SOL    HW1 8759   1.748   4.241   4.370
 2620SOL    HW2 8760   1.732   4.329   4.234
 2621SOL     OW 8761   1.270   4.249   4.144
 2621SOL    HW1 8762   1.368   4.234   4.162
 2621SOL    HW2 8763   1.222   4.258   4.231
 2622SOL     OW 8764   2.773   3.332   6.440
 2622SOL    HW1 8765   2.843   3.354   6.507
 2622SOL    HW2 8766   2.804   3.361   6.349
 2623SOL     OW 8767   3.288   0.966   5.912
 2623SOL    HW1 8768   3.375   0.984   5.865
 2623SOL    HW2 8769   3.263   1.047   5.966
 2624SOL     OW 8770   6.326   2.281   4.127
 2624SOL    HW1 8771   6.387   2.270   4.050
 2624SOL    HW2 8772   6.355   2.222   4.202
 2625SOL     OW 8773   4.525   0.561   5.388
 2625SOL    HW1 8774   4.473   0.560   5.473
 2625SOL    HW2 8775   4.596   0.490   5.391
 2626SOL     OW 8776   2.066   6.459   2.277
 2626SOL    HW1 8777   2.030   6.487   2.366
 2626SOL    HW2 8778   2.124   6.378   2.289
 2627SOL     OW 8779   6.964   0.244   4.670
 2627SOL    HW1 8780   6.936   0.337   4.645
 2627SOL    HW2 8781   6.884   0.192   4.701
 2628SOL     OW 8782   3.530   5.698   5.440
 2628SOL    HW1 8783   3.440   5.730   5.409
 2628SOL    HW2 8784   3.526   5.673   5.536
 2629SOL     OW 8785   3.471   4.338   1.519
 2629SOL    HW1 8786   3.510   4.246   1.524
 2629SOL    HW2 8787   3.372   4.332   1.508
 2630SOL     OW 8788   2.665   2.381   2.462
 2630SOL    HW1 8789   2.749   2.347   2.419
 2630SOL    HW2 8790   2.618   2.305   2.508
 2631SOL     OW 8791   4.644   6.852   4.182
 2631SOL    HW1 8792   4.616   6.853   4.278
 2631SOL    HW2 8793   4.595   6.779   4.134
 2632SOL     OW 8794   5.177   1.746   0.905
 2632SOL    HW1 8795   5.248   1.695   0.856
 2632SOL    HW2 8796   5.114   1.787   0.840
 2633SOL     OW 8797   6.455   2.370   6.642
 2633SOL    HW1 8798   6.371   2.423   6.630
 2633SOL    HW2 8799   6.465   2.306   6.566
 2634SOL     OW 8800   2.463   5.780   1.270
 2634SOL    HW1 8801   2.555   5.800   1.303
 2634SOL    HW2 8802   2.449   5.681   1.269
 2635SOL     OW 8803   5.431   4.737   3.778
 2635SOL    HW1 8804   5.332   4.738   3.776
 2635SOL    HW2 8805   5.465   4.825   3.813
 2636SOL     OW 8806   6.132   0.670   5.108
 2636SOL    HW1 8807   6.143   0.655   5.206
 2636SOL    HW2 8808   6.050   0.725   5.092
 2637SOL     OW 8809   4.762   6.483   2.359
 2637SOL    HW1 8810   4.726   6.559   2.412
 2637SOL    HW2 8811   4.787   6.516   2.267
 2638SOL     OW 8812   5.668   5.709   1.152
 2638SOL    HW1 8813   5.654   5.744   1.245
 2638SOL    HW2 8814   5.750   5.651   1.150
 2639SOL     OW 8815   6.608   6.461   0.384
 2639SOL    HW1 8816   6.671   6.514   0.328
 2639SOL    HW2 8817   6.658   6.389   0.433
 2640SOL     OW 8818   6.667   6.933   6.117
 2640SOL    HW1 8819   6.760   6.946   6.084
 2640SOL    HW2 8820   6.623   6.859   6.065
 2641SOL     OW 8821   5.753   4.899   0.606
 2641SOL    HW1 8822   5.723   4.845   0.528
 2641SOL    HW2 8823   5.819   4.847   0.660
 2642SOL     OW 8824   6.242   0.094   3.752
 2642SOL    HW1 8825   6.322   0.148   3.778
 2642SOL    HW2 8826   6.197   0.136   3.673
 2643SOL     OW 8827   0.745   0.730   2.711
 2643SOL    HW1 8828   0.801   0.647   2.719
 2643SOL    HW2 8829   0.762   0.774   2.623
 2644SOL     OW 8830   0.271   5.110   6.133
 2644SOL    HW1 8831   0.180   5.138   6.104
 2644SOL    HW2 8832   0.316   5.059   6.060
 2645SOL     OW 8833   5.636   5.322   5.474
 2645SOL    HW1 8834   5.679   5.232   5.462
 2645SOL    HW2 8835   5.596   5.328   5.566
 2646SOL     OW 8836   6.510   6.342   6.749
 2646SOL    HW1 8837   6.603   6.335   6.714
 2646SOL    HW2 8838   6.510   6.332   6.848
 2647SOL     OW 8839   3.509   2.066   0.793
 2647SOL    HW1 8840   3.593   2.109   0.758
 2647SOL    HW2 8841   3.475   2.119   0.871
 2648SOL     OW 8842   3.515   0.355   2.412
 2648SOL    HW1 8843   3.589   0.418   2.435
 2648SOL    HW2 8844   3.447   0.356   2.485
 2649SOL     OW 8845   3.719   2.399   5.706
 2649SOL    HW1 8846   3.650   2.434   5.770
 2649SOL    HW2 8847   3.786   2.345   5.756
 2650SOL     OW 8848   0.359   6.545   1.673
 2650SOL    HW1 8849   0.330   6.451   1.689
 2650SOL    HW2 8850   0.455   6.547   1.647
 2651SOL     OW 8851   0.570   0.498   3.561
 2651SOL    HW1 8852   0.524   0.437   3.497
 2651SOL    HW2 8853   0.598   0.582   3.513
 2652SOL     OW 8854   3.235   3.317   2.331
 2652SOL    HW1 8855   3.262   3.382   2.261
 2652SOL    HW2 8856   3.239   3.360   2.421
 2653SOL     OW 8857   6.435   5.868   6.474
 2653SOL    HW1 8858   6.477   5.803   6.537
 2653SOL    HW2 8859   6.336   5.870   6.488
 2654SOL     OW 8860   5.738   2.586   6.304
 2654SOL    HW1 8861   5.808   2.654   6.324
 2654SOL    HW2 8862   5.720   2.584   6.206
 2655SOL     OW 8863   5.073   6.000   5.019
 2655SOL    HW1 8864   5.156   5.997   4.963
 2655SOL    HW2 8865   4.996   6.026   4.961
 2656SOL     OW 8866   5.624   3.587   3.972
 2656SOL    HW1 8867   5.539   3.640   3.977
 2656SOL    HW2 8868   5.607   3.495   4.006
 2657SOL     OW 8869   2.255   2.635   5.723
 2657SOL    HW1 8870   2.337   2.598   5.767
 2657SOL    HW2 8871   2.263   2.734   5.715
 2658SOL     OW 8872   5.830   4.526   5.700
 2658SOL    HW1 8873   5.813   4.464   5.623
 2658SOL    HW2 8874   5.926   4.553   5.701
 2659SOL     OW 8875   6.757   2.807   3.547
 2659SOL    HW1 8876   6.753   2.814   3.447
 2659SOL    HW2 8877   6.819   2.734   3.573
 2660SOL     OW 8878   6.830   1.770   3.359
 2660SOL    HW1 8879   6.903   1.717   3.401
 2660SOL    HW2 8880   6.847   1.780   3.261
 2661SOL     OW 8881   4.405   6.043   1.136
 2661SOL    HW1 8882   4.416   6.125   1.079
 2661SOL    HW2 8883   4.326   6.055   1.196
 2662SOL     OW 8884   3.359   6.778   3.815
 2662SOL    HW1 8885   3.344   6.836   3.895
 2662SOL    HW2 8886   3.389   6.687   3.844
 2663SOL     OW 8887   0.896   4.360   2.417
 2663SOL    HW1 8888   0.805   4.333   2.387
 2663SOL    HW2 8889   0.904   4.346   2.516
 2664SOL     OW 8890   4.183   3.557   1.848
 2664SOL    HW1 8891   4.173   3.576   1.946
 2664SOL    HW2 8892   4.193   3.643   1.798
 2665SOL     OW 8893   3.841   1.049   4.642
 2665SOL    HW1 8894   3.788   1.079   4.563
 2665SOL    HW2 8895   3.830   1.115   4.716
 2666SOL     OW 8896   5.348   5.903   1.533
 2666SOL    HW1 8897   5.290   5.957   1.594
 2666SOL    HW2 8898   5.443   5.913   1.561
 2667SOL     OW 8899   1.380   4.809   3.814
 2667SOL    HW1 8900   1.384   4.859   3.900
 2667SOL    HW2 8901   1.284   4.795   3.788
 2668SOL     OW 8902   0.152   2.533   5.837
 2668SOL    HW1 8903   0.124   2.452   5.889
 2668SOL    HW2 8904   0.152   2.612   5.898
 2669SOL     OW 8905   4.303   4.776   5.518
 2669SOL    HW1 8906   4.219   4.723   5.528
 2669SOL    HW2 8907   4.281   4.871   5.496
 2670SOL     OW 8908   1.507   0.470   6.593
 2670SOL    HW1 8909   1.541   0.441   6.683
 2670SOL    HW2 8910   1.571   0.535   6.553
 2671SOL     OW 8911   2.884   3.715   5.774
 2671SOL    HW1 8912   2.909   3.758   5.860
 2671SOL    HW2 8913   2.964   3.669   5.735
 2672SOL     OW 8914   0.937   4.515   0.767
 2672SOL    HW1 8915   0.972   4.431   0.724
 2672SOL    HW2 8916   0.894   4.572   0.697
 2673SOL     OW 8917   4.514   1.961   3.266
 2673SOL    HW1 8918   4.528   1.896   3.341
 2673SOL    HW2 8919   4.429   2.011   3.280
 2674SOL     OW 8920   5.106   5.285   5.632
 2674SOL    HW1 8921   5.078   5.380   5.620
 2674SOL    HW2 8922   5.188   5.267   5.578
 2675SOL     OW 8923   0.493   3.968   5.698
 2675SOL    HW1 8924   0.511   4.024   5.780
 2675SOL    HW2 8925   0.519   4.020   5.617
 2676SOL     OW 8926   4.378   0.636   1.847
 2676SOL    HW1 8927   4.347   0.706   1.912
 2676SOL    HW2 8928   4.312   0.561   1.845
 2677SOL     OW 8929   2.262   5.192   2.733
 2677SOL    HW1 8930   2.204   5.261   2.690
 2677SOL    HW2 8931   2.337   5.169   2.672
 2678SOL     OW 8932   0.729   4.923   6.194
 2678SOL    HW1 8933   0.791   4.983   6.245
 2678SOL    HW2 8934   0.761   4.914   6.100
 2679SOL     OW 8935   2.594   4.453   1.142
 2679SOL    HW1 8936   2.653   4.384   1.183
 2679SOL    HW2 8937   2.611   4.542   1.185
 2680SOL     OW 8938   1.044   2.227   1.665
 2680SOL    HW1 8939   1.025   2.243   1.569
 2680SOL    HW2 8940   1.136   2.260   1.687
 2681SOL     OW 8941   1.394   1.990   2.593
 2681SOL    HW1 8942   1.437   1.913   2.546
 2681SOL    HW2 8943   1.342   2.044   2.527
 2682SOL     OW 8944   6.522   2.079   3.366
 2682SOL    HW1 8945   6.476   2.164   3.391
 2682SOL    HW2 8946   6.504   2.057   3.271
 2683SOL     OW 8947   1.132   0.181   1.707
 2683SOL    HW1 8948   1.136   0.092   1.753
 2683SOL    HW2 8949   1.208   0.238   1.738
 2684SOL     OW 8950   2.420   6.475   3.248
 2684SOL    HW1 8951   2.370   6.406   3.196
 2684SOL    HW2 8952   2.443   6.439   3.339
 2685SOL     OW 8953   5.497   5.755   5.079
 2685SOL    HW1 8954   5.445   5.682   5.033
 2685SOL    HW2 8955   5.490   5.744   5.178
 2686SOL     OW 8956   1.545   2.815   4.184
 2686SOL    HW1 8957   1.509   2.862   4.103
 2686SOL    HW2 8958   1.502   2.853   4.266
 2687SOL     OW 8959   4.834   5.619   2.801
 2687SOL    HW1 8960   4.817   5.648   2.895
 2687SOL    HW2 8961   4.822   5.520   2.795
 2688SOL     OW 8962   3.902   4.733   6.286
 2688SOL    HW1 8963   3.886   4.758   6.191
 2688SOL    HW2 8964   3.977   4.789   6.323
 2689SOL     OW 8965   6.717   3.177   4.346
 2689SOL    HW1 8966   6.632   3.130   4.370
 2689SOL    HW2 8967   6.737   3.163   4.249
 2690SOL     OW 8968   3.297   3.746   3.675
 2690SOL    HW1 8969   3.203   3.718   3.657
 2690SOL    HW2 8970   3.359   3.672   3.652
 2691SOL     OW 8971   1.148   5.901   1.957
 2691SOL    HW1 8972   1.222   5.942   1.904
 2691SOL    HW2 8973   1.158   5.801   1.957
 2692SOL     OW 8974   0.251   6.470   3.463
 2692SOL    HW1 8975   0.191   6.440   3.389
 2692SOL    HW2 8976   0.329   6.520   3.425
 2693SOL     OW 8977   1.586   3.935   2.982
 2693SOL    HW1 8978   1.686   3.939   2.992
 2693SOL    HW2 8979   1.559   3.987   2.902
 2694SOL     OW 8980   2.273   0.101   3.400
 2694SOL    HW1 8981   2.181   0.134   3.378
 2694SOL    HW2 8982   2.334   0.120   3.323
 2695SOL     OW 8983   3.842   1.866   3.035
 2695SOL    HW1 8984   3.792   1.812   3.102
 2695SOL    HW2 8985   3.917   1.915   3.080
 2696SOL     OW 8986   4.021   3.825   5.550
 2696SOL    HW1 8987   4.016   3.801   5.453
 2696SOL    HW2 8988   3.934   3.865   5.579
 2697SOL     OW 8989   2.589   2.168   4.555
 2697SOL    HW1 8990   2.641   2.252   4.574
 2697SOL    HW2 8991   2.553   2.172   4.462
 2698SOL     OW 8992   2.207   3.259   6.996
 2698SOL    HW1 8993   2.278   3.320   6.962
 2698SOL    HW2 8994   2.237   3.164   6.985
 2699SOL     OW 8995   3.712   5.687   1.719
 2699SOL    HW1 8996   3.720   5.780   1.683
 2699SOL    HW2 8997   3.622   5.650   1.697
 2700SOL     OW 8998   2.122   3.635   2.753
 2700SOL    HW1 8999   2.153   3.545   2.784
 2700SOL    HW2 9000   2.033   3.626   2.708
 2701SOL     OW 9001   3.442   0.024   6.170
 2701SOL    HW1 9002   3.481   0.028   6.078
 2701SOL    HW2 9003   3.446   0.115   6.212
 2702SOL     OW 9004   0.082   0.228   3.335
 2702SOL    HW1 9005   7.019   0.248   3.372
 2702SOL    HW2 9006   0.132   0.170   3.400
 2703SOL     OW 9007   2.131   1.305   2.341
 2703SOL    HW1 9008   2.141   1.378   2.274
 2703SOL    HW2 9009   2.035   1.277   2.346
 2704SOL     OW 9010   1.814   5.646   1.052
 2704SOL    HW1 9011   1.838   5.600   1.137
 2704SOL    HW2 9012   1.767   5.582   0.991
 2705SOL     OW 9013   0.173   4.954   3.263
 2705SOL    HW1 9014   0.139   4.861   3.271
 2705SOL    HW2 9015   0.262   4.953   3.217
 2706SOL     OW 9016   0.277   1.940   1.808
 2706SOL    HW1 9017   0.318   2.030   1.813
 2706SOL    HW2 9018   0.193   1.944   1.753
 2707SOL     OW 9019   2.303   1.316   6.003
 2707SOL    HW1 9020   2.295   1.247   6.075
 2707SOL    HW2 9021   2.382   1.295   5.945
 2708SOL     OW 9022   2.044   2.378   0.822
 2708SOL    HW1 9023   2.131   2.341   0.855
 2708SOL    HW2 9024   1.996   2.422   0.898
 2709SOL     OW 9025   4.695   6.356   0.920
 2709SOL    HW1 9026   4.722   6.291   0.849
 2709SOL    HW2 9027   4.740   6.444   0.904
 2710SOL     OW 9028   5.727   3.968   2.746
 2710SOL    HW1 9029   5.656   3.943   2.679
 2710SOL    HW2 9030   5.817   3.957   2.704
 2711SOL     OW 9031   1.366   0.215   2.038
 2711SOL    HW1 9032   1.325   0.303   2.013
 2711SOL    HW2 9033   1.295   0.145   2.044
 2712SOL     OW 9034   3.047   4.768   0.649
 2712SOL    HW1 9035   3.110   4.701   0.609
 2712SOL    HW2 9036   3.018   4.737   0.739
 2713SOL     OW 9037   2.179   3.145   5.160
 2713SOL    HW1 9038   2.256   3.106   5.108
 2713SOL    HW2 9039   2.118   3.193   5.097
 2714SOL     OW 9040   5.375   0.104   5.377
 2714SOL    HW1 9041   5.400   0.125   5.283
 2714SOL    HW2 9042   5.419   0.019   5.405
 2715SOL     OW 9043   6.756   0.918   6.729
 2715SOL    HW1 9044   6.743   1.016   6.722
 2715SOL    HW2 9045   6.854   0.897   6.724
 2716SOL     OW 9046   0.302   0.148   2.590
 2716SOL    HW1 9047   0.215   0.126   2.547
 2716SOL    HW2 9048   0.285   0.184   2.683
 2717SOL     OW 9049   1.027   0.729   3.189
 2717SOL    HW1 9050   0.931   0.744   3.169
 2717SOL    HW2 9051   1.062   0.655   3.131
 2718SOL     OW 9052   1.519   4.933   3.268
 2718SOL    HW1 9053   1.537   4.952   3.364
 2718SOL    HW2 9054   1.584   4.864   3.234
 2719SOL     OW 9055   4.088   5.321   1.566
 2719SOL    HW1 9056   4.064   5.360   1.655
 2719SOL    HW2 9057   4.010   5.330   1.504
 2720SOL     OW 9058   1.131   6.092   3.930
 2720SOL    HW1 9059   1.196   6.161   3.961
 2720SOL    HW2 9060   1.169   6.044   3.851
 2721SOL     OW 9061   4.090   0.095   4.198
 2721SOL    HW1 9062   4.089   0.176   4.257
 2721SOL    HW2 9063   4.180   0.051   4.204
 2722SOL     OW 9064   1.689   5.939   1.909
 2722SOL    HW1 9065   1.597   5.910   1.933
 2722SOL    HW2 9066   1.739   5.963   1.992
 2723SOL     OW 9067   1.287   1.446   5.515
 2723SOL    HW1 9068   1.317   1.410   5.604
 2723SOL    HW2 9069   1.269   1.369   5.453
 2724SOL     OW 9070   3.513   5.587   6.083
 2724SOL    HW1 9071   3.528   5.625   6.175
 2724SOL    HW2 9072   3.445   5.643   6.036
 2725SOL     OW 9073   2.902   4.786   3.407
 2725SOL    HW1 9074   2.961   4.812   3.484
 2725SOL    HW2 9075   2.943   4.819   3.322
 2726SOL     OW 9076   4.960   5.456   1.780
 2726SOL    HW1 9077   5.017   5.535   1.758
 2726SOL    HW2 9078   4.916   5.470   1.868
 2727SOL     OW 9079   2.169   5.698   3.341
 2727SOL    HW1 9080   2.107   5.621   3.328
 2727SOL    HW2 9081   2.254   5.666   3.382
 2728SOL     OW 9082   3.786   0.453   6.038
 2728SOL    HW1 9083   3.820   0.360   6.054
 2728SOL    HW2 9084   3.708   0.472   6.098
 2729SOL     OW 9085   5.861   5.144   2.654
 2729SOL    HW1 9086   5.818   5.123   2.567
 2729SOL    HW2 9087   5.890   5.240   2.655
 2730SOL     OW 9088   2.134   5.528   1.726
 2730SOL    HW1 9089   2.216   5.577   1.753
 2730SOL    HW2 9090   2.130   5.523   1.626
 2731SOL     OW 9091   2.982   3.714   1.506
 2731SOL    HW1 9092   2.950   3.659   1.583
 2731SOL    HW2 9093   3.053   3.778   1.536
 2732SOL     OW 9094   6.224   2.135   2.698
 2732SOL    HW1 9095   6.171   2.214   2.729
 2732SOL    HW2 9096   6.181   2.095   2.617
 2733SOL     OW 9097   1.323   0.253   5.649
 2733SOL    HW1 9098   1.229   0.259   5.682
 2733SOL    HW2 9099   1.323   0.229   5.552
 2734SOL     OW 9100   2.186   5.924   4.355
 2734SOL    HW1 9101   2.200   5.982   4.275
 2734SOL    HW2 9102   2.270   5.921   4.409
 2735SOL     OW 9103   1.535   4.367   2.137
 2735SOL    HW1 9104   1.503   4.280   2.174
 2735SOL    HW2 9105   1.551   4.358   2.039
 2736SOL     OW 9106   4.128   0.287   5.541
 2736SOL    HW1 9107   4.227   0.287   5.552
 2736SOL    HW2 9108   4.102   0.357   5.474
 2737SOL     OW 9109   4.442   3.399   6.024
 2737SOL    HW1 9110   4.498   3.437   5.950
 2737SOL    HW2 9111   4.495   3.329   6.073
 2738SOL     OW 9112   5.728   5.104   3.726
 2738SOL    HW1 9113   5.655   5.139   3.668
 2738SOL    HW2 9114   5.710   5.128   3.822
 2739SOL     OW 9115   6.013   2.975   1.235
 2739SOL    HW1 9116   5.942   2.920   1.190
 2739SOL    HW2 9117   6.070   3.019   1.165
 2740SOL     OW 9118   6.479   2.197   3.072
 2740SOL    HW1 9119   6.488   2.237   2.981
 2740SOL    HW2 9120   6.446   2.102   3.064
 2741SOL     OW 9121   0.438   2.520   5.783
 2741SOL    HW1 9122   0.452   2.425   5.754
 2741SOL    HW2 9123   0.340   2.541   5.781
 2742SOL     OW 9124   2.012   6.705   6.087
 2742SOL    HW1 9125   2.103   6.729   6.120
 2742SOL    HW2 9126   1.950   6.783   6.100
 2743SOL     OW 9127   5.096   4.571   0.763
 2743SOL    HW1 9128   5.181   4.600   0.718
 2743SOL    HW2 9129   5.091   4.471   0.762
 2744SOL     OW 9130   3.776   1.570   6.529
 2744SOL    HW1 9131   3.739   1.564   6.436
 2744SOL    HW2 9132   3.872   1.539   6.528
 2745SOL     OW 9133   2.471   5.974   0.648
 2745SOL    HW1 9134   2.393   5.953   0.706
 2745SOL    HW2 9135   2.457   6.062   0.602
 2746SOL     OW 9136   1.531   1.707   6.484
 2746SOL    HW1 9137   1.481   1.788   6.454
 2746SOL    HW2 9138   1.597   1.733   6.555
 2747SOL     OW 9139   4.854   5.834   4.080
 2747SOL    HW1 9140   4.930   5.798   4.026
 2747SOL    HW2 9141   4.776   5.771   4.075
 2748SOL     OW 9142   3.728   1.361   4.135
 2748SOL    HW1 9143   3.709   1.263   4.149
 2748SOL    HW2 9144   3.643   1.413   4.143
 2749SOL     OW 9145   4.845   5.156   4.236
 2749SOL    HW1 9146   4.756   5.187   4.201
 2749SOL    HW2 9147   4.915   5.169   4.165
 2750SOL     OW 9148   0.694   6.052   2.363
 2750SOL    HW1 9149   0.672   6.053   2.461
 2750SOL    HW2 9150   0.615   6.083   2.311
 2751SOL     OW 9151   1.033   6.615   6.626
 2751SOL    HW1 9152   1.004   6.616   6.722
 2751SOL    HW2 9153   0.953   6.621   6.567
 2752SOL     OW 9154   6.017   6.345   5.546
 2752SOL    HW1 9155   6.087   6.414   5.527
 2752SOL    HW2 9156   5.991   6.350   5.643
 2753SOL     OW 9157   2.708   5.561   5.633
 2753SOL    HW1 9158   2.632   5.603   5.683
 2753SOL    HW2 9159   2.672   5.496   5.566
 2754SOL     OW 9160   0.946   6.302   4.273
 2754SOL    HW1 9161   0.977   6.397   4.278
 2754SOL    HW2 9162   1.002   6.245   4.333
 2755SOL     OW 9163   3.950   5.933   2.555
 2755SOL    HW1 9164   3.930   6.022   2.513
 2755SOL    HW2 9165   4.022   5.944   2.623
 2756SOL     OW 9166   0.527   2.747   5.442
 2756SOL    HW1 9167   0.533   2.780   5.536
 2756SOL    HW2 9168   0.615   2.708   5.414
 2757SOL     OW 9169   4.226   3.425   6.675
 2757SOL    HW1 9170   4.217   3.508   6.730
 2757SOL    HW2 9171   4.322   3.397   6.674
 2758SOL     OW 9172   0.100   6.775   1.744
 2758SOL    HW1 9173   0.123   6.849   1.682
 2758SOL    HW2 9174   0.144   6.790   1.833
 2759SOL     OW 9175   3.411   3.775   6.069
 2759SOL    HW1 9176   3.344   3.844   6.098
 2759SOL    HW2 9177   3.369   3.715   6.001
 2760SOL     OW 9178   5.597   6.202   2.951
 2760SOL    HW1 9179   5.513   6.177   2.901
 2760SOL    HW2 9180   5.653   6.262   2.894
 2761SOL     OW 9181   1.038   2.304   3.521
 2761SOL    HW1 9182   1.109   2.307   3.591
 2761SOL    HW2 9183   0.953   2.341   3.559
 2762SOL     OW 9184   2.342   2.373   0.537
 2762SOL    HW1 9185   2.387   2.351   0.624
 2762SOL    HW2 9186   2.382   2.457   0.500
 2763SOL     OW 9187   6.548   1.741   4.139
 2763SOL    HW1 9188   6.520   1.836   4.128
 2763SOL    HW2 9189   6.504   1.702   4.220
 2764SOL     OW 9190   0.715   2.985   2.535
 2764SOL    HW1 9191   0.760   3.073   2.524
 2764SOL    HW2 9192   0.703   2.942   2.446
 2765SOL     OW 9193   6.249   6.669   6.505
 2765SOL    HW1 9194   6.180   6.677   6.577
 2765SOL    HW2 9195   6.320   6.738   6.519
 2766SOL     OW 9196   4.547   0.493   0.019
 2766SOL    HW1 9197   4.577   0.443   0.100
 2766SOL    HW2 9198   4.573   0.589   0.027
 2767SOL     OW 9199   0.216   5.402   6.494
 2767SOL    HW1 9200   0.203   5.496   6.464
 2767SOL    HW2 9201   0.170   5.387   6.581
 2768SOL     OW 9202   3.835   0.057   1.503
 2768SOL    HW1 9203   3.869   0.026   1.591
 2768SOL    HW2 9204   3.848   7.013   1.434
 2769SOL     OW 9205   0.542   4.402   5.712
 2769SOL    HW1 9206   0.623   4.404   5.653
 2769SOL    HW2 9207   0.482   4.479   5.690
 2770SOL     OW 9208   2.613   6.372   0.787
 2770SOL    HW1 9209   2.676   6.311   0.740
 2770SOL    HW2 9210   2.612   6.350   0.885
 2771SOL     OW 9211   4.455   6.595   4.916
 2771SOL    HW1 9212   4.524   6.645   4.967
 2771SOL    HW2 9213   4.497   6.515   4.872
 2772SOL     OW 9214   4.680   0.781   3.537
 2772SOL    HW1 9215   4.700   0.695   3.491
 2772SOL    HW2 9216   4.600   0.824   3.493
 2773SOL     OW 9217   5.614   2.941   5.045
 2773SOL    HW1 9218   5.579   2.859   4.999
 2773SOL    HW2 9219   5.714   2.938   5.047
 2774SOL     OW 9220   5.919   1.759   4.288
 2774SOL    HW1 9221   6.002   1.744   4.235
 2774SOL    HW2 9222   5.934   1.835   4.353
 2775SOL     OW 9223   0.292   3.413   4.170
 2775SOL    HW1 9224   0.345   3.478   4.225
 2775SOL    HW2 9225   0.296   3.440   4.074
 2776SOL     OW 9226   5.124   5.232   6.107
 2776SOL    HW1 9227   5.105   5.322   6.069
 2776SOL    HW2 9228   5.153   5.171   6.034
 2777SOL     OW 9229   2.806   2.436   6.168
 2777SOL    HW1 9230   2.833   2.400   6.258
 2777SOL    HW2 9231   2.859   2.519   6.149
 2778SOL     OW 9232   2.840   0.662   6.289
 2778SOL    HW1 9233   2.790   0.728   6.234
 2778SOL    HW2 9234   2.778   0.616   6.353
 2779SOL     OW 9235   4.779   1.190   1.163
 2779SOL    HW1 9236   4.702   1.191   1.227
 2779SOL    HW2 9237   4.861   1.159   1.210
 2780SOL     OW 9238   7.006   1.543   4.786
 2780SOL    HW1 9239   7.011   1.522   4.883
 2780SOL    HW2 9240   0.041   1.619   4.764
 2781SOL     OW 9241   5.522   1.382   3.151
 2781SOL    HW1 9242   5.546   1.295   3.109
 2781SOL    HW2 9243   5.422   1.388   3.160
 2782SOL     OW 9244   5.467   0.486   6.167
 2782SOL    HW1 9245   5.549   0.455   6.119
 2782SOL    HW2 9246   5.470   0.586   6.177
 2783SOL     OW 9247   6.166   3.760   1.716
 2783SOL    HW1 9248   6.200   3.666   1.718
 2783SOL    HW2 9249   6.078   3.765   1.763
 2784SOL     OW 9250   0.860   2.618   0.845
 2784SOL    HW1 9251   0.911   2.557   0.784
 2784SOL    HW2 9252   0.908   2.706   0.852
 2785SOL     OW 9253   6.173   3.009   2.201
 2785SOL    HW1 9254   6.089   2.993   2.149
 2785SOL    HW2 9255   6.230   2.927   2.197
 2786SOL     OW 9256   0.695   6.159   6.578
 2786SOL    HW1 9257   0.622   6.194   6.518
 2786SOL    HW2 9258   0.781   6.203   6.553
 2787SOL     OW 9259   6.964   5.734   0.022
 2787SOL    HW1 9260   0.012   5.672   0.046
 2787SOL    HW2 9261   6.967   5.752   6.950
 2788SOL     OW 9262   2.909   0.001   6.269
 2788SOL    HW1 9263   2.820   6.986   6.286
 2788SOL    HW2 9264   2.977   6.957   6.249
 2789SOL     OW 9265   1.066   1.947   5.211
 2789SOL    HW1 9266   1.020   2.031   5.242
 2789SOL    HW2 9267   1.032   1.922   5.121
 2790SOL     OW 9268   1.248   5.336   2.206
 2790SOL    HW1 9269   1.312   5.408   2.177
 2790SOL    HW2 9270   1.208   5.293   2.125
 2791SOL     OW 9271   0.900   3.402   3.261
 2791SOL    HW1 9272   0.974   3.336   3.265
 2791SOL    HW2 9273   0.837   3.378   3.187
 2792SOL     OW 9274   3.460   1.221   5.911
 2792SOL    HW1 9275   3.377   1.199   5.963
 2792SOL    HW2 9276   3.459   1.171   5.824
 2793SOL     OW 9277   3.827   3.887   0.573
 2793SOL    HW1 9278   3.787   3.874   0.664
 2793SOL    HW2 9279   3.892   3.963   0.575
 2794SOL     OW 9280   0.730   2.626   6.782
 2794SOL    HW1 9281   0.643   2.621   6.832
 2794SOL    HW2 9282   0.768   2.718   6.791
 2795SOL     OW 9283   1.161   6.023   1.578
 2795SOL    HW1 9284   1.188   6.069   1.493
 2795SOL    HW2 9285   1.097   6.080   1.629
 2796SOL     OW 9286   1.914   5.452   6.429
 2796SOL    HW1 9287   1.963   5.375   6.389
 2796SOL    HW2 9288   1.856   5.495   6.359
 2797SOL     OW 9289   5.135   5.140   3.621
 2797SOL    HW1 9290   5.156   5.130   3.524
 2797SOL    HW2 9291   5.114   5.236   3.641
 2798SOL     OW 9292   5.151   1.213   1.464
 2798SOL    HW1 9293   5.241   1.241   1.429
 2798SOL    HW2 9294   5.120   1.280   1.532
 2799SOL     OW 9295   3.563   6.396   4.457
 2799SOL    HW1 9296   3.478   6.351   4.483
 2799SOL    HW2 9297   3.638   6.329   4.458
 2800SOL     OW 9298   5.880   0.137   5.961
 2800SOL    HW1 9299   5.862   0.139   5.863
 2800SOL    HW2 9300   5.886   0.231   5.996
 2801SOL     OW 9301   6.929   4.311   4.607
 2801SOL    HW1 9302   6.939   4.351   4.516
 2801SOL    HW2 9303   6.851   4.353   4.653
 2802SOL     OW 9304   1.725   4.595   5.306
 2802SOL    HW1 9305   1.685   4.673   5.355
 2802SOL    HW2 9306   1.825   4.601   5.309
 2803SOL     OW 9307   4.141   2.352   6.016
 2803SOL    HW1 9308   4.218   2.300   6.054
 2803SOL    HW2 9309   4.116   2.425   6.079
 2804SOL     OW 9310   6.917   2.518   3.994
 2804SOL    HW1 9311   7.001   2.546   3.947
 2804SOL    HW2 9312   6.863   2.459   3.935
 2805SOL     OW 9313   3.485   3.103   0.833
 2805SOL    HW1 9314   3.410   3.095   0.899
 2805SOL    HW2 9315   3.483   3.024   0.771
 2806SOL     OW 9316   6.981   3.353   5.940
 2806SOL    HW1 9317   0.049   3.342   5.912
 2806SOL    HW2 9318   6.970   3.323   6.034
 2807SOL     OW 9319   4.184   0.976   3.635
 2807SOL    HW1 9320   4.173   0.877   3.648
 2807SOL    HW2 9321   4.221   1.017   3.719
 2808SOL     OW 9322   0.347   4.588   5.687
 2808SOL    HW1 9323   0.261   4.553   5.722
 2808SOL    HW2 9324   0.342   4.597   5.588
 2809SOL     OW 9325   0.208   5.761   2.286
 2809SOL    HW1 9326   0.230   5.668   2.255
 2809SOL    HW2 9327   0.237   5.772   2.381
 2810SOL     OW 9328   2.286   6.937   3.000
 2810SOL    HW1 9329   2.289   6.916   2.903
 2810SOL    HW2 9330   2.261   6.855   3.052
 2811SOL     OW 9331   1.091   1.035   1.152
 2811SOL    HW1 9332   1.018   1.065   1.090
 2811SOL    HW2 9333   1.068   0.946   1.190
 2812SOL     OW 9334   1.088   1.385   1.071
 2812SOL    HW1 9335   1.168   1.367   1.128
 2812SOL    HW2 9336   1.092   1.330   0.988
 2813SOL     OW 9337   0.717   3.014   1.923
 2813SOL    HW1 9338   0.788   2.949   1.951
 2813SOL    HW2 9339   0.688   3.068   2.002
 2814SOL     OW 9340   2.713   4.151   0.262
 2814SOL    HW1 9341   2.746   4.113   0.348
 2814SOL    HW2 9342   2.687   4.247   0.275
 2815SOL     OW 9343   6.961   4.671   4.731
 2815SOL    HW1 9344   6.925   4.619   4.809
 2815SOL    HW2 9345   0.013   4.623   4.694
 2816SOL     OW 9346   0.564   5.735   5.690
 2816SOL    HW1 9347   0.578   5.659   5.754
 2816SOL    HW2 9348   0.652   5.764   5.653
 2817SOL     OW 9349   3.473   0.496   2.172
 2817SOL    HW1 9350   3.537   0.572   2.178
 2817SOL    HW2 9351   3.486   0.436   2.251
 2818SOL     OW 9352   2.181   0.627   0.440
 2818SOL    HW1 9353   2.083   0.619   0.426
 2818SOL    HW2 9354   2.223   0.667   0.359
 2819SOL     OW 9355   0.908   0.194   6.706
 2819SOL    HW1 9356   0.943   0.109   6.666
 2819SOL    HW2 9357   0.959   0.272   6.669
 2820SOL     OW 9358   1.532   2.596   6.767
 2820SOL    HW1 9359   1.506   2.649   6.848
 2820SOL    HW2 9360   1.517   2.499   6.784
 2821SOL     OW 9361   3.634   3.254   6.099
 2821SOL    HW1 9362   3.676   3.218   6.017
 2821SOL    HW2 9363   3.566   3.190   6.134
 2822SOL     OW 9364   4.909   3.061   0.037
 2822SOL    HW1 9365   4.893   2.974   7.018
 2822SOL    HW2 9366   4.844   3.072   0.112
 2823SOL     OW 9367   5.042   2.761   1.270
 2823SOL    HW1 9368   5.122   2.734   1.324
 2823SOL    HW2 9369   4.978   2.684   1.266
 2824SOL     OW 9370   1.018   3.769   4.476
 2824SOL    HW1 9371   0.937   3.773   4.536
 2824SOL    HW2 9372   1.055   3.676   4.478
 2825SOL     OW 9373   5.440   1.699   6.433
 2825SOL    HW1 9374   5.419   1.703   6.531
 2825SOL    HW2 9375   5.539   1.691   6.421
 2826SOL     OW 9376   2.545   2.628   6.119
 2826SOL    HW1 9377   2.613   2.557   6.139
 2826SOL    HW2 9378   2.496   2.651   6.203
 2827SOL     OW 9379   6.271   1.043   6.333
 2827SOL    HW1 9380   6.304   0.951   6.354
 2827SOL    HW2 9381   6.343   1.109   6.352
 2828SOL     OW 9382   1.689   3.571   1.089
 2828SOL    HW1 9383   1.788   3.564   1.076
 2828SOL    HW2 9384   1.657   3.659   1.052
 2829SOL     OW 9385   3.280   3.798   2.090
 2829SOL    HW1 9386   3.287   3.784   2.189
 2829SOL    HW2 9387   3.329   3.881   2.064
 2830SOL     OW 9388   3.327   5.894   5.198
 2830SOL    HW1 9389   3.312   5.812   5.253
 2830SOL    HW2 9390   3.240   5.941   5.184
 2831SOL     OW 9391   5.616   1.777   1.921
 2831SOL    HW1 9392   5.682   1.702   1.919
 2831SOL    HW2 9393   5.525   1.739   1.939
 2832SOL     OW 9394   0.866   3.781   1.998
 2832SOL    HW1 9395   0.951   3.752   1.955
 2832SOL    HW2 9396   0.817   3.702   2.033
 2833SOL     OW 9397   1.296   2.681   2.276
 2833SOL    HW1 9398   1.233   2.679   2.354
 2833SOL    HW2 9399   1.310   2.776   2.247
 2834SOL     OW 9400   3.905   6.379   4.691
 2834SOL    HW1 9401   3.848   6.335   4.760
 2834SOL    HW2 9402   3.995   6.400   4.730
 2835SOL     OW 9403   6.447   0.379   6.801
 2835SOL    HW1 9404   6.365   0.414   6.847
 2835SOL    HW2 9405   6.509   0.342   6.870
 2836SOL     OW 9406   3.153   5.817   2.742
 2836SOL    HW1 9407   3.164   5.739   2.803
 2836SOL    HW2 9408   3.059   5.851   2.748
 2837SOL     OW 9409   5.104   4.324   1.706
 2837SOL    HW1 9410   5.018   4.284   1.676
 2837SOL    HW2 9411   5.144   4.268   1.779
 2838SOL     OW 9412   6.634   4.617   6.642
 2838SOL    HW1 9413   6.544   4.637   6.602
 2838SOL    HW2 9414   6.631   4.528   6.687
 2839SOL     OW 9415   6.103   3.422   4.946
 2839SOL    HW1 9416   6.081   3.519   4.951
 2839SOL    HW2 9417   6.048   3.378   4.875
 2840SOL     OW 9418   6.855   6.840   4.394
 2840SOL    HW1 9419   6.795   6.768   4.429
 2840SOL    HW2 9420   6.870   6.826   4.296
 2841SOL     OW 9421   5.591   4.201   2.368
 2841SOL    HW1 9422   5.602   4.114   2.417
 2841SOL    HW2 9423   5.502   4.240   2.390
 2842SOL     OW 9424   1.037   0.377   3.712
 2842SOL    HW1 9425   1.134   0.366   3.733
 2842SOL    HW2 9426   1.022   0.358   3.615
 2843SOL     OW 9427   2.163   2.355   3.763
 2843SOL    HW1 9428   2.064   2.367   3.773
 2843SOL    HW2 9429   2.188   2.367   3.667
 2844SOL     OW 9430   5.082   3.588   0.364
 2844SOL    HW1 9431   5.055   3.517   0.298
 2844SOL    HW2 9432   5.148   3.549   0.428
 2845SOL     OW 9433   3.098   1.839   2.264
 2845SOL    HW1 9434   3.041   1.828   2.346
 2845SOL    HW2 9435   3.082   1.762   2.202
 2846SOL     OW 9436   6.781   0.083   6.669
 2846SOL    HW1 9437   6.758   0.077   6.766
 2846SOL    HW2 9438   6.697   0.095   6.615
 2847SOL     OW 9439   4.663   4.837   0.992
 2847SOL    HW1 9440   4.711   4.905   1.047
 2847SOL    HW2 9441   4.564   4.844   1.009
 2848SOL     OW 9442   0.815   4.166   5.507
 2848SOL    HW1 9443   0.914   4.161   5.518
 2848SOL    HW2 9444   0.794   4.185   5.411
 2849SOL     OW 9445   5.110   0.302   1.678
 2849SOL    HW1 9446   5.015   0.331   1.686
 2849SOL    HW2 9447   5.155   0.306   1.768
 2850SOL     OW 9448   1.548   0.892   2.184
 2850SOL    HW1 9449   1.501   0.836   2.252
 2850SOL    HW2 9450   1.633   0.928   2.223
 2851SOL     OW 9451   3.286   2.987   1.760
 2851SOL    HW1 9452   3.276   2.888   1.772
 2851SOL    HW2 9453   3.274   3.033   1.848
 2852SOL     OW 9454   6.532   4.668   5.675
 2852SOL    HW1 9455   6.467   4.744   5.671
 2852SOL    HW2 9456   6.494   4.595   5.732
 2853SOL     OW 9457   0.037   4.086   5.729
 2853SOL    HW1 9458   0.096   4.005   5.730
 2853SOL    HW2 9459   6.989   4.074   5.794
 2854SOL     OW 9460   4.071   0.712   5.611
 2854SOL    HW1 9461   4.077   0.673   5.519
 2854SOL    HW2 9462   4.073   0.638   5.678
 2855SOL     OW 9463   2.366   1.756   5.018
 2855SOL    HW1 9464   2.275   1.713   5.022
 2855SOL    HW2 9465   2.386   1.782   4.924
 2856SOL     OW 9466   0.930   5.541   3.832
 2856SOL    HW1 9467   0.919   5.529   3.733
 2856SOL    HW2 9468   0.845   5.577   3.870
 2857SOL     OW 9469   0.094   4.471   1.097
 2857SOL    HW1 9470   0.043   4.387   1.113
 2857SOL    HW2 9471   0.189   4.459   1.126
 2858SOL     OW 9472   4.696   4.688   2.237
 2858SOL    HW1 9473   4.726   4.733   2.153
 2858SOL    HW2 9474   4.621   4.625   2.216
 2859SOL     OW 9475   5.571   4.862   1.453
 2859SOL    HW1 9476   5.529   4.772   1.438
 2859SOL    HW2 9477   5.529   4.905   1.533
 2860SOL     OW 9478   0.929   0.073   2.267
 2860SOL    HW1 9479   0.841   0.029   2.247
 2860SOL    HW2 9480   0.962   0.041   2.356
 2861SOL     OW 9481   4.663   4.544   5.629
 2861SOL    HW1 9482   4.584   4.488   5.653
 2861SOL    HW2 9483   4.746   4.507   5.672
 2862SOL     OW 9484   4.787   2.865   6.709
 2862SOL    HW1 9485   4.880   2.897   6.723
 2862SOL    HW2 9486   4.784   2.765   6.715
 2863SOL     OW 9487   5.885   1.453   5.190
 2863SOL    HW1 9488   5.790   1.452   5.219
 2863SOL    HW2 9489   5.917   1.547   5.179
 2864SOL     OW 9490   4.092   4.335   0.500
 2864SOL    HW1 9491   4.169   4.391   0.531
 2864SOL    HW2 9492   4.090   4.335   0.400
 2865SOL     OW 9493   5.691   4.999   4.681
 2865SOL    HW1 9494   5.719   5.066   4.749
 2865SOL    HW2 9495   5.619   5.038   4.623
 2866SOL     OW 9496   3.853   4.166   0.332
 2866SOL    HW1 9497   3.783   4.094   0.333
 2866SOL    HW2 9498   3.848   4.219   0.416
 2867SOL     OW 9499   5.598   6.415   2.546
 2867SOL    HW1 9500   5.507   6.455   2.541
 2867SOL    HW2 9501   5.641   6.417   2.456
 2868SOL     OW 9502   0.773   6.914   5.913
 2868SOL    HW1 9503   0.857   6.873   5.950
 2868SOL    HW2 9504   0.725   6.963   5.986
 2869SOL     OW 9505   6.282   5.602   4.165
 2869SOL    HW1 9506   6.266   5.542   4.087
 2869SOL    HW2 9507   6.329   5.685   4.135
 2870SOL     OW 9508   6.631   2.056   2.300
 2870SOL    HW1 9509   6.663   1.977   2.353
 2870SOL    HW2 9510   6.710   2.102   2.259
 2871SOL     OW 9511   4.476   1.434   2.260
 2871SOL    HW1 9512   4.405   1.363   2.257
 2871SOL    HW2 9513   4.445   1.512   2.206
 2872SOL     OW 9514   2.541   1.989   2.424
 2872SOL    HW1 9515   2.546   2.051   2.502
 2872SOL    HW2 9516   2.515   2.040   2.342
 2873SOL     OW 9517   0.733   6.861   1.489
 2873SOL    HW1 9518   0.747   6.874   1.587
 2873SOL    HW2 9519   0.636   6.869   1.468
 2874SOL     OW 9520   2.353   1.241   3.330
 2874SOL    HW1 9521   2.437   1.237   3.275
 2874SOL    HW2 9522   2.280   1.191   3.284
 2875SOL     OW 9523   2.036   0.059   3.057
 2875SOL    HW1 9524   2.105   7.018   3.035
 2875SOL    HW2 9525   2.045   0.086   3.153
 2876SOL     OW 9526   1.916   6.982   1.899
 2876SOL    HW1 9527   1.998   0.000   1.862
 2876SOL    HW2 9528   1.843   0.022   1.910
 2877SOL     OW 9529   1.310   2.446   6.605
 2877SOL    HW1 9530   1.229   2.465   6.551
 2877SOL    HW2 9531   1.293   2.469   6.701
 2878SOL     OW 9532   4.181   3.385   4.163
 2878SOL    HW1 9533   4.222   3.384   4.072
 2878SOL    HW2 9534   4.114   3.311   4.171
 2879SOL     OW 9535   5.118   4.224   0.255
 2879SOL    HW1 9536   5.101   4.276   0.172
 2879SOL    HW2 9537   5.033   4.216   0.308
 2880SOL     OW 9538   1.986   0.906   3.481
 2880SOL    HW1 9539   1.910   0.959   3.443
 2880SOL    HW2 9540   2.029   0.852   3.408
 2881SOL     OW 9541   5.328   6.013   7.019
 2881SOL    HW1 9542   5.336   6.047   0.086
 2881SOL    HW2 9543   5.292   5.920   7.020
 2882SOL     OW 9544   4.597   6.151   0.126
 2882SOL    HW1 9545   4.612   6.155   0.027
 2882SOL    HW2 9546   4.601   6.243   0.164
 2883SOL     OW 9547   6.029   6.529   4.240
 2883SOL    HW1 9548   5.957   6.496   4.301
 2883SOL    HW2 9549   6.042   6.464   4.165
 2884SOL     OW 9550   5.888   5.139   4.203
 2884SOL    HW1 9551   5.969   5.145   4.145
 2884SOL    HW2 9552   5.911   5.168   4.296
 2885SOL     OW 9553   1.151   2.553   3.261
 2885SOL    HW1 9554   1.097   2.551   3.345
 2885SOL    HW2 9555   1.169   2.648   3.236
 2886SOL     OW 9556   2.268   4.369   5.497
 2886SOL    HW1 9557   2.203   4.338   5.428
 2886SOL    HW2 9558   2.346   4.306   5.499
 2887SOL     OW 9559   0.349   5.893   3.090
 2887SOL    HW1 9560   0.342   5.821   3.020
 2887SOL    HW2 9561   0.392   5.855   3.172
 2888SOL     OW 9562   6.021   0.026   6.342
 2888SOL    HW1 9563   6.003   0.050   6.438
 2888SOL    HW2 9564   5.935   0.026   6.291
 2889SOL     OW 9565   3.642   6.073   2.718
 2889SOL    HW1 9566   3.644   6.002   2.648
 2889SOL    HW2 9567   3.732   6.080   2.762
 2890SOL     OW 9568   0.950   2.206   1.345
 2890SOL    HW1 9569   0.882   2.247   1.285
 2890SOL    HW2 9570   0.962   2.110   1.320
 2891SOL     OW 9571   6.617   2.152   4.585
 2891SOL    HW1 9572   6.712   2.175   4.566
 2891SOL    HW2 9573   6.614   2.069   4.641
 2892SOL     OW 9574   5.572   3.933   2.536
 2892SOL    HW1 9575   5.574   3.882   2.450
 2892SOL    HW2 9576   5.480   3.970   2.550
 2893SOL     OW 9577   6.930   5.441   4.464
 2893SOL    HW1 9578   6.967   5.424   4.555
 2893SOL    HW2 9579   7.005   5.448   4.398
 2894SOL     OW 9580   2.041   5.319   2.588
 2894SOL    HW1 9581   1.996   5.408   2.592
 2894SOL    HW2 9582   1.974   5.248   2.569
 2895SOL     OW 9583   4.490   0.034   5.839
 2895SOL    HW1 9584   4.421   6.989   5.831
 2895SOL    HW2 9585   4.578   7.020   5.864
 2896SOL     OW 9586   5.104   0.081   4.475
 2896SOL    HW1 9587   5.159   0.162   4.452
 2896SOL    HW2 9588   5.054   0.098   4.560
 2897SOL     OW 9589   4.274   5.049   3.235
 2897SOL    HW1 9590   4.217   5.036   3.153
 2897SOL    HW2 9591   4.293   4.960   3.277
 2898SOL     OW 9592   5.408   2.775   2.732
 2898SOL    HW1 9593   5.476   2.839   2.697
 2898SOL    HW2 9594   5.324   2.783   2.677
 2899SOL     OW 9595   6.952   3.757   1.055
 2899SOL    HW1 9596   7.026   3.702   1.016
 2899SOL    HW2 9597   6.925   3.719   1.143
 2900SOL     OW 9598   2.613   3.161   5.763
 2900SOL    HW1 9599   2.539   3.208   5.715
 2900SOL    HW2 9600   2.592   3.155   5.860
 2901SOL     OW 9601   0.656   3.696   3.107
 2901SOL    HW1 9602   0.633   3.707   3.203
 2901SOL    HW2 9603   0.666   3.599   3.086
 2902SOL     OW 9604   6.767   6.397   4.242
 2902SOL    HW1 9605   6.737   6.479   4.194
 2902SOL    HW2 9606   6.692   6.331   4.245
 2903SOL     OW 9607   5.010   4.695   0.223
 2903SOL    HW1 9608   5.033   4.616   0.279
 2903SOL    HW2 9609   5.041   4.680   0.129
 2904SOL     OW 9610   2.198   3.971   5.376
 2904SOL    HW1 9611   2.237   3.890   5.420
 2904SOL    HW2 9612   2.240   3.983   5.286
 2905SOL     OW 9613   1.588   6.067   1.473
 2905SOL    HW1 9614   1.582   6.161   1.439
 2905SOL    HW2 9615   1.521   6.010   1.425
 2906SOL     OW 9616   6.248   6.027   4.456
 2906SOL    HW1 9617   6.192   5.948   4.480
 2906SOL    HW2 9618   6.218   6.107   4.509
 2907SOL     OW 9619   0.577   1.095   4.712
 2907SOL    HW1 9620   0.557   1.172   4.774
 2907SOL    HW2 9621   0.552   1.121   4.619
 2908SOL     OW 9622   4.397   6.897   2.865
 2908SOL    HW1 9623   4.410   6.802   2.893
 2908SOL    HW2 9624   4.337   6.943   2.930
 2909SOL     OW 9625   6.826   6.501   1.487
 2909SOL    HW1 9626   6.779   6.413   1.492
 2909SOL    HW2 9627   6.873   6.519   1.573
 2910SOL     OW 9628   0.406   0.757   4.161
 2910SOL    HW1 9629   0.400   0.669   4.114
 2910SOL    HW2 9630   0.433   0.828   4.096
 2911SOL     OW 9631   0.115   4.301   5.564
 2911SOL    HW1 9632   0.118   4.240   5.643
 2911SOL    HW2 9633   0.065   4.256   5.489
 2912SOL     OW 9634   1.177   1.697   1.872
 2912SOL    HW1 9635   1.126   1.782   1.887
 2912SOL    HW2 9636   1.151   1.657   1.785
 2913SOL     OW 9637   2.957   6.802   2.601
 2913SOL    HW1 9638   2.964   6.885   2.656
 2913SOL    HW2 9639   2.866   6.761   2.613
 2914SOL     OW 9640   4.264   5.600   0.791
 2914SOL    HW1 9641   4.351   5.565   0.825
 2914SOL    HW2 9642   4.261   5.699   0.804
 2915SOL     OW 9643   2.787   0.108   2.917
 2915SOL    HW1 9644   2.692   0.088   2.891
 2915SOL    HW2 9645   2.837   0.141   2.836
 2916SOL     OW 9646   1.405   6.011   6.905
 2916SOL    HW1 9647   1.323   5.984   6.955
 2916SOL    HW2 9648   1.387   6.095   6.853
 2917SOL     OW 9649   3.092   6.722   3.719
 2917SOL    HW1 9650   3.180   6.713   3.765
 2917SOL    HW2 9651   3.073   6.818   3.701
 2918SOL     OW 9652   4.828   2.767   1.535
 2918SOL    HW1 9653   4.828   2.669   1.517
 2918SOL    HW2 9654   4.862   2.816   1.455
 2919SOL     OW 9655   0.539   5.591   5.176
 2919SOL    HW1 9656   0.570   5.652   5.103
 2919SOL    HW2 9657   0.502   5.645   5.251
 2920SOL     OW 9658   1.906   2.535   2.791
 2920SOL    HW1 9659   1.944   2.586   2.715
 2920SOL    HW2 9660   1.895   2.439   2.765
 2921SOL     OW 9661   0.920   6.493   3.627
 2921SOL    HW1 9662   0.915   6.475   3.725
 2921SOL    HW2 9663   1.006   6.457   3.591
 2922SOL     OW 9664   3.909   6.132   4.205
 2922SOL    HW1 9665   3.820   6.105   4.168
 2922SOL    HW2 9666   3.969   6.159   4.129
 2923SOL     OW 9667   6.397   5.354   5.054
 2923SOL    HW1 9668   6.480   5.387   5.009
 2923SOL    HW2 9669   6.318   5.404   5.019
 2924SOL     OW 9670   6.128   1.713   5.589
 2924SOL    HW1 9671   6.119   1.800   5.636
 2924SOL    HW2 9672   6.224   1.696   5.567
 2925SOL     OW 9673   5.312   6.700   5.435
 2925SOL    HW1 9674   5.356   6.609   5.439
 2925SOL    HW2 9675   5.221   6.694   5.476
 2926SOL     OW 9676   6.289   2.780   4.379
 2926SOL    HW1 9677   6.371   2.775   4.438
 2926SOL    HW2 9678   6.258   2.687   4.358
 2927SOL     OW 9679   1.358   1.896   1.708
 2927SOL    HW1 9680   1.305   1.822   1.749
 2927SOL    HW2 9681   1.317   1.921   1.620
 2928SOL     OW 9682   6.318   2.945   0.203
 2928SOL    HW1 9683   6.400   2.898   0.236
 2928SOL    HW2 9684   6.334   3.044   0.203
 2929SOL     OW 9685   2.290   2.390   4.231
 2929SOL    HW1 9686   2.208   2.382   4.287
 2929SOL    HW2 9687   2.272   2.448   4.152
 2930SOL     OW 9688   0.526   4.059   4.265
 2930SOL    HW1 9689   0.595   4.129   4.249
 2930SOL    HW2 9690   0.473   4.045   4.182
 2931SOL     OW 9691   5.104   3.891   5.667
 2931SOL    HW1 9692   5.072   3.986   5.666
 2931SOL    HW2 9693   5.035   3.832   5.625
 2932SOL     OW 9694   6.139   4.955   1.317
 2932SOL    HW1 9695   6.224   4.928   1.362
 2932SOL    HW2 9696   6.160   5.014   1.239
 2933SOL     OW 9697   1.302   6.517   6.954
 2933SOL    HW1 9698   1.315   6.563   6.866
 2933SOL    HW2 9699   1.234   6.444   6.944
 2934SOL     OW 9700   3.618   4.417   0.967
 2934SOL    HW1 9701   3.526   4.396   0.934
 2934SOL    HW2 9702   3.681   4.345   0.939
 2935SOL     OW 9703   0.445   2.370   6.296
 2935SOL    HW1 9704   0.428   2.443   6.229
 2935SOL    HW2 9705   0.477   2.411   6.382
 2936SOL     OW 9706   4.753   5.950   1.625
 2936SOL    HW1 9707   4.852   5.937   1.619
 2936SOL    HW2 9708   4.721   6.000   1.544
 2937SOL     OW 9709   4.949   4.316   2.694
 2937SOL    HW1 9710   4.986   4.245   2.754
 2937SOL    HW2 9711   4.969   4.293   2.599
 2938SOL     OW 9712   0.403   5.370   6.125
 2938SOL    HW1 9713   0.476   5.305   6.102
 2938SOL    HW2 9714   0.318   5.319   6.141
 2939SOL     OW 9715   0.255   6.557   1.956
 2939SOL    HW1 9716   0.231   6.643   2.001
 2939SOL    HW2 9717   0.273   6.573   1.860
 2940SOL     OW 9718   4.259   6.713   4.027
 2940SOL    HW1 9719   4.190   6.646   4.055
 2940SOL    HW2 9720   4.222   6.771   3.954
 2941SOL     OW 9721   1.887   4.977   3.071
 2941SOL    HW1 9722   1.909   4.892   3.025
 2941SOL    HW2 9723   1.883   4.962   3.170
 2942SOL     OW 9724   3.437   1.539   1.306
 2942SOL    HW1 9725   3.516   1.478   1.298
 2942SOL    HW2 9726   3.468   1.631   1.329
 2943SOL     OW 9727   5.966   4.034   2.960
 2943SOL    HW1 9728   6.010   4.052   2.872
 2943SOL    HW2 9729   5.895   3.965   2.948
 2944SOL     OW 9730   1.744   5.677   2.359
 2944SOL    HW1 9731   1.787   5.698   2.447
 2944SOL    HW2 9732   1.695   5.590   2.366
 2945SOL     OW 9733   4.499   4.553   0.868
 2945SOL    HW1 9734   4.519   4.609   0.948
 2945SOL    HW2 9735   4.475   4.461   0.896
 2946SOL     OW 9736   3.856   3.658   5.185
 2946SOL    HW1 9737   3.814   3.671   5.275
 2946SOL    HW2 9738   3.955   3.656   5.195
 2947SOL     OW 9739   6.592   6.113   1.095
 2947SOL    HW1 9740   6.547   6.086   1.180
 2947SOL    HW2 9741   6.530   6.169   1.040
 2948SOL     OW 9742   6.999   3.466   2.528
 2948SOL    HW1 9743   7.015   3.561   2.503
 2948SOL    HW2 9744   0.026   3.406   2.468
 2949SOL     OW 9745   1.799   6.310   0.479
 2949SOL    HW1 9746   1.855   6.370   0.537
 2949SOL    HW2 9747   1.712   6.354   0.460
 2950SOL     OW 9748   6.161   5.405   2.699
 2950SOL    HW1 9749   6.076   5.415   2.647
 2950SOL    HW2 9750   6.214   5.328   2.663
 2951SOL     OW 9751   6.887   1.125   1.774
 2951SOL    HW1 9752   6.858   1.074   1.855
 2951SOL    HW2 9753   6.806   1.166   1.731
 2952SOL     OW 9754   6.675   1.805   5.017
 2952SOL    HW1 9755   6.657   1.851   5.104
 2952SOL    HW2 9756   6.714   1.870   4.952
 2953SOL     OW 9757   1.252   4.775   3.370
 2953SOL    HW1 9758   1.220   4.809   3.282
 2953SOL    HW2 9759   1.301   4.848   3.418
 2954SOL     OW 9760   0.031   4.457   6.573
 2954SOL    HW1 9761   0.068   4.425   6.486
 2954SOL    HW2 9762   0.014   4.379   6.633
 2955SOL     OW 9763   2.124   4.314   5.752
 2955SOL    HW1 9764   2.210   4.338   5.706
 2955SOL    HW2 9765   2.083   4.397   5.789
 2956SOL     OW 9766   5.499   4.237   4.000
 2956SOL    HW1 9767   5.517   4.331   3.970
 2956SOL    HW2 9768   5.502   4.175   3.921
 2957SOL     OW 9769   2.186   5.343   1.102
 2957SOL    HW1 9770   2.118   5.413   1.081
 2957SOL    HW2 9771   2.161   5.295   1.186
 2958SOL     OW 9772   2.320   4.796   2.535
 2958SOL    HW1 9773   2.250   4.727   2.555
 2958SOL    HW2 9774   2.350   4.839   2.621
 2959SOL     OW 9775   7.004   3.546   3.264
 2959SOL    HW1 9776   6.996   3.487   3.184
 2959SOL    HW2 9777   0.013   3.494   3.341
 2960SOL     OW 9778   5.150   6.846   1.021
 2960SOL    HW1 9779   5.174   6.897   1.104
 2960SOL    HW2 9780   5.131   6.911   0.947
 2961SOL     OW 9781   5.685   3.391   2.180
 2961SOL    HW1 9782   5.745   3.372   2.102
 2961SOL    HW2 9783   5.727   3.357   2.264
 2962SOL     OW 9784   0.180   0.734   3.550
 2962SOL    HW1 9785   0.195   0.665   3.480
 2962SOL    HW2 9786   0.099   0.788   3.527
 2963SOL     OW 9787   1.416   0.965   4.998
 2963SOL    HW1 9788   1.364   1.050   4.990
 2963SOL    HW2 9789   1.501   0.984   5.047
 2964SOL     OW 9790   1.479   0.942   6.493
 2964SOL    HW1 9791   1.566   0.986   6.516
 2964SOL    HW2 9792   1.404   1.006   6.509
 2965SOL     OW 9793   6.830   6.897   5.578
 2965SOL    HW1 9794   6.877   6.952   5.509
 2965SOL    HW2 9795   6.788   6.818   5.534
 2966SOL     OW 9796   2.495   5.964   1.904
 2966SOL    HW1 9797   2.550   6.008   1.974
 2966SOL    HW2 9798   2.400   5.956   1.935
 2967SOL     OW 9799   5.343   0.349   4.712
 2967SOL    HW1 9800   5.295   0.293   4.645
 2967SOL    HW2 9801   5.295   0.345   4.800
 2968SOL     OW 9802   1.139   3.542   1.147
 2968SOL    HW1 9803   1.069   3.587   1.091
 2968SOL    HW2 9804   1.228   3.583   1.129
 2969SOL     OW 9805   4.718   3.358   5.430
 2969SOL    HW1 9806   4.638   3.417   5.421
 2969SOL    HW2 9807   4.797   3.402   5.387
 2970SOL     OW 9808   2.663   2.399   5.635
 2970SOL    HW1 9809   2.590   2.332   5.622
 2970SOL    HW2 9810   2.663   2.464   5.559
 2971SOL     OW 9811   5.081   3.030   5.809
 2971SOL    HW1 9812   4.989   3.007   5.840
 2971SOL    HW2 9813   5.111   3.115   5.853
 2972SOL     OW 9814   6.494   5.212   6.567
 2972SOL    HW1 9815   6.423   5.143   6.561
 2972SOL    HW2 9816   6.577   5.179   6.521
 2973SOL     OW 9817   4.515   0.985   3.461
 2973SOL    HW1 9818   4.455   1.064   3.469
 2973SOL    HW2 9819   4.608   1.012   3.484
 2974SOL     OW 9820   4.447   6.962   1.938
 2974SOL    HW1 9821   4.503   6.944   2.019
 2974SOL    HW2 9822   4.471   6.896   1.866
 2975SOL     OW 9823   5.122   3.832   4.278
 2975SOL    HW1 9824   5.033   3.788   4.264
 2975SOL    HW2 9825   5.184   3.769   4.325
 2976SOL     OW 9826   3.875   0.937   2.085
 2976SOL    HW1 9827   3.788   0.898   2.116
 2976SOL    HW2 9828   3.871   0.954   1.987
 2977SOL     OW 9829   0.893   0.492   1.975
 2977SOL    HW1 9830   0.870   0.438   2.056
 2977SOL    HW2 9831   0.862   0.586   1.988
 2978SOL     OW 9832   4.761   5.098   6.635
 2978SOL    HW1 9833   4.800   5.174   6.582
 2978SOL    HW2 9834   4.739   5.023   6.573
 2979SOL     OW 9835   2.583   1.035   4.529
 2979SOL    HW1 9836   2.582   1.135   4.524
 2979SOL    HW2 9837   2.661   1.000   4.477
 2980SOL     OW 9838   3.390   3.422   4.647
 2980SOL    HW1 9839   3.383   3.398   4.743
 2980SOL    HW2 9840   3.385   3.522   4.637
 2981SOL     OW 9841   2.097   0.788   1.538
 2981SOL    HW1 9842   2.154   0.807   1.458
 2981SOL    HW2 9843   2.089   0.689   1.551
 2982SOL     OW 9844   1.729   0.339   1.016
 2982SOL    HW1 9845   1.667   0.389   0.954
 2982SOL    HW2 9846   1.692   0.342   1.109
 2983SOL     OW 9847   6.238   2.969   5.712
 2983SOL    HW1 9848   6.265   2.975   5.616
 2983SOL    HW2 9849   6.160   3.030   5.728
 2984SOL     OW 9850   0.254   5.910   1.319
 2984SOL    HW1 9851   0.187   5.866   1.378
 2984SOL    HW2 9852   0.333   5.849   1.307
 2985SOL     OW 9853   6.577   0.646   5.575
 2985SOL    HW1 9854   6.538   0.666   5.665
 2985SOL    HW2 9855   6.642   0.570   5.583
 2986SOL     OW 9856   3.572   3.466   2.216
 2986SOL    HW1 9857   3.642   3.395   2.228
 2986SOL    HW2 9858   3.585   3.537   2.286
 2987SOL     OW 9859   2.054   5.967   5.615
 2987SOL    HW1 9860   2.131   5.905   5.600
 2987SOL    HW2 9861   2.037   6.021   5.533
 2988SOL     OW 9862   0.084   1.644   6.553
 2988SOL    HW1 9863   0.071   1.558   6.604
 2988SOL    HW2 9864   0.029   1.641   6.469
 2989SOL     OW 9865   5.103   3.123   4.503
 2989SOL    HW1 9866   5.139   3.030   4.509
 2989SOL    HW2 9867   5.046   3.142   4.583
 2990SOL     OW 9868   5.304   1.815   4.270
 2990SOL    HW1 9869   5.377   1.867   4.226
 2990SOL    HW2 9870   5.340   1.771   4.353
 2991SOL     OW 9871   0.242   3.482   0.686
 2991SOL    HW1 9872   0.217   3.433   0.602
 2991SOL    HW2 9873   0.300   3.424   0.743
 2992SOL     OW 9874   0.303   3.783   5.364
 2992SOL    HW1 9875   0.312   3.871   5.317
 2992SOL    HW2 9876   0.394   3.752   5.394
 2993SOL     OW 9877   2.231   3.784   0.791
 2993SOL    HW1 9878   2.282   3.698   0.793
 2993SOL    HW2 9879   2.290   3.856   0.754
 2994SOL     OW 9880   3.508   5.628   5.693
 2994SOL    HW1 9881   3.424   5.662   5.734
 2994SOL    HW2 9882   3.497   5.532   5.667
 2995SOL     OW 9883   4.585   0.371   0.800
 2995SOL    HW1 9884   4.578   0.470   0.798
 2995SOL    HW2 9885   4.587   0.339   0.894
 2996SOL     OW 9886   6.727   0.577   4.240
 2996SOL    HW1 9887   6.683   0.667   4.232
 2996SOL    HW2 9888   6.686   0.514   4.175
 2997SOL     OW 9889   5.096   6.525   4.368
 2997SOL    HW1 9890   5.117   6.427   4.364
 2997SOL    HW2 9891   4.999   6.538   4.385
 2998SOL     OW 9892   2.830   1.192   1.734
 2998SOL    HW1 9893   2.891   1.256   1.779
 2998SOL    HW2 9894   2.740   1.194   1.779
 2999SOL     OW 9895   2.688   4.913   1.017
 2999SOL    HW1 9896   2.782   4.935   1.042
 2999SOL    HW2 9897   2.638   4.998   0.997
 3000SOL     OW 9898   2.651   4.113   5.646
 3000SOL    HW1 9899   2.641   4.014   5.656
 3000SOL    HW2 9900   2.742   4.134   5.611
 3001SOL     OW 9901   5.774   0.490   6.256
 3001SOL    HW1 9902   5.706   0.518   6.324
 3001SOL    HW2 9903   5.856   0.547   6.265
 3002SOL     OW 9904   1.619   1.860   1.798
 3002SOL    HW1 9905   1.608   1.765   1.830
 3002SOL    HW2 9906   1.543   1.884   1.738
 3003SOL     OW 9907   1.776   6.625   0.123
 3003SOL    HW1 9908   1.684   6.612   0.086
 3003SOL    HW2 9909   1.839   6.563   0.077
 3004SOL     OW 9910   2.617   6.446   3.966
 3004SOL    HW1 9911   2.700   6.391   3.953
 3004SOL    HW2 9912   2.630   6.536   3.924
 3005SOL     OW 9913   1.076   2.245   0.384
 3005SOL    HW1 9914   1.168   2.213   0.405
 3005SOL    HW2 9915   1.067   2.261   0.286
 3006SOL     OW 9916   5.322   1.540   6.256
 3006SOL    HW1 9917   5.385   1.513   6.183
 3006SOL    HW2 9918   5.374   1.585   6.329
 3007SOL     OW 9919   5.834   5.568   6.989
 3007SOL    HW1 9920   5.776   5.495   7.025
 3007SOL    HW2 9921   5.786   5.616   6.916
 3008SOL     OW 9922   4.399   3.538   5.569
 3008SOL    HW1 9923   4.427   3.552   5.473
 3008SOL    HW2 9924   4.339   3.459   5.575
 3009SOL     OW 9925   6.625   3.549   1.968
 3009SOL    HW1 9926   6.719   3.533   1.996
 3009SOL    HW2 9927   6.572   3.585   2.045
 3010SOL     OW 9928   4.440   5.830   0.812
 3010SOL    HW1 9929   4.492   5.843   0.728
 3010SOL    HW2 9930   4.502   5.813   0.888
 3011SOL     OW 9931   6.666   0.736   1.017
 3011SOL    HW1 9932   6.709   0.679   1.087
 3011SOL    HW2 9933   6.718   0.821   1.006
 3012SOL     OW 9934   2.269   2.268   4.939
 3012SOL    HW1 9935   2.176   2.305   4.950
 3012SOL    HW2 9936   2.334   2.343   4.936
 3013SOL     OW 9937   6.962   4.954   4.784
 3013SOL    HW1 9938   0.021   4.955   4.733
 3013SOL    HW2 9939   6.927   4.860   4.788
 3014SOL     OW 9940   5.710   0.219   6.195
 3014SOL    HW1 9941   5.760   0.179   6.118
 3014SOL    HW2 9942   5.733   0.316   6.204
 3015SOL     OW 9943   1.435   0.710   6.324
 3015SOL    HW1 9944   1.464   0.766   6.402
 3015SOL    HW2 9945   1.511   0.700   6.260
 3016SOL     OW 9946   2.236   6.188   4.510
 3016SOL    HW1 9947   2.275   6.241   4.435
 3016SOL    HW2 9948   2.288   6.103   4.521
 3017SOL     OW 9949   1.259   5.305   0.041
 3017SOL    HW1 9950   1.164   5.274   0.048
 3017SOL    HW2 9951   1.285   5.352   0.125
 3018SOL     OW 9952   3.459   0.705   1.407
 3018SOL    HW1 9953   3.483   0.627   1.350
 3018SOL    HW2 9954   3.475   0.790   1.357
 3019SOL     OW 9955   1.815   0.611   5.815
 3019SOL    HW1 9956   1.852   0.553   5.742
 3019SOL    HW2 9957   1.814   0.706   5.784
 3020SOL     OW 9958   6.447   4.262   6.984
 3020SOL    HW1 9959   6.452   4.264   0.056
 3020SOL    HW2 9960   6.382   4.331   6.951
 3021SOL     OW 9961   3.892   0.507   4.901
 3021SOL    HW1 9962   3.816   0.528   4.963
 3021SOL    HW2 9963   3.935   0.421   4.931
 3022SOL     OW 9964   4.218   5.823   3.460
 3022SOL    HW1 9965   4.318   5.824   3.450
 3022SOL    HW2 9966   4.184   5.729   3.455
 3023SOL     OW 9967   5.629   5.146   4.254
 3023SOL    HW1 9968   5.722   5.137   4.218
 3023SOL    HW2 9969   5.615   5.079   4.327
 3024SOL     OW 9970   0.326   0.664   0.435
 3024SOL    HW1 9971   0.243   0.669   0.490
 3024SOL    HW2 9972   0.301   0.660   0.338
 3025SOL     OW 9973   4.208   5.583   0.059
 3025SOL    HW1 9974   4.187   5.616   6.995
 3025SOL    HW2 9975   4.250   5.656   0.112
 3026SOL     OW 9976   0.164   0.655   2.098
 3026SOL    HW1 9977   0.121   0.736   2.137
 3026SOL    HW2 9978   0.118   0.630   2.013
 3027SOL     OW 9979   4.363   0.583   0.483
 3027SOL    HW1 9980   4.309   0.550   0.561
 3027SOL    HW2 9981   4.323   0.549   0.398
 3028SOL     OW 9982   3.319   3.075   5.596
 3028SOL    HW1 9983   3.329   3.000   5.660
 3028SOL    HW2 9984   3.409   3.100   5.559
 3029SOL     OW 9985   6.584   3.335   4.523
 3029SOL    HW1 9986   6.597   3.270   4.598
 3029SOL    HW2 9987   6.639   3.307   4.445
 3030SOL     OW 9988   2.402   2.941   6.213
 3030SOL    HW1 9989   2.433   2.857   6.259
 3030SOL    HW2 9990   2.308   2.929   6.182
 3031SOL     OW 9991   1.107   5.709   0.757
 3031SOL    HW1 9992   1.125   5.675   0.850
 3031SOL    HW2 9993   1.049   5.791   0.762
 3032SOL     OW 9994   2.416   0.407   2.949
 3032SOL    HW1 9995   2.504   0.362   2.966
 3032SOL    HW2 9996   2.431   0.504   2.930
 3033SOL     OW 9997   0.698   1.672   5.487
 3033SOL    HW1 9998   0.782   1.727   5.484
 3033SOL    HW2 9999   0.628   1.715   5.430
 3034SOL     OW10000   6.356   4.372   3.629
 3034SOL    HW110001   6.452   4.400   3.629
 3034SOL    HW210002   6.327   4.353   3.722
 3035SOL     OW10003   0.412   3.239   0.336
 3035SOL    HW110004   0.360   3.206   0.258
 3035SOL    HW210005   0.508   3.251   0.310
 3036SOL     OW10006   3.512   1.845   5.367
 3036SOL    HW110007   3.584   1.808   5.426
 3036SOL    HW210008   3.429   1.789   5.377
 3037SOL     OW10009   1.070   5.873   6.728
 3037SOL    HW110010   1.138   5.839   6.664
 3037SOL    HW210011   0.979   5.844   6.698
 3038SOL     OW10012   5.705   4.696   6.197
 3038SOL    HW110013   5.644   4.626   6.160
 3038SOL    HW210014   5.772   4.653   6.258
 3039SOL     OW10015   6.752   3.767   6.130
 3039SOL    HW110016   6.685   3.787   6.059
 3039SOL    HW210017   6.744   3.833   6.204
 3040SOL     OW10018   5.659   5.048   6.597
 3040SOL    HW110019   5.731   5.105   6.557
 3040SOL    HW210020   5.655   4.960   6.548
 3041SOL     OW10021   1.312   4.712   5.856
 3041SOL    HW110022   1.234   4.650   5.864
 3041SOL    HW210023   1.312   4.754   5.765
 3042SOL     OW10024   0.357   5.018   4.394
 3042SOL    HW110025   0.408   5.083   4.450
 3042SOL    HW210026   0.260   5.039   4.397
 3043SOL     OW10027   2.434   5.688   0.980
 3043SOL    HW110028   2.512   5.710   1.038
 3043SOL    HW210029   2.357   5.659   1.037
 3044SOL     OW10030   4.100   3.773   4.673
 3044SOL    HW110031   4.034   3.825   4.620
 3044SOL    HW210032   4.077   3.777   4.770
 3045SOL     OW10033   4.365   1.836   1.840
 3045SOL    HW110034   4.445   1.782   1.866
 3045SOL    HW210035   4.304   1.846   1.919
 3046SOL     OW10036   4.938   6.622   1.044
 3046SOL    HW110037   4.854   6.672   1.024
 3046SOL    HW210038   5.016   6.684   1.034
 3047SOL     OW10039   5.744   1.185   4.810
 3047SOL    HW110040   5.745   1.277   4.771
 3047SOL    HW210041   5.807   1.127   4.759
 3048SOL     OW10042   3.852   4.906   1.316
 3048SOL    HW110043   3.767   4.938   1.276
 3048SOL    HW210044   3.869   4.811   1.288
 3049SOL     OW10045   1.111   1.790   2.178
 3049SOL    HW110046   1.063   1.796   2.090
 3049SOL    HW210047   1.192   1.850   2.175
 3050SOL     OW10048   3.792   2.239   6.887
 3050SOL    HW110049   3.846   2.317   6.917
 3050SOL    HW210050   3.759   2.256   6.794
 3051SOL     OW10051   2.514   5.046   5.279
 3051SOL    HW110052   2.585   5.081   5.218
 3051SOL    HW210053   2.550   5.039   5.372
 3052SOL     OW10054   6.809   0.064   2.585
 3052SOL    HW110055   6.759   0.125   2.523
 3052SOL    HW210056   6.849   0.119   2.659
 3053SOL     OW10057   0.861   4.246   0.283
 3053SOL    HW110058   0.810   4.248   0.197
 3053SOL    HW210059   0.862   4.338   0.323
 3054SOL     OW10060   4.662   0.836   2.958
 3054SOL    HW110061   4.595   0.879   3.019
 3054SOL    HW210062   4.620   0.818   2.869
 3055SOL     OW10063   5.800   6.152   6.983
 3055SOL    HW110064   5.730   6.216   6.951
 3055SOL    HW210065   5.877   6.154   6.919
 3056SOL     OW10066   4.681   1.557   5.873
 3056SOL    HW110067   4.629   1.552   5.787
 3056SOL    HW210068   4.765   1.505   5.864
 3057SOL     OW10069   5.199   3.920   2.935
 3057SOL    HW110070   5.292   3.925   2.972
 3057SOL    HW210071   5.199   3.867   2.851
 3058SOL     OW10072   0.516   4.332   6.261
 3058SOL    HW110073   0.466   4.271   6.323
 3058SOL    HW210074   0.482   4.425   6.272
 3059SOL     OW10075   1.622   1.736   2.629
 3059SOL    HW110076   1.566   1.657   2.654
 3059SOL    HW210077   1.688   1.709   2.559
 3060SOL     OW10078   5.675   4.708   4.166
 3060SOL    HW110079   5.676   4.790   4.109
 3060SOL    HW210080   5.768   4.683   4.191
 3061SOL     OW10081   5.942   0.325   3.679
 3061SOL    HW110082   5.931   0.226   3.668
 3061SOL    HW210083   6.034   0.352   3.653
 3062SOL     OW10084   4.200   4.422   0.901
 3062SOL    HW110085   4.271   4.351   0.905
 3062SOL    HW210086   4.155   4.428   0.990
 3063SOL     OW10087   0.226   4.750   2.757
 3063SOL    HW110088   0.222   4.687   2.679
 3063SOL    HW210089   0.133   4.774   2.786
 3064SOL     OW10090   4.753   2.446   6.523
 3064SOL    HW110091   4.793   2.423   6.435
 3064SOL    HW210092   4.681   2.379   6.546
 3065SOL     OW10093   5.834   1.864   6.746
 3065SOL    HW110094   5.835   1.773   6.703
 3065SOL    HW210095   5.789   1.929   6.684
 3066SOL     OW10096   5.129   6.963   4.875
 3066SOL    HW110097   5.123   6.878   4.927
 3066SOL    HW210098   5.223   6.976   4.843
 3067SOL     OW10099   1.260   2.657   5.397
 3067SOL    HW110100   1.252   2.625   5.491
 3067SOL    HW210101   1.174   2.697   5.367
 3068SOL     OW10102   6.826   0.718   0.738
 3068SOL    HW110103   6.767   0.716   0.819
 3068SOL    HW210104   6.774   0.691   0.658
 3069SOL     OW10105   5.069   6.446   3.811
 3069SOL    HW110106   5.074   6.523   3.875
 3069SOL    HW210107   5.078   6.360   3.862
 3070SOL     OW10108   1.967   0.877   0.651
 3070SOL    HW110109   2.037   0.815   0.686
 3070SOL    HW210110   1.913   0.831   0.581
 3071SOL     OW10111   5.832   4.791   5.272
 3071SOL    HW110112   5.869   4.731   5.202
 3071SOL    HW210113   5.802   4.877   5.231
 3072SOL     OW10114   1.889   6.698   6.363
 3072SOL    HW110115   1.878   6.611   6.314
 3072SOL    HW210116   1.853   6.773   6.306
 3073SOL     OW10117   0.481   5.243   1.913
 3073SOL    HW110118   0.573   5.216   1.942
 3073SOL    HW210119   0.422   5.162   1.909
 3074SOL     OW10120   3.247   2.745   1.884
 3074SOL    HW110121   3.284   2.694   1.807
 3074SOL    HW210122   3.147   2.736   1.886
 3075SOL     OW10123   2.863   5.197   1.415
 3075SOL    HW110124   2.864   5.148   1.502
 3075SOL    HW210125   2.915   5.282   1.424
 3076SOL     OW10126   0.746   0.872   5.260
 3076SOL    HW110127   0.699   0.920   5.186
 3076SOL    HW210128   0.781   0.785   5.226
 3077SOL     OW10129   0.207   4.125   2.311
 3077SOL    HW110130   0.137   4.087   2.252
 3077SOL    HW210131   0.289   4.146   2.257
 3078SOL     OW10132   6.804   3.207   1.791
 3078SOL    HW110133   6.782   3.305   1.787
 3078SOL    HW210134   6.804   3.177   1.887
 3079SOL     OW10135   2.391   3.788   5.548
 3079SOL    HW110136   2.429   3.701   5.516
 3079SOL    HW210137   2.461   3.839   5.597
 3080SOL     OW10138   3.267   4.342   1.051
 3080SOL    HW110139   3.286   4.271   1.120
 3080SOL    HW210140   3.304   4.313   0.963
 3081SOL     OW10141   1.509   3.841   0.254
 3081SOL    HW110142   1.477   3.859   0.347
 3081SOL    HW210143   1.472   3.909   0.192
 3082SOL     OW10144   5.237   5.583   4.948
 3082SOL    HW110145   5.232   5.518   4.872
 3082SOL    HW210146   5.152   5.635   4.954
 3083SOL     OW10147   4.031   5.430   1.842
 3083SOL    HW110148   4.021   5.521   1.801
 3083SOL    HW210149   3.941   5.388   1.852
 3084SOL     OW10150   7.000   4.522   4.076
 3084SOL    HW110151   0.006   4.615   4.059
 3084SOL    HW210152   6.985   4.476   3.988
 3085SOL     OW10153   6.147   5.598   0.289
 3085SOL    HW110154   6.238   5.588   0.330
 3085SOL    HW210155   6.141   5.541   0.207
 3086SOL     OW10156   6.222   6.233   6.394
 3086SOL    HW110157   6.294   6.164   6.396
 3086SOL    HW210158   6.223   6.285   6.480
 3087SOL     OW10159   3.656   6.993   2.010
 3087SOL    HW110160   3.567   6.949   2.012
 3087SOL    HW210161   3.655   0.046   2.069
 3088SOL     OW10162   1.983   3.384   5.753
 3088SOL    HW110163   1.905   3.347   5.804
 3088SOL    HW210164   1.952   3.413   5.662
 3089SOL     OW10165   4.687   5.144   6.139
 3089SOL    HW110166   4.604   5.195   6.163
 3089SOL    HW210167   4.668   5.046   6.138
 3090SOL     OW10168   0.423   2.448   2.175
 3090SOL    HW110169   0.404   2.538   2.136
 3090SOL    HW210170   0.461   2.459   2.267
 3091SOL     OW10171   0.598   2.997   1.199
 3091SOL    HW110172   0.523   2.963   1.143
 3091SOL    HW210173   0.561   3.054   1.273
 3092SOL     OW10174   5.958   1.386   1.987
 3092SOL    HW110175   5.922   1.434   1.907
 3092SOL    HW210176   5.896   1.397   2.064
 3093SOL     OW10177   6.539   5.590   6.890
 3093SOL    HW110178   6.609   5.613   6.823
 3093SOL    HW210179   6.501   5.500   6.868
 3094SOL     OW10180   2.195   1.908   6.996
 3094SOL    HW110181   2.278   1.894   6.943
 3094SOL    HW210182   2.129   1.959   6.941
 3095SOL     OW10183   1.904   4.181   5.868
 3095SOL    HW110184   1.962   4.238   5.810
 3095SOL    HW210185   1.900   4.088   5.830
 3096SOL     OW10186   0.561   3.000   4.198
 3096SOL    HW110187   0.515   3.076   4.243
 3096SOL    HW210188   0.496   2.952   4.139
 3097SOL     OW10189   5.138   3.066   5.126
 3097SOL    HW110190   5.230   3.103   5.138
 3097SOL    HW210191   5.137   2.970   5.152
 3098SOL     OW10192   2.134   3.362   3.473
 3098SOL    HW110193   2.186   3.292   3.523
 3098SOL    HW210194   2.124   3.333   3.377
 3099SOL     OW10195   0.379   6.452   4.687
 3099SOL    HW110196   0.334   6.407   4.610
 3099SOL    HW210197   0.472   6.479   4.662
 3100SOL     OW10198   5.845   4.914   1.687
 3100SOL    HW110199   5.862   4.852   1.610
 3100SOL    HW210200   5.929   4.965   1.708
 3101SOL     OW10201   4.312   6.625   5.238
 3101SOL    HW110202   4.299   6.527   5.252
 3101SOL    HW210203   4.261   6.676   5.307
 3102SOL     OW10204   6.775   5.048   2.007
 3102SOL    HW110205   6.738   5.037   2.099
 3102SOL    HW210206   6.763   5.143   1.977
 3103SOL     OW10207   3.261   1.367   1.618
 3103SOL    HW110208   3.356   1.350   1.647
 3103SOL    HW210209   3.250   1.334   1.524
 3104SOL     OW10210   4.835   1.689   5.013
 3104SOL    HW110211   4.823   1.593   4.989
 3104SOL    HW210212   4.833   1.745   4.930
 3105SOL     OW10213   5.929   3.835   6.965
 3105SOL    HW110214   5.842   3.850   6.918
 3105SOL    HW210215   5.947   3.737   6.972
 3106SOL     OW10216   5.454   1.303   5.602
 3106SOL    HW110217   5.385   1.234   5.625
 3106SOL    HW210218   5.425   1.352   5.520
 3107SOL     OW10219   3.145   1.931   5.182
 3107SOL    HW110220   3.054   1.971   5.189
 3107SOL    HW210221   3.213   2.004   5.176
 3108SOL     OW10222   2.305   4.188   3.216
 3108SOL    HW110223   2.307   4.272   3.162
 3108SOL    HW210224   2.367   4.121   3.175
 3109SOL     OW10225   6.934   6.321   4.454
 3109SOL    HW110226   6.958   6.227   4.476
 3109SOL    HW210227   6.863   6.322   4.383
 3110SOL     OW10228   0.830   4.988   3.157
 3110SOL    HW110229   0.851   4.919   3.226
 3110SOL    HW210230   0.796   4.944   3.074
 3111SOL     OW10231   5.722   4.324   3.634
 3111SOL    HW110232   5.642   4.371   3.671
 3111SOL    HW210233   5.806   4.365   3.670
 3112SOL     OW10234   3.408   1.348   6.271
 3112SOL    HW110235   3.413   1.433   6.219
 3112SOL    HW210236   3.408   1.369   6.369
 3113SOL     OW10237   2.126   6.465   3.356
 3113SOL    HW110238   2.102   6.409   3.435
 3113SOL    HW210239   2.043   6.501   3.314
 3114SOL     OW10240   4.728   1.487   6.207
 3114SOL    HW110241   4.692   1.530   6.124
 3114SOL    HW210242   4.764   1.558   6.268
 3115SOL     OW10243   4.828   5.506   5.547
 3115SOL    HW110244   4.791   5.415   5.532
 3115SOL    HW210245   4.837   5.554   5.460
 3116SOL     OW10246   0.823   0.741   0.224
 3116SOL    HW110247   0.844   0.838   0.212
 3116SOL    HW210248   0.764   0.711   0.149
 3117SOL     OW10249   4.697   0.662   6.473
 3117SOL    HW110250   4.655   0.743   6.433
 3117SOL    HW210251   4.709   0.675   6.571
 3118SOL     OW10252   1.121   1.778   3.466
 3118SOL    HW110253   1.104   1.821   3.378
 3118SOL    HW210254   1.051   1.707   3.482
 3119SOL     OW10255   4.764   5.608   5.014
 3119SOL    HW110256   4.750   5.553   4.932
 3119SOL    HW210257   4.685   5.668   5.029
 3120SOL     OW10258   2.516   5.934   6.238
 3120SOL    HW110259   2.509   6.028   6.270
 3120SOL    HW210260   2.569   5.880   6.304
 3121SOL     OW10261   3.545   1.805   4.024
 3121SOL    HW110262   3.530   1.903   4.011
 3121SOL    HW210263   3.511   1.756   3.944
 3122SOL     OW10264   5.341   5.056   4.922
 3122SOL    HW110265   5.395   5.118   4.865
 3122SOL    HW210266   5.247   5.088   4.925
 3123SOL     OW10267   1.667   1.288   3.396
 3123SOL    HW110268   1.737   1.350   3.430
 3123SOL    HW210269   1.582   1.339   3.379
 3124SOL     OW10270   4.633   0.443   4.251
 3124SOL    HW110271   4.611   0.364   4.308
 3124SOL    HW210272   4.592   0.525   4.291
 3125SOL     OW10273   1.631   1.215   5.347
 3125SOL    HW110274   1.613   1.167   5.261
 3125SOL    HW210275   1.717   1.266   5.339
 3126SOL     OW10276   5.238   4.887   5.513
 3126SOL    HW110277   5.282   4.860   5.599
 3126SOL    HW210278   5.139   4.889   5.526
 3127SOL     OW10279   0.337   1.095   5.283
 3127SOL    HW110280   0.375   1.022   5.340
 3127SOL    HW210281   0.257   1.060   5.234
 3128SOL     OW10282   3.715   0.916   0.799
 3128SOL    HW110283   3.721   0.827   0.844
 3128SOL    HW210284   3.620   0.936   0.775
 3129SOL     OW10285   4.374   3.712   0.397
 3129SOL    HW110286   4.328   3.724   0.485
 3129SOL    HW210287   4.360   3.793   0.340
 3130SOL     OW10288   6.827   5.524   2.060
 3130SOL    HW110289   6.766   5.602   2.042
 3130SOL    HW210290   6.905   5.529   1.998
 3131SOL     OW10291   6.352   4.448   2.863
 3131SOL    HW110292   6.309   4.487   2.945
 3131SOL    HW210293   6.442   4.412   2.886
 3132SOL     OW10294   4.426   4.208   0.355
 3132SOL    HW110295   4.490   4.266   0.305
 3132SOL    HW210296   4.417   4.241   0.448
 3133SOL     OW10297   4.270   0.343   4.286
 3133SOL    HW110298   4.325   0.302   4.213
 3133SOL    HW210299   4.294   0.301   4.373
 3134SOL     OW10300   5.652   5.402   2.421
 3134SOL    HW110301   5.555   5.414   2.442
 3134SOL    HW210302   5.683   5.476   2.360
 3135SOL     OW10303   4.190   5.576   6.659
 3135SOL    HW110304   4.146   5.615   6.578
 3135SOL    HW210305   4.243   5.647   6.705
 3136SOL     OW10306   6.761   1.333   3.471
 3136SOL    HW110307   6.731   1.413   3.523
 3136SOL    HW210308   6.830   1.361   3.404
 3137SOL     OW10309   5.905   6.595   6.487
 3137SOL    HW110310   5.879   6.649   6.408
 3137SOL    HW210311   5.906   6.498   6.463
 3138SOL     OW10312   5.941   6.225   4.841
 3138SOL    HW110313   6.027   6.213   4.792
 3138SOL    HW210314   5.959   6.251   4.936
 3139SOL     OW10315   2.441   5.509   1.216
 3139SOL    HW110316   2.389   5.455   1.150
 3139SOL    HW210317   2.519   5.456   1.248
 3140SOL     OW10318   0.016   6.415   6.988
 3140SOL    HW110319   7.020   6.321   7.011
 3140SOL    HW210320   6.967   6.475   7.011
 3141SOL     OW10321   6.549   1.535   6.800
 3141SOL    HW110322   6.626   1.565   6.856
 3141SOL    HW210323   6.583   1.502   6.712
 3142SOL     OW10324   4.102   0.767   4.078
 3142SOL    HW110325   4.132   0.740   3.987
 3142SOL    HW210326   4.165   0.836   4.115
 3143SOL     OW10327   6.397   1.556   0.727
 3143SOL    HW110328   6.394   1.512   0.637
 3143SOL    HW210329   6.323   1.623   0.734
 3144SOL     OW10330   4.070   4.010   0.244
 3144SOL    HW110331   3.989   4.057   0.277
 3144SOL    HW210332   4.065   3.913   0.269
 3145SOL     OW10333   0.282   6.432   0.527
 3145SOL    HW110334   0.296   6.480   0.614
 3145SOL    HW210335   0.343   6.472   0.458
 3146SOL     OW10336   0.194   1.035   4.919
 3146SOL    HW110337   0.102   1.004   4.895
 3146SOL    HW210338   0.258   1.005   4.848
 3147SOL     OW10339   3.407   5.539   0.539
 3147SOL    HW110340   3.339   5.488   0.592
 3147SOL    HW210341   3.360   5.608   0.484
 3148SOL     OW10342   6.897   5.701   1.738
 3148SOL    HW110343   6.970   5.670   1.799
 3148SOL    HW210344   6.862   5.622   1.687
 3149SOL     OW10345   2.781   2.240   6.823
 3149SOL    HW110346   2.736   2.175   6.885
 3149SOL    HW210347   2.716   2.268   6.752
 3150SOL     OW10348   6.452   5.732   5.408
 3150SOL    HW110349   6.387   5.802   5.378
 3150SOL    HW210350   6.468   5.740   5.506
 3151SOL     OW10351   0.165   0.464   5.434
 3151SOL    HW110352   0.201   0.545   5.480
 3151SOL    HW210353   0.241   0.410   5.398
 3152SOL     OW10354   1.381   3.097   5.820
 3152SOL    HW110355   1.360   3.012   5.772
 3152SOL    HW210356   1.296   3.147   5.837
 3153SOL     OW10357   6.404   4.964   1.436
 3153SOL    HW110358   6.419   5.052   1.391
 3153SOL    HW210359   6.445   4.892   1.380
 3154SOL     OW10360   4.541   0.975   0.137
 3154SOL    HW110361   4.474   0.946   0.206
 3154SOL    HW210362   4.529   1.072   0.117
 3155SOL     OW10363   0.914   4.531   0.251
 3155SOL    HW110364   0.929   4.611   0.307
 3155SOL    HW210365   0.816   4.520   0.234
 3156SOL     OW10366   3.706   4.273   1.784
 3156SOL    HW110367   3.767   4.216   1.840
 3156SOL    HW210368   3.613   4.266   1.819
 3157SOL     OW10369   0.977   1.222   5.680
 3157SOL    HW110370   0.952   1.318   5.671
 3157SOL    HW210371   0.948   1.173   5.598
 3158SOL     OW10372   1.827   0.921   6.134
 3158SOL    HW110373   1.845   0.915   6.036
 3158SOL    HW210374   1.911   0.900   6.184
 3159SOL     OW10375   5.977   0.628   6.869
 3159SOL    HW110376   5.903   0.631   6.936
 3159SOL    HW210377   5.939   0.641   6.777
 3160SOL     OW10378   1.656   0.251   6.186
 3160SOL    HW110379   1.695   0.193   6.115
 3160SOL    HW210380   1.692   0.344   6.177
 3161SOL     OW10381   1.945   2.561   1.938
 3161SOL    HW110382   1.998   2.634   1.896
 3161SOL    HW210383   1.945   2.480   1.880
 3162SOL     OW10384   1.423   5.620   1.143
 3162SOL    HW110385   1.480   5.680   1.087
 3162SOL    HW210386   1.328   5.652   1.140
 3163SOL     OW10387   4.123   4.232   0.011
 3163SOL    HW110388   4.171   4.238   0.099
 3163SOL    HW210389   4.070   4.315   7.024
 3164SOL     OW10390   2.300   6.648   3.490
 3164SOL    HW110391   2.370   6.672   3.422
 3164SOL    HW210392   2.232   6.587   3.449
 3165SOL     OW10393   0.551   0.046   6.371
 3165SOL    HW110394   0.625   0.112   6.386
 3165SOL    HW210395   0.469   0.076   6.421
 3166SOL     OW10396   5.034   0.914   4.812
 3166SOL    HW110397   5.041   0.957   4.902
 3166SOL    HW210398   4.942   0.874   4.801
 3167SOL     OW10399   5.560   2.936   0.751
 3167SOL    HW110400   5.564   2.880   0.834
 3167SOL    HW210401   5.610   3.021   0.766
 3168SOL     OW10402   4.702   1.976   0.377
 3168SOL    HW110403   4.661   1.935   0.459
 3168SOL    HW210404   4.711   1.906   0.306
 3169SOL     OW10405   2.379   4.501   1.741
 3169SOL    HW110406   2.409   4.561   1.816
 3169SOL    HW210407   2.293   4.458   1.766
 3170SOL     OW10408   2.170   3.721   3.243
 3170SOL    HW110409   2.089   3.775   3.267
 3170SOL    HW210410   2.207   3.678   3.325
 3171SOL     OW10411   5.463   2.517   3.536
 3171SOL    HW110412   5.521   2.442   3.504
 3171SOL    HW210413   5.447   2.582   3.461
 3172SOL     OW10414   6.233   4.016   1.748
 3172SOL    HW110415   6.259   4.023   1.844
 3172SOL    HW210416   6.201   3.923   1.729
 3173SOL     OW10417   4.496   3.017   0.343
 3173SOL    HW110418   4.417   2.989   0.289
 3173SOL    HW210419   4.472   3.095   0.400
 3174SOL     OW10420   3.330   3.640   6.458
 3174SOL    HW110421   3.369   3.608   6.372
 3174SOL    HW210422   3.254   3.581   6.484
 3175SOL     OW10423   5.599   0.625   4.813
 3175SOL    HW110424   5.583   0.666   4.904
 3175SOL    HW210425   5.523   0.649   4.753
 3176SOL     OW10426   0.335   4.683   4.477
 3176SOL    HW110427   0.248   4.725   4.452
 3176SOL    HW210428   0.408   4.718   4.418
 3177SOL     OW10429   5.170   3.636   3.718
 3177SOL    HW110430   5.190   3.568   3.647
 3177SOL    HW210431   5.087   3.609   3.767
 3178SOL     OW10432   6.724   0.854   1.688
 3178SOL    HW110433   6.653   0.919   1.715
 3178SOL    HW210434   6.685   0.762   1.683
 3179SOL     OW10435   1.443   2.134   1.812
 3179SOL    HW110436   1.449   2.036   1.792
 3179SOL    HW210437   1.419   2.184   1.729
 3180SOL     OW10438   0.116   6.010   0.322
 3180SOL    HW110439   0.049   5.940   0.348
 3180SOL    HW210440   0.134   6.069   0.401
 3181SOL     OW10441   1.797   6.918   4.792
 3181SOL    HW110442   1.878   6.877   4.834
 3181SOL    HW210443   1.714   6.883   4.836
 3182SOL     OW10444   1.902   1.386   0.686
 3182SOL    HW110445   1.973   1.442   0.729
 3182SOL    HW210446   1.942   1.297   0.660
 3183SOL     OW10447   3.787   4.066   1.112
 3183SOL    HW110448   3.787   3.979   1.063
 3183SOL    HW210449   3.734   4.057   1.196
 3184SOL     OW10450   0.641   2.267   4.631
 3184SOL    HW110451   0.613   2.283   4.537
 3184SOL    HW210452   0.563   2.284   4.692
 3185SOL     OW10453   0.842   5.716   6.653
 3185SOL    HW110454   0.748   5.744   6.670
 3185SOL    HW210455   0.844   5.619   6.629
 3186SOL     OW10456   0.349   1.709   6.538
 3186SOL    HW110457   0.333   1.770   6.461
 3186SOL    HW210458   0.264   1.662   6.562
 3187SOL     OW10459   4.774   6.055   2.514
 3187SOL    HW110460   4.721   5.995   2.454
 3187SOL    HW210461   4.837   6.001   2.569
 3188SOL     OW10462   1.991   5.422   6.820
 3188SOL    HW110463   1.908   5.368   6.805
 3188SOL    HW210464   2.013   5.471   6.735
 3189SOL     OW10465   3.501   1.436   5.466
 3189SOL    HW110466   3.534   1.510   5.523
 3189SOL    HW210467   3.407   1.456   5.436
 3190SOL     OW10468   5.697   6.381   4.448
 3190SOL    HW110469   5.697   6.281   4.449
 3190SOL    HW210470   5.734   6.415   4.535
 3191SOL     OW10471   3.454   5.470   1.201
 3191SOL    HW110472   3.394   5.546   1.226
 3191SOL    HW210473   3.544   5.506   1.175
 3192SOL     OW10474   5.733   1.869   2.686
 3192SOL    HW110475   5.657   1.921   2.647
 3192SOL    HW210476   5.708   1.773   2.691
 3193SOL     OW10477   3.595   0.038   4.877
 3193SOL    HW110478   3.510   0.089   4.879
 3193SOL    HW210479   3.622   0.019   4.783
 3194SOL     OW10480   1.434   0.238   6.931
 3194SOL    HW110481   1.508   0.295   6.895
 3194SOL    HW210482   1.347   0.269   6.893
 3195SOL     OW10483   0.205   1.646   1.435
 3195SOL    HW110484   0.300   1.617   1.424
 3195SOL    HW210485   0.163   1.597   1.512
 3196SOL     OW10486   5.973   0.531   3.457
 3196SOL    HW110487   6.029   0.497   3.533
 3196SOL    HW210488   6.027   0.593   3.400
 3197SOL     OW10489   1.708   0.693   6.530
 3197SOL    HW110490   1.716   0.691   6.430
 3197SOL    HW210491   1.732   0.784   6.564
 3198SOL     OW10492   5.477   3.086   3.323
 3198SOL    HW110493   5.453   3.071   3.419
 3198SOL    HW210494   5.560   3.035   3.301
 3199SOL     OW10495   5.419   4.148   2.792
 3199SOL    HW110496   5.408   4.206   2.873
 3199SOL    HW210497   5.515   4.149   2.764
 3200SOL     OW10498   5.514   3.722   3.483
 3200SOL    HW110499   5.463   3.717   3.568
 3200SOL    HW210500   5.508   3.635   3.435
 3201SOL     OW10501   6.138   4.793   2.374
 3201SOL    HW110502   6.066   4.863   2.381
 3201SOL    HW210503   6.100   4.710   2.332
 3202SOL     OW10504   1.952   3.598   0.006
 3202SOL    HW110505   1.906   3.650   0.078
 3202SOL    HW210506   1.969   3.505   0.038
 3203SOL     OW10507   3.757   6.839   1.279
 3203SOL    HW110508   3.660   6.846   1.302
 3203SOL    HW210509   3.778   6.748   1.243
 3204SOL     OW10510   3.579   1.150   3.049
 3204SOL    HW110511   3.528   1.081   3.100
 3204SOL    HW210512   3.542   1.158   2.957
 3205SOL     OW10513   4.848   3.644   5.866
 3205SOL    HW110514   4.857   3.689   5.777
 3205SOL    HW210515   4.865   3.711   5.939
 3206SOL     OW10516   3.299   3.340   1.054
 3206SOL    HW110517   3.329   3.363   1.146
 3206SOL    HW210518   3.277   3.243   1.049
 3207SOL     OW10519   1.692   5.245   5.681
 3207SOL    HW110520   1.679   5.336   5.720
 3207SOL    HW210521   1.697   5.177   5.755
 3208SOL     OW10522   6.224   5.042   6.227
 3208SOL    HW110523   6.319   5.049   6.256
 3208SOL    HW210524   6.165   5.079   6.299
 3209SOL     OW10525   5.146   5.734   6.753
 3209SOL    HW110526   5.099   5.662   6.703
 3209SOL    HW210527   5.207   5.784   6.691
 3210SOL     OW10528   6.096   5.986   1.966
 3210SOL    HW110529   6.162   6.009   2.038
 3210SOL    HW210530   6.013   5.949   2.008
 3211SOL     OW10531   1.277   5.623   6.244
 3211SOL    HW110532   1.368   5.604   6.281
 3211SOL    HW210533   1.210   5.563   6.289
 3212SOL     OW10534   1.709   0.476   3.131
 3212SOL    HW110535   1.655   0.411   3.184
 3212SOL    HW210536   1.654   0.510   3.055
 3213SOL     OW10537   1.172   7.017   6.431
 3213SOL    HW110538   1.073   7.020   6.448
 3213SOL    HW210539   1.220   0.041   6.502
 3214SOL     OW10540   3.092   1.039   2.465
 3214SOL    HW110541   3.038   1.111   2.421
 3214SOL    HW210542   3.121   0.973   2.396
 3215SOL     OW10543   2.136   3.106   1.365
 3215SOL    HW110544   2.162   3.143   1.455
 3215SOL    HW210545   2.037   3.111   1.355
 3216SOL     OW10546   5.922   4.715   0.742
 3216SOL    HW110547   5.936   4.620   0.714
 3216SOL    HW210548   5.868   4.717   0.826
 3217SOL     OW10549   0.144   5.954   2.647
 3217SOL    HW110550   0.234   5.949   2.602
 3217SOL    HW210551   0.127   6.049   2.675
 3218SOL     OW10552   5.249   1.140   3.132
 3218SOL    HW110553   5.203   1.058   3.166
 3218SOL    HW210554   5.329   1.114   3.078
 3219SOL     OW10555   6.149   1.437   5.414
 3219SOL    HW110556   6.228   1.492   5.440
 3219SOL    HW210557   6.090   1.489   5.353
 3220SOL     OW10558   6.894   4.592   6.307
 3220SOL    HW110559   6.986   4.552   6.303
 3220SOL    HW210560   6.828   4.525   6.272
 3221SOL     OW10561   3.477   1.086   1.016
 3221SOL    HW110562   3.398   1.108   0.960
 3221SOL    HW210563   3.461   1.115   1.110
 3222SOL     OW10564   3.507   1.622   2.653
 3222SOL    HW110565   3.541   1.554   2.718
 3222SOL    HW210566   3.582   1.652   2.594
 3223SOL     OW10567   1.525   5.971   0.745
 3223SOL    HW110568   1.482   6.057   0.717
 3223SOL    HW210569   1.463   5.895   0.726
 3224SOL     OW10570   3.331   2.087   3.652
 3224SOL    HW110571   3.419   2.103   3.695
 3224SOL    HW210572   3.337   2.109   3.554
 3225SOL     OW10573   3.902   0.926   4.131
 3225SOL    HW110574   3.944   1.002   4.082
 3225SOL    HW210575   3.945   0.840   4.104
 3226SOL     OW10576   6.537   0.415   0.644
 3226SOL    HW110577   6.462   0.364   0.686
 3226SOL    HW210578   6.514   0.437   0.550
 3227SOL     OW10579   4.931   4.642   4.931
 3227SOL    HW110580   4.950   4.739   4.918
 3227SOL    HW210581   5.006   4.588   4.892
 3228SOL     OW10582   2.467   4.026   0.261
 3228SOL    HW110583   2.465   3.977   0.348
 3228SOL    HW210584   2.559   4.065   0.247
 3229SOL     OW10585   1.327   1.553   0.577
 3229SOL    HW110586   1.331   1.532   0.674
 3229SOL    HW210587   1.416   1.537   0.535
 3230SOL     OW10588   2.985   6.057   5.793
 3230SOL    HW110589   2.987   5.964   5.756
 3230SOL    HW210590   3.076   6.097   5.789
 3231SOL     OW10591   2.169   2.229   2.436
 3231SOL    HW110592   2.182   2.174   2.518
 3231SOL    HW210593   2.076   2.264   2.434
 3232SOL     OW10594   3.954   5.258   4.059
 3232SOL    HW110595   3.886   5.185   4.061
 3232SOL    HW210596   3.935   5.324   4.131
 3233SOL     OW10597   0.058   1.907   0.425
 3233SOL    HW110598   0.034   1.987   0.370
 3233SOL    HW210599   0.100   1.838   0.366
 3234SOL     OW10600   2.682   2.575   0.487
 3234SOL    HW110601   2.687   2.662   0.439
 3234SOL    HW210602   2.599   2.573   0.544
 3235SOL     OW10603   0.575   0.033   2.985
 3235SOL    HW110604   0.576   0.084   2.898
 3235SOL    HW210605   0.512   6.983   2.977
 3236SOL     OW10606   3.590   2.242   0.070
 3236SOL    HW110607   3.586   2.142   0.076
 3236SOL    HW210608   3.658   2.268   0.001
 3237SOL     OW10609   5.925   2.010   5.110
 3237SOL    HW110610   5.858   2.070   5.068
 3237SOL    HW210611   5.958   2.050   5.196
 3238SOL     OW10612   6.541   4.924   1.885
 3238SOL    HW110613   6.549   4.840   1.832
 3238SOL    HW210614   6.627   4.942   1.933
 3239SOL     OW10615   6.740   0.103   4.763
 3239SOL    HW110616   6.680   0.076   4.688
 3239SOL    HW210617   6.684   0.140   4.838
 3240SOL     OW10618   0.566   0.248   0.261
 3240SOL    HW110619   0.484   0.204   0.299
 3240SOL    HW210620   0.541   0.336   0.221
 3241SOL     OW10621   5.997   1.974   5.688
 3241SOL    HW110622   6.030   2.054   5.738
 3241SOL    HW210623   5.924   2.001   5.625
 3242SOL     OW10624   5.520   3.841   4.563
 3242SOL    HW110625   5.559   3.895   4.637
 3242SOL    HW210626   5.486   3.902   4.491
 3243SOL     OW10627   6.101   4.776   4.428
 3243SOL    HW110628   6.030   4.833   4.471
 3243SOL    HW210629   6.168   4.834   4.383
 3244SOL     OW10630   5.361   0.069   6.769
 3244SOL    HW110631   5.448   0.033   6.803
 3244SOL    HW210632   5.377   0.123   6.687
 3245SOL     OW10633   4.027   1.093   5.458
 3245SOL    HW110634   4.063   1.146   5.382
 3245SOL    HW210635   4.036   1.146   5.543
 3246SOL     OW10636   6.640   0.295   2.898
 3246SOL    HW110637   6.564   0.327   2.842
 3246SOL    HW210638   6.656   0.360   2.973
 3247SOL     OW10639   0.458   4.366   3.470
 3247SOL    HW110640   0.448   4.455   3.424
 3247SOL    HW210641   0.437   4.376   3.567
 3248SOL     OW10642   5.353   2.274   3.353
 3248SOL    HW110643   5.310   2.335   3.286
 3248SOL    HW210644   5.442   2.312   3.380
 3249SOL     OW10645   2.923   3.658   3.949
 3249SOL    HW110646   2.954   3.685   3.858
 3249SOL    HW210647   2.917   3.739   4.008
 3250SOL     OW10648   4.768   5.136   2.628
 3250SOL    HW110649   4.806   5.048   2.600
 3250SOL    HW210650   4.696   5.163   2.564
 3251SOL     OW10651   2.198   1.537   2.786
 3251SOL    HW110652   2.251   1.524   2.870
 3251SOL    HW210653   2.185   1.449   2.741
 3252SOL     OW10654   1.883   1.053   3.254
 3252SOL    HW110655   1.893   0.995   3.173
 3252SOL    HW210656   1.793   1.097   3.252
 3253SOL     OW10657   6.769   3.981   0.597
 3253SOL    HW110658   6.799   3.942   0.685
 3253SOL    HW210659   6.830   3.950   0.524
 3254SOL     OW10660   6.329   0.297   0.780
 3254SOL    HW110661   6.244   0.336   0.815
 3254SOL    HW210662   6.387   0.270   0.857
 3255SOL     OW10663   5.041   5.721   1.257
 3255SOL    HW110664   5.120   5.776   1.284
 3255SOL    HW210665   5.039   5.712   1.157
 3256SOL     OW10666   4.877   2.154   1.301
 3256SOL    HW110667   4.899   2.228   1.239
 3256SOL    HW210668   4.934   2.074   1.281
 3257SOL     OW10669   2.553   2.510   3.251
 3257SOL    HW110670   2.467   2.504   3.199
 3257SOL    HW210671   2.622   2.556   3.195
 3258SOL     OW10672   2.637   5.550   3.398
 3258SOL    HW110673   2.672   5.644   3.400
 3258SOL    HW210674   2.686   5.495   3.466
 3259SOL     OW10675   5.162   4.696   3.671
 3259SOL    HW110676   5.136   4.600   3.679
 3259SOL    HW210677   5.079   4.752   3.667
 3260SOL     OW10678   1.070   4.398   2.892
 3260SOL    HW110679   1.069   4.446   2.980
 3260SOL    HW210680   1.119   4.312   2.901
 3261SOL     OW10681   5.479   6.829   3.814
 3261SOL    HW110682   5.498   6.815   3.911
 3261SOL    HW210683   5.446   6.743   3.774
 3262SOL     OW10684   3.066   2.134   2.799
 3262SOL    HW110685   3.148   2.087   2.767
 3262SOL    HW210686   3.081   2.168   2.892
 3263SOL     OW10687   0.070   1.492   2.599
 3263SOL    HW110688   0.073   1.569   2.536
 3263SOL    HW210689   0.136   1.506   2.673
 3264SOL     OW10690   1.662   4.836   0.029
 3264SOL    HW110691   1.736   4.770   0.020
 3264SOL    HW210692   1.607   4.815   0.110
 3265SOL     OW10693   6.015   5.100   6.417
 3265SOL    HW110694   6.001   5.005   6.446
 3265SOL    HW210695   5.937   5.129   6.362
 3266SOL     OW10696   3.159   5.642   6.750
 3266SOL    HW110697   3.237   5.589   6.783
 3266SOL    HW210698   3.080   5.625   6.809
 3267SOL     OW10699   3.909   0.113   0.797
 3267SOL    HW110700   3.847   0.169   0.741
 3267SOL    HW210701   3.951   0.170   0.867
 3268SOL     OW10702   6.323   5.266   1.552
 3268SOL    HW110703   6.278   5.241   1.466
 3268SOL    HW210704   6.253   5.293   1.619
 3269SOL     OW10705   1.792   5.352   1.797
 3269SOL    HW110706   1.877   5.300   1.793
 3269SOL    HW210707   1.738   5.333   1.715
 3270SOL     OW10708   0.445   3.054   5.427
 3270SOL    HW110709   0.469   2.970   5.378
 3270SOL    HW210710   0.512   3.071   5.499
 3271SOL     OW10711   0.610   2.543   2.379
 3271SOL    HW110712   0.700   2.556   2.339
 3271SOL    HW210713   0.590   2.619   2.441
 3272SOL     OW10714   4.515   6.235   0.651
 3272SOL    HW110715   4.493   6.193   0.739
 3272SOL    HW210716   4.472   6.326   0.646
 3273SOL     OW10717   4.916   2.619   6.000
 3273SOL    HW110718   4.880   2.678   6.072
 3273SOL    HW210719   5.013   2.599   6.017
 3274SOL     OW10720   5.715   0.105   0.847
 3274SOL    HW110721   5.740   0.089   0.752
 3274SOL    HW210722   5.629   0.059   0.867
 3275SOL     OW10723   4.369   0.342   1.671
 3275SOL    HW110724   4.349   0.369   1.577
 3275SOL    HW210725   4.309   0.392   1.734
 3276SOL     OW10726   5.058   0.400   0.494
 3276SOL    HW110727   5.153   0.429   0.507
 3276SOL    HW210728   5.048   0.355   0.405
 3277SOL     OW10729   3.476   2.067   2.207
 3277SOL    HW110730   3.556   2.102   2.159
 3277SOL    HW210731   3.398   2.128   2.192
 3278SOL     OW10732   6.497   0.391   0.111
 3278SOL    HW110733   6.585   0.357   0.078
 3278SOL    HW210734   6.487   0.488   0.088
 3279SOL     OW10735   3.175   0.281   1.862
 3279SOL    HW110736   3.131   0.368   1.888
 3279SOL    HW210737   3.239   0.297   1.788
 3280SOL     OW10738   5.994   4.386   3.852
 3280SOL    HW110739   6.048   4.302   3.845
 3280SOL    HW210740   5.915   4.371   3.912
 3281SOL     OW10741   6.397   3.467   0.972
 3281SOL    HW110742   6.324   3.521   0.930
 3281SOL    HW210743   6.359   3.413   1.047
 3282SOL     OW10744   0.802   4.906   4.130
 3282SOL    HW110745   0.724   4.960   4.097
 3282SOL    HW210746   0.853   4.960   4.197
 3283SOL     OW10747   3.720   1.936   0.365
 3283SOL    HW110748   3.685   1.915   0.456
 3283SOL    HW210749   3.819   1.949   0.369
 3284SOL     OW10750   1.797   6.223   4.503
 3284SOL    HW110751   1.721   6.279   4.470
 3284SOL    HW210752   1.796   6.221   4.603
 3285SOL     OW10753   3.811   1.939   4.974
 3285SOL    HW110754   3.721   1.981   4.982
 3285SOL    HW210755   3.845   1.914   5.064
 3286SOL     OW10756   2.738   1.670   1.412
 3286SOL    HW110757   2.690   1.589   1.444
 3286SOL    HW210758   2.715   1.748   1.471
 3287SOL     OW10759   2.480   0.353   0.050
 3287SOL    HW110760   2.427   0.438   0.049
 3287SOL    HW210761   2.547   0.354   7.003
 3288SOL     OW10762   2.046   6.375   1.466
 3288SOL    HW110763   1.982   6.422   1.527
 3288SOL    HW210764   2.101   6.311   1.518
 3289SOL     OW10765   4.097   1.301   6.669
 3289SOL    HW110766   4.191   1.288   6.700
 3289SOL    HW210767   4.066   1.394   6.692
 3290SOL     OW10768   0.113   5.648   0.455
 3290SOL    HW110769   0.025   5.692   0.438
 3290SOL    HW210770   0.141   5.666   0.550
 3291SOL     OW10771   4.817   6.796   5.383
 3291SOL    HW110772   4.738   6.842   5.423
 3291SOL    HW210773   4.802   6.697   5.382
 3292SOL     OW10774   6.711   2.233   1.067
 3292SOL    HW110775   6.805   2.199   1.056
 3292SOL    HW210776   6.702   2.275   1.158
 3293SOL     OW10777   5.743   5.782   3.421
 3293SOL    HW110778   5.651   5.822   3.415
 3293SOL    HW210779   5.749   5.704   3.359
 3294SOL     OW10780   5.133   2.718   4.867
 3294SOL    HW110781   5.168   2.811   4.867
 3294SOL    HW210782   5.076   2.703   4.786
 3295SOL     OW10783   1.023   2.822   2.724
 3295SOL    HW110784   1.002   2.731   2.760
 3295SOL    HW210785   1.103   2.859   2.771
 3296SOL     OW10786   1.589   0.449   5.841
 3296SOL    HW110787   1.619   0.356   5.817
 3296SOL    HW210788   1.668   0.508   5.849
 3297SOL     OW10789   2.990   1.132   4.721
 3297SOL    HW110790   2.977   1.198   4.646
 3297SOL    HW210791   2.951   1.169   4.805
 3298SOL     OW10792   5.520   3.915   5.908
 3298SOL    HW110793   5.544   3.854   5.984
 3298SOL    HW210794   5.581   3.897   5.831
 3299SOL     OW10795   2.450   4.604   4.350
 3299SOL    HW110796   2.549   4.614   4.346
 3299SOL    HW210797   2.419   4.547   4.274
 3300SOL     OW10798   1.903   0.014   4.233
 3300SOL    HW110799   1.872   0.092   4.289
 3300SOL    HW210800   1.968   6.987   4.286
 3301SOL     OW10801   1.144   1.503   2.837
 3301SOL    HW110802   1.180   1.580   2.889
 3301SOL    HW210803   1.044   1.501   2.843
 3302SOL     OW10804   2.506   5.140   6.015
 3302SOL    HW110805   2.577   5.084   6.059
 3302SOL    HW210806   2.524   5.237   6.033
 3303SOL     OW10807   3.821   2.965   6.972
 3303SOL    HW110808   3.842   2.880   7.021
 3303SOL    HW210809   3.905   3.016   6.957
 3304SOL     OW10810   3.105   5.361   6.611
 3304SOL    HW110811   3.071   5.403   6.526
 3304SOL    HW210812   3.151   5.429   6.666
 3305SOL     OW10813   3.493   2.438   0.992
 3305SOL    HW110814   3.453   2.501   1.059
 3305SOL    HW210815   3.563   2.382   1.036
 3306SOL     OW10816   2.349   0.879   0.035
 3306SOL    HW110817   2.425   0.829   0.075
 3306SOL    HW210818   2.264   0.853   0.080
 3307SOL     OW10819   1.692   6.641   5.374
 3307SOL    HW110820   1.661   6.679   5.461
 3307SOL    HW210821   1.752   6.563   5.391
 3308SOL     OW10822   4.123   4.350   1.372
 3308SOL    HW110823   4.199   4.295   1.406
 3308SOL    HW210824   4.073   4.298   1.303
 3309SOL     OW10825   6.017   3.285   3.574
 3309SOL    HW110826   6.087   3.217   3.594
 3309SOL    HW210827   5.986   3.327   3.660
 3310SOL     OW10828   6.387   5.149   5.906
 3310SOL    HW110829   6.334   5.210   5.848
 3310SOL    HW210830   6.390   5.058   5.865
 3311SOL     OW10831   3.013   3.431   0.118
 3311SOL    HW110832   3.023   3.392   0.209
 3311SOL    HW210833   2.919   3.462   0.105
 3312SOL     OW10834   4.676   2.322   5.698
 3312SOL    HW110835   4.713   2.403   5.742
 3312SOL    HW210836   4.600   2.348   5.637
 3313SOL     OW10837   1.102   0.976   3.375
 3313SOL    HW110838   1.078   0.899   3.315
 3313SOL    HW210839   1.057   1.059   3.342
 3314SOL     OW10840   2.619   5.552   2.887
 3314SOL    HW110841   2.596   5.504   2.971
 3314SOL    HW210842   2.610   5.489   2.809
 3315SOL     OW10843   0.259   5.473   5.099
 3315SOL    HW110844   0.325   5.510   5.033
 3315SOL    HW210845   0.276   5.512   5.189
 3316SOL     OW10846   3.839   2.713   6.368
 3316SOL    HW110847   3.838   2.806   6.405
 3316SOL    HW210848   3.932   2.677   6.372
 3317SOL     OW10849   4.942   2.653   2.714
 3317SOL    HW110850   4.890   2.732   2.682
 3317SOL    HW210851   4.908   2.570   2.669
 3318SOL     OW10852   3.368   2.174   1.004
 3318SOL    HW110853   3.372   2.273   0.987
 3318SOL    HW210854   3.276   2.150   1.035
 3319SOL     OW10855   6.456   5.860   3.536
 3319SOL    HW110856   6.392   5.935   3.518
 3319SOL    HW210857   6.453   5.795   3.461
 3320SOL     OW10858   6.178   6.881   1.422
 3320SOL    HW110859   6.114   6.952   1.454
 3320SOL    HW210860   6.165   6.798   1.475
 3321SOL     OW10861   4.879   1.228   0.758
 3321SOL    HW110862   4.923   1.297   0.816
 3321SOL    HW210863   4.810   1.273   0.700
 3322SOL     OW10864   6.686   3.932   1.001
 3322SOL    HW110865   6.705   3.907   1.096
 3322SOL    HW210866   6.699   3.852   0.942
 3323SOL     OW10867   1.777   2.665   1.466
 3323SOL    HW110868   1.785   2.758   1.429
 3323SOL    HW210869   1.859   2.642   1.518
 3324SOL     OW10870   4.991   5.848   5.762
 3324SOL    HW110871   5.057   5.855   5.837
 3324SOL    HW210872   4.915   5.911   5.780
 3325SOL     OW10873   2.262   3.976   6.269
 3325SOL    HW110874   2.263   3.880   6.298
 3325SOL    HW210875   2.352   4.001   6.234
 3326SOL     OW10876   3.724   0.770   2.443
 3326SOL    HW110877   3.668   0.830   2.500
 3326SOL    HW210878   3.688   0.769   2.350
 3327SOL     OW10879   0.651   5.192   0.003
 3327SOL    HW110880   0.651   5.093   0.019
 3327SOL    HW210881   0.560   5.221   7.001
 3328SOL     OW10882   4.589   2.238   6.554
 3328SOL    HW110883   4.510   2.214   6.498
 3328SOL    HW210884   4.631   2.154   6.590
 3329SOL     OW10885   6.952   5.930   5.991
 3329SOL    HW110886   6.978   6.025   6.003
 3329SOL    HW210887   6.882   5.905   6.058
 3330SOL     OW10888   6.449   3.646   2.988
 3330SOL    HW110889   6.464   3.672   3.083
 3330SOL    HW210890   6.524   3.589   2.956
 3331SOL     OW10891   2.271   3.072   1.125
 3331SOL    HW110892   2.192   3.088   1.066
 3331SOL    HW210893   2.243   3.073   1.220
 3332SOL     OW10894   6.338   4.767   1.235
 3332SOL    HW110895   6.269   4.794   1.167
 3332SOL    HW210896   6.294   4.712   1.306
 3333SOL     OW10897   4.463   5.588   5.754
 3333SOL    HW110898   4.498   5.621   5.666
 3333SOL    HW210899   4.460   5.664   5.819
 3334SOL     OW10900   2.539   4.356   1.593
 3334SOL    HW110901   2.478   4.418   1.642
 3334SOL    HW210902   2.620   4.407   1.562
 3335SOL     OW10903   5.812   4.365   4.826
 3335SOL    HW110904   5.754   4.305   4.881
 3335SOL    HW210905   5.907   4.336   4.833
 3336SOL     OW10906   3.329   5.751   5.892
 3336SOL    HW110907   3.254   5.689   5.871
 3336SOL    HW210908   3.316   5.791   5.983
 3337SOL     OW10909   3.503   1.818   0.895
 3337SOL    HW110910   3.582   1.772   0.936
 3337SOL    HW210911   3.534   1.904   0.853
 3338SOL     OW10912   0.278   4.823   0.808
 3338SOL    HW110913   0.303   4.738   0.762
 3338SOL    HW210914   0.228   4.802   0.892
 3339SOL     OW10915   6.899   5.704   6.523
 3339SOL    HW110916   6.891   5.800   6.495
 3339SOL    HW210917   6.856   5.646   6.455
 3340SOL     OW10918   3.570   6.605   1.506
 3340SOL    HW110919   3.626   6.530   1.470
 3340SOL    HW210920   3.474   6.586   1.487
 3341SOL     OW10921   1.110   0.658   2.108
 3341SOL    HW110922   1.117   0.753   2.077
 3341SOL    HW210923   1.028   0.617   2.068
 3342SOL     OW10924   2.650   6.607   4.239
 3342SOL    HW110925   2.566   6.552   4.247
 3342SOL    HW210926   2.679   6.636   4.330
 3343SOL     OW10927   5.767   2.262   1.335
 3343SOL    HW110928   5.850   2.310   1.363
 3343SOL    HW210929   5.754   2.181   1.393
 3344SOL     OW10930   0.115   3.491   5.617
 3344SOL    HW110931   0.024   3.468   5.651
 3344SOL    HW210932   0.125   3.457   5.524
 3345SOL     OW10933   3.123   3.255   5.606
 3345SOL    HW110934   3.162   3.345   5.624
 3345SOL    HW210935   3.197   3.187   5.601
 3346SOL     OW10936   1.495   6.168   2.450
 3346SOL    HW110937   1.553   6.117   2.386
 3346SOL    HW210938   1.428   6.222   2.398
 3347SOL     OW10939   5.635   4.212   4.996
 3347SOL    HW110940   5.625   4.118   5.029
 3347SOL    HW210941   5.606   4.275   5.068
 3348SOL     OW10942   3.329   3.067   3.592
 3348SOL    HW110943   3.309   3.021   3.505
 3348SOL    HW210944   3.252   3.054   3.655
 3349SOL     OW10945   6.197   3.831   5.122
 3349SOL    HW110946   6.135   3.759   5.094
 3349SOL    HW210947   6.239   3.872   5.041
 3350SOL     OW10948   0.851   1.310   1.187
 3350SOL    HW110949   0.837   1.222   1.142
 3350SOL    HW210950   0.933   1.354   1.149
 3351SOL     OW10951   4.984   1.650   1.802
 3351SOL    HW110952   5.013   1.734   1.847
 3351SOL    HW210953   4.893   1.662   1.764
 3352SOL     OW10954   0.402   3.957   0.495
 3352SOL    HW110955   0.336   3.957   0.570
 3352SOL    HW210956   0.454   4.043   0.497
 3353SOL     OW10957   2.005   6.456   5.956
 3353SOL    HW110958   1.973   6.379   6.012
 3353SOL    HW210959   2.007   6.539   6.011
 3354SOL     OW10960   1.104   1.790   2.540
 3354SOL    HW110961   1.103   1.693   2.564
 3354SOL    HW210962   1.102   1.801   2.441
 3355SOL     OW10963   6.361   1.437   2.579
 3355SOL    HW110964   6.390   1.517   2.632
 3355SOL    HW210965   6.435   1.408   2.518
 3356SOL     OW10966   2.766   3.117   6.704
 3356SOL    HW110967   2.772   3.188   6.634
 3356SOL    HW210968   2.856   3.075   6.716
 3357SOL     OW10969   2.722   4.878   1.970
 3357SOL    HW110970   2.799   4.940   1.958
 3357SOL    HW210971   2.756   4.785   1.988
 3358SOL     OW10972   5.268   4.682   2.799
 3358SOL    HW110973   5.309   4.770   2.775
 3358SOL    HW210974   5.294   4.659   2.893
 3359SOL     OW10975   0.901   1.255   2.136
 3359SOL    HW110976   0.933   1.174   2.087
 3359SOL    HW210977   0.886   1.231   2.232
 3360SOL     OW10978   1.261   0.571   6.553
 3360SOL    HW110979   1.339   0.511   6.574
 3360SOL    HW210980   1.236   0.561   6.457
 3361SOL     OW10981   5.707   6.794   2.795
 3361SOL    HW110982   5.691   6.806   2.893
 3361SOL    HW210983   5.793   6.746   2.781
 3362SOL     OW10984   2.150   1.414   5.319
 3362SOL    HW110985   2.121   1.476   5.392
 3362SOL    HW210986   2.195   1.334   5.359
 3363SOL     OW10987   0.392   1.069   6.944
 3363SOL    HW110988   0.322   1.133   6.976
 3363SOL    HW210989   0.482   1.097   6.980
 3364SOL     OW10990   1.995   4.909   6.407
 3364SOL    HW110991   1.942   4.824   6.413
 3364SOL    HW210992   1.973   4.968   6.485
 3365SOL     OW10993   6.341   1.854   5.690
 3365SOL    HW110994   6.410   1.787   5.717
 3365SOL    HW210995   6.343   1.932   5.753
 3366SOL     OW10996   5.318   1.262   5.945
 3366SOL    HW110997   5.345   1.222   5.858
 3366SOL    HW210998   5.347   1.203   6.020
 3367SOL     OW10999   0.598   0.661   2.096
 3367SOL    HW111000   0.555   0.579   2.133
 3367SOL    HW211001   0.556   0.683   2.007
 3368SOL     OW11002   6.874   6.058   5.412
 3368SOL    HW111003   6.853   6.010   5.327
 3368SOL    HW211004   6.826   6.014   5.488
 3369SOL     OW11005   4.112   0.145   6.433
 3369SOL    HW111006   4.021   0.108   6.450
 3369SOL    HW211007   4.109   0.208   6.356
 3370SOL     OW11008   5.643   6.970   5.156
 3370SOL    HW111009   5.610   6.946   5.247
 3370SOL    HW211010   5.740   6.994   5.161
 3371SOL     OW11011   6.796   5.453   1.662
 3371SOL    HW111012   6.789   5.405   1.749
 3371SOL    HW211013   6.709   5.448   1.613
 3372SOL     OW11014   0.277   1.164   2.572
 3372SOL    HW111015   0.229   1.216   2.501
 3372SOL    HW211016   0.317   1.082   2.532
 3373SOL     OW11017   6.652   2.218   5.416
 3373SOL    HW111018   6.619   2.301   5.460
 3373SOL    HW211019   6.714   2.169   5.478
 3374SOL     OW11020   3.122   5.193   4.815
 3374SOL    HW111021   3.103   5.261   4.744
 3374SOL    HW211022   3.213   5.208   4.853
 3375SOL     OW11023   4.482   4.594   5.415
 3375SOL    HW111024   4.555   4.561   5.474
 3375SOL    HW211025   4.424   4.658   5.466
 3376SOL     OW11026   3.278   3.779   2.355
 3376SOL    HW111027   3.182   3.790   2.378
 3376SOL    HW211028   3.334   3.820   2.427
 3377SOL     OW11029   1.994   6.124   5.393
 3377SOL    HW111030   1.945   6.204   5.429
 3377SOL    HW211031   1.965   6.107   5.298
 3378SOL     OW11032   0.414   1.442   0.469
 3378SOL    HW111033   0.406   1.426   0.567
 3378SOL    HW211034   0.409   1.540   0.451
 3379SOL     OW11035   0.743   4.880   5.919
 3379SOL    HW111036   0.654   4.846   5.889
 3379SOL    HW211037   0.814   4.815   5.893
 3380SOL     OW11038   0.394   4.116   6.417
 3380SOL    HW111039   0.325   4.082   6.354
 3380SOL    HW211040   0.459   4.043   6.438
 3381SOL     OW11041   3.128   2.612   0.426
 3381SOL    HW111042   3.126   2.521   0.466
 3381SOL    HW211043   3.058   2.669   0.469
 3382SOL     OW11044   6.762   0.242   0.641
 3382SOL    HW111045   6.688   0.308   0.632
 3382SOL    HW211046   6.849   0.291   0.654
 3383SOL     OW11047   6.293   5.196   2.492
 3383SOL    HW111048   6.231   5.213   2.415
 3383SOL    HW211049   6.273   5.106   2.531
 3384SOL     OW11050   3.867   3.011   4.361
 3384SOL    HW111051   3.936   3.023   4.291
 3384SOL    HW211052   3.871   3.087   4.426
 3385SOL     OW11053   6.510   3.719   3.234
 3385SOL    HW111054   6.440   3.699   3.302
 3385SOL    HW211055   6.512   3.817   3.215
 3386SOL     OW11056   5.912   4.335   5.235
 3386SOL    HW111057   5.992   4.394   5.244
 3386SOL    HW211058   5.942   4.242   5.212
 3387SOL     OW11059   2.390   2.610   2.886
 3387SOL    HW111060   2.398   2.565   2.797
 3387SOL    HW211061   2.398   2.543   2.959
 3388SOL     OW11062   5.868   2.502   1.642
 3388SOL    HW111063   5.797   2.464   1.701
 3388SOL    HW211064   5.837   2.590   1.606
 3389SOL     OW11065   5.523   4.778   3.240
 3389SOL    HW111066   5.532   4.748   3.145
 3389SOL    HW211067   5.426   4.776   3.265
 3390SOL     OW11068   4.841   2.425   5.219
 3390SOL    HW111069   4.883   2.379   5.296
 3390SOL    HW211070   4.887   2.513   5.203
 3391SOL     OW11071   3.534   2.034   4.589
 3391SOL    HW111072   3.517   2.034   4.688
 3391SOL    HW211073   3.591   1.955   4.565
 3392SOL     OW11074   3.981   6.345   3.791
 3392SOL    HW111075   3.987   6.268   3.727
 3392SOL    HW211076   3.898   6.397   3.771
 3393SOL     OW11077   6.694   0.022   6.938
 3393SOL    HW111078   6.727   6.995   7.015
 3393SOL    HW211079   6.595   0.015   6.933
 3394SOL     OW11080   6.135   2.702   1.859
 3394SOL    HW111081   6.201   2.636   1.822
 3394SOL    HW211082   6.067   2.724   1.789
 3395SOL     OW11083   1.383   3.440   5.391
 3395SOL    HW111084   1.452   3.490   5.444
 3395SOL    HW211085   1.429   3.372   5.333
 3396SOL     OW11086   0.181   4.301   3.927
 3396SOL    HW111087   0.143   4.375   3.870
 3396SOL    HW211088   0.183   4.331   4.022
 3397SOL     OW11089   3.733   6.348   6.330
 3397SOL    HW111090   3.743   6.446   6.313
 3397SOL    HW211091   3.797   6.298   6.271
 3398SOL     OW11092   0.783   6.752   3.955
 3398SOL    HW111093   0.799   6.665   4.004
 3398SOL    HW211094   0.695   6.748   3.908
 3399SOL     OW11095   4.866   4.682   4.231
 3399SOL    HW111096   4.880   4.761   4.173
 3399SOL    HW211097   4.848   4.601   4.175
 3400SOL     OW11098   4.718   2.266   6.857
 3400SOL    HW111099   4.630   2.315   6.858
 3400SOL    HW211100   4.775   2.300   6.932
 3401SOL     OW11101   6.138   4.682   0.195
 3401SOL    HW111102   6.071   4.655   0.265
 3401SOL    HW211103   6.094   4.681   0.105
 3402SOL     OW11104   5.533   5.765   1.846
 3402SOL    HW111105   5.520   5.847   1.789
 3402SOL    HW211106   5.479   5.774   1.930
 3403SOL     OW11107   3.593   0.983   5.013
 3403SOL    HW111108   3.618   0.985   5.110
 3403SOL    HW211109   3.506   0.934   5.002
 3404SOL     OW11110   4.851   0.811   0.394
 3404SOL    HW111111   4.766   0.764   0.373
 3404SOL    HW211112   4.910   0.811   0.313
 3405SOL     OW11113   6.861   3.912   0.010
 3405SOL    HW111114   6.957   3.912   0.037
 3405SOL    HW211115   6.852   3.877   6.944
 3406SOL     OW11116   1.303   3.787   2.515
 3406SOL    HW111117   1.380   3.850   2.503
 3406SOL    HW211118   1.229   3.834   2.563
 3407SOL     OW11119   1.373   5.553   2.562
 3407SOL    HW111120   1.472   5.550   2.578
 3407SOL    HW211121   1.349   5.639   2.517
 3408SOL     OW11122   5.376   4.578   3.024
 3408SOL    HW111123   5.305   4.552   3.090
 3408SOL    HW211124   5.440   4.502   3.012
 3409SOL     OW11125   3.808   0.632   5.416
 3409SOL    HW111126   3.741   0.585   5.473
 3409SOL    HW211127   3.823   0.724   5.451
 3410SOL     OW11128   6.101   0.160   0.577
 3410SOL    HW111129   6.180   0.140   0.519
 3410SOL    HW211130   6.132   0.193   0.666
 3411SOL     OW11131   5.093   1.842   2.539
 3411SOL    HW111132   5.088   1.886   2.628
 3411SOL    HW211133   5.122   1.747   2.550
 3412SOL     OW11134   3.942   4.414   7.005
 3412SOL    HW111135   3.845   4.405   6.985
 3412SOL    HW211136   3.956   4.486   0.046
 3413SOL     OW11137   3.594   2.133   3.239
 3413SOL    HW111138   3.629   2.082   3.161
 3413SOL    HW211139   3.534   2.074   3.294
 3414SOL     OW11140   2.611   2.532   5.147
 3414SOL    HW111141   2.579   2.490   5.231
 3414SOL    HW211142   2.617   2.631   5.159
 3415SOL     OW11143   0.786   4.681   3.983
 3415SOL    HW111144   0.787   4.763   4.039
 3415SOL    HW211145   0.879   4.645   3.974
 3416SOL     OW11146   1.259   5.350   5.615
 3416SOL    HW111147   1.343   5.298   5.598
 3416SOL    HW211148   1.181   5.300   5.577
 3417SOL     OW11149   6.123   0.019   2.416
 3417SOL    HW111150   6.071   0.049   2.495
 3417SOL    HW211151   6.211   0.067   2.413
 3418SOL     OW11152   3.057   1.426   5.740
 3418SOL    HW111153   3.059   1.511   5.792
 3418SOL    HW211154   3.017   1.444   5.649
 3419SOL     OW11155   4.444   4.616   0.363
 3419SOL    HW111156   4.468   4.534   0.312
 3419SOL    HW211157   4.498   4.694   0.331
 3420SOL     OW11158   4.257   2.336   3.539
 3420SOL    HW111159   4.224   2.351   3.632
 3420SOL    HW211160   4.353   2.306   3.542
 3421SOL     OW11161   0.226   5.624   5.329
 3421SOL    HW111162   0.145   5.667   5.370
 3421SOL    HW211163   0.307   5.679   5.352
 3422SOL     OW11164   3.303   1.216   2.178
 3422SOL    HW111165   3.360   1.197   2.259
 3422SOL    HW211166   3.317   1.310   2.149
 3423SOL     OW11167   2.567   0.585   1.146
 3423SOL    HW111168   2.486   0.629   1.107
 3423SOL    HW211169   2.556   0.579   1.245
 3424SOL     OW11170   4.454   0.940   3.127
 3424SOL    HW111171   4.355   0.947   3.143
 3424SOL    HW211172   4.502   0.934   3.215
 3425SOL     OW11173   4.487   4.356   1.630
 3425SOL    HW111174   4.502   4.322   1.723
 3425SOL    HW211175   4.565   4.411   1.602
 3426SOL     OW11176   4.296   4.099   0.762
 3426SOL    HW111177   4.343   4.016   0.734
 3426SOL    HW211178   4.306   4.112   0.861
 3427SOL     OW11179   1.124   1.119   0.097
 3427SOL    HW111180   1.147   1.097   0.003
 3427SOL    HW211181   1.135   1.038   0.154
 3428SOL     OW11182   4.183   4.769   2.378
 3428SOL    HW111183   4.089   4.802   2.376
 3428SOL    HW211184   4.226   4.784   2.288
 3429SOL     OW11185   1.607   2.977   7.026
 3429SOL    HW111186   1.707   2.966   7.023
 3429SOL    HW211187   1.581   3.026   0.081
 3430SOL     OW11188   1.573   7.015   0.277
 3430SOL    HW111189   1.539   7.001   0.370
 3430SOL    HW211190   1.529   6.950   0.215
 3431SOL     OW11191   0.675   5.810   0.945
 3431SOL    HW111192   0.587   5.770   0.923
 3431SOL    HW211193   0.662   5.886   1.009
 3432SOL     OW11194   3.230   1.649   5.871
 3432SOL    HW111195   3.311   1.591   5.878
 3432SOL    HW211196   3.256   1.745   5.879
 3433SOL     OW11197   3.506   1.192   4.846
 3433SOL    HW111198   3.549   1.115   4.893
 3433SOL    HW211199   3.457   1.158   4.765
 3434SOL     OW11200   4.738   2.757   2.102
 3434SOL    HW111201   4.801   2.822   2.145
 3434SOL    HW211202   4.699   2.798   2.020
 3435SOL     OW11203   0.088   1.457   1.681
 3435SOL    HW111204   0.103   1.525   1.753
 3435SOL    HW211205   0.157   1.385   1.689
 3436SOL     OW11206   4.325   6.760   4.501
 3436SOL    HW111207   4.356   6.792   4.591
 3436SOL    HW211208   4.233   6.723   4.509
 3437SOL     OW11209   4.122   6.903   5.915
 3437SOL    HW111210   4.178   6.961   5.975
 3437SOL    HW211211   4.035   6.883   5.959
 3438SOL     OW11212   0.695   2.675   6.304
 3438SOL    HW111213   0.596   2.679   6.321
 3438SOL    HW211214   0.719   2.742   6.234
 3439SOL     OW11215   2.478   6.241   4.072
 3439SOL    HW111216   2.521   6.155   4.044
 3439SOL    HW211217   2.533   6.318   4.039
 3440SOL     OW11218   5.397   3.173   0.865
 3440SOL    HW111219   5.368   3.079   0.883
 3440SOL    HW211220   5.408   3.187   0.767
 3441SOL     OW11221   2.847   0.297   3.707
 3441SOL    HW111222   2.815   0.386   3.676
 3441SOL    HW211223   2.868   0.239   3.628
 3442SOL     OW11224   1.857   4.929   3.337
 3442SOL    HW111225   1.792   4.855   3.354
 3442SOL    HW211226   1.887   4.967   3.425
 3443SOL     OW11227   5.695   1.082   2.773
 3443SOL    HW111228   5.615   1.083   2.713
 3443SOL    HW211229   5.747   0.998   2.758
 3444SOL     OW11230   4.785   5.256   0.230
 3444SOL    HW111231   4.690   5.256   0.260
 3444SOL    HW211232   4.841   5.303   0.298
 3445SOL     OW11233   6.706   4.409   4.130
 3445SOL    HW111234   6.740   4.324   4.168
 3445SOL    HW211235   6.783   4.466   4.101
 3446SOL     OW11236   3.923   6.799   2.445
 3446SOL    HW111237   3.962   6.850   2.521
 3446SOL    HW211238   3.857   6.857   2.396
 3447SOL     OW11239   5.552   6.013   6.681
 3447SOL    HW111240   5.552   5.981   6.776
 3447SOL    HW211241   5.506   5.945   6.624
 3448SOL     OW11242   3.553   1.790   1.315
 3448SOL    HW111243   3.486   1.858   1.284
 3448SOL    HW211244   3.643   1.815   1.281
 3449SOL     OW11245   0.066   6.407   3.279
 3449SOL    HW111246   0.060   6.399   3.179
 3449SOL    HW211247   0.003   6.342   3.321
 3450SOL     OW11248   1.111   1.599   1.643
 3450SOL    HW111249   1.172   1.560   1.574
 3450SOL    HW211250   1.032   1.640   1.599
 3451SOL     OW11251   0.899   5.832   4.489
 3451SOL    HW111252   0.821   5.889   4.464
 3451SOL    HW211253   0.929   5.780   4.408
 3452SOL     OW11254   5.737   1.425   0.497
 3452SOL    HW111255   5.661   1.401   0.437
 3452SOL    HW211256   5.717   1.394   0.590
 3453SOL     OW11257   5.501   5.630   4.643
 3453SOL    HW111258   5.415   5.644   4.594
 3453SOL    HW211259   5.566   5.700   4.617
 3454SOL     OW11260   1.094   0.827   0.678
 3454SOL    HW111261   1.032   0.881   0.620
 3454SOL    HW211262   1.040   0.772   0.742
 3455SOL     OW11263   2.050   2.858   4.113
 3455SOL    HW111264   1.978   2.836   4.178
 3455SOL    HW211265   2.132   2.888   4.162
 3456SOL     OW11266   5.655   6.865   1.619
 3456SOL    HW111267   5.749   6.895   1.603
 3456SOL    HW211268   5.647   6.767   1.598
 3457SOL     OW11269   2.208   5.066   3.641
 3457SOL    HW111270   2.226   5.122   3.722
 3457SOL    HW211271   2.182   4.974   3.669
 3458SOL     OW11272   5.708   6.497   0.537
 3458SOL    HW111273   5.613   6.478   0.560
 3458SOL    HW211274   5.719   6.499   0.437
 3459SOL     OW11275   0.347   5.072   4.105
 3459SOL    HW111276   0.359   5.066   4.204
 3459SOL    HW211277   0.269   5.131   4.085
 3460SOL     OW11278   4.625   3.076   6.683
 3460SOL    HW111279   4.689   2.999   6.676
 3460SOL    HW211280   4.541   3.046   6.728
 3461SOL     OW11281   3.937   6.173   3.563
 3461SOL    HW111282   3.910   6.087   3.606
 3461SOL    HW211283   3.989   6.153   3.479
 3462SOL     OW11284   4.889   3.582   3.048
 3462SOL    HW111285   4.887   3.681   3.056
 3462SOL    HW211286   4.836   3.541   3.122
 3463SOL     OW11287   2.196   2.760   1.364
 3463SOL    HW111288   2.259   2.826   1.323
 3463SOL    HW211289   2.132   2.808   1.424
 3464SOL     OW11290   4.976   3.076   6.439
 3464SOL    HW111291   5.042   3.089   6.365
 3464SOL    HW211292   4.900   3.019   6.408
 3465SOL     OW11293   2.112   3.737   1.955
 3465SOL    HW111294   2.149   3.645   1.971
 3465SOL    HW211295   2.054   3.735   1.874
 3466SOL     OW11296   6.310   4.991   4.297
 3466SOL    HW111297   6.219   5.023   4.274
 3466SOL    HW211298   6.372   5.009   4.221
 3467SOL     OW11299   2.870   2.410   0.612
 3467SOL    HW111300   2.804   2.464   0.559
 3467SOL    HW211301   2.927   2.357   0.550
 3468SOL     OW11302   4.418   1.893   1.032
 3468SOL    HW111303   4.462   1.855   0.951
 3468SOL    HW211304   4.451   1.987   1.047
 3469SOL     OW11305   4.258   6.627   5.584
 3469SOL    HW111306   4.220   6.714   5.552
 3469SOL    HW211307   4.339   6.644   5.639
 3470SOL     OW11308   0.434   2.934   2.096
 3470SOL    HW111309   0.348   2.956   2.143
 3470SOL    HW211310   0.505   2.998   2.125
 3471SOL     OW11311   5.084   4.102   3.401
 3471SOL    HW111312   5.085   4.002   3.408
 3471SOL    HW211313   5.036   4.140   3.480
 3472SOL     OW11314   4.540   1.818   3.485
 3472SOL    HW111315   4.527   1.722   3.510
 3472SOL    HW211316   4.491   1.877   3.549
 3473SOL     OW11317   6.938   4.131   2.556
 3473SOL    HW111318   6.862   4.166   2.611
 3473SOL    HW211319   6.948   4.033   2.574
 3474SOL     OW11320   6.412   5.326   4.326
 3474SOL    HW111321   6.427   5.342   4.229
 3474SOL    HW211322   6.482   5.264   4.361
 3475SOL     OW11323   6.816   4.049   4.588
 3475SOL    HW111324   6.842   4.024   4.494
 3475SOL    HW211325   6.865   4.131   4.615
 3476SOL     OW11326   1.138   1.958   3.257
 3476SOL    HW111327   1.197   1.992   3.331
 3476SOL    HW211328   1.117   2.034   3.195
 3477SOL     OW11329   0.644   3.520   1.443
 3477SOL    HW111330   0.635   3.426   1.478
 3477SOL    HW211331   0.685   3.518   1.352
 3478SOL     OW11332   2.430   0.085   6.761
 3478SOL    HW111333   2.436   7.014   6.744
 3478SOL    HW211334   2.385   0.100   6.849
 3479SOL     OW11335   0.847   2.972   3.945
 3479SOL    HW111336   0.902   3.049   3.975
 3479SOL    HW211337   0.750   2.993   3.959
 3480SOL     OW11338   1.151   5.934   6.994
 3480SOL    HW111339   1.148   5.858   0.032
 3480SOL    HW211340   1.119   5.903   6.904
 3481SOL     OW11341   6.796   0.228   6.202
 3481SOL    HW111342   6.793   0.327   6.215
 3481SOL    HW211343   6.752   0.204   6.115
 3482SOL     OW11344   6.180   3.522   4.640
 3482SOL    HW111345   6.217   3.525   4.733
 3482SOL    HW211346   6.218   3.598   4.587
 3483SOL     OW11347   4.530   2.208   3.519
 3483SOL    HW111348   4.576   2.259   3.592
 3483SOL    HW211349   4.596   2.148   3.474
 3484SOL     OW11350   1.709   3.375   5.932
 3484SOL    HW111351   1.650   3.454   5.913
 3484SOL    HW211352   1.782   3.403   5.995
 3485SOL     OW11353   0.237   1.852   6.022
 3485SOL    HW111354   0.245   1.874   6.119
 3485SOL    HW211355   0.267   1.758   6.006
 3486SOL     OW11356   2.440   0.269   4.894
 3486SOL    HW111357   2.349   0.228   4.881
 3486SOL    HW211358   2.468   0.314   4.808
 3487SOL     OW11359   5.870   1.633   6.639
 3487SOL    HW111360   5.967   1.619   6.620
 3487SOL    HW211361   5.817   1.609   6.558
 3488SOL     OW11362   6.052   0.749   4.165
 3488SOL    HW111363   6.143   0.745   4.205
 3488SOL    HW211364   5.990   0.689   4.217
 3489SOL     OW11365   3.266   0.602   0.371
 3489SOL    HW111366   3.342   0.537   0.359
 3489SOL    HW211367   3.233   0.631   0.282
 3490SOL     OW11368   4.316   5.216   0.661
 3490SOL    HW111369   4.289   5.262   0.575
 3490SOL    HW211370   4.333   5.119   0.643
 3491SOL     OW11371   4.667   3.830   0.202
 3491SOL    HW111372   4.740   3.781   0.154
 3491SOL    HW211373   4.578   3.804   0.163
 3492SOL     OW11374   6.142   4.478   2.462
 3492SOL    HW111375   6.161   4.440   2.372
 3492SOL    HW211376   6.228   4.503   2.507
 3493SOL     OW11377   6.193   3.211   4.546
 3493SOL    HW111378   6.093   3.204   4.546
 3493SOL    HW211379   6.220   3.304   4.570
 3494SOL     OW11380   3.894   1.516   1.995
 3494SOL    HW111381   3.911   1.562   1.908
 3494SOL    HW211382   3.898   1.583   2.070
 3495SOL     OW11383   1.733   3.642   1.894
 3495SOL    HW111384   1.817   3.652   1.842
 3495SOL    HW211385   1.754   3.643   1.992
 3496SOL     OW11386   6.717   5.460   1.042
 3496SOL    HW111387   6.794   5.509   1.000
 3496SOL    HW211388   6.632   5.508   1.021
 3497SOL     OW11389   3.788   0.475   2.427
 3497SOL    HW111390   3.816   0.409   2.357
 3497SOL    HW211391   3.791   0.567   2.388
 3498SOL     OW11392   2.004   1.971   1.214
 3498SOL    HW111393   2.044   2.057   1.245
 3498SOL    HW211394   1.907   1.968   1.236
 3499SOL     OW11395   5.965   5.434   5.843
 3499SOL    HW111396   5.974   5.504   5.772
 3499SOL    HW211397   5.871   5.400   5.843
 3500SOL     OW11398   1.688   2.408   3.629
 3500SOL    HW111399   1.594   2.424   3.599
 3500SOL    HW211400   1.733   2.496   3.646
 3501SOL     OW11401   1.458   6.871   5.950
 3501SOL    HW111402   1.422   6.963   5.936
 3501SOL    HW211403   1.549   6.864   5.909
 3502SOL     OW11404   4.913   3.761   1.992
 3502SOL    HW111405   4.850   3.692   2.029
 3502SOL    HW211406   4.997   3.717   1.960
 3503SOL     OW11407   6.767   6.324   6.673
 3503SOL    HW111408   6.832   6.390   6.636
 3503SOL    HW211409   6.739   6.261   6.601
 3504SOL     OW11410   1.302   0.492   1.998
 3504SOL    HW111411   1.231   0.555   2.027
 3504SOL    HW211412   1.392   0.530   2.022
 3505SOL     OW11413   6.074   5.265   6.049
 3505SOL    HW111414   6.103   5.360   6.041
 3505SOL    HW211415   6.140   5.214   6.105
 3506SOL     OW11416   5.103   4.540   4.289
 3506SOL    HW111417   5.162   4.518   4.211
 3506SOL    HW211418   5.011   4.562   4.257
 3507SOL     OW11419   2.571   6.792   0.458
 3507SOL    HW111420   2.528   6.881   0.475
 3507SOL    HW211421   2.633   6.770   0.533
 3508SOL     OW11422   3.119   2.732   5.297
 3508SOL    HW111423   3.188   2.664   5.323
 3508SOL    HW211424   3.028   2.689   5.300
 3509SOL     OW11425   4.323   5.753   6.809
 3509SOL    HW111426   4.397   5.713   6.862
 3509SOL    HW211427   4.299   5.842   6.847
 3510SOL     OW11428   2.530   0.897   1.054
 3510SOL    HW111429   2.465   0.822   1.044
 3510SOL    HW211430   2.537   0.923   1.150
 3511SOL     OW11431   2.640   5.152   1.206
 3511SOL    HW111432   2.705   5.138   1.281
 3511SOL    HW211433   2.553   5.107   1.229
 3512SOL     OW11434   1.158   4.360   6.971
 3512SOL    HW111435   1.148   4.352   0.043
 3512SOL    HW211436   1.069   4.345   6.927
 3513SOL     OW11437   5.710   2.335   0.230
 3513SOL    HW111438   5.782   2.272   0.199
 3513SOL    HW211439   5.658   2.292   0.304
 3514SOL     OW11440   4.408   0.953   2.855
 3514SOL    HW111441   4.318   0.990   2.828
 3514SOL    HW211442   4.410   0.940   2.954
 3515SOL     OW11443   6.124   5.780   4.611
 3515SOL    HW111444   6.202   5.787   4.673
 3515SOL    HW211445   6.130   5.694   4.560
 3516SOL     OW11446   5.176   0.244   1.096
 3516SOL    HW111447   5.233   0.274   1.019
 3516SOL    HW211448   5.234   0.202   1.166
 3517SOL     OW11449   6.386   1.605   0.258
 3517SOL    HW111450   6.465   1.650   0.216
 3517SOL    HW211451   6.302   1.634   0.211
 3518SOL     OW11452   5.690   1.043   5.352
 3518SOL    HW111453   5.696   1.110   5.426
 3518SOL    HW211454   5.597   1.006   5.348
 3519SOL     OW11455   3.542   0.715   0.415
 3519SOL    HW111456   3.446   0.688   0.412
 3519SOL    HW211457   3.561   0.762   0.500
 3520SOL     OW11458   2.892   5.887   4.931
 3520SOL    HW111459   2.856   5.801   4.966
 3520SOL    HW211460   2.862   5.900   4.836
 3521SOL     OW11461   3.016   3.041   6.755
 3521SOL    HW111462   3.021   2.949   6.795
 3521SOL    HW211463   3.071   3.104   6.809
 3522SOL     OW11464   6.786   5.691   0.208
 3522SOL    HW111465   6.854   5.679   0.136
 3522SOL    HW211466   6.700   5.723   0.168
 3523SOL     OW11467   0.888   5.174   6.174
 3523SOL    HW111468   0.856   5.258   6.217
 3523SOL    HW211469   0.974   5.192   6.126
 3524SOL     OW11470   6.429   1.425   3.234
 3524SOL    HW111471   6.371   1.384   3.164
 3524SOL    HW211472   6.509   1.468   3.190
 3525SOL     OW11473   6.360   4.741   4.134
 3525SOL    HW111474   6.381   4.838   4.147
 3525SOL    HW211475   6.387   4.713   4.042
 3526SOL     OW11476   1.189   5.962   3.716
 3526SOL    HW111477   1.095   5.970   3.682
 3526SOL    HW211478   1.252   6.008   3.653
 3527SOL     OW11479   6.657   2.785   6.063
 3527SOL    HW111480   6.714   2.868   6.061
 3527SOL    HW211481   6.715   2.704   6.053
 3528SOL     OW11482   2.713   6.490   5.570
 3528SOL    HW111483   2.744   6.581   5.600
 3528SOL    HW211484   2.639   6.501   5.504
 3529SOL     OW11485   4.967   5.954   6.824
 3529SOL    HW111486   4.960   6.010   6.741
 3529SOL    HW211487   5.015   5.869   6.803
 3530SOL     OW11488   0.454   6.877   2.000
 3530SOL    HW111489   0.495   6.793   2.036
 3530SOL    HW211490   0.478   6.954   2.059
 3531SOL     OW11491   4.748   1.854   1.378
 3531SOL    HW111492   4.739   1.794   1.299
 3531SOL    HW211493   4.669   1.914   1.383
 3532SOL     OW11494   2.263   1.076   2.278
 3532SOL    HW111495   2.263   1.048   2.182
 3532SOL    HW211496   2.200   1.153   2.291
 3533SOL     OW11497   0.043   1.631   2.350
 3533SOL    HW111498   0.066   1.604   2.256
 3533SOL    HW211499   7.004   1.566   2.387
 3534SOL     OW11500   0.123   1.892   1.343
 3534SOL    HW111501   0.131   1.793   1.329
 3534SOL    HW211502   0.211   1.929   1.371
 3535SOL     OW11503   2.763   5.100   4.709
 3535SOL    HW111504   2.815   5.016   4.727
 3535SOL    HW211505   2.803   5.176   4.761
 3536SOL     OW11506   3.124   2.110   2.436
 3536SOL    HW111507   3.174   2.084   2.519
 3536SOL    HW211508   3.145   2.044   2.363
 3537SOL     OW11509   1.735   5.518   2.918
 3537SOL    HW111510   1.829   5.527   2.952
 3537SOL    HW211511   1.682   5.598   2.945
 3538SOL     OW11512   3.044   5.711   4.595
 3538SOL    HW111513   2.966   5.758   4.637
 3538SOL    HW211514   3.058   5.623   4.640
 3539SOL     OW11515   4.127   3.510   4.565
 3539SOL    HW111516   4.082   3.525   4.477
 3539SOL    HW211517   4.174   3.594   4.593
 3540SOL     OW11518   2.020   1.944   4.109
 3540SOL    HW111519   2.082   1.876   4.149
 3540SOL    HW211520   2.053   2.036   4.130
 3541SOL     OW11521   3.015   3.766   5.484
 3541SOL    HW111522   3.007   3.691   5.418
 3541SOL    HW211523   2.966   3.846   5.449
 3542SOL     OW11524   1.340   4.626   2.308
 3542SOL    HW111525   1.329   4.631   2.209
 3542SOL    HW211526   1.252   4.606   2.351
 3543SOL     OW11527   5.334   2.873   4.014
 3543SOL    HW111528   5.336   2.846   4.110
 3543SOL    HW211529   5.390   2.954   4.001
 3544SOL     OW11530   2.089   4.391   6.057
 3544SOL    HW111531   2.151   4.343   6.119
 3544SOL    HW211532   1.996   4.354   6.068
 3545SOL     OW11533   4.370   5.753   6.420
 3545SOL    HW111534   4.349   5.840   6.464
 3545SOL    HW211535   4.442   5.767   6.352
 3546SOL     OW11536   6.645   5.582   3.375
 3546SOL    HW111537   6.609   5.674   3.361
 3546SOL    HW211538   6.742   5.580   3.352
 3547SOL     OW11539   4.893   5.210   4.522
 3547SOL    HW111540   4.857   5.296   4.558
 3547SOL    HW211541   4.853   5.192   4.432
 3548SOL     OW11542   4.826   2.698   5.118
 3548SOL    HW111543   4.772   2.727   5.039
 3548SOL    HW211544   4.777   2.719   5.202
 3549SOL     OW11545   6.509   4.480   3.195
 3549SOL    HW111546   6.541   4.430   3.114
 3549SOL    HW211547   6.584   4.537   3.230
 3550SOL     OW11548   5.534   1.641   2.305
 3550SOL    HW111549   5.516   1.551   2.344
 3550SOL    HW211550   5.455   1.671   2.252
 3551SOL     OW11551   3.323   6.634   3.231
 3551SOL    HW111552   3.242   6.651   3.287
 3551SOL    HW211553   3.331   6.537   3.211
 3552SOL     OW11554   5.805   5.867   3.016
 3552SOL    HW111555   5.836   5.880   3.110
 3552SOL    HW211556   5.853   5.931   2.956
 3553SOL     OW11557   5.346   2.341   2.533
 3553SOL    HW111558   5.264   2.320   2.480
 3553SOL    HW211559   5.407   2.262   2.535
 3554SOL     OW11560   4.146   4.728   6.831
 3554SOL    HW111561   4.078   4.715   6.759
 3554SOL    HW211562   4.120   4.675   6.912
 3555SOL     OW11563   1.160   2.838   3.254
 3555SOL    HW111564   1.202   2.909   3.309
 3555SOL    HW211565   1.205   2.835   3.164
 3556SOL     OW11566   3.363   0.598   5.770
 3556SOL    HW111567   3.384   0.668   5.701
 3556SOL    HW211568   3.323   0.641   5.850
 3557SOL     OW11569   1.894   0.677   4.971
 3557SOL    HW111570   1.960   0.651   5.041
 3557SOL    HW211571   1.845   0.595   4.939
 3558SOL     OW11572   0.106   6.300   1.646
 3558SOL    HW111573   0.201   6.293   1.678
 3558SOL    HW211574   0.092   6.238   1.569
 3559SOL     OW11575   0.566   1.281   4.903
 3559SOL    HW111576   0.603   1.216   4.969
 3559SOL    HW211577   0.487   1.328   4.942
 3560SOL     OW11578   0.556   6.204   1.273
 3560SOL    HW111579   0.580   6.123   1.220
 3560SOL    HW211580   0.639   6.251   1.301
 3561SOL     OW11581   5.011   4.843   5.846
 3561SOL    HW111582   5.063   4.928   5.836
 3561SOL    HW211583   5.065   4.766   5.813
 3562SOL     OW11584   5.524   0.488   3.327
 3562SOL    HW111585   5.453   0.421   3.347
 3562SOL    HW211586   5.613   0.450   3.351
 3563SOL     OW11587   4.899   1.028   1.364
 3563SOL    HW111588   4.922   0.983   1.450
 3563SOL    HW211589   4.862   0.961   1.300
 3564SOL     OW11590   6.971   4.374   4.343
 3564SOL    HW111591   7.001   4.443   4.278
 3564SOL    HW211592   6.936   4.294   4.293
 3565SOL     OW11593   2.586   0.576   4.861
 3565SOL    HW111594   2.488   0.600   4.862
 3565SOL    HW211595   2.604   0.515   4.784
 3566SOL     OW11596   0.014   2.939   6.217
 3566SOL    HW111597   6.970   2.914   6.284
 3566SOL    HW211598   7.001   2.940   6.125
 3567SOL     OW11599   6.890   3.358   0.909
 3567SOL    HW111600   6.897   3.258   0.916
 3567SOL    HW211601   6.870   3.384   0.815
 3568SOL     OW11602   4.798   4.410   3.336
 3568SOL    HW111603   4.799   4.355   3.253
 3568SOL    HW211604   4.844   4.497   3.320
 3569SOL     OW11605   3.373   4.155   4.092
 3569SOL    HW111606   3.364   4.246   4.053
 3569SOL    HW211607   3.465   4.120   4.073
 3570SOL     OW11608   0.237   1.559   6.247
 3570SOL    HW111609   0.286   1.572   6.161
 3570SOL    HW211610   0.204   1.647   6.281
 3571SOL     OW11611   2.458   6.273   5.560
 3571SOL    HW111612   2.463   6.345   5.490
 3571SOL    HW211613   2.422   6.189   5.518
 3572SOL     OW11614   4.989   4.525   1.513
 3572SOL    HW111615   5.026   4.453   1.573
 3572SOL    HW211616   5.064   4.580   1.477
 3573SOL     OW11617   6.724   3.673   2.683
 3573SOL    HW111618   6.707   3.600   2.617
 3573SOL    HW211619   6.712   3.638   2.776
 3574SOL     OW11620   3.082   3.068   6.044
 3574SOL    HW111621   3.103   3.139   6.111
 3574SOL    HW211622   3.029   3.107   5.969
 3575SOL     OW11623   5.571   6.839   7.005
 3575SOL    HW111624   5.537   6.901   0.049
 3575SOL    HW211625   5.525   6.751   7.013
 3576SOL     OW11626   1.078   3.136   6.452
 3576SOL    HW111627   1.138   3.082   6.511
 3576SOL    HW211628   1.038   3.212   6.504
 3577SOL     OW11629   2.844   2.889   5.861
 3577SOL    HW111630   2.782   2.906   5.938
 3577SOL    HW211631   2.884   2.976   5.831
 3578SOL     OW11632   3.186   3.162   6.480
 3578SOL    HW111633   3.158   3.230   6.548
 3578SOL    HW211634   3.260   3.200   6.424
 3579SOL     OW11635   0.555   2.748   2.584
 3579SOL    HW111636   0.595   2.838   2.568
 3579SOL    HW211637   0.546   2.731   2.682
 3580SOL     OW11638   0.442   3.911   1.611
 3580SOL    HW111639   0.415   4.007   1.617
 3580SOL    HW211640   0.396   3.869   1.532
 3581SOL     OW11641   0.611   0.319   2.619
 3581SOL    HW111642   0.648   0.226   2.616
 3581SOL    HW211643   0.644   0.366   2.701
 3582SOL     OW11644   3.780   4.114   6.113
 3582SOL    HW111645   3.772   4.198   6.059
 3582SOL    HW211646   3.711   4.048   6.084
 3583SOL     OW11647   0.730   4.833   0.784
 3583SOL    HW111648   0.684   4.919   0.759
 3583SOL    HW211649   0.772   4.843   0.874
 3584SOL     OW11650   6.240   4.543   4.472
 3584SOL    HW111651   6.332   4.566   4.440
 3584SOL    HW211652   6.175   4.610   4.436
 3585SOL     OW11653   2.420   1.849   3.433
 3585SOL    HW111654   2.453   1.937   3.399
 3585SOL    HW211655   2.473   1.823   3.513
 3586SOL     OW11656   6.008   1.910   4.779
 3586SOL    HW111657   5.931   1.848   4.789
 3586SOL    HW211658   6.078   1.889   4.846
 3587SOL     OW11659   3.031   6.987   6.554
 3587SOL    HW111660   2.982   6.935   6.625
 3587SOL    HW211661   2.966   7.020   6.486
 3588SOL     OW11662   6.494   4.259   4.702
 3588SOL    HW111663   6.520   4.164   4.686
 3588SOL    HW211664   6.407   4.261   4.752
 3589SOL     OW11665   0.626   0.526   6.239
 3589SOL    HW111666   0.607   0.572   6.152
 3589SOL    HW211667   0.545   0.474   6.267
 3590SOL     OW11668   6.697   4.999   0.671
 3590SOL    HW111669   6.777   5.017   0.729
 3590SOL    HW211670   6.692   4.901   0.651
 3591SOL     OW11671   5.637   2.156   6.871
 3591SOL    HW111672   5.627   2.240   6.924
 3591SOL    HW211673   5.675   2.177   6.781
 3592SOL     OW11674   1.968   6.816   1.466
 3592SOL    HW111675   1.894   6.883   1.465
 3592SOL    HW211676   1.980   6.781   1.559
 3593SOL     OW11677   5.184   3.270   5.946
 3593SOL    HW111678   5.262   3.314   5.900
 3593SOL    HW211679   5.130   3.340   5.993
 3594SOL     OW11680   4.675   5.066   4.670
 3594SOL    HW111681   4.748   5.067   4.602
 3594SOL    HW211682   4.591   5.032   4.628
 3595SOL     OW11683   5.647   6.306   5.194
 3595SOL    HW111684   5.633   6.213   5.161
 3595SOL    HW211685   5.712   6.305   5.270
 3596SOL     OW11686   4.066   1.789   3.390
 3596SOL    HW111687   3.969   1.788   3.370
 3596SOL    HW211688   4.099   1.695   3.402
 3597SOL     OW11689   1.948   3.416   5.342
 3597SOL    HW111690   1.914   3.490   5.400
 3597SOL    HW211691   2.042   3.436   5.315
 3598SOL     OW11692   1.427   5.051   4.942
 3598SOL    HW111693   1.507   5.022   4.993
 3598SOL    HW211694   1.355   5.079   5.005
 3599SOL     OW11695   4.407   1.505   4.710
 3599SOL    HW111696   4.339   1.516   4.638
 3599SOL    HW211697   4.472   1.581   4.707
 3600SOL     OW11698   3.520   3.211   0.508
 3600SOL    HW111699   3.601   3.266   0.528
 3600SOL    HW211700   3.446   3.270   0.477
 3601SOL     OW11701   5.288   1.080   5.654
 3601SOL    HW111702   5.299   1.004   5.590
 3601SOL    HW211703   5.191   1.102   5.663
 3602SOL     OW11704   2.252   1.920   0.896
 3602SOL    HW111705   2.244   1.862   0.815
 3602SOL    HW211706   2.345   1.957   0.901
 3603SOL     OW11707   3.028   0.948   5.877
 3603SOL    HW111708   3.128   0.943   5.878
 3603SOL    HW211709   2.999   1.016   5.810
 3604SOL     OW11710   6.831   0.402   3.620
 3604SOL    HW111711   6.780   0.386   3.704
 3604SOL    HW211712   6.894   0.479   3.635
 3605SOL     OW11713   0.697   5.719   3.639
 3605SOL    HW111714   0.794   5.718   3.615
 3605SOL    HW211715   0.674   5.807   3.680
 3606SOL     OW11716   2.462   6.337   2.038
 3606SOL    HW111717   2.420   6.304   1.954
 3606SOL    HW211718   2.408   6.413   2.075
 3607SOL     OW11719   5.160   3.228   2.966
 3607SOL    HW111720   5.143   3.129   2.960
 3607SOL    HW211721   5.148   3.258   3.061
 3608SOL     OW11722   2.935   2.121   5.181
 3608SOL    HW111723   2.854   2.107   5.125
 3608SOL    HW211724   2.957   2.219   5.184
 3609SOL     OW11725   2.391   6.753   4.511
 3609SOL    HW111726   2.391   6.791   4.419
 3609SOL    HW211727   2.379   6.826   4.578
 3610SOL     OW11728   2.548   6.925   5.118
 3610SOL    HW111729   2.564   6.969   5.030
 3610SOL    HW211730   2.603   6.842   5.125
 3611SOL     OW11731   5.249   5.078   2.939
 3611SOL    HW111732   5.152   5.097   2.926
 3611SOL    HW211733   5.278   5.005   2.876
 3612SOL     OW11734   5.962   1.263   6.621
 3612SOL    HW111735   5.866   1.284   6.642
 3612SOL    HW211736   5.967   1.217   6.533
 3613SOL     OW11737   3.896   5.482   1.217
 3613SOL    HW111738   3.881   5.403   1.277
 3613SOL    HW211739   3.993   5.506   1.218
 3614SOL     OW11740   4.083   4.916   6.384
 3614SOL    HW111741   4.168   4.910   6.436
 3614SOL    HW211742   4.099   4.969   6.300
 3615SOL     OW11743   5.804   2.361   5.411
 3615SOL    HW111744   5.767   2.437   5.357
 3615SOL    HW211745   5.826   2.393   5.503
 3616SOL     OW11746   1.406   1.662   6.873
 3616SOL    HW111747   1.340   1.647   6.946
 3616SOL    HW211748   1.362   1.645   6.784
 3617SOL     OW11749   3.576   6.142   6.435
 3617SOL    HW111750   3.605   6.063   6.380
 3617SOL    HW211751   3.613   6.226   6.395
 3618SOL     OW11752   1.799   4.392   4.765
 3618SOL    HW111753   1.743   4.460   4.718
 3618SOL    HW211754   1.895   4.420   4.762
 3619SOL     OW11755   6.085   3.327   1.142
 3619SOL    HW111756   6.089   3.424   1.166
 3619SOL    HW211757   6.116   3.272   1.220
 3620SOL     OW11758   6.267   5.880   5.083
 3620SOL    HW111759   6.254   5.886   5.182
 3620SOL    HW211760   6.178   5.876   5.037
 3621SOL     OW11761   3.049   3.680   3.551
 3621SOL    HW111762   3.039   3.582   3.566
 3621SOL    HW211763   3.053   3.698   3.453
 3622SOL     OW11764   1.058   6.344   6.984
 3622SOL    HW111765   1.019   6.325   6.894
 3622SOL    HW211766   1.030   6.273   0.021
 3623SOL     OW11767   0.993   4.793   6.389
 3623SOL    HW111768   1.072   4.766   6.444
 3623SOL    HW211769   1.024   4.819   6.297
 3624SOL     OW11770   3.163   1.610   1.385
 3624SOL    HW111771   3.176   1.601   1.484
 3624SOL    HW211772   3.246   1.580   1.337
 3625SOL     OW11773   6.626   2.513   0.963
 3625SOL    HW111774   6.546   2.573   0.969
 3625SOL    HW211775   6.596   2.420   0.944
 3626SOL     OW11776   1.186   2.286   4.995
 3626SOL    HW111777   1.233   2.339   4.924
 3626SOL    HW211778   1.253   2.234   5.048
 3627SOL     OW11779   3.870   2.008   1.981
 3627SOL    HW111780   3.806   2.083   1.996
 3627SOL    HW211781   3.948   2.040   1.928
 3628SOL     OW11782   6.333   1.901   1.315
 3628SOL    HW111783   6.288   1.813   1.328
 3628SOL    HW211784   6.273   1.963   1.267
 3629SOL     OW11785   1.287   1.476   4.337
 3629SOL    HW111786   1.333   1.478   4.426
 3629SOL    HW211787   1.353   1.454   4.265
 3630SOL     OW11788   6.805   2.297   3.414
 3630SOL    HW111789   6.799   2.204   3.448
 3630SOL    HW211790   6.734   2.312   3.345
 3631SOL     OW11791   1.503   6.310   2.669
 3631SOL    HW111792   1.518   6.264   2.581
 3631SOL    HW211793   1.567   6.386   2.677
 3632SOL     OW11794   4.696   4.254   0.760
 3632SOL    HW111795   4.660   4.245   0.668
 3632SOL    HW211796   4.689   4.166   0.807
 3633SOL     OW11797   3.719   3.465   6.279
 3633SOL    HW111798   3.748   3.540   6.219
 3633SOL    HW211799   3.725   3.379   6.228
 3634SOL     OW11800   3.304   5.861   6.889
 3634SOL    HW111801   3.223   5.808   6.913
 3634SOL    HW211802   3.386   5.804   6.896
 3635SOL     OW11803   2.248   7.009   2.002
 3635SOL    HW111804   2.341   0.008   2.027
 3635SOL    HW211805   2.184   0.022   2.067
 3636SOL     OW11806   0.826   4.957   6.514
 3636SOL    HW111807   0.790   4.898   6.587
 3636SOL    HW211808   0.899   4.910   6.466
 3637SOL     OW11809   6.441   3.069   6.930
 3637SOL    HW111810   6.425   3.052   6.833
 3637SOL    HW211811   6.500   2.998   6.968
 3638SOL     OW11812   5.793   4.725   2.667
 3638SOL    HW111813   5.795   4.655   2.739
 3638SOL    HW211814   5.846   4.804   2.696
 3639SOL     OW11815   3.350   3.981   4.430
 3639SOL    HW111816   3.262   4.023   4.404
 3639SOL    HW211817   3.394   3.944   4.348
 3640SOL     OW11818   5.001   2.335   0.715
 3640SOL    HW111819   5.090   2.295   0.738
 3640SOL    HW211820   4.985   2.327   0.617
 3641SOL     OW11821   5.945   3.641   2.673
 3641SOL    HW111822   6.030   3.629   2.724
 3641SOL    HW211823   5.898   3.723   2.705
 3642SOL     OW11824   5.700   3.082   6.349
 3642SOL    HW111825   5.728   3.049   6.258
 3642SOL    HW211826   5.679   3.180   6.343
 3643SOL     OW11827   3.843   5.637   5.143
 3643SOL    HW111828   3.923   5.583   5.119
 3643SOL    HW211829   3.817   5.695   5.066
 3644SOL     OW11830   2.595   0.591   1.601
 3644SOL    HW111831   2.645   0.599   1.514
 3644SOL    HW211832   2.498   0.576   1.582
 3645SOL     OW11833   1.330   4.253   3.371
 3645SOL    HW111834   1.292   4.345   3.381
 3645SOL    HW211835   1.383   4.248   3.286
 3646SOL     OW11836   1.956   4.430   5.149
 3646SOL    HW111837   1.979   4.478   5.234
 3646SOL    HW211838   2.034   4.376   5.120
 3647SOL     OW11839   3.630   6.871   6.552
 3647SOL    HW111840   3.538   6.890   6.585
 3647SOL    HW211841   3.639   6.900   6.456
 3648SOL     OW11842   4.535   5.352   3.575
 3648SOL    HW111843   4.519   5.447   3.603
 3648SOL    HW211844   4.465   5.325   3.509
 3649SOL     OW11845   6.037   2.712   0.148
 3649SOL    HW111846   5.949   2.759   0.138
 3649SOL    HW211847   6.062   2.709   0.245
 3650SOL     OW11848   5.419   5.421   0.071
 3650SOL    HW111849   5.448   5.487   0.141
 3650SOL    HW211850   5.360   5.352   0.112
 3651SOL     OW11851   1.156   2.210   5.682
 3651SOL    HW111852   1.165   2.110   5.681
 3651SOL    HW211853   1.181   2.247   5.593
 3652SOL     OW11854   3.839   1.170   2.230
 3652SOL    HW111855   3.872   1.077   2.212
 3652SOL    HW211856   3.834   1.185   2.328
 3653SOL     OW11857   0.751   1.549   1.260
 3653SOL    HW111858   0.782   1.463   1.218
 3653SOL    HW211859   0.667   1.579   1.217
 3654SOL     OW11860   5.180   6.836   0.429
 3654SOL    HW111861   5.243   6.823   0.353
 3654SOL    HW211862   5.223   6.892   0.499
 3655SOL     OW11863   1.624   2.328   4.080
 3655SOL    HW111864   1.657   2.242   4.040
 3655SOL    HW211865   1.700   2.393   4.085
 3656SOL     OW11866   6.878   6.863   1.273
 3656SOL    HW111867   6.786   6.828   1.289
 3656SOL    HW211868   6.928   6.869   1.359
 3657SOL     OW11869   5.167   5.586   5.208
 3657SOL    HW111870   5.202   5.583   5.114
 3657SOL    HW211871   5.155   5.493   5.243
 3658SOL     OW11872   2.148   4.933   5.704
 3658SOL    HW111873   2.106   4.910   5.617
 3658SOL    HW211874   2.231   4.880   5.717
 3659SOL     OW11875   6.927   1.670   6.358
 3659SOL    HW111876   6.868   1.749   6.376
 3659SOL    HW211877   6.894   1.620   6.279
 3660SOL     OW11878   5.567   5.391   6.632
 3660SOL    HW111879   5.574   5.453   6.555
 3660SOL    HW211880   5.593   5.439   6.716
 3661SOL     OW11881   0.093   1.948   4.932
 3661SOL    HW111882   0.128   1.861   4.897
 3661SOL    HW211883   0.006   1.969   4.889
 3662SOL     OW11884   2.738   1.717   5.526
 3662SOL    HW111885   2.830   1.709   5.489
 3662SOL    HW211886   2.732   1.799   5.582
 3663SOL     OW11887   2.873   2.357   6.424
 3663SOL    HW111888   2.877   2.268   6.378
 3663SOL    HW211889   2.952   2.367   6.483
 3664SOL     OW11890   3.899   1.168   1.660
 3664SOL    HW111891   3.885   1.266   1.672
 3664SOL    HW211892   3.985   1.152   1.610
 3665SOL     OW11893   0.864   5.303   5.923
 3665SOL    HW111894   0.957   5.337   5.913
 3665SOL    HW211895   0.847   5.277   6.018
 3666SOL     OW11896   1.856   2.832   4.651
 3666SOL    HW111897   1.854   2.868   4.744
 3666SOL    HW211898   1.921   2.885   4.596
 3667SOL     OW11899   2.045   0.534   1.618
 3667SOL    HW111900   1.968   0.521   1.680
 3667SOL    HW211901   2.079   0.444   1.588
 3668SOL     OW11902   0.113   1.059   1.699
 3668SOL    HW111903   0.119   1.029   1.603
 3668SOL    HW211904   0.017   1.072   1.724
 3669SOL     OW11905   0.713   1.401   3.506
 3669SOL    HW111906   0.724   1.302   3.521
 3669SOL    HW211907   0.711   1.448   3.595
 3670SOL     OW11908   2.675   5.966   1.683
 3670SOL    HW111909   2.615   5.958   1.762
 3670SOL    HW211910   2.720   6.056   1.684
 3671SOL     OW11911   6.172   0.477   3.654
 3671SOL    HW111912   6.148   0.537   3.730
 3671SOL    HW211913   6.271   0.466   3.651
 3672SOL     OW11914   3.752   6.558   3.009
 3672SOL    HW111915   3.779   6.619   3.083
 3672SOL    HW211916   3.699   6.608   2.941
 3673SOL     OW11917   3.337   6.114   1.251
 3673SOL    HW111918   3.271   6.113   1.326
 3673SOL    HW211919   3.412   6.051   1.271
 3674SOL     OW11920   1.714   4.635   6.242
 3674SOL    HW111921   1.645   4.570   6.274
 3674SOL    HW211922   1.736   4.615   6.146
 3675SOL     OW11923   1.483   0.701   4.223
 3675SOL    HW111924   1.390   0.665   4.223
 3675SOL    HW211925   1.489   0.780   4.284
 3676SOL     OW11926   3.977   2.246   4.037
 3676SOL    HW111927   3.918   2.226   4.115
 3676SOL    HW211928   3.934   2.210   3.954
 3677SOL     OW11929   2.221   0.575   4.346
 3677SOL    HW111930   2.217   0.579   4.246
 3677SOL    HW211931   2.161   0.644   4.385
 3678SOL     OW11932   1.125   0.709   3.746
 3678SOL    HW111933   1.065   0.786   3.724
 3678SOL    HW211934   1.123   0.643   3.671
 3679SOL     OW11935   4.185   0.730   2.404
 3679SOL    HW111936   4.128   0.774   2.473
 3679SOL    HW211937   4.127   0.678   2.341
 3680SOL     OW11938   3.344   1.209   4.553
 3680SOL    HW111939   3.247   1.229   4.540
 3680SOL    HW211940   3.398   1.293   4.543
 3681SOL     OW11941   1.549   6.196   4.740
 3681SOL    HW111942   1.634   6.143   4.741
 3681SOL    HW211943   1.478   6.146   4.791
 3682SOL     OW11944   5.658   1.788   1.596
 3682SOL    HW111945   5.725   1.753   1.530
 3682SOL    HW211946   5.668   1.738   1.682
 3683SOL     OW11947   5.703   1.595   6.378
 3683SOL    HW111948   5.693   1.634   6.287
 3683SOL    HW211949   5.746   1.505   6.372
 3684SOL     OW11950   1.951   6.570   5.685
 3684SOL    HW111951   2.013   6.644   5.664
 3684SOL    HW211952   1.993   6.510   5.753
 3685SOL     OW11953   2.346   6.048   5.398
 3685SOL    HW111954   2.356   6.105   5.316
 3685SOL    HW211955   2.251   6.049   5.427
 3686SOL     OW11956   0.341   4.088   2.824
 3686SOL    HW111957   0.259   4.041   2.855
 3686SOL    HW211958   0.403   4.023   2.781
 3687SOL     OW11959   5.581   5.416   4.302
 3687SOL    HW111960   5.601   5.329   4.257
 3687SOL    HW211961   5.493   5.450   4.270
 3688SOL     OW11962   5.951   2.573   0.564
 3688SOL    HW111963   5.900   2.488   0.572
 3688SOL    HW211964   6.000   2.591   0.649
 3689SOL     OW11965   1.232   6.710   5.669
 3689SOL    HW111966   1.249   6.783   5.602
 3689SOL    HW211967   1.249   6.622   5.626
 3690SOL     OW11968   5.299   5.474   1.513
 3690SOL    HW111969   5.373   5.531   1.548
 3690SOL    HW211970   5.324   5.437   1.423
 3691SOL     OW11971   1.332   2.826   0.837
 3691SOL    HW111972   1.286   2.781   0.914
 3691SOL    HW211973   1.269   2.889   0.792
 3692SOL     OW11974   0.635   3.063   5.632
 3692SOL    HW111975   0.703   3.084   5.562
 3692SOL    HW211976   0.650   3.123   5.711
 3693SOL     OW11977   6.382   1.039   2.014
 3693SOL    HW111978   6.390   1.133   2.046
 3693SOL    HW211979   6.286   1.012   2.012
 3694SOL     OW11980   6.593   0.551   2.615
 3694SOL    HW111981   6.550   0.463   2.594
 3694SOL    HW211982   6.672   0.565   2.555
 3695SOL     OW11983   5.868   3.682   2.994
 3695SOL    HW111984   5.957   3.709   3.032
 3695SOL    HW211985   5.881   3.601   2.936
 3696SOL     OW11986   4.126   0.421   4.662
 3696SOL    HW111987   4.135   0.521   4.662
 3696SOL    HW211988   4.073   0.393   4.582
 3697SOL     OW11989   6.883   6.066   2.931
 3697SOL    HW111990   6.933   6.012   2.997
 3697SOL    HW211991   6.824   6.132   2.979
 3698SOL     OW11992   1.393   0.123   2.935
 3698SOL    HW111993   1.482   0.121   2.981
 3698SOL    HW211994   1.362   0.218   2.926
 3699SOL     OW11995   2.574   2.328   3.461
 3699SOL    HW111996   2.554   2.396   3.390
 3699SOL    HW211997   2.669   2.338   3.491
 3700SOL     OW11998   1.209   5.202   4.781
 3700SOL    HW111999   1.152   5.281   4.756
 3700SOL    HW212000   1.305   5.226   4.770
 3701SOL     OW12001   1.528   0.658   2.053
 3701SOL    HW112002   1.602   0.610   2.099
 3701SOL    HW212003   1.515   0.747   2.095
 3702SOL     OW12004   5.606   4.772   2.967
 3702SOL    HW112005   5.678   4.708   2.938
 3702SOL    HW212006   5.517   4.728   2.958
 3703SOL     OW12007   1.268   1.447   3.902
 3703SOL    HW112008   1.218   1.409   3.824
 3703SOL    HW212009   1.289   1.374   3.967
 3704SOL     OW12010   6.252   2.384   0.905
 3704SOL    HW112011   6.302   2.303   0.934
 3704SOL    HW212012   6.243   2.384   0.805
 3705SOL     OW12013   4.984   4.583   3.101
 3705SOL    HW112014   4.954   4.569   3.007
 3705SOL    HW212015   4.914   4.632   3.152
 3706SOL     OW12016   0.775   3.991   0.066
 3706SOL    HW112017   0.771   3.927   0.142
 3706SOL    HW212018   0.813   3.945   7.013
 3707SOL     OW12019   1.321   4.995   3.521
 3707SOL    HW112020   1.416   5.001   3.551
 3707SOL    HW212021   1.291   5.084   3.487
 3708SOL     OW12022   2.604   6.657   0.871
 3708SOL    HW112023   2.583   6.577   0.816
 3708SOL    HW212024   2.520   6.707   0.891
 3709SOL     OW12025   1.865   2.006   1.915
 3709SOL    HW112026   1.809   2.028   1.835
 3709SOL    HW212027   1.867   2.084   1.977
 3710SOL     OW12028   0.384   4.307   5.424
 3710SOL    HW112029   0.316   4.313   5.497
 3710SOL    HW212030   0.360   4.370   5.350
 3711SOL     OW12031   1.364   5.565   4.222
 3711SOL    HW112032   1.413   5.613   4.148
 3711SOL    HW212033   1.277   5.531   4.187
 3712SOL     OW12034   1.724   5.405   4.690
 3712SOL    HW112035   1.704   5.501   4.709
 3712SOL    HW212036   1.672   5.375   4.610
 3713SOL     OW12037   5.664   0.592   4.014
 3713SOL    HW112038   5.638   0.498   4.038
 3713SOL    HW212039   5.751   0.591   3.965
 3714SOL     OW12040   0.736   4.613   0.601
 3714SOL    HW112041   0.728   4.686   0.670
 3714SOL    HW212042   0.723   4.652   0.510
 3715SOL     OW12043   5.649   5.657   4.098
 3715SOL    HW112044   5.672   5.562   4.117
 3715SOL    HW212045   5.692   5.686   4.013
 3716SOL     OW12046   5.101   5.769   4.324
 3716SOL    HW112047   5.114   5.737   4.418
 3716SOL    HW212048   5.128   5.865   4.316
 3717SOL     OW12049   4.804   1.047   0.947
 3717SOL    HW112050   4.805   1.108   1.026
 3717SOL    HW212051   4.779   1.099   0.865
 3718SOL     OW12052   6.580   6.687   6.025
 3718SOL    HW112053   6.586   6.726   5.933
 3718SOL    HW212054   6.499   6.724   6.071
 3719SOL     OW12055   3.668   3.948   0.260
 3719SOL    HW112056   3.703   3.854   0.265
 3719SOL    HW212057   3.676   3.980   0.166
 3720SOL     OW12058   0.367   3.492   1.561
 3720SOL    HW112059   0.354   3.394   1.573
 3720SOL    HW212060   0.463   3.515   1.580
 3721SOL     OW12061   0.047   5.857   5.751
 3721SOL    HW112062   7.018   5.869   5.832
 3721SOL    HW212063   0.143   5.849   5.777
 3722SOL     OW12064   4.983   6.010   2.748
 3722SOL    HW112065   4.933   6.030   2.832
 3722SOL    HW212066   5.014   5.915   2.750
 3723SOL     OW12067   4.647   3.590   0.407
 3723SOL    HW112068   4.554   3.625   0.412
 3723SOL    HW212069   4.676   3.586   0.311
 3724SOL     OW12070   1.470   4.895   4.730
 3724SOL    HW112071   1.458   4.962   4.804
 3724SOL    HW212072   1.384   4.846   4.715
 3725SOL     OW12073   1.192   5.727   0.137
 3725SOL    HW112074   1.099   5.737   0.172
 3725SOL    HW212075   1.205   5.633   0.103
 3726SOL     OW12076   6.038   3.678   4.938
 3726SOL    HW112077   5.952   3.652   4.982
 3726SOL    HW212078   6.034   3.774   4.912
 3727SOL     OW12079   6.844   3.612   3.934
 3727SOL    HW112080   6.926   3.669   3.939
 3727SOL    HW212081   6.817   3.599   3.838
 3728SOL     OW12082   3.010   2.775   0.232
 3728SOL    HW112083   3.010   2.696   0.171
 3728SOL    HW212084   3.054   2.750   0.318
 3729SOL     OW12085   0.866   0.578   5.461
 3729SOL    HW112086   0.788   0.640   5.461
 3729SOL    HW212087   0.922   0.595   5.380
 3730SOL     OW12088   4.718   5.586   4.101
 3730SOL    HW112089   4.685   5.492   4.114
 3730SOL    HW212090   4.642   5.650   4.114
 3731SOL     OW12091   0.221   2.321   6.916
 3731SOL    HW112092   0.209   2.284   6.824
 3731SOL    HW212093   0.134   2.356   6.949
 3732SOL     OW12094   3.293   2.539   6.643
 3732SOL    HW112095   3.327   2.477   6.573
 3732SOL    HW212096   3.338   2.520   6.730
 3733SOL     OW12097   1.958   1.003   3.728
 3733SOL    HW112098   1.969   0.966   3.636
 3733SOL    HW212099   1.861   1.012   3.749
 3734SOL     OW12100   4.017   6.833   0.825
 3734SOL    HW112101   3.982   6.893   0.897
 3734SOL    HW212102   3.971   6.745   0.830
 3735SOL     OW12103   4.216   6.891   2.636
 3735SOL    HW112104   4.163   6.806   2.641
 3735SOL    HW212105   4.277   6.897   2.715
 3736SOL     OW12106   6.832   0.982   1.025
 3736SOL    HW112107   6.930   0.963   1.029
 3736SOL    HW212108   6.816   1.080   1.041
 3737SOL     OW12109   6.933   2.286   2.506
 3737SOL    HW112110   6.861   2.289   2.576
 3737SOL    HW212111   6.924   2.365   2.446
 3738SOL     OW12112   6.729   6.719   0.689
 3738SOL    HW112113   6.697   6.703   0.595
 3738SOL    HW212114   6.791   6.646   0.716
 3739SOL     OW12115   3.475   3.664   0.341
 3739SOL    HW112116   3.570   3.686   0.364
 3739SOL    HW212117   3.416   3.739   0.369
 3740SOL     OW12118   5.135   5.465   6.331
 3740SOL    HW112119   5.196   5.461   6.253
 3740SOL    HW212120   5.051   5.414   6.311
 3741SOL     OW12121   5.415   3.264   0.598
 3741SOL    HW112122   5.364   3.230   0.519
 3741SOL    HW212123   5.508   3.289   0.570
 3742SOL     OW12124   3.913   5.226   0.314
 3742SOL    HW112125   3.970   5.304   0.285
 3742SOL    HW212126   3.828   5.226   0.262
 3743SOL     OW12127   3.851   3.447   1.331
 3743SOL    HW112128   3.936   3.395   1.330
 3743SOL    HW212129   3.870   3.542   1.357
 3744SOL     OW12130   0.686   6.942   2.261
 3744SOL    HW112131   0.691   6.961   2.163
 3744SOL    HW212132   0.598   6.974   2.296
 3745SOL     OW12133   4.951   3.791   2.326
 3745SOL    HW112134   4.953   3.822   2.231
 3745SOL    HW212135   4.891   3.850   2.380
 3746SOL     OW12136   6.155   0.677   4.503
 3746SOL    HW112137   6.160   0.757   4.563
 3746SOL    HW212138   6.214   0.691   4.424
 3747SOL     OW12139   3.602   7.001   5.950
 3747SOL    HW112140   3.638   0.008   5.863
 3747SOL    HW212141   3.597   6.901   5.948
 3748SOL     OW12142   4.976   1.621   2.854
 3748SOL    HW112143   4.893   1.573   2.826
 3748SOL    HW212144   5.046   1.609   2.783
 3749SOL     OW12145   7.004   6.434   2.313
 3749SOL    HW112146   0.042   6.498   2.354
 3749SOL    HW212147   0.009   6.340   2.326
 3750SOL     OW12148   5.646   4.161   1.000
 3750SOL    HW112149   5.629   4.155   0.901
 3750SOL    HW212150   5.719   4.227   1.017
 3751SOL     OW12151   1.877   3.651   2.249
 3751SOL    HW112152   1.972   3.642   2.216
 3751SOL    HW212153   1.878   3.679   2.345
 3752SOL     OW12154   0.922   6.283   6.768
 3752SOL    HW112155   0.921   6.280   6.668
 3752SOL    HW212156   0.867   6.209   6.805
 3753SOL     OW12157   6.371   6.722   5.035
 3753SOL    HW112158   6.294   6.659   5.040
 3753SOL    HW212159   6.403   6.730   4.941
 3754SOL     OW12160   6.611   6.894   0.871
 3754SOL    HW112161   6.678   6.851   0.810
 3754SOL    HW212162   6.605   6.840   0.955
 3755SOL     OW12163   5.423   3.490   3.106
 3755SOL    HW112164   5.488   3.557   3.070
 3755SOL    HW212165   5.338   3.495   3.052
 3756SOL     OW12166   2.969   0.326   6.932
 3756SOL    HW112167   2.910   0.257   6.973
 3756SOL    HW212168   3.003   0.388   7.003
 3757SOL     OW12169   3.194   5.441   6.338
 3757SOL    HW112170   3.287   5.452   6.373
 3757SOL    HW212171   3.134   5.511   6.378
 3758SOL     OW12172   1.723   1.405   4.247
 3758SOL    HW112173   1.792   1.417   4.318
 3758SOL    HW212174   1.722   1.486   4.188
 3759SOL     OW12175   4.611   4.506   6.268
 3759SOL    HW112176   4.561   4.592   6.265
 3759SOL    HW212177   4.680   4.509   6.341
 3760SOL     OW12178   1.657   2.609   5.092
 3760SOL    HW112179   1.735   2.593   5.031
 3760SOL    HW212180   1.572   2.593   5.041
 3761SOL     OW12181   0.123   6.776   4.134
 3761SOL    HW112182   0.025   6.796   4.137
 3761SOL    HW212183   0.163   6.789   4.225
 3762SOL     OW12184   0.433   3.933   0.094
 3762SOL    HW112185   0.479   3.844   0.085
 3762SOL    HW212186   0.370   3.930   0.172
 3763SOL     OW12187   6.202   3.823   6.347
 3763SOL    HW112188   6.255   3.828   6.432
 3763SOL    HW212189   6.191   3.727   6.320
 3764SOL     OW12190   2.603   6.924   3.711
 3764SOL    HW112191   2.519   6.942   3.660
 3764SOL    HW212192   2.610   6.989   3.787
 3765SOL     OW12193   5.701   0.956   4.220
 3765SOL    HW112194   5.684   1.033   4.281
 3765SOL    HW212195   5.632   0.885   4.236
 3766SOL     OW12196   1.500   0.360   5.225
 3766SOL    HW112197   1.536   0.274   5.190
 3766SOL    HW212198   1.486   0.352   5.324
 3767SOL     OW12199   1.505   4.942   1.442
 3767SOL    HW112200   1.603   4.933   1.425
 3767SOL    HW212201   1.464   4.850   1.445
 3768SOL     OW12202   4.450   6.612   0.841
 3768SOL    HW112203   4.424   6.544   0.772
 3768SOL    HW212204   4.387   6.690   0.835
 3769SOL     OW12205   4.410   6.274   4.630
 3769SOL    HW112206   4.487   6.322   4.588
 3769SOL    HW212207   4.431   6.256   4.726
 3770SOL     OW12208   1.786   2.059   6.999
 3770SOL    HW112209   1.879   2.094   6.988
 3770SOL    HW212210   1.736   2.068   6.913
 3771SOL     OW12211   5.518   1.643   5.763
 3771SOL    HW112212   5.486   1.733   5.795
 3771SOL    HW212213   5.503   1.575   5.835
 3772SOL     OW12214   4.878   1.216   2.355
 3772SOL    HW112215   4.885   1.127   2.401
 3772SOL    HW212216   4.901   1.205   2.258
 3773SOL     OW12217   6.887   2.872   6.711
 3773SOL    HW112218   6.925   2.957   6.746
 3773SOL    HW212219   6.953   2.798   6.725
 3774SOL     OW12220   0.313   1.275   2.003
 3774SOL    HW112221   0.374   1.354   2.013
 3774SOL    HW212222   0.232   1.302   1.951
 3775SOL     OW12223   5.745   3.843   3.517
 3775SOL    HW112224   5.651   3.811   3.513
 3775SOL    HW212225   5.749   3.929   3.568
 3776SOL     OW12226   2.609   3.186   0.413
 3776SOL    HW112227   2.636   3.244   0.491
 3776SOL    HW212228   2.568   3.243   0.342
 3777SOL     OW12229   2.202   4.040   3.755
 3777SOL    HW112230   2.276   4.106   3.766
 3777SOL    HW212231   2.192   3.987   3.839
 3778SOL     OW12232   2.147   6.144   2.104
 3778SOL    HW112233   2.148   6.228   2.050
 3778SOL    HW212234   2.189   6.161   2.193
 3779SOL     OW12235   2.961   5.346   6.221
 3779SOL    HW112236   2.929   5.316   6.311
 3779SOL    HW212237   3.046   5.397   6.230
 3780SOL     OW12238   2.909   6.847   4.890
 3780SOL    HW112239   3.005   6.823   4.873
 3780SOL    HW212240   2.854   6.826   4.810
 3781SOL     OW12241   2.807   5.608   4.902
 3781SOL    HW112242   2.797   5.583   4.999
 3781SOL    HW212243   2.726   5.657   4.872
 3782SOL     OW12244   2.164   1.828   3.580
 3782SOL    HW112245   2.242   1.842   3.519
 3782SOL    HW212246   2.082   1.810   3.525
 3783SOL     OW12247   5.125   6.062   5.267
 3783SOL    HW112248   5.198   6.130   5.276
 3783SOL    HW212249   5.106   6.045   5.170
 3784SOL     OW12250   5.615   1.785   3.487
 3784SOL    HW112251   5.573   1.863   3.533
 3784SOL    HW212252   5.546   1.715   3.470
 3785SOL     OW12253   1.894   1.702   1.352
 3785SOL    HW112254   1.823   1.639   1.383
 3785SOL    HW212255   1.851   1.782   1.309
 3786SOL     OW12256   3.027   5.584   3.278
 3786SOL    HW112257   3.126   5.586   3.275
 3786SOL    HW212258   2.994   5.492   3.259
 3787SOL     OW12259   3.902   1.459   3.927
 3787SOL    HW112260   3.870   1.403   4.003
 3787SOL    HW212261   3.830   1.521   3.898
 3788SOL     OW12262   5.388   2.913   2.406
 3788SOL    HW112263   5.394   2.954   2.315
 3788SOL    HW212264   5.416   2.817   2.401
 3789SOL     OW12265   1.560   5.133   3.089
 3789SOL    HW112266   1.518   5.067   3.151
 3789SOL    HW212267   1.649   5.162   3.125
 3790SOL     OW12268   2.198   3.179   3.823
 3790SOL    HW112269   2.272   3.223   3.873
 3790SOL    HW212270   2.110   3.207   3.861
 3791SOL     OW12271   4.803   0.187   1.939
 3791SOL    HW112272   4.903   0.194   1.940
 3791SOL    HW212273   4.771   0.148   2.025
 3792SOL     OW12274   0.155   6.930   5.593
 3792SOL    HW112275   0.152   7.018   5.546
 3792SOL    HW212276   0.229   6.930   5.660
 3793SOL     OW12277   1.817   0.311   2.684
 3793SOL    HW112278   1.840   0.365   2.602
 3793SOL    HW212279   1.836   0.214   2.666
 3794SOL     OW12280   4.321   6.234   1.443
 3794SOL    HW112281   4.315   6.137   1.467
 3794SOL    HW212282   4.358   6.285   1.521
 3795SOL     OW12283   5.198   6.851   6.643
 3795SOL    HW112284   5.106   6.841   6.682
 3795SOL    HW212285   5.241   6.934   6.680
 3796SOL     OW12286   1.456   3.243   2.196
 3796SOL    HW112287   1.522   3.282   2.260
 3796SOL    HW212288   1.431   3.312   2.128
 3797SOL     OW12289   0.443   4.894   2.664
 3797SOL    HW112290   0.423   4.925   2.571
 3797SOL    HW212291   0.364   4.845   2.701
 3798SOL     OW12292   1.741   5.225   2.093
 3798SOL    HW112293   1.657   5.201   2.142
 3798SOL    HW212294   1.721   5.234   1.995
 3799SOL     OW12295   2.086   0.263   5.472
 3799SOL    HW112296   2.099   0.166   5.491
 3799SOL    HW212297   2.140   0.317   5.536
 3800SOL     OW12298   4.922   2.790   4.668
 3800SOL    HW112299   4.898   2.835   4.754
 3800SOL    HW212300   4.839   2.781   4.612
 3801SOL     OW12301   0.102   6.752   5.821
 3801SOL    HW112302   0.041   6.796   5.755
 3801SOL    HW212303   0.195   6.787   5.809
 3802SOL     OW12304   1.623   1.967   5.285
 3802SOL    HW112305   1.723   1.966   5.296
 3802SOL    HW212306   1.587   1.877   5.309
 3803SOL     OW12307   3.677   1.438   0.842
 3803SOL    HW112308   3.703   1.530   0.874
 3803SOL    HW212309   3.678   1.375   0.919
 3804SOL     OW12310   4.778   2.415   4.368
 3804SOL    HW112311   4.772   2.315   4.377
 3804SOL    HW212312   4.732   2.458   4.445
 3805SOL     OW12313   2.472   4.639   1.516
 3805SOL    HW112314   2.557   4.594   1.487
 3805SOL    HW212315   2.444   4.602   1.604
 3806SOL     OW12316   2.760   1.929   0.162
 3806SOL    HW112317   2.737   1.835   0.189
 3806SOL    HW212318   2.835   1.927   0.097
 3807SOL     OW12319   1.373   6.484   3.384
 3807SOL    HW112320   1.292   6.445   3.426
 3807SOL    HW212321   1.452   6.426   3.404
 3808SOL     OW12322   3.066   0.292   1.235
 3808SOL    HW112323   3.085   0.344   1.152
 3808SOL    HW212324   3.150   0.280   1.287
 3809SOL     OW12325   4.382   1.072   6.331
 3809SOL    HW112326   4.289   1.045   6.305
 3809SOL    HW212327   4.424   1.123   6.255
 3810SOL     OW12328   2.834   3.113   5.489
 3810SOL    HW112329   2.778   3.081   5.565
 3810SOL    HW212330   2.916   3.158   5.525
 3811SOL     OW12331   0.966   5.682   5.451
 3811SOL    HW112332   0.883   5.725   5.487
 3811SOL    HW212333   0.965   5.584   5.470
 3812SOL     OW12334   5.568   1.675   4.719
 3812SOL    HW112335   5.520   1.761   4.703
 3812SOL    HW212336   5.504   1.599   4.709
 3813SOL     OW12337   3.399   5.075   1.523
 3813SOL    HW112338   3.406   5.131   1.605
 3813SOL    HW212339   3.316   5.021   1.526
 3814SOL     OW12340   0.458   6.648   2.174
 3814SOL    HW112341   0.544   6.602   2.196
 3814SOL    HW212342   0.382   6.599   2.216
 3815SOL     OW12343   5.234   2.407   1.642
 3815SOL    HW112344   5.158   2.349   1.612
 3815SOL    HW212345   5.216   2.440   1.735
 3816SOL     OW12346   1.167   6.840   1.242
 3816SOL    HW112347   1.107   6.908   1.284
 3816SOL    HW212348   1.218   6.792   1.313
 3817SOL     OW12349   5.482   2.127   5.478
 3817SOL    HW112350   5.459   2.032   5.502
 3817SOL    HW212351   5.438   2.151   5.391
 3818SOL     OW12352   4.812   5.483   2.009
 3818SOL    HW112353   4.740   5.418   1.983
 3818SOL    HW212354   4.819   5.485   2.109
 3819SOL     OW12355   5.410   4.473   0.115
 3819SOL    HW112356   5.388   4.376   0.104
 3819SOL    HW212357   5.402   4.499   0.211
 3820SOL     OW12358   5.289   6.349   4.221
 3820SOL    HW112359   5.314   6.401   4.139
 3820SOL    HW212360   5.326   6.394   4.302
 3821SOL     OW12361   1.209   3.912   2.248
 3821SOL    HW112362   1.226   3.855   2.328
 3821SOL    HW212363   1.257   3.873   2.169
 3822SOL     OW12364   2.384   5.180   1.501
 3822SOL    HW112365   2.417   5.086   1.499
 3822SOL    HW212366   2.451   5.239   1.546
 3823SOL     OW12367   3.701   2.700   5.255
 3823SOL    HW112368   3.744   2.725   5.168
 3823SOL    HW212369   3.614   2.747   5.265
 3824SOL     OW12370   0.094   2.368   6.498
 3824SOL    HW112371   7.021   2.364   6.495
 3824SOL    HW212372   0.125   2.454   6.457
 3825SOL     OW12373   6.874   6.731   6.470
 3825SOL    HW112374   6.791   6.781   6.445
 3825SOL    HW212375   6.896   6.664   6.399
 3826SOL     OW12376   6.813   2.542   1.685
 3826SOL    HW112377   6.890   2.576   1.631
 3826SOL    HW212378   6.749   2.495   1.626
 3827SOL     OW12379   4.404   3.196   0.519
 3827SOL    HW112380   4.317   3.160   0.552
 3827SOL    HW212381   4.392   3.290   0.488
 3828SOL     OW12382   3.973   0.802   2.554
 3828SOL    HW112383   3.885   0.813   2.507
 3828SOL    HW212384   3.966   0.840   2.646
 3829SOL     OW12385   1.995   5.468   3.659
 3829SOL    HW112386   2.091   5.488   3.681
 3829SOL    HW212387   1.954   5.416   3.734
 3830SOL     OW12388   3.021   0.726   4.707
 3830SOL    HW112389   3.030   0.646   4.766
 3830SOL    HW212390   2.934   0.771   4.725
 3831SOL     OW12391   3.671   1.327   2.047
 3831SOL    HW112392   3.720   1.272   2.114
 3831SOL    HW212393   3.735   1.387   1.999
 3832SOL     OW12394   6.423   0.723   2.690
 3832SOL    HW112395   6.426   0.805   2.632
 3832SOL    HW212396   6.497   0.662   2.663
 3833SOL     OW12397   1.302   4.742   0.120
 3833SOL    HW112398   1.243   4.818   0.149
 3833SOL    HW212399   1.394   4.756   0.156
 3834SOL     OW12400   2.423   1.959   6.866
 3834SOL    HW112401   2.370   2.043   6.859
 3834SOL    HW212402   2.470   1.941   6.780
 3835SOL     OW12403   3.524   5.523   5.184
 3835SOL    HW112404   3.603   5.552   5.237
 3835SOL    HW212405   3.503   5.427   5.205
 3836SOL     OW12406   0.974   3.251   5.999
 3836SOL    HW112407   0.939   3.344   6.008
 3836SOL    HW212408   0.969   3.205   6.088
 3837SOL     OW12409   3.429   3.170   0.244
 3837SOL    HW112410   3.465   3.169   0.337
 3837SOL    HW212411   3.446   3.260   0.203
 3838SOL     OW12412   6.173   3.406   5.424
 3838SOL    HW112413   6.170   3.332   5.356
 3838SOL    HW212414   6.082   3.448   5.432
 3839SOL     OW12415   5.888   6.437   6.061
 3839SOL    HW112416   5.941   6.380   6.124
 3839SOL    HW212417   5.856   6.518   6.110
 3840SOL     OW12418   1.681   0.662   4.029
 3840SOL    HW112419   1.729   0.590   4.079
 3840SOL    HW212420   1.606   0.697   4.085
 3841SOL     OW12421   0.357   3.966   4.926
 3841SOL    HW112422   0.438   4.008   4.966
 3841SOL    HW212423   0.335   3.881   4.974
 3842SOL     OW12424   1.093   5.379   6.803
 3842SOL    HW112425   1.081   5.421   6.893
 3842SOL    HW212426   1.029   5.420   6.738
 3843SOL     OW12427   5.958   3.728   0.815
 3843SOL    HW112428   5.966   3.653   0.749
 3843SOL    HW212429   6.050   3.754   0.846
 3844SOL     OW12430   2.085   4.587   6.281
 3844SOL    HW112431   2.064   4.504   6.229
 3844SOL    HW212432   2.017   4.599   6.353
 3845SOL     OW12433   3.641   3.879   4.011
 3845SOL    HW112434   3.701   3.803   3.985
 3845SOL    HW212435   3.580   3.900   3.935
 3846SOL     OW12436   0.131   4.713   3.755
 3846SOL    HW112437   0.224   4.678   3.754
 3846SOL    HW212438   0.074   4.660   3.693
 3847SOL     OW12439   0.873   0.102   0.546
 3847SOL    HW112440   0.911   0.117   0.455
 3847SOL    HW212441   0.779   0.138   0.549
 3848SOL     OW12442   3.065   5.129   0.454
 3848SOL    HW112443   3.113   5.203   0.407
 3848SOL    HW212444   3.069   5.145   0.553
 3849SOL     OW12445   1.805   2.344   5.864
 3849SOL    HW112446   1.833   2.267   5.922
 3849SOL    HW212447   1.871   2.418   5.874
 3850SOL     OW12448   2.758   3.853   1.671
 3850SOL    HW112449   2.856   3.863   1.687
 3850SOL    HW212450   2.716   3.943   1.660
 3851SOL     OW12451   2.808   2.629   1.383
 3851SOL    HW112452   2.759   2.652   1.299
 3851SOL    HW212453   2.762   2.671   1.461
 3852SOL     OW12454   4.123   0.750   5.230
 3852SOL    HW112455   4.128   0.724   5.134
 3852SOL    HW212456   4.188   0.824   5.249
 3853SOL     OW12457   1.723   2.978   1.972
 3853SOL    HW112458   1.731   3.056   2.034
 3853SOL    HW212459   1.742   2.893   2.021
 3854SOL     OW12460   1.149   3.332   4.314
 3854SOL    HW112461   1.190   3.306   4.227
 3854SOL    HW212462   1.109   3.251   4.358
 3855SOL     OW12463   0.177   2.405   5.324
 3855SOL    HW112464   0.110   2.463   5.277
 3855SOL    HW212465   0.157   2.403   5.422
 3856SOL     OW12466   0.799   6.299   5.480
 3856SOL    HW112467   0.833   6.248   5.402
 3856SOL    HW212468   0.868   6.364   5.511
 3857SOL     OW12469   0.868   6.726   5.538
 3857SOL    HW112470   0.892   6.629   5.539
 3857SOL    HW212471   0.916   6.772   5.613
 3858SOL     OW12472   1.974   5.513   0.518
 3858SOL    HW112473   1.913   5.441   0.484
 3858SOL    HW212474   2.064   5.473   0.540
 3859SOL     OW12475   0.282   2.169   2.186
 3859SOL    HW112476   0.187   2.200   2.185
 3859SOL    HW212477   0.343   2.249   2.180
 3860SOL     OW12478   2.745   6.125   5.591
 3860SOL    HW112479   2.754   6.044   5.649
 3860SOL    HW212480   2.738   6.096   5.495
 3861SOL     OW12481   4.562   4.696   0.608
 3861SOL    HW112482   4.556   4.662   0.702
 3861SOL    HW212483   4.494   4.649   0.551
 3862SOL     OW12484   1.144   5.272   6.104
 3862SOL    HW112485   1.186   5.310   6.021
 3862SOL    HW212486   1.193   5.189   6.131
 3863SOL     OW12487   3.393   2.406   0.735
 3863SOL    HW112488   3.296   2.431   0.730
 3863SOL    HW212489   3.428   2.425   0.827
 3864SOL     OW12490   3.586   1.774   6.597
 3864SOL    HW112491   3.601   1.856   6.652
 3864SOL    HW212492   3.669   1.719   6.595
 3865SOL     OW12493   4.448   0.718   2.469
 3865SOL    HW112494   4.351   0.713   2.446
 3865SOL    HW212495   4.480   0.630   2.503
 3866SOL     OW12496   4.179   6.714   6.440
 3866SOL    HW112497   4.175   6.748   6.346
 3866SOL    HW212498   4.093   6.736   6.488
 3867SOL     OW12499   1.768   3.235   3.741
 3867SOL    HW112500   1.810   3.236   3.651
 3867SOL    HW212501   1.679   3.281   3.737
 3868SOL     OW12502   1.408   5.330   3.183
 3868SOL    HW112503   1.457   5.281   3.111
 3868SOL    HW212504   1.471   5.392   3.230
 3869SOL     OW12505   1.355   2.381   3.304
 3869SOL    HW112506   1.340   2.327   3.387
 3869SOL    HW212507   1.286   2.452   3.297
 3870SOL     OW12508   3.356   4.560   0.455
 3870SOL    HW112509   3.279   4.571   0.392
 3870SOL    HW212510   3.335   4.606   0.541
 3871SOL     OW12511   3.000   1.835   4.523
 3871SOL    HW112512   2.936   1.797   4.589
 3871SOL    HW212513   2.953   1.904   4.467
 3872SOL     OW12514   4.091   3.738   0.888
 3872SOL    HW112515   4.096   3.810   0.957
 3872SOL    HW212516   4.113   3.650   0.929
 3873SOL     OW12517   5.051   3.988   1.770
 3873SOL    HW112518   5.025   4.061   1.832
 3873SOL    HW212519   5.038   4.018   1.675
 3874SOL     OW12520   4.590   6.292   6.036
 3874SOL    HW112521   4.551   6.276   5.945
 3874SOL    HW212522   4.664   6.228   6.052
 3875SOL     OW12523   1.936   4.092   0.508
 3875SOL    HW112524   1.897   4.156   0.442
 3875SOL    HW212525   1.864   4.054   0.565
 3876SOL     OW12526   5.084   4.195   2.448
 3876SOL    HW112527   5.159   4.134   2.474
 3876SOL    HW212528   5.110   4.246   2.366
 3877SOL     OW12529   5.315   0.860   2.725
 3877SOL    HW112530   5.354   0.952   2.730
 3877SOL    HW212531   5.237   0.860   2.662
 3878SOL     OW12532   4.067   5.873   4.777
 3878SOL    HW112533   4.099   5.966   4.757
 3878SOL    HW212534   4.079   5.854   4.874
 3879SOL     OW12535   3.049   5.571   1.142
 3879SOL    HW112536   3.105   5.613   1.071
 3879SOL    HW212537   2.996   5.496   1.104
 3880SOL     OW12538   5.582   2.439   3.784
 3880SOL    HW112539   5.597   2.511   3.852
 3880SOL    HW212540   5.545   2.480   3.700
 3881SOL     OW12541   0.767   5.424   1.480
 3881SOL    HW112542   0.809   5.453   1.566
 3881SOL    HW212543   0.790   5.328   1.463
 3882SOL     OW12544   0.611   6.758   6.595
 3882SOL    HW112545   0.625   6.840   6.651
 3882SOL    HW212546   0.617   6.677   6.652
 3883SOL     OW12547   3.250   1.185   6.098
 3883SOL    HW112548   3.176   1.248   6.072
 3883SOL    HW212549   3.323   1.237   6.143
 3884SOL     OW12550   1.318   4.841   5.592
 3884SOL    HW112551   1.370   4.920   5.623
 3884SOL    HW212552   1.252   4.869   5.522
 3885SOL     OW12553   0.148   1.854   5.229
 3885SOL    HW112554   0.149   1.866   5.130
 3885SOL    HW212555   0.057   1.821   5.258
 3886SOL     OW12556   0.088   5.564   4.865
 3886SOL    HW112557   0.144   5.504   4.923
 3886SOL    HW212558   0.089   5.657   4.903
 3887SOL     OW12559   5.193   3.211   5.627
 3887SOL    HW112560   5.186   3.133   5.689
 3887SOL    HW212561   5.204   3.295   5.679
 3888SOL     OW12562   5.007   2.173   1.907
 3888SOL    HW112563   5.080   2.228   1.866
 3888SOL    HW212564   4.919   2.202   1.870
 3889SOL     OW12565   0.179   5.431   0.328
 3889SOL    HW112566   0.102   5.393   0.275
 3889SOL    HW212567   0.150   5.517   0.370
 3890SOL     OW12568   6.534   3.630   2.187
 3890SOL    HW112569   6.470   3.629   2.264
 3890SOL    HW212570   6.622   3.667   2.217
 3891SOL     OW12571   5.788   5.186   6.268
 3891SOL    HW112572   5.767   5.097   6.227
 3891SOL    HW212573   5.725   5.255   6.233
 3892SOL     OW12574   5.637   6.002   3.963
 3892SOL    HW112575   5.556   6.027   4.015
 3892SOL    HW212576   5.706   5.963   4.024
 3893SOL     OW12577   2.992   6.152   4.137
 3893SOL    HW112578   3.006   6.163   4.038
 3893SOL    HW212579   2.942   6.067   4.154
 3894SOL     OW12580   4.775   5.325   6.487
 3894SOL    HW112581   4.841   5.343   6.414
 3894SOL    HW212582   4.721   5.408   6.504
 3895SOL     OW12583   1.842   1.695   6.048
 3895SOL    HW112584   1.748   1.662   6.039
 3895SOL    HW212585   1.863   1.759   5.974
 3896SOL     OW12586   6.637   2.459   6.369
 3896SOL    HW112587   6.540   2.481   6.361
 3896SOL    HW212588   6.692   2.533   6.330
 3897SOL     OW12589   3.525   6.639   2.887
 3897SOL    HW112590   3.449   6.652   2.822
 3897SOL    HW212591   3.489   6.603   2.973
 3898SOL     OW12592   3.531   3.377   5.007
 3898SOL    HW112593   3.451   3.322   4.983
 3898SOL    HW212594   3.614   3.327   4.982
 3899SOL     OW12595   5.181   1.943   4.658
 3899SOL    HW112596   5.103   1.973   4.714
 3899SOL    HW212597   5.182   1.994   4.572
 3900SOL     OW12598   6.434   2.510   4.299
 3900SOL    HW112599   6.422   2.420   4.258
 3900SOL    HW212600   6.503   2.505   4.371
 3901SOL     OW12601   2.553   5.262   4.916
 3901SOL    HW112602   2.549   5.166   4.945
 3901SOL    HW212603   2.647   5.294   4.921
 3902SOL     OW12604   3.905   4.869   2.075
 3902SOL    HW112605   3.827   4.816   2.042
 3902SOL    HW212606   3.878   4.964   2.089
 3903SOL     OW12607   4.797   2.560   5.777
 3903SOL    HW112608   4.853   2.575   5.859
 3903SOL    HW212609   4.706   2.597   5.792
 3904SOL     OW12610   2.469   6.078   0.946
 3904SOL    HW112611   2.455   6.064   0.848
 3904SOL    HW212612   2.393   6.038   0.996
 3905SOL     OW12613   0.055   0.453   6.023
 3905SOL    HW112614   0.030   0.366   5.980
 3905SOL    HW212615   0.114   0.505   5.961
 3906SOL     OW12616   0.784   5.958   4.724
 3906SOL    HW112617   0.730   6.025   4.673
 3906SOL    HW212618   0.830   5.897   4.660
 3907SOL     OW12619   1.076   1.683   5.146
 3907SOL    HW112620   0.977   1.673   5.150
 3907SOL    HW212621   1.104   1.763   5.199
 3908SOL     OW12622   2.136   1.024   4.536
 3908SOL    HW112623   2.122   1.062   4.444
 3908SOL    HW212624   2.225   0.980   4.541
 3909SOL     OW12625   5.017   3.062   1.256
 3909SOL    HW112626   5.103   3.109   1.233
 3909SOL    HW212627   5.036   2.965   1.273
 3910SOL     OW12628   3.401   2.008   1.238
 3910SOL    HW112629   3.305   1.980   1.235
 3910SOL    HW212630   3.423   2.058   1.155
 3911SOL     OW12631   0.096   0.464   1.432
 3911SOL    HW112632   0.134   0.447   1.524
 3911SOL    HW212633   7.024   0.475   1.438
 3912SOL     OW12634   3.901   3.580   6.853
 3912SOL    HW112635   3.814   3.592   6.901
 3912SOL    HW212636   3.975   3.567   6.918
 3913SOL     OW12637   4.183   5.747   1.531
 3913SOL    HW112638   4.156   5.712   1.620
 3913SOL    HW212639   4.107   5.796   1.490
 3914SOL     OW12640   6.780   1.784   6.891
 3914SOL    HW112641   6.733   1.800   6.804
 3914SOL    HW212642   6.806   1.872   6.932
 3915SOL     OW12643   5.657   0.171   5.416
 3915SOL    HW112644   5.557   0.160   5.415
 3915SOL    HW212645   5.696   0.120   5.339
 3916SOL     OW12646   1.794   2.259   2.748
 3916SOL    HW112647   1.833   2.194   2.812
 3916SOL    HW212648   1.711   2.221   2.707
 3917SOL     OW12649   3.646   4.790   1.582
 3917SOL    HW112650   3.611   4.711   1.530
 3917SOL    HW212651   3.643   4.769   1.679
 3918SOL     OW12652   5.334   0.587   6.814
 3918SOL    HW112653   5.267   0.615   6.745
 3918SOL    HW212654   5.287   0.564   6.899
 3919SOL     OW12655   4.458   6.350   2.633
 3919SOL    HW112656   4.549   6.319   2.662
 3919SOL    HW212657   4.438   6.438   2.676
 3920SOL     OW12658   3.435   1.130   5.443
 3920SOL    HW112659   3.381   1.118   5.359
 3920SOL    HW212660   3.447   1.228   5.461
 3921SOL     OW12661   1.521   2.651   6.132
 3921SOL    HW112662   1.469   2.569   6.109
 3921SOL    HW212663   1.604   2.624   6.181
 3922SOL     OW12664   5.094   4.237   3.193
 3922SOL    HW112665   5.127   4.328   3.218
 3922SOL    HW212666   5.081   4.182   3.275
 3923SOL     OW12667   5.131   1.460   1.596
 3923SOL    HW112668   5.040   1.489   1.625
 3923SOL    HW212669   5.168   1.527   1.531
 3924SOL     OW12670   5.187   5.084   4.169
 3924SOL    HW112671   5.237   5.069   4.254
 3924SOL    HW212672   5.150   5.177   4.169
 3925SOL     OW12673   5.207   4.955   0.923
 3925SOL    HW112674   5.224   4.890   0.998
 3925SOL    HW212675   5.109   4.978   0.922
 3926SOL     OW12676   0.845   5.465   5.019
 3926SOL    HW112677   0.761   5.415   5.037
 3926SOL    HW212678   0.920   5.400   5.003
 3927SOL     OW12679   5.720   1.190   5.603
 3927SOL    HW112680   5.808   1.236   5.609
 3927SOL    HW212681   5.647   1.259   5.608
 3928SOL     OW12682   3.469   5.545   2.473
 3928SOL    HW112683   3.502   5.538   2.379
 3928SOL    HW212684   3.402   5.474   2.490
 3929SOL     OW12685   1.010   1.527   5.941
 3929SOL    HW112686   1.095   1.570   5.973
 3929SOL    HW212687   0.993   1.444   5.995
 3930SOL     OW12688   1.649   4.691   3.489
 3930SOL    HW112689   1.620   4.673   3.583
 3930SOL    HW212690   1.693   4.610   3.451
 3931SOL     OW12691   0.973   2.576   0.381
 3931SOL    HW112692   1.064   2.616   0.390
 3931SOL    HW212693   0.959   2.546   0.286
 3932SOL     OW12694   2.379   4.468   3.111
 3932SOL    HW112695   2.336   4.550   3.148
 3932SOL    HW212696   2.456   4.495   3.052
 3933SOL     OW12697   1.948   6.433   1.131
 3933SOL    HW112698   1.953   6.529   1.158
 3933SOL    HW212699   1.876   6.387   1.183
 3934SOL     OW12700   1.913   0.088   1.141
 3934SOL    HW112701   1.960   0.135   1.066
 3934SOL    HW212702   1.887   0.155   1.211
 3935SOL     OW12703   6.915   3.788   5.174
 3935SOL    HW112704   6.919   3.814   5.270
 3935SOL    HW212705   6.960   3.859   5.119
 3936SOL     OW12706   7.012   4.068   5.008
 3936SOL    HW112707   0.013   4.150   4.959
 3936SOL    HW212708   6.995   3.994   4.943
 3937SOL     OW12709   0.539   6.221   0.834
 3937SOL    HW112710   0.504   6.130   0.814
 3937SOL    HW212711   0.625   6.214   0.883
 3938SOL     OW12712   0.870   3.272   1.176
 3938SOL    HW112713   0.956   3.302   1.135
 3938SOL    HW212714   0.889   3.219   1.258
 3939SOL     OW12715   1.133   6.848   3.155
 3939SOL    HW112716   1.123   6.760   3.203
 3939SOL    HW212717   1.196   6.837   3.079
 3940SOL     OW12718   3.146   6.029   0.192
 3940SOL    HW112719   3.135   5.958   0.122
 3940SOL    HW212720   3.238   6.068   0.185
 3941SOL     OW12721   5.056   5.763   2.241
 3941SOL    HW112722   4.977   5.732   2.190
 3941SOL    HW212723   5.035   5.850   2.286
 3942SOL     OW12724   0.051   6.220   6.044
 3942SOL    HW112725   7.010   6.284   6.080
 3942SOL    HW212726   0.143   6.253   6.065
 3943SOL     OW12727   1.948   2.889   0.458
 3943SOL    HW112728   2.018   2.863   0.392
 3943SOL    HW212729   1.991   2.907   0.547
 3944SOL     OW12730   4.345   3.107   6.408
 3944SOL    HW112731   4.317   3.201   6.427
 3944SOL    HW212732   4.396   3.105   6.321
 3945SOL     OW12733   5.743   0.541   3.705
 3945SOL    HW112734   5.650   0.506   3.693
 3945SOL    HW212735   5.804   0.466   3.730
 3946SOL     OW12736   0.084   4.218   0.677
 3946SOL    HW112737   0.155   4.148   0.688
 3946SOL    HW212738   0.127   4.308   0.665
 3947SOL     OW12739   5.586   5.992   1.664
 3947SOL    HW112740   5.567   6.090   1.673
 3947SOL    HW212741   5.674   5.979   1.618
 3948SOL     OW12742   1.758   2.755   5.300
 3948SOL    HW112743   1.722   2.706   5.220
 3948SOL    HW212744   1.856   2.735   5.309
 3949SOL     OW12745   6.315   0.321   2.049
 3949SOL    HW112746   6.230   0.352   2.091
 3949SOL    HW212747   6.309   0.333   1.950
 3950SOL     OW12748   2.931   4.395   1.656
 3950SOL    HW112749   2.953   4.469   1.591
 3950SOL    HW212750   2.930   4.432   1.749
 3951SOL     OW12751   0.561   2.606   4.827
 3951SOL    HW112752   0.649   2.574   4.793
 3951SOL    HW212753   0.574   2.659   4.910
 3952SOL     OW12754   5.779   3.707   0.299
 3952SOL    HW112755   5.851   3.654   0.254
 3952SOL    HW212756   5.700   3.648   0.317
 3953SOL     OW12757   3.121   3.945   6.556
 3953SOL    HW112758   3.042   3.929   6.497
 3953SOL    HW212759   3.189   3.873   6.542
 3954SOL     OW12760   0.680   3.346   5.260
 3954SOL    HW112761   0.715   3.259   5.294
 3954SOL    HW212762   0.584   3.336   5.234
 3955SOL     OW12763   6.500   3.694   0.571
 3955SOL    HW112764   6.428   3.626   0.578
 3955SOL    HW212765   6.559   3.673   0.493
 3956SOL     OW12766   6.653   2.821   5.725
 3956SOL    HW112767   6.697   2.789   5.809
 3956SOL    HW212768   6.684   2.914   5.705
 3957SOL     OW12769   0.901   1.782   1.909
 3957SOL    HW112770   0.812   1.789   1.953
 3957SOL    HW212771   0.910   1.855   1.840
 3958SOL     OW12772   5.599   6.997   0.439
 3958SOL    HW112773   5.503   6.993   0.468
 3958SOL    HW212774   5.637   0.059   0.463
 3959SOL     OW12775   2.265   5.950   1.296
 3959SOL    HW112776   2.343   5.898   1.261
 3959SOL    HW212777   2.197   5.888   1.334
 3960SOL     OW12778   5.414   3.400   1.339
 3960SOL    HW112779   5.317   3.415   1.317
 3960SOL    HW212780   5.464   3.382   1.255
 3961SOL     OW12781   6.207   0.148   1.194
 3961SOL    HW112782   6.193   0.247   1.196
 3961SOL    HW212783   6.280   0.123   1.257
 3962SOL     OW12784   0.421   6.078   5.832
 3962SOL    HW112785   0.409   6.122   5.742
 3962SOL    HW212786   0.387   5.984   5.828
 3963SOL     OW12787   4.709   4.691   3.055
 3963SOL    HW112788   4.646   4.614   3.062
 3963SOL    HW212789   4.695   4.754   3.132
 3964SOL     OW12790   5.809   5.815   6.769
 3964SOL    HW112791   5.735   5.860   6.819
 3964SOL    HW212792   5.867   5.885   6.726
 3965SOL     OW12793   3.635   3.804   0.784
 3965SOL    HW112794   3.602   3.720   0.742
 3965SOL    HW212795   3.562   3.872   0.786
 3966SOL     OW12796   6.343   3.857   5.350
 3966SOL    HW112797   6.288   3.849   5.267
 3966SOL    HW212798   6.437   3.877   5.326
 3967SOL     OW12799   1.766   6.755   6.638
 3967SOL    HW112800   1.856   6.797   6.635
 3967SOL    HW212801   1.758   6.689   6.564
 3968SOL     OW12802   4.992   1.849   0.737
 3968SOL    HW112803   4.943   1.895   0.811
 3968SOL    HW212804   4.972   1.896   0.650
 3969SOL     OW12805   0.622   5.947   1.169
 3969SOL    HW112806   0.699   5.945   1.233
 3969SOL    HW212807   0.570   5.862   1.177
 3970SOL     OW12808   4.991   4.049   4.404
 3970SOL    HW112809   5.035   3.972   4.357
 3970SOL    HW212810   4.938   4.014   4.481
 3971SOL     OW12811   0.402   6.124   3.948
 3971SOL    HW112812   0.305   6.103   3.931
 3971SOL    HW212813   0.444   6.157   3.863
 3972SOL     OW12814   0.765   0.236   6.930
 3972SOL    HW112815   0.795   0.203   6.840
 3972SOL    HW212816   0.841   0.281   6.977
 3973SOL     OW12817   3.079   3.092   3.739
 3973SOL    HW112818   3.067   3.176   3.793
 3973SOL    HW212819   3.003   3.082   3.675
 3974SOL     OW12820   5.894   0.566   6.596
 3974SOL    HW112821   5.931   0.473   6.597
 3974SOL    HW212822   5.798   0.564   6.570
 3975SOL     OW12823   6.835   6.025   5.130
 3975SOL    HW112824   6.840   6.095   5.059
 3975SOL    HW212825   6.843   5.935   5.088
 3976SOL     OW12826   0.869   2.851   6.767
 3976SOL    HW112827   0.949   2.828   6.711
 3976SOL    HW212828   0.813   2.918   6.719
 3977SOL     OW12829   3.137   5.742   4.964
 3977SOL    HW112830   3.226   5.768   4.926
 3977SOL    HW212831   3.073   5.817   4.951
 3978SOL     OW12832   6.550   4.384   6.767
 3978SOL    HW112833   6.531   4.336   6.853
 3978SOL    HW212834   6.467   4.385   6.711
 3979SOL     OW12835   1.159   6.615   3.309
 3979SOL    HW112836   1.250   6.578   3.291
 3979SOL    HW212837   1.113   6.560   3.378
 3980SOL     OW12838   4.891   3.717   4.784
 3980SOL    HW112839   4.892   3.668   4.697
 3980SOL    HW212840   4.845   3.662   4.853
 3981SOL     OW12841   6.668   1.741   5.706
 3981SOL    HW112842   6.602   1.686   5.759
 3981SOL    HW212843   6.711   1.684   5.637
 3982SOL     OW12844   2.306   2.965   4.163
 3982SOL    HW112845   2.386   2.911   4.136
 3982SOL    HW212846   2.278   2.939   4.255
 3983SOL     OW12847   3.028   6.970   3.680
 3983SOL    HW112848   3.118   6.993   3.644
 3983SOL    HW212849   2.959   0.001   3.636
 3984SOL     OW12850   1.415   6.859   2.034
 3984SOL    HW112851   1.415   6.764   2.003
 3984SOL    HW212852   1.443   6.918   1.959
 3985SOL     OW12853   1.802   2.980   1.685
 3985SOL    HW112854   1.791   3.074   1.655
 3985SOL    HW212855   1.784   2.973   1.783
 3986SOL     OW12856   1.806   1.905   1.628
 3986SOL    HW112857   1.737   1.865   1.688
 3986SOL    HW212858   1.875   1.837   1.605
 3987SOL     OW12859   1.269   4.046   5.755
 3987SOL    HW112860   1.300   3.953   5.774
 3987SOL    HW212861   1.345   4.100   5.720
 3988SOL     OW12862   5.005   0.505   0.215
 3988SOL    HW112863   5.018   0.532   0.119
 3988SOL    HW212864   5.036   0.411   0.228
 3989SOL     OW12865   4.314   0.690   5.906
 3989SOL    HW112866   4.367   0.689   5.991
 3989SOL    HW212867   4.275   0.781   5.893
 3990SOL     OW12868   0.596   2.100   3.964
 3990SOL    HW112869   0.666   2.070   3.900
 3990SOL    HW212870   0.518   2.037   3.961
 3991SOL     OW12871   0.832   1.266   3.772
 3991SOL    HW112872   0.931   1.258   3.772
 3991SOL    HW212873   0.800   1.285   3.865
 3992SOL     OW12874   6.033   4.071   6.689
 3992SOL    HW112875   5.935   4.078   6.711
 3992SOL    HW212876   6.087   4.103   6.766
 3993SOL     OW12877   1.925   0.651   4.391
 3993SOL    HW112878   1.919   0.704   4.306
 3993SOL    HW212879   1.885   0.561   4.376
 3994SOL     OW12880   2.380   2.217   2.860
 3994SOL    HW112881   2.390   2.162   2.942
 3994SOL    HW212882   2.299   2.188   2.809
 3995SOL     OW12883   1.239   3.347   2.445
 3995SOL    HW112884   1.250   3.431   2.391
 3995SOL    HW212885   1.243   3.370   2.542
 3996SOL     OW12886   5.657   6.701   4.468
 3996SOL    HW112887   5.568   6.681   4.509
 3996SOL    HW212888   5.727   6.645   4.511
 3997SOL     OW12889   4.825   3.930   2.774
 3997SOL    HW112890   4.848   3.977   2.689
 3997SOL    HW212891   4.755   3.861   2.756
 3998SOL     OW12892   5.267   2.268   2.851
 3998SOL    HW112893   5.225   2.190   2.896
 3998SOL    HW212894   5.363   2.247   2.831
 3999SOL     OW12895   4.280   3.071   1.210
 3999SOL    HW112896   4.327   3.061   1.298
 3999SOL    HW212897   4.200   3.131   1.222
 4000SOL     OW12898   2.635   5.353   2.627
 4000SOL    HW112899   2.724   5.359   2.583
 4000SOL    HW212900   2.575   5.292   2.576
 4001SOL     OW12901   1.073   5.276   3.929
 4001SOL    HW112902   1.016   5.355   3.905
 4001SOL    HW212903   1.049   5.245   4.021
 4002SOL     OW12904   3.563   4.186   3.685
 4002SOL    HW112905   3.509   4.104   3.671
 4002SOL    HW212906   3.525   4.261   3.632
 4003SOL     OW12907   1.713   0.865   5.450
 4003SOL    HW112908   1.731   0.833   5.544
 4003SOL    HW212909   1.620   0.841   5.424
 4004SOL     OW12910   0.981   3.214   3.999
 4004SOL    HW112911   1.058   3.231   3.938
 4004SOL    HW212912   0.926   3.297   4.007
 4005SOL     OW12913   4.957   2.620   0.204
 4005SOL    HW112914   5.023   2.557   0.164
 4005SOL    HW212915   5.000   2.672   0.278
 4006SOL     OW12916   6.411   5.690   2.433
 4006SOL    HW112917   6.493   5.747   2.435
 4006SOL    HW212918   6.416   5.621   2.505
 4007SOL     OW12919   6.816   0.608   2.472
 4007SOL    HW112920   6.798   0.701   2.501
 4007SOL    HW212921   6.915   0.593   2.465
 4008SOL     OW12922   2.802   1.364   0.570
 4008SOL    HW112923   2.887   1.323   0.605
 4008SOL    HW212924   2.749   1.295   0.522
 4009SOL     OW12925   4.791   2.100   0.926
 4009SOL    HW112926   4.869   2.042   0.951
 4009SOL    HW212927   4.819   2.196   0.930
 4010SOL     OW12928   2.089   5.687   1.326
 4010SOL    HW112929   2.009   5.709   1.382
 4010SOL    HW212930   2.150   5.628   1.378
 4011SOL     OW12931   5.283   6.394   6.077
 4011SOL    HW112932   5.248   6.426   6.165
 4011SOL    HW212933   5.250   6.301   6.059
 4012SOL     OW12934   4.776   6.530   2.650
 4012SOL    HW112935   4.676   6.530   2.651
 4012SOL    HW212936   4.808   6.490   2.564
 4013SOL     OW12937   0.052   1.227   5.862
 4013SOL    HW112938   6.984   1.257   5.858
 4013SOL    HW212939   0.085   1.206   5.770
 4014SOL     OW12940   3.194   4.870   2.528
 4014SOL    HW112941   3.208   4.967   2.514
 4014SOL    HW212942   3.161   4.828   2.443
 4015SOL     OW12943   4.450   5.353   5.864
 4015SOL    HW112944   4.368   5.316   5.820
 4015SOL    HW212945   4.468   5.445   5.829
 4016SOL     OW12946   4.860   5.305   5.120
 4016SOL    HW112947   4.959   5.314   5.125
 4016SOL    HW212948   4.822   5.385   5.073
 4017SOL     OW12949   1.067   4.978   5.889
 4017SOL    HW112950   0.983   5.028   5.904
 4017SOL    HW212951   1.046   4.887   5.851
 4018SOL     OW12952   3.900   5.749   0.996
 4018SOL    HW112953   3.862   5.769   0.905
 4018SOL    HW212954   3.995   5.781   1.000
 4019SOL     OW12955   5.345   4.345   2.489
 4019SOL    HW112956   5.322   4.250   2.510
 4019SOL    HW212957   5.279   4.405   2.533
 4020SOL     OW12958   0.175   5.266   4.553
 4020SOL    HW112959   0.103   5.309   4.608
 4020SOL    HW212960   0.262   5.272   4.602
 4021SOL     OW12961   4.555   3.801   5.901
 4021SOL    HW112962   4.646   3.769   5.928
 4021SOL    HW212963   4.555   3.821   5.803
 4022SOL     OW12964   2.369   0.158   1.744
 4022SOL    HW112965   2.386   0.187   1.650
 4022SOL    HW212966   2.357   0.059   1.747
 4023SOL     OW12967   0.400   1.239   4.482
 4023SOL    HW112968   0.371   1.308   4.548
 4023SOL    HW212969   0.406   1.281   4.391
 4024SOL     OW12970   0.893   6.480   4.492
 4024SOL    HW112971   0.910   6.418   4.569
 4024SOL    HW212972   0.957   6.557   4.496
 4025SOL     OW12973   0.158   5.402   3.275
 4025SOL    HW112974   0.136   5.308   3.246
 4025SOL    HW212975   0.248   5.403   3.319
 4026SOL     OW12976   0.137   0.134   4.034
 4026SOL    HW112977   0.122   0.156   4.130
 4026SOL    HW212978   0.194   0.052   4.027
 4027SOL     OW12979   3.088   4.472   5.723
 4027SOL    HW112980   3.160   4.525   5.678
 4027SOL    HW212981   3.108   4.374   5.713
 4028SOL     OW12982   5.171   1.419   3.492
 4028SOL    HW112983   5.206   1.325   3.494
 4028SOL    HW212984   5.185   1.458   3.401
 4029SOL     OW12985   1.645   6.253   0.115
 4029SOL    HW112986   1.726   6.199   0.137
 4029SOL    HW212987   1.650   6.284   0.020
 4030SOL     OW12988   6.896   1.327   2.563
 4030SOL    HW112989   6.969   1.390   2.589
 4030SOL    HW212990   6.814   1.346   2.617
 4031SOL     OW12991   6.225   5.854   0.042
 4031SOL    HW112992   6.170   5.776   0.071
 4031SOL    HW212993   6.245   5.846   6.971
 4032SOL     OW12994   4.916   0.794   2.374
 4032SOL    HW112995   4.886   0.853   2.449
 4032SOL    HW212996   4.917   0.846   2.289
 4033SOL     OW12997   1.904   2.600   2.326
 4033SOL    HW112998   1.892   2.627   2.422
 4033SOL    HW212999   1.885   2.679   2.267
 4034SOL     OW13000   0.195   3.093   5.781
 4034SOL    HW113001   0.232   3.000   5.782
 4034SOL    HW213002   0.101   3.092   5.817
 4035SOL     OW13003   4.422   2.356   1.612
 4035SOL    HW113004   4.462   2.266   1.631
 4035SOL    HW213005   4.345   2.372   1.674
 4036SOL     OW13006   2.895   5.422   2.958
 4036SOL    HW113007   2.803   5.460   2.959
 4036SOL    HW213008   2.899   5.343   3.020
 4037SOL     OW13009   2.965   1.830   5.879
 4037SOL    HW113010   2.886   1.805   5.823
 4037SOL    HW213011   3.049   1.815   5.826
 4038SOL     OW13012   3.508   4.246   5.883
 4038SOL    HW113013   3.533   4.152   5.905
 4038SOL    HW213014   3.454   4.284   5.959
 4039SOL     OW13015   5.745   5.103   1.096
 4039SOL    HW113016   5.753   5.024   1.156
 4039SOL    HW213017   5.741   5.187   1.151
 4040SOL     OW13018   3.089   6.374   4.866
 4040SOL    HW113019   3.137   6.461   4.879
 4040SOL    HW213020   3.034   6.378   4.783
 4041SOL     OW13021   2.353   6.776   0.925
 4041SOL    HW113022   2.299   6.721   0.862
 4041SOL    HW213023   2.322   6.871   0.922
 4042SOL     OW13024   6.716   1.236   3.092
 4042SOL    HW113025   6.637   1.190   3.133
 4042SOL    HW213026   6.734   1.321   3.140
 4043SOL     OW13027   6.198   3.608   6.786
 4043SOL    HW113028   6.233   3.684   6.841
 4043SOL    HW213029   6.111   3.576   6.823
 4044SOL     OW13030   4.695   4.895   3.232
 4044SOL    HW113031   4.728   4.926   3.142
 4044SOL    HW213032   4.668   4.974   3.287
 4045SOL     OW13033   4.879   1.021   5.451
 4045SOL    HW113034   4.925   1.035   5.539
 4045SOL    HW213035   4.812   0.947   5.460
 4046SOL     OW13036   6.171   1.715   2.697
 4046SOL    HW113037   6.241   1.779   2.665
 4046SOL    HW213038   6.178   1.705   2.796
 4047SOL     OW13039   2.848   3.304   6.932
 4047SOL    HW113040   2.828   3.230   6.868
 4047SOL    HW213041   2.874   3.265   7.021
 4048SOL     OW13042   4.403   2.053   2.311
 4048SOL    HW113043   4.444   2.075   2.222
 4048SOL    HW213044   4.453   1.977   2.352
 4049SOL     OW13045   4.209   4.621   0.101
 4049SOL    HW113046   4.259   4.685   0.160
 4049SOL    HW213047   4.111   4.632   0.117
 4050SOL     OW13048   1.279   5.761   2.422
 4050SOL    HW113049   1.213   5.704   2.374
 4050SOL    HW213050   1.340   5.805   2.357
 4051SOL     OW13051   5.604   1.026   4.583
 4051SOL    HW113052   5.538   0.955   4.604
 4051SOL    HW213053   5.646   1.060   4.668
 4052SOL     OW13054   6.353   1.949   3.137
 4052SOL    HW113055   6.275   2.000   3.173
 4052SOL    HW213056   6.347   1.854   3.166
 4053SOL     OW13057   1.554   5.348   4.462
 4053SOL    HW113058   1.464   5.391   4.460
 4053SOL    HW213059   1.572   5.304   4.374
 4054SOL     OW13060   3.942   4.283   1.150
 4054SOL    HW113061   3.863   4.327   1.192
 4054SOL    HW213062   3.915   4.195   1.110
 4055SOL     OW13063   0.745   4.565   1.182
 4055SOL    HW113064   0.775   4.547   1.088
 4055SOL    HW213065   0.687   4.489   1.214
 4056SOL     OW13066   5.234   3.454   0.537
 4056SOL    HW113067   5.299   3.385   0.569
 4056SOL    HW213068   5.142   3.428   0.567
 4057SOL     OW13069   0.187   3.923   0.243
 4057SOL    HW113070   0.117   3.919   0.314
 4057SOL    HW213071   0.179   3.843   0.184
 4058SOL     OW13072   3.031   0.221   6.103
 4058SOL    HW113073   3.000   0.127   6.118
 4058SOL    HW213074   3.091   0.223   6.022
 4059SOL     OW13075   0.506   1.846   3.848
 4059SOL    HW113076   0.466   1.865   3.758
 4059SOL    HW213077   0.604   1.866   3.845
 4060SOL     OW13078   5.909   6.011   5.125
 4060SOL    HW113079   5.875   5.920   5.147
 4060SOL    HW213080   5.949   6.011   5.033
 4061SOL     OW13081   1.540   5.212   0.714
 4061SOL    HW113082   1.472   5.246   0.780
 4061SOL    HW213083   1.627   5.259   0.729
 4062SOL     OW13084   1.627   2.409   1.059
 4062SOL    HW113085   1.622   2.494   1.008
 4062SOL    HW213086   1.709   2.358   1.031
 4063SOL     OW13087   4.618   0.765   6.983
 4063SOL    HW113088   4.582   0.831   0.022
 4063SOL    HW213089   4.717   0.775   6.976
 4064SOL     OW13090   2.065   1.585   5.528
 4064SOL    HW113091   2.105   1.676   5.530
 4064SOL    HW213092   1.966   1.591   5.528
 4065SOL     OW13093   2.871   6.742   1.007
 4065SOL    HW113094   2.867   6.679   1.084
 4065SOL    HW213095   2.797   6.721   0.943
 4066SOL     OW13096   0.353   3.986   3.614
 4066SOL    HW113097   0.260   3.957   3.594
 4066SOL    HW213098   0.414   3.958   3.540
 4067SOL     OW13099   5.410   4.867   0.532
 4067SOL    HW113100   5.375   4.936   0.595
 4067SOL    HW213101   5.372   4.882   0.441
 4068SOL     OW13102   2.141   2.829   5.000
 4068SOL    HW113103   2.126   2.756   5.067
 4068SOL    HW213104   2.228   2.874   5.019
 4069SOL     OW13105   4.587   6.770   6.581
 4069SOL    HW113106   4.682   6.775   6.550
 4069SOL    HW213107   4.546   6.861   6.576
 4070SOL     OW13108   1.148   2.708   3.550
 4070SOL    HW113109   1.067   2.657   3.522
 4070SOL    HW213110   1.230   2.665   3.511
 4071SOL     OW13111   1.273   0.369   4.014
 4071SOL    HW113112   1.308   0.318   4.092
 4071SOL    HW213113   1.175   0.384   4.025
 4072SOL     OW13114   2.390   6.035   2.805
 4072SOL    HW113115   2.450   6.017   2.883
 4072SOL    HW213116   2.377   5.950   2.753
 4073SOL     OW13117   3.123   4.643   0.291
 4073SOL    HW113118   3.031   4.660   0.256
 4073SOL    HW213119   3.182   4.721   0.268
 4074SOL     OW13120   1.479   5.310   2.779
 4074SOL    HW113121   1.381   5.296   2.794
 4074SOL    HW213122   1.531   5.260   2.848
 4075SOL     OW13123   6.580   1.121   1.052
 4075SOL    HW113124   6.500   1.069   1.082
 4075SOL    HW213125   6.606   1.093   0.959
 4076SOL     OW13126   2.465   4.169   5.416
 4076SOL    HW113127   2.447   4.098   5.348
 4076SOL    HW213128   2.510   4.129   5.495
 4077SOL     OW13129   2.359   0.992   1.625
 4077SOL    HW113130   2.372   1.064   1.557
 4077SOL    HW213131   2.286   0.930   1.596
 4078SOL     OW13132   2.924   4.783   2.734
 4078SOL    HW113133   3.013   4.784   2.689
 4078SOL    HW213134   2.855   4.746   2.672
 4079SOL     OW13135   1.086   2.439   4.633
 4079SOL    HW113136   0.988   2.457   4.641
 4079SOL    HW213137   1.106   2.348   4.670
 4080SOL     OW13138   6.210   1.469   4.814
 4080SOL    HW113139   6.249   1.377   4.813
 4080SOL    HW213140   6.135   1.474   4.748
 4081SOL     OW13141   1.766   3.378   4.087
 4081SOL    HW113142   1.705   3.434   4.032
 4081SOL    HW213143   1.712   3.313   4.142
 4082SOL     OW13144   1.326   3.675   1.018
 4082SOL    HW113145   1.354   3.615   0.943
 4082SOL    HW213146   1.392   3.749   1.029
 4083SOL     OW13147   5.735   2.355   4.564
 4083SOL    HW113148   5.635   2.364   4.565
 4083SOL    HW213149   5.760   2.270   4.519
 4084SOL     OW13150   0.869   1.676   4.037
 4084SOL    HW113151   0.883   1.582   4.065
 4084SOL    HW213152   0.920   1.694   3.953
 4085SOL     OW13153   3.480   6.563   0.188
 4085SOL    HW113154   3.467   6.613   0.274
 4085SOL    HW213155   3.393   6.522   0.161
 4086SOL     OW13156   1.651   4.706   0.776
 4086SOL    HW113157   1.568   4.731   0.825
 4086SOL    HW213158   1.709   4.648   0.834
 4087SOL     OW13159   1.708   1.269   3.098
 4087SOL    HW113160   1.765   1.323   3.160
 4087SOL    HW213161   1.611   1.289   3.116
 4088SOL     OW13162   6.660   1.468   0.798
 4088SOL    HW113163   6.721   1.531   0.846
 4088SOL    HW213164   6.589   1.520   0.750
 4089SOL     OW13165   1.088   0.984   4.708
 4089SOL    HW113166   1.105   0.886   4.700
 4089SOL    HW213167   1.008   0.999   4.766
 4090SOL     OW13168   1.601   3.952   5.571
 4090SOL    HW113169   1.580   4.050   5.570
 4090SOL    HW213170   1.697   3.938   5.545
 4091SOL     OW13171   4.567   5.966   0.321
 4091SOL    HW113172   4.650   5.913   0.309
 4091SOL    HW213173   4.560   6.035   0.250
 4092SOL     OW13174   0.003   2.941   4.777
 4092SOL    HW113175   0.042   2.973   4.863
 4092SOL    HW213176   6.946   2.992   4.757
 4093SOL     OW13177   5.700   0.904   3.941
 4093SOL    HW113178   5.704   0.913   4.040
 4093SOL    HW213179   5.687   0.808   3.916
 4094SOL     OW13180   2.193   4.293   4.985
 4094SOL    HW113181   2.287   4.320   4.967
 4094SOL    HW213182   2.193   4.212   5.044
 4095SOL     OW13183   1.263   3.345   6.092
 4095SOL    HW113184   1.190   3.292   6.049
 4095SOL    HW213185   1.315   3.285   6.153
 4096SOL     OW13186   3.994   4.655   1.186
 4096SOL    HW113187   4.049   4.736   1.168
 4096SOL    HW213188   3.933   4.638   1.109
 4097SOL     OW13189   3.427   3.866   5.594
 4097SOL    HW113190   3.458   3.776   5.562
 4097SOL    HW213191   3.333   3.859   5.626
 4098SOL     OW13192   0.383   1.782   3.127
 4098SOL    HW113193   0.311   1.842   3.161
 4098SOL    HW213194   0.415   1.815   3.039
 4099SOL     OW13195   4.315   6.049   1.796
 4099SOL    HW113196   4.258   5.995   1.857
 4099SOL    HW213197   4.376   6.107   1.850
 4100SOL     OW13198   3.833   5.923   3.359
 4100SOL    HW113199   3.783   5.916   3.445
 4100SOL    HW213200   3.777   5.971   3.291
 4101SOL     OW13201   5.703   1.437   6.048
 4101SOL    HW113202   5.604   1.435   6.033
 4101SOL    HW213203   5.731   1.358   6.102
 4102SOL     OW13204   5.967   1.406   0.334
 4102SOL    HW113205   5.877   1.382   0.370
 4102SOL    HW213206   5.980   1.363   0.244
 4103SOL     OW13207   0.499   0.012   2.416
 4103SOL    HW113208   0.567   7.000   2.479
 4103SOL    HW213209   0.439   0.073   2.467
 4104SOL     OW13210   1.390   4.847   2.516
 4104SOL    HW113211   1.404   4.944   2.540
 4104SOL    HW213212   1.304   4.815   2.554
 4105SOL     OW13213   4.535   4.794   0.160
 4105SOL    HW113214   4.457   4.844   0.198
 4105SOL    HW213215   4.511   4.760   0.069
 4106SOL     OW13216   6.707   3.643   4.850
 4106SOL    HW113217   6.637   3.644   4.779
 4106SOL    HW213218   6.747   3.551   4.857
 4107SOL     OW13219   0.077   0.486   1.019
 4107SOL    HW113220   0.057   0.568   0.965
 4107SOL    HW213221   0.161   0.500   1.071
 4108SOL     OW13222   6.202   3.894   6.036
 4108SOL    HW113223   6.248   3.816   6.079
 4108SOL    HW213224   6.188   3.876   5.939
 4109SOL     OW13225   3.236   6.100   3.346
 4109SOL    HW113226   3.164   6.054   3.293
 4109SOL    HW213227   3.201   6.122   3.437
 4110SOL     OW13228   4.845   3.646   6.274
 4110SOL    HW113229   4.885   3.716   6.214
 4110SOL    HW213230   4.752   3.626   6.243
 4111SOL     OW13231   4.302   2.955   6.920
 4111SOL    HW113232   4.334   2.950   6.826
 4111SOL    HW213233   4.366   3.010   6.974
 4112SOL     OW13234   3.133   1.363   4.198
 4112SOL    HW113235   3.152   1.443   4.255
 4112SOL    HW213236   3.048   1.320   4.228
 4113SOL     OW13237   3.595   4.962   4.546
 4113SOL    HW113238   3.600   5.032   4.475
 4113SOL    HW213239   3.501   4.953   4.578
 4114SOL     OW13240   2.695   1.840   2.685
 4114SOL    HW113241   2.664   1.933   2.661
 4114SOL    HW213242   2.635   1.803   2.755
 4115SOL     OW13243   5.189   4.817   1.700
 4115SOL    HW113244   5.109   4.877   1.690
 4115SOL    HW213245   5.257   4.862   1.757
 4116SOL     OW13246   3.553   1.768   1.603
 4116SOL    HW113247   3.609   1.836   1.651
 4116SOL    HW213248   3.555   1.786   1.505
 4117SOL     OW13249   1.051   5.580   1.019
 4117SOL    HW113250   0.951   5.581   1.009
 4117SOL    HW213251   1.077   5.627   1.103
 4118SOL     OW13252   1.943   6.369   0.040
 4118SOL    HW113253   2.032   6.351   7.024
 4118SOL    HW213254   1.917   6.291   0.096
 4119SOL     OW13255   3.582   0.794   3.958
 4119SOL    HW113256   3.501   0.740   3.935
 4119SOL    HW213257   3.589   0.803   4.058
 4120SOL     OW13258   3.070   0.562   1.840
 4120SOL    HW113259   3.133   0.596   1.771
 4120SOL    HW213260   2.986   0.616   1.838
 4121SOL     OW13261   6.583   3.175   4.739
 4121SOL    HW113262   6.562   3.215   4.829
 4121SOL    HW213263   6.503   3.127   4.705
 4122SOL     OW13264   1.303   5.598   5.969
 4122SOL    HW113265   1.302   5.602   6.069
 4122SOL    HW213266   1.255   5.678   5.932
 4123SOL     OW13267   4.848   4.030   6.502
 4123SOL    HW113268   4.926   4.090   6.485
 4123SOL    HW213269   4.881   3.937   6.518
 4124SOL     OW13270   5.316   6.950   4.129
 4124SOL    HW113271   5.300   6.862   4.173
 4124SOL    HW213272   5.365   6.937   4.043
 4125SOL     OW13273   4.579   1.186   0.842
 4125SOL    HW113274   4.493   1.185   0.791
 4125SOL    HW213275   4.622   1.096   0.837
 4126SOL     OW13276   2.199   4.054   4.370
 4126SOL    HW113277   2.219   4.056   4.468
 4126SOL    HW213278   2.188   3.959   4.340
 4127SOL     OW13279   6.119   3.301   5.692
 4127SOL    HW113280   6.085   3.366   5.624
 4127SOL    HW213281   6.076   3.319   5.780
 4128SOL     OW13282   0.772   2.434   2.673
 4128SOL    HW113283   0.810   2.371   2.606
 4128SOL    HW213284   0.742   2.383   2.754
 4129SOL     OW13285   5.699   2.430   5.987
 4129SOL    HW113286   5.761   2.366   6.032
 4129SOL    HW213287   5.606   2.392   5.985
 4130SOL     OW13288   5.992   4.459   0.631
 4130SOL    HW113289   5.931   4.380   0.628
 4130SOL    HW213290   6.082   4.430   0.664
 4131SOL     OW13291   6.799   4.731   3.805
 4131SOL    HW113292   6.723   4.671   3.780
 4131SOL    HW213293   6.886   4.686   3.781
 4132SOL     OW13294   5.417   2.634   3.287
 4132SOL    HW113295   5.380   2.726   3.276
 4132SOL    HW213296   5.368   2.571   3.226
 4133SOL     OW13297   3.223   1.177   1.082
 4133SOL    HW113298   3.175   1.242   1.022
 4133SOL    HW213299   3.202   1.198   1.177
 4134SOL     OW13300   1.187   1.680   0.028
 4134SOL    HW113301   1.165   1.588   0.060
 4134SOL    HW213302   1.234   1.731   0.100
 4135SOL     OW13303   1.626   0.920   1.847
 4135SOL    HW113304   1.710   0.968   1.870
 4135SOL    HW213305   1.563   0.983   1.802
 4136SOL     OW13306   0.335   2.089   4.000
 4136SOL    HW113307   0.344   1.996   4.035
 4136SOL    HW213308   0.404   2.148   4.042
 4137SOL     OW13309   2.997   4.409   6.539
 4137SOL    HW113310   3.040   4.331   6.586
 4137SOL    HW213311   3.057   4.440   6.465
 4138SOL     OW13312   4.062   4.868   3.379
 4138SOL    HW113313   4.162   4.861   3.373
 4138SOL    HW213314   4.022   4.853   3.288
 4139SOL     OW13315   2.108   1.985   6.712
 4139SOL    HW113316   2.180   2.046   6.745
 4139SOL    HW213317   2.031   2.039   6.679
 4140SOL     OW13318   5.012   1.017   5.086
 4140SOL    HW113319   4.944   1.063   5.030
 4140SOL    HW213320   5.042   1.077   5.160
 4141SOL     OW13321   5.421   5.636   0.272
 4141SOL    HW113322   5.457   5.598   0.358
 4141SOL    HW213323   5.496   5.678   0.221
 4142SOL     OW13324   0.286   4.454   1.649
 4142SOL    HW113325   0.296   4.426   1.745
 4142SOL    HW213326   0.375   4.484   1.615
 4143SOL     OW13327   6.769   3.100   1.232
 4143SOL    HW113328   6.783   3.075   1.136
 4143SOL    HW213329   6.824   3.040   1.291
 4144SOL     OW13330   4.842   1.009   2.534
 4144SOL    HW113331   4.751   1.029   2.498
 4144SOL    HW213332   4.843   1.023   2.633
 4145SOL     OW13333   1.724   6.732   2.304
 4145SOL    HW113334   1.658   6.656   2.307
 4145SOL    HW213335   1.808   6.700   2.261
 4146SOL     OW13336   4.810   6.691   0.243
 4146SOL    HW113337   4.787   6.644   0.328
 4146SOL    HW213338   4.887   6.644   0.199
 4147SOL     OW13339   3.900   1.725   5.604
 4147SOL    HW113340   3.937   1.814   5.576
 4147SOL    HW213341   3.972   1.656   5.600
 4148SOL     OW13342   6.375   0.881   3.545
 4148SOL    HW113343   6.342   0.804   3.599
 4148SOL    HW213344   6.396   0.958   3.606
 4149SOL     OW13345   6.055   3.913   2.385
 4149SOL    HW113346   6.020   4.006   2.374
 4149SOL    HW213347   6.002   3.851   2.328
 4150SOL     OW13348   5.742   0.402   6.852
 4150SOL    HW113349   5.838   0.388   6.827
 4150SOL    HW213350   5.687   0.416   6.770
 4151SOL     OW13351   0.632   5.355   1.044
 4151SOL    HW113352   0.696   5.429   1.023
 4151SOL    HW213353   0.555   5.358   0.981
 4152SOL     OW13354   4.069   4.598   1.640
 4152SOL    HW113355   4.000   4.567   1.705
 4152SOL    HW213356   4.159   4.594   1.683
 4153SOL     OW13357   6.244   4.894   5.997
 4153SOL    HW113358   6.302   4.829   6.047
 4153SOL    HW213359   6.228   4.974   6.053
 4154SOL     OW13360   5.591   2.656   5.879
 4154SOL    HW113361   5.642   2.578   5.915
 4154SOL    HW213362   5.593   2.654   5.779
 4155SOL     OW13363   1.175   3.133   1.548
 4155SOL    HW113364   1.237   3.202   1.585
 4155SOL    HW213365   1.184   3.048   1.601
 4156SOL     OW13366   5.758   6.870   5.475
 4156SOL    HW113367   5.818   6.858   5.396
 4156SOL    HW213368   5.786   6.807   5.548
 4157SOL     OW13369   3.344   0.515   4.809
 4157SOL    HW113370   3.342   0.505   4.709
 4157SOL    HW213371   3.397   0.597   4.833
 4158SOL     OW13372   0.909   6.417   3.883
 4158SOL    HW113373   0.992   6.465   3.911
 4158SOL    HW213374   0.897   6.335   3.938
 4159SOL     OW13375   1.040   2.819   5.103
 4159SOL    HW113376   1.059   2.835   5.006
 4159SOL    HW213377   1.115   2.856   5.158
 4160SOL     OW13378   0.656   0.830   1.605
 4160SOL    HW113379   0.751   0.818   1.575
 4160SOL    HW213380   0.653   0.831   1.705
 4161SOL     OW13381   6.139   1.729   0.670
 4161SOL    HW113382   6.087   1.813   0.685
 4161SOL    HW213383   6.100   1.680   0.592
 4162SOL     OW13384   5.891   0.029   5.228
 4162SOL    HW113385   5.863   0.120   5.199
 4162SOL    HW213386   5.976   0.036   5.282
 4163SOL     OW13387   5.599   1.190   4.310
 4163SOL    HW113388   5.527   1.172   4.243
 4163SOL    HW213389   5.577   1.142   4.395
 4164SOL     OW13390   1.976   0.031   6.671
 4164SOL    HW113391   1.953   7.018   6.759
 4164SOL    HW213392   2.010   6.987   6.609
 4165SOL     OW13393   3.866   6.655   1.882
 4165SOL    HW113394   3.772   6.631   1.909
 4165SOL    HW213395   3.929   6.626   1.954
 4166SOL     OW13396   5.600   2.753   0.971
 4166SOL    HW113397   5.636   2.685   0.908
 4166SOL    HW213398   5.503   2.734   0.990
 4167SOL     OW13399   2.423   2.884   1.238
 4167SOL    HW113400   2.489   2.824   1.194
 4167SOL    HW213401   2.369   2.931   1.168
 4168SOL     OW13402   1.417   5.392   1.344
 4168SOL    HW113403   1.494   5.418   1.401
 4168SOL    HW213404   1.391   5.469   1.286
 4169SOL     OW13405   5.405   3.153   4.273
 4169SOL    HW113406   5.342   3.223   4.240
 4169SOL    HW213407   5.354   3.071   4.298
 4170SOL     OW13408   4.411   3.053   5.634
 4170SOL    HW113409   4.420   2.998   5.551
 4170SOL    HW213410   4.496   3.049   5.686
 4171SOL     OW13411   5.491   3.470   1.873
 4171SOL    HW113412   5.504   3.481   1.774
 4171SOL    HW213413   5.484   3.560   1.916
 4172SOL     OW13414   0.914   2.112   0.579
 4172SOL    HW113415   0.934   2.016   0.596
 4172SOL    HW213416   0.960   2.142   0.495
 4173SOL     OW13417   5.149   3.434   4.776
 4173SOL    HW113418   5.177   3.506   4.839
 4173SOL    HW213419   5.067   3.388   4.811
 4174SOL     OW13420   4.363   0.761   4.474
 4174SOL    HW113421   4.400   0.850   4.450
 4174SOL    HW213422   4.331   0.714   4.392
 4175SOL     OW13423   3.323   0.353   2.644
 4175SOL    HW113424   3.238   0.393   2.678
 4175SOL    HW213425   3.321   0.254   2.659
 4176SOL     OW13426   5.419   6.221   3.283
 4176SOL    HW113427   5.486   6.154   3.251
 4176SOL    HW213428   5.466   6.304   3.312
 4177SOL     OW13429   0.191   6.090   3.063
 4177SOL    HW113430   0.260   6.017   3.059
 4177SOL    HW213431   0.121   6.072   2.994
 4178SOL     OW13432   3.783   2.109   5.652
 4178SOL    HW113433   3.847   2.042   5.688
 4178SOL    HW213434   3.696   2.102   5.701
 4179SOL     OW13435   5.526   3.514   5.553
 4179SOL    HW113436   5.502   3.421   5.525
 4179SOL    HW213437   5.513   3.577   5.476
 4180SOL     OW13438   4.254   3.806   1.800
 4180SOL    HW113439   4.277   3.893   1.756
 4180SOL    HW213440   4.265   3.814   1.899
 4181SOL     OW13441   0.692   1.105   0.474
 4181SOL    HW113442   0.706   1.204   0.475
 4181SOL    HW213443   0.647   1.079   0.389
 4182SOL     OW13444   5.333   0.581   2.782
 4182SOL    HW113445   5.379   0.548   2.864
 4182SOL    HW213446   5.336   0.681   2.780
 4183SOL     OW13447   1.504   1.567   1.561
 4183SOL    HW113448   1.418   1.523   1.535
 4183SOL    HW213449   1.503   1.588   1.658
 4184SOL     OW13450   4.328   5.324   6.979
 4184SOL    HW113451   4.308   5.406   0.004
 4184SOL    HW213452   4.412   5.338   6.926
 4185SOL     OW13453   6.947   0.368   4.015
 4185SOL    HW113454   7.013   0.416   3.956
 4185SOL    HW213455   6.997   0.306   4.075
 4186SOL     OW13456   2.972   4.159   0.977
 4186SOL    HW113457   2.978   4.170   1.076
 4186SOL    HW213458   2.908   4.226   0.940
 4187SOL     OW13459   4.030   3.914   6.748
 4187SOL    HW113460   4.068   4.003   6.726
 4187SOL    HW213461   4.011   3.909   6.846
 4188SOL     OW13462   4.653   6.768   4.581
 4188SOL    HW113463   4.752   6.754   4.582
 4188SOL    HW213464   4.612   6.711   4.509
 4189SOL     OW13465   2.124   2.065   3.848
 4189SOL    HW113466   2.141   2.159   3.819
 4189SOL    HW213467   2.153   2.054   3.943
 4190SOL     OW13468   2.772   0.882   0.953
 4190SOL    HW113469   2.777   0.926   0.864
 4190SOL    HW213470   2.684   0.903   0.997
 4191SOL     OW13471   6.794   1.551   2.068
 4191SOL    HW113472   6.818   1.640   2.106
 4191SOL    HW213473   6.835   1.479   2.123
 4192SOL     OW13474   6.178   1.475   3.489
 4192SOL    HW113475   6.271   1.493   3.520
 4192SOL    HW213476   6.129   1.423   3.558
 4193SOL     OW13477   1.550   6.958   2.234
 4193SOL    HW113478   1.503   6.914   2.157
 4193SOL    HW213479   1.613   6.892   2.277
 4194SOL     OW13480   0.815   0.931   4.473
 4194SOL    HW113481   0.887   0.876   4.431
 4194SOL    HW213482   0.830   0.934   4.572
 4195SOL     OW13483   4.522   0.619   1.460
 4195SOL    HW113484   4.465   0.559   1.404
 4195SOL    HW213485   4.524   0.710   1.419
 4196SOL     OW13486   4.846   2.359   3.383
 4196SOL    HW113487   4.862   2.269   3.422
 4196SOL    HW213488   4.760   2.358   3.331
 4197SOL     OW13489   4.711   4.340   3.773
 4197SOL    HW113490   4.631   4.336   3.833
 4197SOL    HW213491   4.777   4.271   3.800
 4198SOL     OW13492   6.181   3.465   6.530
 4198SOL    HW113493   6.277   3.445   6.511
 4198SOL    HW213494   6.171   3.493   6.626
 4199SOL     OW13495   2.985   3.872   5.960
 4199SOL    HW113496   2.986   3.972   5.953
 4199SOL    HW213497   3.000   3.846   6.055
 4200SOL     OW13498   2.253   0.174   6.558
 4200SOL    HW113499   2.306   0.125   6.628
 4200SOL    HW213500   2.156   0.170   6.580
 4201SOL     OW13501   5.818   5.947   4.174
 4201SOL    HW113502   5.872   5.906   4.247
 4201SOL    HW213503   5.860   5.925   4.086
 4202SOL     OW13504   5.309   4.641   4.628
 4202SOL    HW113505   5.352   4.662   4.540
 4202SOL    HW213506   5.368   4.671   4.703
 4203SOL     OW13507   5.348   5.777   3.624
 4203SOL    HW113508   5.301   5.860   3.593
 4203SOL    HW213509   5.442   5.776   3.589
 4204SOL     OW13510   3.624   3.284   1.469
 4204SOL    HW113511   3.596   3.379   1.461
 4204SOL    HW213512   3.543   3.226   1.484
 4205SOL     OW13513   2.574   5.181   3.433
 4205SOL    HW113514   2.637   5.238   3.486
 4205SOL    HW213515   2.626   5.127   3.367
 4206SOL     OW13516   5.579   7.018   4.166
 4206SOL    HW113517   5.627   7.001   4.252
 4206SOL    HW213518   5.482   0.005   4.184
 4207SOL     OW13519   1.229   1.322   1.802
 4207SOL    HW113520   1.150   1.320   1.740
 4207SOL    HW213521   1.203   1.364   1.889
 4208SOL     OW13522   0.602   3.571   0.968
 4208SOL    HW113523   0.660   3.648   0.940
 4208SOL    HW213524   0.521   3.607   1.014
 4209SOL     OW13525   2.857   0.496   5.022
 4209SOL    HW113526   2.927   0.502   4.950
 4209SOL    HW213527   2.788   0.567   5.006
 4210SOL     OW13528   5.038   2.666   0.742
 4210SOL    HW113529   5.031   2.762   0.770
 4210SOL    HW213530   5.006   2.656   0.648
 4211SOL     OW13531   4.471   4.507   3.328
 4211SOL    HW113532   4.398   4.518   3.396
 4211SOL    HW213533   4.557   4.540   3.367
 4212SOL     OW13534   6.029   0.414   2.814
 4212SOL    HW113535   5.939   0.399   2.854
 4212SOL    HW213536   6.097   0.424   2.887
 4213SOL     OW13537   1.301   0.592   2.716
 4213SOL    HW113538   1.373   0.577   2.649
 4213SOL    HW213539   1.214   0.555   2.682
 4214SOL     OW13540   1.275   3.356   4.928
 4214SOL    HW113541   1.325   3.413   4.994
 4214SOL    HW213542   1.248   3.411   4.850
 4215SOL     OW13543   1.235   5.476   4.711
 4215SOL    HW113544   1.300   5.491   4.637
 4215SOL    HW213545   1.146   5.512   4.685
 4216SOL     OW13546   1.508   3.074   5.511
 4216SOL    HW113547   1.537   3.149   5.570
 4216SOL    HW213548   1.455   3.008   5.566
 4217SOL     OW13549   0.144   0.544   3.358
 4217SOL    HW113550   0.152   0.446   3.342
 4217SOL    HW213551   0.048   0.572   3.345
 4218SOL     OW13552   3.890   6.845   2.134
 4218SOL    HW113553   3.968   6.903   2.112
 4218SOL    HW213554   3.809   6.876   2.084
 4219SOL     OW13555   4.434   6.442   3.182
 4219SOL    HW113556   4.396   6.373   3.121
 4219SOL    HW213557   4.401   6.425   3.275
 4220SOL     OW13558   0.137   3.144   2.891
 4220SOL    HW113559   0.128   3.130   2.792
 4220SOL    HW213560   0.228   3.116   2.920
 4221SOL     OW13561   5.318   5.612   5.543
 4221SOL    HW113562   5.242   5.547   5.539
 4221SOL    HW213563   5.302   5.686   5.479
 4222SOL     OW13564   4.486   2.512   0.798
 4222SOL    HW113565   4.486   2.608   0.827
 4222SOL    HW213566   4.397   2.471   0.817
 4223SOL     OW13567   3.745   4.074   3.044
 4223SOL    HW113568   3.791   4.006   2.987
 4223SOL    HW213569   3.652   4.087   3.011
 4224SOL     OW13570   4.292   2.259   4.804
 4224SOL    HW113571   4.270   2.308   4.888
 4224SOL    HW213572   4.235   2.293   4.730
 4225SOL     OW13573   5.764   0.530   4.637
 4225SOL    HW113574   5.714   0.560   4.719
 4225SOL    HW213575   5.703   0.473   4.581
 4226SOL     OW13576   1.527   1.507   3.792
 4226SOL    HW113577   1.447   1.499   3.851
 4226SOL    HW213578   1.562   1.601   3.796
 4227SOL     OW13579   5.992   4.280   0.089
 4227SOL    HW113580   6.023   4.186   0.083
 4227SOL    HW213581   5.949   4.307   0.003
 4228SOL     OW13582   6.144   5.618   2.320
 4228SOL    HW113583   6.240   5.646   2.328
 4228SOL    HW213584   6.125   5.590   2.226
 4229SOL     OW13585   5.098   4.611   5.726
 4229SOL    HW113586   5.078   4.572   5.816
 4229SOL    HW213587   5.078   4.544   5.655
 4230SOL     OW13588   3.015   0.047   4.633
 4230SOL    HW113589   3.070   0.113   4.684
 4230SOL    HW213590   2.965   0.094   4.561
 4231SOL     OW13591   4.173   6.830   5.387
 4231SOL    HW113592   4.161   6.880   5.473
 4231SOL    HW213593   4.148   6.889   5.310
 4232SOL     OW13594   1.961   4.210   1.948
 4232SOL    HW113595   1.913   4.269   2.014
 4232SOL    HW213596   2.009   4.138   1.996
 4233SOL     OW13597   5.845   6.680   1.016
 4233SOL    HW113598   5.844   6.677   0.916
 4233SOL    HW213599   5.794   6.602   1.052
 4234SOL     OW13600   2.913   4.211   5.569
 4234SOL    HW113601   2.932   4.263   5.652
 4234SOL    HW213602   2.895   4.274   5.494
 4235SOL     OW13603   6.473   3.629   5.590
 4235SOL    HW113604   6.386   3.679   5.591
 4235SOL    HW213605   6.454   3.531   5.586
 4236SOL     OW13606   1.440   3.566   4.691
 4236SOL    HW113607   1.429   3.647   4.633
 4236SOL    HW213608   1.446   3.594   4.787
 4237SOL     OW13609   5.230   3.677   4.851
 4237SOL    HW113610   5.195   3.695   4.943
 4237SOL    HW213611   5.173   3.724   4.784
 4238SOL     OW13612   4.455   5.161   3.996
 4238SOL    HW113613   4.367   5.200   4.026
 4238SOL    HW213614   4.438   5.081   3.939
 4239SOL     OW13615   4.737   5.506   5.828
 4239SOL    HW113616   4.728   5.406   5.831
 4239SOL    HW213617   4.771   5.533   5.737
 4240SOL     OW13618   2.685   4.741   6.480
 4240SOL    HW113619   2.712   4.797   6.558
 4240SOL    HW213620   2.619   4.791   6.423
 4241SOL     OW13621   3.617   0.697   6.642
 4241SOL    HW113622   3.707   0.733   6.619
 4241SOL    HW213623   3.576   0.753   6.715
 4242SOL     OW13624   1.561   0.415   2.423
 4242SOL    HW113625   1.485   0.361   2.386
 4242SOL    HW213626   1.557   0.415   2.523
 4243SOL     OW13627   1.555   2.806   3.149
 4243SOL    HW113628   1.459   2.812   3.124
 4243SOL    HW213629   1.598   2.730   3.101
 4244SOL     OW13630   3.500   6.355   1.657
 4244SOL    HW113631   3.508   6.325   1.752
 4244SOL    HW213632   3.543   6.444   1.647
 4245SOL     OW13633   6.636   3.562   1.492
 4245SOL    HW113634   6.553   3.516   1.524
 4245SOL    HW213635   6.712   3.540   1.552
 4246SOL     OW13636   4.501   2.105   3.885
 4246SOL    HW113637   4.589   2.142   3.914
 4246SOL    HW213638   4.505   2.085   3.787
 4247SOL     OW13639   1.557   4.962   6.201
 4247SOL    HW113640   1.614   4.886   6.233
 4247SOL    HW213641   1.539   4.951   6.103
 4248SOL     OW13642   1.511   0.684   3.586
 4248SOL    HW113643   1.438   0.751   3.597
 4248SOL    HW213644   1.582   0.721   3.525
 4249SOL     OW13645   6.042   6.743   5.374
 4249SOL    HW113646   6.134   6.777   5.355
 4249SOL    HW213647   6.025   6.746   5.473
 4250SOL     OW13648   0.161   5.284   3.956
 4250SOL    HW113649   0.102   5.365   3.965
 4250SOL    HW213650   0.119   5.219   3.894
 4251SOL     OW13651   6.054   2.466   5.201
 4251SOL    HW113652   6.062   2.376   5.159
 4251SOL    HW213653   6.144   2.497   5.233
 4252SOL     OW13654   0.125   6.697   0.086
 4252SOL    HW113655   0.047   6.688   0.148
 4252SOL    HW213656   0.093   6.725   7.023
 4253SOL     OW13657   5.044   5.319   2.663
 4253SOL    HW113658   4.977   5.376   2.615
 4253SOL    HW213659   5.076   5.366   2.745
 4254SOL     OW13660   1.923   2.816   6.288
 4254SOL    HW113661   1.864   2.739   6.313
 4254SOL    HW213662   1.867   2.896   6.266
 4255SOL     OW13663   1.426   3.475   3.515
 4255SOL    HW113664   1.500   3.518   3.462
 4255SOL    HW213665   1.339   3.488   3.467
 4256SOL     OW13666   0.764   6.329   1.708
 4256SOL    HW113667   0.691   6.294   1.767
 4256SOL    HW213668   0.773   6.428   1.720
 4257SOL     OW13669   6.382   0.285   4.241
 4257SOL    HW113670   6.344   0.194   4.225
 4257SOL    HW213671   6.375   0.306   4.339
 4258SOL     OW13672   3.196   5.703   0.732
 4258SOL    HW113673   3.277   5.718   0.676
 4258SOL    HW213674   3.114   5.718   0.676
 4259SOL     OW13675   1.128   0.214   1.417
 4259SOL    HW113676   1.062   0.145   1.386
 4259SOL    HW213677   1.150   0.198   1.513
 4260SOL     OW13678   5.168   1.277   4.752
 4260SOL    HW113679   5.181   1.312   4.845
 4260SOL    HW213680   5.256   1.246   4.716
 4261SOL     OW13681   2.589   5.877   4.132
 4261SOL    HW113682   2.553   5.957   4.179
 4261SOL    HW213683   2.529   5.853   4.056
 4262SOL     OW13684   2.639   4.316   6.684
 4262SOL    HW113685   2.701   4.288   6.611
 4262SOL    HW213686   2.668   4.275   6.770
 4263SOL     OW13687   2.059   1.269   3.617
 4263SOL    HW113688   2.074   1.299   3.711
 4263SOL    HW213689   2.045   1.170   3.615
 4264SOL     OW13690   5.188   1.587   5.319
 4264SOL    HW113691   5.259   1.647   5.356
 4264SOL    HW213692   5.210   1.492   5.340
 4265SOL     OW13693   2.208   6.989   6.239
 4265SOL    HW113694   2.231   6.892   6.251
 4265SOL    HW213695   2.282   0.018   6.276
 4266SOL     OW13696   1.861   5.578   1.604
 4266SOL    HW113697   1.828   5.662   1.647
 4266SOL    HW213698   1.898   5.517   1.674
 4267SOL     OW13699   1.482   4.206   4.764
 4267SOL    HW113700   1.557   4.208   4.698
 4267SOL    HW213701   1.487   4.287   4.822
 4268SOL     OW13702   1.441   4.218   6.677
 4268SOL    HW113703   1.369   4.196   6.742
 4268SOL    HW213704   1.411   4.292   6.617
 4269SOL     OW13705   2.797   1.237   4.894
 4269SOL    HW113706   2.825   1.190   4.978
 4269SOL    HW213707   2.747   1.174   4.835
 4270SOL     OW13708   3.367   3.373   0.721
 4270SOL    HW113709   3.451   3.318   0.726
 4270SOL    HW213710   3.318   3.366   0.808
 4271SOL     OW13711   6.903   0.950   2.038
 4271SOL    HW113712   6.944   0.890   2.106
 4271SOL    HW213713   6.964   0.959   1.960
 4272SOL     OW13714   0.311   1.039   6.677
 4272SOL    HW113715   0.352   1.055   6.767
 4272SOL    HW213716   0.337   0.949   6.644
 4273SOL     OW13717   3.000   6.157   4.565
 4273SOL    HW113718   2.914   6.106   4.568
 4273SOL    HW213719   2.985   6.248   4.604
 4274SOL     OW13720   0.069   1.565   2.060
 4274SOL    HW113721   0.059   1.632   1.987
 4274SOL    HW213722   0.044   1.474   2.026
 4275SOL     OW13723   0.251   2.394   3.607
 4275SOL    HW113724   0.291   2.315   3.653
 4275SOL    HW213725   0.257   2.381   3.508
 4276SOL     OW13726   2.427   6.302   3.475
 4276SOL    HW113727   2.464   6.304   3.568
 4276SOL    HW213728   2.487   6.247   3.417
 4277SOL     OW13729   6.200   5.693   2.633
 4277SOL    HW113730   6.232   5.667   2.542
 4277SOL    HW213731   6.196   5.612   2.692
 4278SOL     OW13732   1.109   6.658   1.976
 4278SOL    HW113733   1.101   6.588   2.047
 4278SOL    HW213734   1.066   6.742   2.008
 4279SOL     OW13735   1.405   1.701   3.479
 4279SOL    HW113736   1.418   1.763   3.556
 4279SOL    HW213737   1.308   1.683   3.466
 4280SOL     OW13738   1.743   6.386   6.504
 4280SOL    HW113739   1.759   6.409   6.407
 4280SOL    HW213740   1.653   6.420   6.531
 4281SOL     OW13741   5.324   5.573   3.257
 4281SOL    HW113742   5.410   5.615   3.228
 4281SOL    HW213743   5.252   5.595   3.191
 4282SOL     OW13744   4.216   4.817   1.209
 4282SOL    HW113745   4.260   4.753   1.272
 4282SOL    HW213746   4.279   4.838   1.134
 4283SOL     OW13747   4.610   1.361   4.400
 4283SOL    HW113748   4.584   1.277   4.446
 4283SOL    HW213749   4.573   1.361   4.307
 4284SOL     OW13750   4.925   5.315   6.267
 4284SOL    HW113751   4.838   5.282   6.231
 4284SOL    HW213752   5.000   5.267   6.221
 4285SOL     OW13753   3.516   1.017   5.714
 4285SOL    HW113754   3.472   1.044   5.628
 4285SOL    HW213755   3.563   0.930   5.701
 4286SOL     OW13756   6.164   0.288   6.383
 4286SOL    HW113757   6.253   0.297   6.427
 4286SOL    HW213758   6.160   0.201   6.334
 4287SOL     OW13759   3.763   0.294   0.703
 4287SOL    HW113760   3.678   0.345   0.719
 4287SOL    HW213761   3.827   0.351   0.653
 4288SOL     OW13762   0.184   6.426   2.633
 4288SOL    HW113763   0.137   6.369   2.699
 4288SOL    HW213764   0.123   6.499   2.602
 4289SOL     OW13765   0.350   4.255   4.427
 4289SOL    HW113766   0.331   4.297   4.338
 4289SOL    HW213767   0.447   4.230   4.432
 4290SOL     OW13768   0.751   1.126   3.527
 4290SOL    HW113769   0.784   1.118   3.621
 4290SOL    HW213770   0.652   1.130   3.526
 4291SOL     OW13771   4.560   3.499   5.806
 4291SOL    HW113772   4.651   3.539   5.815
 4291SOL    HW213773   4.526   3.514   5.713
 4292SOL     OW13774   6.166   2.177   1.831
 4292SOL    HW113775   6.104   2.184   1.909
 4292SOL    HW213776   6.145   2.093   1.780
 4293SOL     OW13777   3.816   3.449   0.340
 4293SOL    HW113778   3.915   3.435   0.346
 4293SOL    HW213779   3.774   3.370   0.296
 4294SOL     OW13780   2.239   2.294   6.532
 4294SOL    HW113781   2.335   2.291   6.505
 4294SOL    HW213782   2.182   2.306   6.450
 4295SOL     OW13783   4.130   5.956   2.761
 4295SOL    HW113784   4.212   6.008   2.738
 4295SOL    HW213785   4.099   5.981   2.853
 4296SOL     OW13786   2.915   6.630   3.172
 4296SOL    HW113787   2.820   6.609   3.150
 4296SOL    HW213788   2.974   6.605   3.096
 4297SOL     OW13789   5.406   5.195   0.482
 4297SOL    HW113790   5.489   5.140   0.475
 4297SOL    HW213791   5.348   5.161   0.555
 4298SOL     OW13792   2.008   0.149   0.883
 4298SOL    HW113793   2.075   0.078   0.862
 4298SOL    HW213794   1.945   0.159   0.806
 4299SOL     OW13795   0.521   2.696   6.953
 4299SOL    HW113796   0.556   2.721   0.015
 4299SOL    HW213797   0.446   2.757   6.928
 4300SOL     OW13798   2.740   0.916   1.443
 4300SOL    HW113799   2.831   0.884   1.419
 4300SOL    HW213800   2.737   0.939   1.541
 4301SOL     OW13801   2.703   6.274   0.334
 4301SOL    HW113802   2.696   6.348   0.401
 4301SOL    HW213803   2.624   6.214   0.343
 4302SOL     OW13804   2.061   5.256   5.715
 4302SOL    HW113805   2.020   5.207   5.638
 4302SOL    HW213806   2.051   5.202   5.798
 4303SOL     OW13807   5.713   5.549   3.270
 4303SOL    HW113808   5.752   5.459   3.251
 4303SOL    HW213809   5.649   5.573   3.198
 4304SOL     OW13810   3.463   3.800   1.487
 4304SOL    HW113811   3.536   3.783   1.421
 4304SOL    HW213812   3.478   3.745   1.569
 4305SOL     OW13813   1.117   6.206   5.486
 4305SOL    HW113814   1.145   6.230   5.579
 4305SOL    HW213815   1.067   6.120   5.488
 4306SOL     OW13816   5.652   4.397   5.197
 4306SOL    HW113817   5.675   4.494   5.196
 4306SOL    HW213818   5.733   4.344   5.222
 4307SOL     OW13819   0.255   1.119   6.226
 4307SOL    HW113820   0.259   1.199   6.287
 4307SOL    HW213821   0.340   1.067   6.234
 4308SOL     OW13822   4.806   6.038   6.432
 4308SOL    HW113823   4.827   6.132   6.461
 4308SOL    HW213824   4.790   5.981   6.513
 4309SOL     OW13825   0.738   1.653   0.482
 4309SOL    HW113826   0.805   1.719   0.449
 4309SOL    HW213827   0.646   1.687   0.463
 4310SOL     OW13828   6.846   2.169   2.172
 4310SOL    HW113829   6.928   2.198   2.221
 4310SOL    HW213830   6.871   2.133   2.082
 4311SOL     OW13831   0.412   0.026   1.739
 4311SOL    HW113832   0.478   0.027   1.664
 4311SOL    HW213833   0.448   6.997   1.814
 4312SOL     OW13834   6.934   5.064   2.584
 4312SOL    HW113835   6.895   5.094   2.671
 4312SOL    HW213836   6.863   5.021   2.528
 4313SOL     OW13837   0.262   3.173   6.511
 4313SOL    HW113838   0.235   3.125   6.594
 4313SOL    HW213839   0.274   3.270   6.531
 4314SOL     OW13840   0.612   1.290   6.137
 4314SOL    HW113841   0.542   1.325   6.201
 4314SOL    HW213842   0.621   1.353   6.061
 4315SOL     OW13843   2.584   1.324   4.527
 4315SOL    HW113844   2.498   1.301   4.573
 4315SOL    HW213845   2.614   1.414   4.557
 4316SOL     OW13846   5.288   6.030   1.036
 4316SOL    HW113847   5.202   6.077   1.058
 4316SOL    HW213848   5.323   5.983   1.117
 4317SOL     OW13849   4.562   1.083   5.720
 4317SOL    HW113850   4.496   1.042   5.783
 4317SOL    HW213851   4.590   1.015   5.653
 4318SOL     OW13852   0.860   7.000   4.113
 4318SOL    HW113853   0.817   6.913   4.089
 4318SOL    HW213854   0.945   6.982   4.163
 4319SOL     OW13855   1.499   4.337   2.869
 4319SOL    HW113856   1.448   4.354   2.785
 4319SOL    HW213857   1.597   4.335   2.849
 4320SOL     OW13858   3.472   0.213   1.214
 4320SOL    HW113859   3.465   0.235   1.117
 4320SOL    HW213860   3.565   0.182   1.234
 4321SOL     OW13861   6.721   6.838   3.032
 4321SOL    HW113862   6.739   6.934   3.051
 4321SOL    HW213863   6.640   6.808   3.083
 4322SOL     OW13864   1.592   3.055   4.941
 4322SOL    HW113865   1.660   3.002   4.991
 4322SOL    HW213866   1.606   3.153   4.961
 4323SOL     OW13867   4.407   5.087   0.026
 4323SOL    HW113868   4.331   5.022   0.037
 4323SOL    HW213869   4.370   5.176   0.001
 4324SOL     OW13870   0.814   4.573   6.021
 4324SOL    HW113871   0.720   4.565   5.987
 4324SOL    HW213872   0.814   4.563   6.120
 4325SOL     OW13873   2.098   0.754   2.883
 4325SOL    HW113874   2.192   0.786   2.886
 4325SOL    HW213875   2.096   0.660   2.849
 4326SOL     OW13876   5.324   1.745   2.156
 4326SOL    HW113877   5.301   1.744   2.058
 4326SOL    HW213878   5.264   1.809   2.203
 4327SOL     OW13879   2.726   6.257   3.647
 4327SOL    HW113880   2.679   6.201   3.579
 4327SOL    HW213881   2.685   6.348   3.650
 4328SOL     OW13882   6.681   0.217   4.365
 4328SOL    HW113883   6.758   0.159   4.390
 4328SOL    HW213884   6.688   0.244   4.269
 4329SOL     OW13885   7.012   2.101   6.845
 4329SOL    HW113886   7.026   2.041   6.766
 4329SOL    HW213887   6.941   2.062   6.904
 4330SOL     OW13888   3.164   5.068   4.365
 4330SOL    HW113889   3.112   5.151   4.344
 4330SOL    HW213890   3.100   4.994   4.384
 4331SOL     OW13891   5.743   1.513   2.162
 4331SOL    HW113892   5.670   1.571   2.198
 4331SOL    HW213893   5.799   1.479   2.237
 4332SOL     OW13894   0.861   5.216   2.258
 4332SOL    HW113895   0.932   5.145   2.262
 4332SOL    HW213896   0.782   5.187   2.312
 4333SOL     OW13897   4.876   2.182   5.813
 4333SOL    HW113898   4.804   2.209   5.749
 4333SOL    HW213899   4.837   2.166   5.903
 4334SOL     OW13900   0.149   2.786   4.369
 4334SOL    HW113901   0.212   2.856   4.403
 4334SOL    HW213902   0.108   2.817   4.283
 4335SOL     OW13903   2.872   3.775   1.262
 4335SOL    HW113904   2.841   3.682   1.241
 4335SOL    HW213905   2.929   3.773   1.345
 4336SOL     OW13906   2.423   5.890   5.627
 4336SOL    HW113907   2.381   5.947   5.698
 4336SOL    HW213908   2.440   5.945   5.546
 4337SOL     OW13909   1.118   4.963   4.012
 4337SOL    HW113910   1.044   4.913   3.968
 4337SOL    HW213911   1.080   5.031   4.076
 4338SOL     OW13912   3.718   1.620   5.877
 4338SOL    HW113913   3.749   1.691   5.941
 4338SOL    HW213914   3.770   1.628   5.792
 4339SOL     OW13915   4.033   4.027   6.115
 4339SOL    HW113916   3.941   4.062   6.132
 4339SOL    HW213917   4.051   4.023   6.017
 4340SOL     OW13918   6.289   4.111   1.193
 4340SOL    HW113919   6.347   4.053   1.135
 4340SOL    HW213920   6.193   4.095   1.170
 4341SOL     OW13921   6.328   6.824   2.583
 4341SOL    HW113922   6.402   6.888   2.562
 4341SOL    HW213923   6.240   6.868   2.563
 4342SOL     OW13924   4.849   4.037   2.471
 4342SOL    HW113925   4.945   4.067   2.463
 4342SOL    HW213926   4.789   4.115   2.453
 4343SOL     OW13927   4.002   6.472   5.756
 4343SOL    HW113928   4.072   6.526   5.709
 4343SOL    HW213929   4.026   6.463   5.852
 4344SOL     OW13930   0.004   3.459   3.514
 4344SOL    HW113931   7.015   3.405   3.597
 4344SOL    HW213932   0.024   3.554   3.539
 4345SOL     OW13933   3.301   2.984   2.546
 4345SOL    HW113934   3.203   2.981   2.563
 4345SOL    HW213935   3.317   2.998   2.448
 4346SOL     OW13936   1.428   3.159   2.789
 4346SOL    HW113937   1.459   3.128   2.879
 4346SOL    HW213938   1.477   3.242   2.764
 4347SOL     OW13939   6.329   5.841   0.388
 4347SOL    HW113940   6.243   5.822   0.434
 4347SOL    HW213941   6.312   5.849   0.289
 4348SOL     OW13942   5.800   4.914   4.043
 4348SOL    HW113943   5.868   4.899   3.971
 4348SOL    HW213944   5.839   4.975   4.113
 4349SOL     OW13945   0.029   3.272   4.140
 4349SOL    HW113946   0.094   3.347   4.155
 4349SOL    HW213947   0.027   3.212   4.220
 4350SOL     OW13948   3.787   1.379   4.701
 4350SOL    HW113949   3.747   1.308   4.642
 4350SOL    HW213950   3.845   1.439   4.647
 4351SOL     OW13951   0.993   6.159   0.692
 4351SOL    HW113952   1.063   6.169   0.621
 4351SOL    HW213953   1.037   6.150   0.781
 4352SOL     OW13954   3.548   4.585   1.416
 4352SOL    HW113955   3.484   4.617   1.346
 4352SOL    HW213956   3.527   4.490   1.440
 4353SOL     OW13957   2.681   2.744   1.177
 4353SOL    HW113958   2.730   2.696   1.104
 4353SOL    HW213959   2.738   2.819   1.210
 4354SOL     OW13960   6.052   0.019   3.136
 4354SOL    HW113961   6.097   7.013   3.219
 4354SOL    HW213962   6.017   0.111   3.151
 4355SOL     OW13963   2.012   5.578   3.021
 4355SOL    HW113964   1.996   5.671   3.057
 4355SOL    HW213965   2.092   5.539   3.066
 4356SOL     OW13966   5.708   2.534   5.244
 4356SOL    HW113967   5.761   2.505   5.164
 4356SOL    HW213968   5.617   2.562   5.214
 4357SOL     OW13969   5.773   0.425   2.010
 4357SOL    HW113970   5.837   0.467   2.075
 4357SOL    HW213971   5.716   0.359   2.058
 4358SOL     OW13972   2.907   0.183   0.222
 4358SOL    HW113973   2.919   0.085   0.202
 4358SOL    HW213974   2.996   0.224   0.244
 4359SOL     OW13975   2.659   2.037   0.394
 4359SOL    HW113976   2.682   2.018   0.298
 4359SOL    HW213977   2.566   2.072   0.399
 4360SOL     OW13978   1.880   4.389   4.143
 4360SOL    HW113979   1.971   4.424   4.124
 4360SOL    HW213980   1.869   4.298   4.102
 4361SOL     OW13981   6.566   1.930   0.675
 4361SOL    HW113982   6.529   1.886   0.757
 4361SOL    HW213983   6.623   1.864   0.626
 4362SOL     OW13984   1.049   5.314   3.468
 4362SOL    HW113985   1.070   5.262   3.551
 4362SOL    HW213986   1.036   5.251   3.391
 4363SOL     OW13987   4.226   0.991   2.220
 4363SOL    HW113988   4.316   0.948   2.224
 4363SOL    HW213989   4.156   0.925   2.248
 4364SOL     OW13990   4.136   3.411   2.354
 4364SOL    HW113991   4.044   3.397   2.319
 4364SOL    HW213992   4.181   3.483   2.300
 4365SOL     OW13993   2.374   2.010   1.193
 4365SOL    HW113994   2.360   1.994   1.095
 4365SOL    HW213995   2.462   1.972   1.221
 4366SOL     OW13996   4.595   6.405   4.506
 4366SOL    HW113997   4.664   6.427   4.575
 4366SOL    HW213998   4.554   6.489   4.471
 4367SOL     OW13999   2.816   5.926   3.237
 4367SOL    HW114000   2.744   5.866   3.201
 4367SOL    HW214001   2.818   6.011   3.184
 4368SOL     OW14002   4.772   4.132   3.528
 4368SOL    HW114003   4.681   4.165   3.555
 4368SOL    HW214004   4.799   4.174   3.441
 4369SOL     OW14005   4.864   4.682   3.366
 4369SOL    HW114006   4.909   4.771   3.364
 4369SOL    HW214007   4.803   4.678   3.446
 4370SOL     OW14008   3.797   4.542   1.704
 4370SOL    HW114009   3.771   4.451   1.736
 4370SOL    HW214010   3.740   4.611   1.749
 4371SOL     OW14011   2.766   1.584   1.084
 4371SOL    HW114012   2.839   1.629   1.033
 4371SOL    HW214013   2.792   1.579   1.181
 4372SOL     OW14014   1.739   3.336   4.923
 4372SOL    HW114015   1.746   3.381   4.834
 4372SOL    HW214016   1.738   3.406   4.995
 4373SOL     OW14017   3.613   1.170   6.348
 4373SOL    HW114018   3.538   1.220   6.306
 4373SOL    HW214019   3.701   1.204   6.314
 4374SOL     OW14020   2.369   0.194   1.480
 4374SOL    HW114021   2.346   0.129   1.407
 4374SOL    HW214022   2.447   0.249   1.451
 4375SOL     OW14023   4.410   1.958   4.273
 4375SOL    HW114024   4.429   1.945   4.370
 4375SOL    HW214025   4.421   2.055   4.249
 4376SOL     OW14026   1.813   6.079   6.841
 4376SOL    HW114027   1.781   6.033   6.924
 4376SOL    HW214028   1.790   6.176   6.845
 4377SOL     OW14029   5.521   0.069   6.349
 4377SOL    HW114030   5.581   0.125   6.292
 4377SOL    HW214031   5.573   0.030   6.425
 4378SOL     OW14032   2.823   5.510   2.146
 4378SOL    HW114033   2.756   5.511   2.220
 4378SOL    HW214034   2.825   5.419   2.104
 4379SOL     OW14035   1.340   0.399   1.750
 4379SOL    HW114036   1.336   0.453   1.834
 4379SOL    HW214037   1.425   0.420   1.701
 4380SOL     OW14038   2.077   4.936   4.531
 4380SOL    HW114039   2.065   4.851   4.582
 4380SOL    HW214040   1.994   4.991   4.536
 4381SOL     OW14041   4.832   6.265   5.461
 4381SOL    HW114042   4.850   6.326   5.384
 4381SOL    HW214043   4.743   6.287   5.501
 4382SOL     OW14044   4.885   3.667   3.349
 4382SOL    HW114045   4.956   3.706   3.408
 4382SOL    HW214046   4.908   3.685   3.253
 4383SOL     OW14047   1.074   2.321   0.122
 4383SOL    HW114048   1.014   2.248   0.090
 4383SOL    HW214049   1.038   2.409   0.091
 4384SOL     OW14050   3.570   6.564   0.938
 4384SOL    HW114051   3.553   6.479   0.888
 4384SOL    HW214052   3.492   6.626   0.925
 4385SOL     OW14053   6.777   1.670   2.617
 4385SOL    HW114054   6.832   1.748   2.645
 4385SOL    HW214055   6.799   1.591   2.673
 4386SOL     OW14056   1.090   3.734   6.743
 4386SOL    HW114057   0.998   3.742   6.704
 4386SOL    HW214058   1.145   3.813   6.714
 4387SOL     OW14059   6.905   3.208   2.082
 4387SOL    HW114060   6.894   3.154   2.165
 4387SOL    HW214061   6.905   3.305   2.105
 4388SOL     OW14062   2.686   1.359   5.176
 4388SOL    HW114063   2.697   1.387   5.271
 4388SOL    HW214064   2.626   1.424   5.129
 4389SOL     OW14065   5.084   2.240   2.325
 4389SOL    HW114066   5.066   2.306   2.397
 4389SOL    HW214067   5.126   2.286   2.247
 4390SOL     OW14068   4.498   2.591   1.803
 4390SOL    HW114069   4.577   2.646   1.830
 4390SOL    HW214070   4.464   2.624   1.714
 4391SOL     OW14071   0.913   5.899   0.834
 4391SOL    HW114072   0.824   5.856   0.849
 4391SOL    HW214073   0.901   5.989   0.793
 4392SOL     OW14074   5.524   3.532   4.627
 4392SOL    HW114075   5.443   3.498   4.581
 4392SOL    HW214076   5.547   3.623   4.592
 4393SOL     OW14077   4.667   6.116   3.709
 4393SOL    HW114078   4.731   6.091   3.637
 4393SOL    HW214079   4.717   6.155   3.787
 4394SOL     OW14080   4.888   0.927   2.127
 4394SOL    HW114081   4.949   1.005   2.115
 4394SOL    HW214082   4.891   0.869   2.045
 4395SOL     OW14083   4.754   1.682   1.652
 4395SOL    HW114084   4.719   1.767   1.613
 4395SOL    HW214085   4.787   1.623   1.579
 4396SOL     OW14086   1.527   0.900   3.905
 4396SOL    HW114087   1.548   0.902   4.003
 4396SOL    HW214088   1.525   0.806   3.873
 4397SOL     OW14089   6.697   0.499   6.183
 4397SOL    HW114090   6.770   0.551   6.138
 4397SOL    HW214091   6.714   0.498   6.282
 4398SOL     OW14092   6.469   4.580   4.299
 4398SOL    HW114093   6.429   4.643   4.232
 4398SOL    HW214094   6.519   4.508   4.250
 4399SOL     OW14095   2.418   1.723   1.844
 4399SOL    HW114096   2.480   1.671   1.786
 4399SOL    HW214097   2.335   1.746   1.792
 4400SOL     OW14098   3.389   5.921   4.373
 4400SOL    HW114099   3.336   5.926   4.457
 4400SOL    HW214100   3.417   6.014   4.346
 4401SOL     OW14101   5.237   6.700   4.216
 4401SOL    HW114102   5.206   6.696   4.121
 4401SOL    HW214103   5.197   6.625   4.268
 4402SOL     OW14104   6.683   0.625   3.532
 4402SOL    HW114105   6.680   0.713   3.580
 4402SOL    HW214106   6.745   0.563   3.579
 4403SOL     OW14107   0.682   6.830   2.713
 4403SOL    HW114108   0.621   6.842   2.791
 4403SOL    HW214109   0.650   6.754   2.656
 4404SOL     OW14110   1.683   4.177   3.275
 4404SOL    HW114111   1.760   4.169   3.212
 4404SOL    HW214112   1.675   4.093   3.328
 4405SOL     OW14113   3.586   4.714   5.854
 4405SOL    HW114114   3.558   4.642   5.917
 4405SOL    HW214115   3.684   4.729   5.862
 4406SOL     OW14116   5.534   3.537   1.571
 4406SOL    HW114117   5.523   3.617   1.631
 4406SOL    HW214118   5.464   3.541   1.499
 4407SOL     OW14119   6.776   6.494   6.994
 4407SOL    HW114120   6.684   6.454   7.003
 4407SOL    HW214121   6.816   6.465   6.907
 4408SOL     OW14122   4.862   6.094   0.282
 4408SOL    HW114123   4.809   6.147   0.349
 4408SOL    HW214124   4.867   5.999   0.312
 4409SOL     OW14125   3.056   1.583   2.144
 4409SOL    HW114126   3.135   1.584   2.082
 4409SOL    HW214127   2.977   1.624   2.098
 4410SOL     OW14128   2.771   5.260   2.210
 4410SOL    HW114129   2.676   5.255   2.177
 4410SOL    HW214130   2.803   5.168   2.232
 4411SOL     OW14131   3.811   3.286   2.281
 4411SOL    HW114132   3.781   3.195   2.310
 4411SOL    HW214133   3.838   3.339   2.361
 4412SOL     OW14134   3.591   1.930   6.367
 4412SOL    HW114135   3.561   1.868   6.438
 4412SOL    HW214136   3.573   2.025   6.395
 4413SOL     OW14137   3.693   5.867   4.222
 4413SOL    HW114138   3.725   5.920   4.143
 4413SOL    HW214139   3.613   5.913   4.261
 4414SOL     OW14140   3.806   5.280   2.305
 4414SOL    HW114141   3.756   5.359   2.269
 4414SOL    HW214142   3.813   5.210   2.234
 4415SOL     OW14143   4.659   2.287   0.703
 4415SOL    HW114144   4.752   2.280   0.741
 4415SOL    HW214145   4.604   2.347   0.762
 4416SOL     OW14146   3.918   1.023   3.578
 4416SOL    HW114147   4.014   1.014   3.602
 4416SOL    HW214148   3.878   1.099   3.630
 4417SOL     OW14149   0.449   0.317   1.202
 4417SOL    HW114150   0.432   0.333   1.105
 4417SOL    HW214151   0.386   0.372   1.257
 4418SOL     OW14152   3.908   0.218   3.431
 4418SOL    HW114153   3.946   0.286   3.494
 4418SOL    HW214154   3.823   0.253   3.392
 4419SOL     OW14155   0.096   5.143   0.160
 4419SOL    HW114156   0.126   5.050   0.138
 4419SOL    HW214157   0.006   5.140   0.202
 4420SOL     OW14158   4.506   1.198   6.558
 4420SOL    HW114159   4.599   1.211   6.524
 4420SOL    HW214160   4.448   1.165   6.484
 4421SOL     OW14161   1.873   1.537   3.216
 4421SOL    HW114162   1.888   1.509   3.311
 4421SOL    HW214163   1.951   1.591   3.185
 4422SOL     OW14164   2.016   3.700   5.878
 4422SOL    HW114165   2.032   3.708   5.780
 4422SOL    HW214166   2.101   3.673   5.923
 4423SOL     OW14167   0.447   1.383   6.639
 4423SOL    HW114168   0.406   1.300   6.600
 4423SOL    HW214169   0.408   1.400   6.730
 4424SOL     OW14170   0.374   6.091   3.512
 4424SOL    HW114171   0.331   6.045   3.435
 4424SOL    HW214172   0.308   6.152   3.555
 4425SOL     OW14173   4.553   4.417   0.215
 4425SOL    HW114174   4.540   4.423   0.116
 4425SOL    HW214175   4.651   4.422   0.236
 4426SOL     OW14176   1.113   0.613   5.273
 4426SOL    HW114177   1.119   0.531   5.216
 4426SOL    HW214178   1.199   0.664   5.266
 4427SOL     OW14179   1.088   6.852   3.556
 4427SOL    HW114180   1.037   6.784   3.503
 4427SOL    HW214181   1.027   6.899   3.619
 4428SOL     OW14182   2.845   6.009   3.562
 4428SOL    HW114183   2.862   6.104   3.588
 4428SOL    HW214184   2.923   5.953   3.589
 4429SOL     OW14185   4.245   0.056   3.037
 4429SOL    HW114186   4.197   0.045   3.124
 4429SOL    HW214187   4.340   0.079   3.054
 4430SOL     OW14188   1.382   0.784   1.684
 4430SOL    HW114189   1.452   0.808   1.752
 4430SOL    HW214190   1.301   0.749   1.731
 4431SOL     OW14191   1.884   2.051   2.970
 4431SOL    HW114192   1.872   1.969   2.915
 4431SOL    HW214193   1.908   2.025   3.064
 4432SOL     OW14194   2.987   3.211   3.065
 4432SOL    HW114195   2.964   3.208   2.968
 4432SOL    HW214196   3.003   3.306   3.092
 4433SOL     OW14197   6.896   0.586   3.318
 4433SOL    HW114198   6.831   0.569   3.392
 4433SOL    HW214199   6.852   0.569   3.230
 4434SOL     OW14200   5.071   2.094   4.141
 4434SOL    HW114201   5.153   2.113   4.087
 4434SOL    HW214202   5.041   2.178   4.186
 4435SOL     OW14203   3.637   2.931   1.886
 4435SOL    HW114204   3.583   2.881   1.954
 4435SOL    HW214205   3.605   3.025   1.881
 4436SOL     OW14206   5.063   0.763   0.195
 4436SOL    HW114207   5.043   0.669   0.222
 4436SOL    HW214208   5.140   0.798   0.248
 4437SOL     OW14209   3.624   0.147   4.561
 4437SOL    HW114210   3.657   0.185   4.475
 4437SOL    HW214211   3.647   0.208   4.636
 4438SOL     OW14212   3.893   3.782   6.175
 4438SOL    HW114213   3.890   3.738   6.085
 4438SOL    HW214214   3.961   3.855   6.174
 4439SOL     OW14215   2.432   5.187   2.433
 4439SOL    HW114216   2.345   5.157   2.392
 4439SOL    HW214217   2.493   5.108   2.442
 4440SOL     OW14218   0.140   0.576   6.255
 4440SOL    HW114219   0.080   0.653   6.273
 4440SOL    HW214220   0.110   0.528   6.172
 4441SOL     OW14221   5.489   2.406   2.995
 4441SOL    HW114222   5.406   2.382   3.044
 4441SOL    HW214223   5.465   2.434   2.902
 4442SOL     OW14224   2.267   6.281   2.324
 4442SOL    HW114225   2.320   6.346   2.269
 4442SOL    HW214226   2.323   6.250   2.401
 4443SOL     OW14227   2.440   1.572   5.719
 4443SOL    HW114228   2.480   1.641   5.659
 4443SOL    HW214229   2.357   1.608   5.761
 4444SOL     OW14230   5.071   0.753   2.630
 4444SOL    HW114231   5.074   0.687   2.706
 4444SOL    HW214232   4.991   0.734   2.573
 4445SOL     OW14233   1.832   1.529   6.446
 4445SOL    HW114234   1.861   1.441   6.483
 4445SOL    HW214235   1.815   1.593   6.521
 4446SOL     OW14236   6.461   5.889   4.164
 4446SOL    HW114237   6.389   5.957   4.149
 4446SOL    HW214238   6.461   5.861   4.260
 4447SOL     OW14239   4.906   3.352   4.915
 4447SOL    HW114240   4.887   3.271   4.970
 4447SOL    HW214241   4.861   3.432   4.956
 4448SOL     OW14242   2.840   3.005   6.283
 4448SOL    HW114243   2.777   2.955   6.223
 4448SOL    HW214244   2.922   3.029   6.231
 4449SOL     OW14245   0.850   1.354   4.842
 4449SOL    HW114246   0.777   1.287   4.854
 4449SOL    HW214247   0.810   1.442   4.815
 4450SOL     OW14248   3.865   3.868   3.463
 4450SOL    HW114249   3.814   3.928   3.402
 4450SOL    HW214250   3.886   3.916   3.548
 4451SOL     OW14251   6.265   4.427   2.215
 4451SOL    HW114252   6.324   4.488   2.268
 4451SOL    HW214253   6.271   4.451   2.118
 4452SOL     OW14254   6.439   5.465   6.299
 4452SOL    HW114255   6.363   5.408   6.329
 4452SOL    HW214256   6.516   5.407   6.272
 4453SOL     OW14257   5.227   1.982   1.501
 4453SOL    HW114258   5.237   2.082   1.502
 4453SOL    HW214259   5.148   1.957   1.446
 4454SOL     OW14260   5.116   3.260   1.468
 4454SOL    HW114261   5.064   3.250   1.553
 4454SOL    HW214262   5.062   3.223   1.392
 4455SOL     OW14263   4.487   1.465   1.794
 4455SOL    HW114264   4.559   1.395   1.789
 4455SOL    HW214265   4.529   1.554   1.814
 4456SOL     OW14266   0.785   5.352   3.242
 4456SOL    HW114267   0.768   5.380   3.337
 4456SOL    HW214268   0.815   5.257   3.240
 4457SOL     OW14269   5.102   2.045   6.368
 4457SOL    HW114270   5.026   2.089   6.417
 4457SOL    HW214271   5.107   2.081   6.275
 4458SOL     OW14272   3.836   1.833   6.285
 4458SOL    HW114273   3.824   1.737   6.261
 4458SOL    HW214274   3.746   1.876   6.299
 4459SOL     OW14275   5.100   6.388   5.464
 4459SOL    HW114276   5.065   6.299   5.493
 4459SOL    HW214277   5.070   6.459   5.528
 4460SOL     OW14278   2.092   1.627   6.392
 4460SOL    HW114279   2.164   1.570   6.353
 4460SOL    HW214280   2.020   1.569   6.430
 4461SOL     OW14281   2.091   0.381   2.309
 4461SOL    HW114282   2.130   0.473   2.303
 4461SOL    HW214283   2.165   0.313   2.307
 4462SOL     OW14284   6.748   5.960   1.484
 4462SOL    HW114285   6.794   5.970   1.573
 4462SOL    HW214286   6.815   5.974   1.411
 4463SOL     OW14287   1.497   3.579   6.027
 4463SOL    HW114288   1.424   3.609   6.088
 4463SOL    HW214289   1.457   3.533   5.947
 4464SOL     OW14290   5.984   3.063   6.482
 4464SOL    HW114291   6.024   3.154   6.472
 4464SOL    HW214292   5.899   3.058   6.430
 4465SOL     OW14293   1.498   5.873   2.294
 4465SOL    HW114294   1.511   5.902   2.200
 4465SOL    HW214295   1.582   5.830   2.328
 4466SOL     OW14296   0.517   2.429   4.126
 4466SOL    HW114297   0.570   2.370   4.065
 4466SOL    HW214298   0.427   2.388   4.142
 4467SOL     OW14299   0.897   6.947   3.026
 4467SOL    HW114300   0.846   6.960   3.111
 4467SOL    HW214301   0.987   6.909   3.047
 4468SOL     OW14302   1.350   2.668   0.179
 4468SOL    HW114303   1.334   2.701   0.272
 4468SOL    HW214304   1.290   2.717   0.116
 4469SOL     OW14305   4.509   0.149   6.869
 4469SOL    HW114306   4.436   0.196   6.918
 4469SOL    HW214307   4.582   0.124   6.933
 4470SOL     OW14308   4.764   4.999   1.185
 4470SOL    HW114309   4.794   4.987   1.280
 4470SOL    HW214310   4.785   5.092   1.155
 4471SOL     OW14311   6.591   3.607   0.318
 4471SOL    HW114312   6.624   3.700   0.301
 4471SOL    HW214313   6.502   3.595   0.276
 4472SOL     OW14314   1.930   5.146   1.688
 4472SOL    HW114315   1.918   5.062   1.742
 4472SOL    HW214316   2.020   5.186   1.709
 4473SOL     OW14317   0.450   7.021   5.439
 4473SOL    HW114318   0.549   7.013   5.426
 4473SOL    HW214319   0.405   6.946   5.391
 4474SOL     OW14320   5.545   1.000   3.710
 4474SOL    HW114321   5.572   0.938   3.784
 4474SOL    HW214322   5.457   1.042   3.732
 4475SOL     OW14323   1.763   3.758   0.205
 4475SOL    HW114324   1.810   3.833   0.160
 4475SOL    HW214325   1.668   3.785   0.223
 4476SOL     OW14326   4.631   6.692   1.882
 4476SOL    HW114327   4.612   6.724   1.975
 4476SOL    HW214328   4.606   6.595   1.875
 4477SOL     OW14329   1.428   1.088   0.167
 4477SOL    HW114330   1.341   1.137   0.176
 4477SOL    HW214331   1.490   1.117   0.239
 4478SOL     OW14332   1.594   5.115   2.332
 4478SOL    HW114333   1.516   5.112   2.395
 4478SOL    HW214334   1.584   5.042   2.264
 4479SOL     OW14335   0.399   6.918   4.974
 4479SOL    HW114336   0.402   6.871   5.063
 4479SOL    HW214337   0.340   6.867   4.912
 4480SOL     OW14338   0.954   4.345   3.506
 4480SOL    HW114339   0.997   4.277   3.565
 4480SOL    HW214340   0.911   4.416   3.561
 4481SOL     OW14341   1.144   0.056   4.183
 4481SOL    HW114342   1.167   7.005   4.240
 4481SOL    HW214343   1.221   0.120   4.181
 4482SOL     OW14344   7.000   3.958   4.236
 4482SOL    HW114345   0.043   4.018   4.273
 4482SOL    HW214346   7.018   3.864   4.263
 4483SOL     OW14347   5.665   2.428   2.058
 4483SOL    HW114348   5.640   2.334   2.081
 4483SOL    HW214349   5.651   2.486   2.138
 4484SOL     OW14350   4.044   2.558   5.664
 4484SOL    HW114351   3.969   2.522   5.720
 4484SOL    HW214352   4.019   2.553   5.568
 4485SOL     OW14353   4.887   1.479   6.700
 4485SOL    HW114354   4.828   1.406   6.665
 4485SOL    HW214355   4.975   1.476   6.651
 4486SOL     OW14356   6.105   2.229   4.297
 4486SOL    HW114357   6.153   2.239   4.210
 4486SOL    HW214358   6.054   2.313   4.317
 4487SOL     OW14359   3.172   3.298   6.129
 4487SOL    HW114360   3.227   3.269   6.207
 4487SOL    HW214361   3.118   3.377   6.153
 4488SOL     OW14362   0.592   1.502   5.147
 4488SOL    HW114363   0.541   1.546   5.220
 4488SOL    HW214364   0.635   1.418   5.182
 4489SOL     OW14365   6.435   0.501   3.608
 4489SOL    HW114366   6.463   0.421   3.662
 4489SOL    HW214367   6.517   0.550   3.577
 4490SOL     OW14368   6.842   2.500   3.595
 4490SOL    HW114369   6.928   2.491   3.646
 4490SOL    HW214370   6.849   2.452   3.508
 4491SOL     OW14371   1.440   3.091   3.079
 4491SOL    HW114372   1.475   3.174   3.123
 4491SOL    HW214373   1.494   3.012   3.107
 4492SOL     OW14374   4.256   3.371   6.423
 4492SOL    HW114375   4.286   3.456   6.379
 4492SOL    HW214376   4.208   3.393   6.508
 4493SOL     OW14377   6.235   5.465   3.941
 4493SOL    HW114378   6.305   5.396   3.959
 4493SOL    HW214379   6.214   5.467   3.843
 4494SOL     OW14380   6.132   3.777   3.814
 4494SOL    HW114381   6.039   3.743   3.830
 4494SOL    HW214382   6.181   3.713   3.754
 4495SOL     OW14383   4.646   6.127   1.413
 4495SOL    HW114384   4.695   6.158   1.331
 4495SOL    HW214385   4.558   6.087   1.387
 4496SOL     OW14386   5.304   4.334   5.427
 4496SOL    HW114387   5.282   4.243   5.391
 4496SOL    HW214388   5.249   4.352   5.509
 4497SOL     OW14389   6.305   4.940   0.628
 4497SOL    HW114390   6.280   4.925   0.532
 4497SOL    HW214391   6.391   4.893   0.647
 4498SOL     OW14392   0.202   4.213   6.843
 4498SOL    HW114393   0.286   4.167   6.871
 4498SOL    HW214394   0.223   4.282   6.773
 4499SOL     OW14395   0.037   3.020   6.859
 4499SOL    HW114396   0.096   3.004   6.780
 4499SOL    HW214397   0.055   3.111   6.896
 4500SOL     OW14398   3.421   3.687   4.664
 4500SOL    HW114399   3.365   3.711   4.743
 4500SOL    HW214400   3.395   3.744   4.586
 4501SOL     OW14401   0.689   4.430   4.765
 4501SOL    HW114402   0.771   4.480   4.793
 4501SOL    HW214403   0.701   4.333   4.783
 4502SOL     OW14404   0.293   3.470   0.151
 4502SOL    HW114405   0.367   3.512   0.204
 4502SOL    HW214406   0.298   3.371   0.160
 4503SOL     OW14407   1.661   2.063   3.315
 4503SOL    HW114408   1.585   2.125   3.337
 4503SOL    HW214409   1.625   1.971   3.302
 4504SOL     OW14410   4.996   2.476   4.736
 4504SOL    HW114411   4.917   2.535   4.753
 4504SOL    HW214412   4.964   2.385   4.710
 4505SOL     OW14413   1.776   5.144   6.127
 4505SOL    HW114414   1.761   5.242   6.109
 4505SOL    HW214415   1.694   5.105   6.167
 4506SOL     OW14416   3.836   0.270   5.451
 4506SOL    HW114417   3.929   0.249   5.482
 4506SOL    HW214418   3.833   0.272   5.352
 4507SOL     OW14419   6.812   4.395   0.994
 4507SOL    HW114420   6.834   4.401   1.091
 4507SOL    HW214421   6.778   4.484   0.962
 4508SOL     OW14422   1.729   4.006   0.680
 4508SOL    HW114423   1.766   3.999   0.773
 4508SOL    HW214424   1.656   4.074   0.679
 4509SOL     OW14425   1.442   1.941   3.653
 4509SOL    HW114426   1.469   2.021   3.707
 4509SOL    HW214427   1.350   1.913   3.680
 4510SOL     OW14428   3.922   6.617   5.059
 4510SOL    HW114429   3.988   6.603   4.986
 4510SOL    HW214430   3.920   6.713   5.086
 4511SOL     OW14431   5.895   2.518   0.031
 4511SOL    HW114432   5.968   2.581   0.057
 4511SOL    HW214433   5.847   2.487   0.113
 4512SOL     OW14434   2.940   4.942   0.121
 4512SOL    HW114435   2.925   4.920   0.218
 4512SOL    HW214436   3.035   4.925   0.098
 4513SOL     OW14437   5.151   0.613   1.838
 4513SOL    HW114438   5.166   0.528   1.889
 4513SOL    HW214439   5.111   0.592   1.749
 4514SOL     OW14440   3.511   1.574   5.013
 4514SOL    HW114441   3.476   1.665   5.036
 4514SOL    HW214442   3.436   1.509   5.008
 4515SOL     OW14443   0.586   5.120   1.272
 4515SOL    HW114444   0.637   5.184   1.214
 4515SOL    HW214445   0.597   5.027   1.237
 4516SOL     OW14446   0.989   0.386   4.913
 4516SOL    HW114447   0.935   0.467   4.890
 4516SOL    HW214448   0.944   0.305   4.875
 4517SOL     OW14449   3.512   6.838   5.190
 4517SOL    HW114450   3.475   6.754   5.150
 4517SOL    HW214451   3.438   6.903   5.204
 4518SOL     OW14452   1.105   1.837   4.620
 4518SOL    HW114453   1.007   1.859   4.614
 4518SOL    HW214454   1.144   1.835   4.528
 4519SOL     OW14455   5.957   2.462   4.451
 4519SOL    HW114456   6.047   2.445   4.492
 4519SOL    HW214457   5.886   2.440   4.517
 4520SOL     OW14458   6.931   4.172   2.944
 4520SOL    HW114459   6.995   4.097   2.929
 4520SOL    HW214460   6.869   4.179   2.866
 4521SOL     OW14461   6.064   1.899   6.250
 4521SOL    HW114462   6.050   1.915   6.348
 4521SOL    HW214463   6.043   1.803   6.229
 4522SOL     OW14464   5.951   0.639   3.923
 4522SOL    HW114465   5.928   0.716   3.862
 4522SOL    HW214466   5.998   0.674   4.004
 4523SOL     OW14467   3.649   3.620   6.932
 4523SOL    HW114468   3.647   3.664   6.842
 4523SOL    HW214469   3.629   3.522   6.921
 4524SOL     OW14470   6.060   0.144   4.914
 4524SOL    HW114471   6.005   0.213   4.866
 4524SOL    HW214472   6.096   0.184   4.999
 4525SOL     OW14473   6.552   1.832   5.271
 4525SOL    HW114474   6.560   1.736   5.242
 4525SOL    HW214475   6.471   1.843   5.328
 4526SOL     OW14476   3.973   0.772   1.045
 4526SOL    HW114477   3.880   0.779   1.009
 4526SOL    HW214478   4.027   0.849   1.012
 4527SOL     OW14479   4.210   1.015   3.206
 4527SOL    HW114480   4.216   1.098   3.150
 4527SOL    HW214481   4.196   1.040   3.302
 4528SOL     OW14482   6.210   0.685   6.457
 4528SOL    HW114483   6.159   0.600   6.446
 4528SOL    HW214484   6.209   0.711   6.554
 4529SOL     OW14485   3.696   6.324   3.131
 4529SOL    HW114486   3.660   6.276   3.052
 4529SOL    HW214487   3.727   6.415   3.103
 4530SOL     OW14488   0.563   3.378   5.554
 4530SOL    HW114489   0.575   3.348   5.649
 4530SOL    HW214490   0.642   3.349   5.500
 4531SOL     OW14491   0.272   3.491   3.903
 4531SOL    HW114492   0.333   3.498   3.824
 4531SOL    HW214493   0.196   3.429   3.882
 4532SOL     OW14494   6.099   2.036   0.946
 4532SOL    HW114495   6.151   2.088   1.013
 4532SOL    HW214496   6.097   1.939   0.973
 4533SOL     OW14497   2.608   6.040   2.968
 4533SOL    HW114498   2.626   5.949   2.932
 4533SOL    HW214499   2.680   6.103   2.939
 4534SOL     OW14500   6.117   4.015   5.733
 4534SOL    HW114501   6.018   4.009   5.717
 4534SOL    HW214502   6.135   4.091   5.796
 4535SOL     OW14503   5.027   3.056   1.924
 4535SOL    HW114504   5.081   3.030   2.004
 4535SOL    HW214505   4.930   3.059   1.949
 4536SOL     OW14506   6.675   1.203   4.221
 4536SOL    HW114507   6.756   1.196   4.281
 4536SOL    HW214508   6.597   1.160   4.266
 4537SOL     OW14509   3.688   2.819   6.103
 4537SOL    HW114510   3.727   2.767   6.028
 4537SOL    HW214511   3.730   2.791   6.189
 4538SOL     OW14512   3.077   0.988   2.815
 4538SOL    HW114513   2.985   0.986   2.775
 4538SOL    HW214514   3.092   1.078   2.857
 4539SOL     OW14515   1.623   1.676   2.164
 4539SOL    HW114516   1.545   1.716   2.116
 4539SOL    HW214517   1.704   1.733   2.146
 4540SOL     OW14518   3.226   2.960   4.299
 4540SOL    HW114519   3.139   2.980   4.256
 4540SOL    HW214520   3.298   2.956   4.230
 4541SOL     OW14521   5.330   1.439   1.167
 4541SOL    HW114522   5.241   1.485   1.161
 4541SOL    HW214523   5.400   1.497   1.125
 4542SOL     OW14524   4.560   0.893   3.792
 4542SOL    HW114525   4.570   0.961   3.864
 4542SOL    HW214526   4.594   0.930   3.706
 4543SOL     OW14527   5.102   1.904   1.877
 4543SOL    HW114528   5.187   1.925   1.828
 4543SOL    HW214529   5.052   1.989   1.893
 4544SOL     OW14530   3.474   4.788   6.379
 4544SOL    HW114531   3.555   4.800   6.323
 4544SOL    HW214532   3.392   4.794   6.322
 4545SOL     OW14533   4.658   2.487   5.425
 4545SOL    HW114534   4.733   2.453   5.369
 4545SOL    HW214535   4.577   2.500   5.367
 4546SOL     OW14536   1.470   6.582   5.919
 4546SOL    HW114537   1.428   6.669   5.948
 4546SOL    HW214538   1.545   6.601   5.856
 4547SOL     OW14539   4.748   2.326   1.785
 4547SOL    HW114540   4.688   2.267   1.731
 4547SOL    HW214541   4.706   2.343   1.875
 4548SOL     OW14542   1.004   3.408   3.579
 4548SOL    HW114543   0.998   3.314   3.545
 4548SOL    HW214544   1.061   3.411   3.661
 4549SOL     OW14545   5.719   2.456   2.727
 4549SOL    HW114546   5.620   2.442   2.727
 4549SOL    HW214547   5.762   2.388   2.786
 4550SOL     OW14548   1.115   6.131   4.438
 4550SOL    HW114549   1.157   6.222   4.441
 4550SOL    HW214550   1.119   6.090   4.529
 4551SOL     OW14551   0.594   2.836   5.787
 4551SOL    HW114552   0.674   2.827   5.847
 4551SOL    HW214553   0.606   2.915   5.727
 4552SOL     OW14554   6.905   3.421   4.376
 4552SOL    HW114555   6.887   3.383   4.285
 4552SOL    HW214556   7.002   3.439   4.387
 4553SOL     OW14557   4.774   4.684   0.443
 4553SOL    HW114558   4.858   4.733   0.467
 4553SOL    HW214559   4.706   4.696   0.516
 4554SOL     OW14560   5.056   6.778   2.916
 4554SOL    HW114561   5.083   6.803   2.823
 4554SOL    HW214562   4.963   6.808   2.933
 4555SOL     OW14563   4.998   1.447   6.961
 4555SOL    HW114564   5.023   1.544   6.974
 4555SOL    HW214565   4.953   1.436   6.873
 4556SOL     OW14566   4.798   1.005   4.153
 4556SOL    HW114567   4.793   0.932   4.085
 4556SOL    HW214568   4.876   0.990   4.213
 4557SOL     OW14569   5.089   0.514   5.706
 4557SOL    HW114570   5.053   0.447   5.641
 4557SOL    HW214571   5.061   0.490   5.799
 4558SOL     OW14572   6.130   2.875   6.323
 4558SOL    HW114573   6.116   2.957   6.379
 4558SOL    HW214574   6.228   2.854   6.320
 4559SOL     OW14575   1.059   6.977   0.996
 4559SOL    HW114576   1.072   6.904   1.064
 4559SOL    HW214577   1.107   0.032   1.026
 4560SOL     OW14578   4.780   2.838   2.574
 4560SOL    HW114579   4.741   2.796   2.492
 4560SOL    HW214580   4.820   2.927   2.551
 4561SOL     OW14581   2.888   6.931   6.782
 4561SOL    HW114582   2.889   6.855   6.847
 4561SOL    HW214583   2.862   7.015   6.830
 4562SOL     OW14584   2.965   5.143   6.015
 4562SOL    HW114585   2.892   5.179   5.957
 4562SOL    HW214586   2.976   5.201   6.095
 4563SOL     OW14587   5.774   2.062   6.572
 4563SOL    HW114588   5.767   2.155   6.610
 4563SOL    HW214589   5.734   2.060   6.481
 4564SOL     OW14590   1.400   5.776   0.298
 4564SOL    HW114591   1.315   5.765   0.246
 4564SOL    HW214592   1.379   5.818   0.387
 4565SOL     OW14593   2.092   0.231   4.944
 4565SOL    HW114594   2.137   0.269   4.863
 4565SOL    HW214595   2.134   0.270   5.026
 4566SOL     OW14596   0.186   2.084   0.021
 4566SOL    HW114597   0.265   2.023   0.030
 4566SOL    HW214598   0.199   2.143   6.968
 4567SOL     OW14599   6.813   1.274   0.690
 4567SOL    HW114600   6.757   1.335   0.747
 4567SOL    HW214601   6.903   1.262   0.731
 4568SOL     OW14602   3.458   4.676   5.358
 4568SOL    HW114603   3.436   4.583   5.329
 4568SOL    HW214604   3.427   4.741   5.288
 4569SOL     OW14605   0.356   2.065   4.727
 4569SOL    HW114606   0.372   2.159   4.757
 4569SOL    HW214607   0.369   2.003   4.804
 4570SOL     OW14608   0.044   5.017   4.314
 4570SOL    HW114609   0.004   5.109   4.315
 4570SOL    HW214610   0.040   4.979   4.222
 4571SOL     OW14611   3.544   2.859   4.646
 4571SOL    HW114612   3.589   2.770   4.643
 4571SOL    HW214613   3.584   2.914   4.719
 4572SOL     OW14614   1.900   6.066   1.066
 4572SOL    HW114615   1.853   6.098   0.983
 4572SOL    HW214616   1.985   6.021   1.040
 4573SOL     OW14617   5.431   0.027   0.904
 4573SOL    HW114618   5.395   0.120   0.892
 4573SOL    HW214619   5.456   0.013   1.000
 4574SOL     OW14620   0.619   4.216   2.560
 4574SOL    HW114621   0.684   4.157   2.608
 4574SOL    HW214622   0.625   4.200   2.461
 4575SOL     OW14623   6.225   0.244   2.712
 4575SOL    HW114624   6.140   0.285   2.744
 4575SOL    HW214625   6.239   0.156   2.758
 4576SOL     OW14626   2.996   5.745   5.370
 4576SOL    HW114627   3.067   5.685   5.406
 4576SOL    HW214628   3.038   5.823   5.324
 4577SOL     OW14629   0.822   2.737   3.674
 4577SOL    HW114630   0.898   2.764   3.733
 4577SOL    HW214631   0.857   2.686   3.596
 4578SOL     OW14632   7.018   3.877   3.980
 4578SOL    HW114633   7.020   3.897   4.078
 4578SOL    HW214634   0.082   3.849   3.950
 4579SOL     OW14635   5.225   1.769   3.951
 4579SOL    HW114636   5.235   1.857   3.998
 4579SOL    HW214637   5.142   1.723   3.983
 4580SOL     OW14638   6.841   5.501   0.499
 4580SOL    HW114639   6.879   5.446   0.424
 4580SOL    HW214640   6.811   5.441   0.573
 4581SOL     OW14641   3.492   5.656   2.909
 4581SOL    HW114642   3.547   5.693   2.834
 4581SOL    HW214643   3.486   5.723   2.983
 4582SOL     OW14644   4.557   6.813   2.178
 4582SOL    HW114645   4.604   6.829   2.265
 4582SOL    HW214646   4.483   6.747   2.192
 4583SOL     OW14647   4.878   1.794   5.260
 4583SOL    HW114648   4.903   1.889   5.240
 4583SOL    HW214649   4.851   1.749   5.175
 4584SOL     OW14650   0.500   5.080   5.307
 4584SOL    HW114651   0.454   5.145   5.247
 4584SOL    HW214652   0.540   5.129   5.385
 4585SOL     OW14653   4.143   6.633   2.626
 4585SOL    HW114654   4.094   6.591   2.702
 4585SOL    HW214655   4.089   6.623   2.542
 4586SOL     OW14656   3.498   5.465   1.929
 4586SOL    HW114657   3.592   5.467   1.896
 4586SOL    HW214658   3.498   5.439   2.026
 4587SOL     OW14659   2.417   4.197   1.070
 4587SOL    HW114660   2.327   4.217   1.110
 4587SOL    HW214661   2.483   4.266   1.101
 4588SOL     OW14662   4.317   3.820   5.234
 4588SOL    HW114663   4.223   3.787   5.239
 4588SOL    HW214664   4.334   3.859   5.143
 4589SOL     OW14665   6.764   1.850   4.397
 4589SOL    HW114666   6.860   1.875   4.412
 4589SOL    HW214667   6.755   1.751   4.392
 4590SOL     OW14668   5.067   5.658   2.671
 4590SOL    HW114669   4.978   5.634   2.712
 4590SOL    HW214670   5.069   5.626   2.576
 4591SOL     OW14671   5.482   5.730   5.329
 4591SOL    HW114672   5.468   5.764   5.422
 4591SOL    HW214673   5.448   5.636   5.322
 4592SOL     OW14674   3.963   2.144   6.229
 4592SOL    HW114675   3.975   2.237   6.194
 4592SOL    HW214676   3.867   2.118   6.219
 4593SOL     OW14677   3.652   5.908   2.432
 4593SOL    HW114678   3.653   5.978   2.360
 4593SOL    HW214679   3.739   5.857   2.429
 4594SOL     OW14680   2.694   0.877   2.285
 4594SOL    HW114681   2.767   0.829   2.333
 4594SOL    HW214682   2.677   0.833   2.197
 4595SOL     OW14683   4.402   2.310   5.575
 4595SOL    HW114684   4.353   2.332   5.659
 4595SOL    HW214685   4.350   2.341   5.496
 4596SOL     OW14686   5.984   0.028   1.520
 4596SOL    HW114687   6.042   0.107   1.540
 4596SOL    HW214688   5.943   0.039   1.429
 4597SOL     OW14689   6.353   4.775   6.829
 4597SOL    HW114690   6.394   4.865   6.814
 4597SOL    HW214691   6.369   4.717   6.749
 4598SOL     OW14692   3.251   4.915   0.068
 4598SOL    HW114693   3.216   4.900   7.003
 4598SOL    HW214694   3.328   4.854   0.085
 4599SOL     OW14695   1.206   4.655   0.404
 4599SOL    HW114696   1.172   4.718   0.335
 4599SOL    HW214697   1.200   4.698   0.495
 4600SOL     OW14698   3.102   5.396   1.364
 4600SOL    HW114699   3.107   5.476   1.305
 4600SOL    HW214700   3.104   5.313   1.309
 4601SOL     OW14701   1.846   6.217   5.169
 4601SOL    HW114702   1.838   6.292   5.103
 4601SOL    HW214703   1.792   6.239   5.250
 4602SOL     OW14704   1.599   0.623   1.149
 4602SOL    HW114705   1.690   0.662   1.134
 4602SOL    HW214706   1.547   0.624   1.063
 4603SOL     OW14707   3.415   6.906   1.996
 4603SOL    HW114708   3.403   6.929   1.899
 4603SOL    HW214709   3.339   6.849   2.026
 4604SOL     OW14710   3.314   6.776   2.350
 4604SOL    HW114711   3.294   6.704   2.284
 4604SOL    HW214712   3.229   6.821   2.377
 4605SOL     OW14713   5.046   0.423   5.434
 4605SOL    HW114714   5.084   0.374   5.355
 4605SOL    HW214715   5.073   0.519   5.430
 4606SOL     OW14716   6.855   6.336   5.376
 4606SOL    HW114717   6.879   6.239   5.364
 4606SOL    HW214718   6.771   6.342   5.430
 4607SOL     OW14719   2.613   2.221   1.105
 4607SOL    HW114720   2.601   2.182   1.197
 4607SOL    HW214721   2.590   2.318   1.108
 4608SOL     OW14722   1.567   3.518   5.594
 4608SOL    HW114723   1.578   3.601   5.648
 4608SOL    HW214724   1.558   3.439   5.656
 4609SOL     OW14725   4.479   6.761   6.207
 4609SOL    HW114726   4.523   6.845   6.239
 4609SOL    HW214727   4.432   6.717   6.283
 4610SOL     OW14728   0.662   3.115   6.174
 4610SOL    HW114729   0.586   3.102   6.110
 4610SOL    HW214730   0.633   3.092   6.266
 4611SOL     OW14731   1.156   3.778   0.209
 4611SOL    HW114732   1.143   3.857   0.150
 4611SOL    HW214733   1.222   3.716   0.168
 4612SOL     OW14734   2.013   0.134   6.186
 4612SOL    HW114735   1.956   0.137   6.268
 4612SOL    HW214736   2.078   0.058   6.194
 4613SOL     OW14737   3.051   5.457   1.972
 4613SOL    HW114738   3.131   5.516   1.968
 4613SOL    HW214739   2.996   5.481   2.052
 4614SOL     OW14740   1.711   5.656   0.499
 4614SOL    HW114741   1.774   5.612   0.563
 4614SOL    HW214742   1.752   5.660   0.408
 4615SOL     OW14743   6.994   2.468   0.376
 4615SOL    HW114744   6.991   2.465   0.276
 4615SOL    HW214745   0.062   2.470   0.406
 4616SOL     OW14746   5.772   1.006   6.689
 4616SOL    HW114747   5.816   1.027   6.777
 4616SOL    HW214748   5.829   0.942   6.637
 4617SOL     OW14749   0.067   2.891   1.934
 4617SOL    HW114750   0.116   2.974   1.962
 4617SOL    HW214751   0.002   2.865   2.006
 4618SOL     OW14752   1.039   1.947   6.078
 4618SOL    HW114753   0.995   2.038   6.081
 4618SOL    HW214754   0.981   1.885   6.026
 4619SOL     OW14755   3.337   0.967   3.611
 4619SOL    HW114756   3.330   0.970   3.711
 4619SOL    HW214757   3.305   0.878   3.578
 4620SOL     OW14758   2.169   4.064   6.582
 4620SOL    HW114759   2.139   4.011   6.503
 4620SOL    HW214760   2.268   4.061   6.589
 4621SOL     OW14761   0.262   5.826   6.293
 4621SOL    HW114762   0.345   5.831   6.238
 4621SOL    HW214763   0.231   5.919   6.315
 4622SOL     OW14764   2.458   3.532   1.181
 4622SOL    HW114765   2.472   3.612   1.123
 4622SOL    HW214766   2.443   3.561   1.275
 4623SOL     OW14767   5.863   4.500   2.176
 4623SOL    HW114768   5.818   4.560   2.243
 4623SOL    HW214769   5.859   4.541   2.086
 4624SOL     OW14770   4.683   0.115   5.585
 4624SOL    HW114771   4.782   0.098   5.584
 4624SOL    HW214772   4.635   0.032   5.558
 4625SOL     OW14773   0.648   3.065   6.705
 4625SOL    HW114774   0.718   3.132   6.731
 4625SOL    HW214775   0.571   3.071   6.768
 4626SOL     OW14776   6.298   4.980   1.694
 4626SOL    HW114777   6.351   4.985   1.609
 4626SOL    HW214778   6.204   5.010   1.676
 4627SOL     OW14779   2.537   0.280   6.610
 4627SOL    HW114780   2.468   0.302   6.540
 4627SOL    HW214781   2.503   0.208   6.670
 4628SOL     OW14782   0.299   3.929   2.012
 4628SOL    HW114783   0.207   3.963   1.992
 4628SOL    HW214784   0.347   3.996   2.069
 4629SOL     OW14785   2.909   4.721   5.542
 4629SOL    HW114786   2.809   4.725   5.538
 4629SOL    HW214787   2.940   4.751   5.633
 4630SOL     OW14788   1.821   0.066   2.854
 4630SOL    HW114789   1.726   0.045   2.874
 4630SOL    HW214790   1.879   0.038   2.931
 4631SOL     OW14791   2.802   6.965   2.327
 4631SOL    HW114792   2.901   6.960   2.322
 4631SOL    HW214793   2.771   0.025   2.288
 4632SOL     OW14794   4.994   5.230   4.020
 4632SOL    HW114795   5.028   5.164   3.952
 4632SOL    HW214796   4.962   5.312   3.973
 4633SOL     OW14797   6.218   1.884   4.945
 4633SOL    HW114798   6.294   1.829   4.910
 4633SOL    HW214799   6.217   1.879   5.044
 4634SOL     OW14800   2.989   4.646   0.885
 4634SOL    HW114801   2.928   4.567   0.872
 4634SOL    HW214802   2.948   4.708   0.952
 4635SOL     OW14803   5.669   4.210   1.658
 4635SOL    HW114804   5.569   4.210   1.649
 4635SOL    HW214805   5.708   4.149   1.589
 4636SOL     OW14806   2.163   5.564   0.769
 4636SOL    HW114807   2.132   5.645   0.719
 4636SOL    HW214808   2.184   5.589   0.864
 4637SOL     OW14809   1.472   1.086   5.650
 4637SOL    HW114810   1.436   1.044   5.566
 4637SOL    HW214811   1.563   1.122   5.632
 4638SOL     OW14812   5.109   3.531   6.037
 4638SOL    HW114813   5.021   3.576   6.055
 4638SOL    HW214814   5.157   3.581   5.965
 4639SOL     OW14815   6.713   3.648   5.392
 4639SOL    HW114816   6.651   3.721   5.422
 4639SOL    HW214817   6.669   3.594   5.321
 4640SOL     OW14818   5.697   4.251   2.688
 4640SOL    HW114819   5.714   4.153   2.700
 4640SOL    HW214820   5.766   4.289   2.627
 4641SOL     OW14821   2.398   4.780   5.759
 4641SOL    HW114822   2.407   4.726   5.676
 4641SOL    HW214823   2.392   4.718   5.838
 4642SOL     OW14824   5.725   6.098   4.412
 4642SOL    HW114825   5.737   6.088   4.313
 4642SOL    HW214826   5.782   6.032   4.459
 4643SOL     OW14827   3.998   2.753   1.291
 4643SOL    HW114828   3.981   2.838   1.241
 4643SOL    HW214829   3.919   2.732   1.348
 4644SOL     OW14830   2.128   5.176   4.901
 4644SOL    HW114831   2.177   5.166   4.815
 4644SOL    HW214832   2.185   5.224   4.968
 4645SOL     OW14833   1.603   5.886   4.888
 4645SOL    HW114834   1.631   5.791   4.873
 4645SOL    HW214835   1.646   5.921   4.971
 4646SOL     OW14836   3.585   0.592   1.614
 4646SOL    HW114837   3.543   0.502   1.601
 4646SOL    HW214838   3.539   0.659   1.556
 4647SOL     OW14839   6.332   0.114   5.052
 4647SOL    HW114840   6.302   0.098   4.958
 4647SOL    HW214841   6.366   0.029   5.092
 4648SOL     OW14842   2.123   5.589   2.740
 4648SOL    HW114843   2.211   5.541   2.738
 4648SOL    HW214844   2.087   5.590   2.833
 4649SOL     OW14845   5.094   0.166   5.789
 4649SOL    HW114846   5.080   0.250   5.842
 4649SOL    HW214847   5.186   0.131   5.806
 4650SOL     OW14848   6.890   4.761   2.046
 4650SOL    HW114849   6.857   4.855   2.051
 4650SOL    HW214850   6.990   4.761   2.042
 4651SOL     OW14851   0.259   2.107   1.113
 4651SOL    HW114852   0.270   2.104   1.212
 4651SOL    HW214853   0.162   2.093   1.090
 4652SOL     OW14854   0.096   6.058   6.325
 4652SOL    HW114855   0.076   6.109   6.242
 4652SOL    HW214856   0.010   6.039   6.373
 4653SOL     OW14857   0.620   5.830   6.853
 4653SOL    HW114858   0.629   5.755   6.919
 4653SOL    HW214859   0.524   5.859   6.849
 4654SOL     OW14860   1.136   1.341   6.902
 4654SOL    HW114861   1.132   1.407   6.978
 4654SOL    HW214862   1.231   1.321   6.880
 4655SOL     OW14863   0.461   5.065   3.650
 4655SOL    HW114864   0.515   4.996   3.699
 4655SOL    HW214865   0.393   5.018   3.593
 4656SOL     OW14866   1.870   6.940   3.282
 4656SOL    HW114867   1.806   6.939   3.359
 4656SOL    HW214868   1.896   0.007   3.261
 4657SOL     OW14869   6.086   0.043   0.040
 4657SOL    HW114870   6.012   0.094   0.083
 4657SOL    HW214871   6.174   0.078   0.072
 4658SOL     OW14872   5.303   0.784   3.091
 4658SOL    HW114873   5.377   0.822   3.146
 4658SOL    HW214874   5.310   0.684   3.091
 4659SOL     OW14875   2.090   2.397   4.394
 4659SOL    HW114876   2.119   2.446   4.476
 4659SOL    HW214877   2.000   2.356   4.410
 4660SOL     OW14878   0.148   0.699   5.606
 4660SOL    HW114879   0.179   0.652   5.689
 4660SOL    HW214880   0.048   0.698   5.602
 4661SOL     OW14881   3.980   3.615   3.424
 4661SOL    HW114882   3.952   3.710   3.440
 4661SOL    HW214883   4.033   3.610   3.339
 4662SOL     OW14884   4.755   0.834   4.850
 4662SOL    HW114885   4.725   0.747   4.812
 4662SOL    HW214886   4.763   0.826   4.950
 4663SOL     OW14887   0.345   1.982   2.630
 4663SOL    HW114888   0.315   1.941   2.544
 4663SOL    HW214889   0.364   2.079   2.617
 4664SOL     OW14890   3.214   2.572   6.988
 4664SOL    HW114891   3.215   2.563   0.061
 4664SOL    HW214892   3.172   2.491   6.948
 4665SOL     OW14893   5.656   0.555   0.217
 4665SOL    HW114894   5.756   0.552   0.214
 4665SOL    HW214895   5.621   0.593   0.131
 4666SOL     OW14896   1.676   1.292   0.591
 4666SOL    HW114897   1.621   1.251   0.663
 4666SOL    HW214898   1.757   1.335   0.632
 4667SOL     OW14899   0.664   5.484   5.837
 4667SOL    HW114900   0.566   5.475   5.823
 4667SOL    HW214901   0.708   5.395   5.828
 4668SOL     OW14902   5.658   1.628   4.356
 4668SOL    HW114903   5.748   1.647   4.315
 4668SOL    HW214904   5.601   1.580   4.290
 4669SOL     OW14905   2.677   0.582   0.719
 4669SOL    HW114906   2.656   0.554   0.626
 4669SOL    HW214907   2.623   0.528   0.783
 4670SOL     OW14908   2.142   1.614   4.358
 4670SOL    HW114909   2.185   1.662   4.282
 4670SOL    HW214910   2.097   1.680   4.418
 4671SOL     OW14911   5.788   3.620   1.386
 4671SOL    HW114912   5.749   3.677   1.313
 4671SOL    HW214913   5.723   3.614   1.462
 4672SOL     OW14914   2.468   3.611   5.863
 4672SOL    HW114915   2.395   3.589   5.799
 4672SOL    HW214916   2.546   3.551   5.848
 4673SOL     OW14917   3.675   0.528   2.664
 4673SOL    HW114918   3.726   0.593   2.720
 4673SOL    HW214919   3.727   0.507   2.581
 4674SOL     OW14920   4.285   6.412   6.360
 4674SOL    HW114921   4.313   6.421   6.264
 4674SOL    HW214922   4.337   6.476   6.417
 4675SOL     OW14923   1.264   3.932   6.617
 4675SOL    HW114924   1.195   3.919   6.545
 4675SOL    HW214925   1.349   3.964   6.575
 4676SOL     OW14926   0.995   5.175   4.173
 4676SOL    HW114927   1.030   5.119   4.248
 4676SOL    HW214928   0.922   5.235   4.207
 4677SOL     OW14929   1.405   3.328   0.250
 4677SOL    HW114930   1.481   3.389   0.230
 4677SOL    HW214931   1.428   3.235   0.219
 4678SOL     OW14932   2.445   4.528   2.269
 4678SOL    HW114933   2.475   4.502   2.361
 4678SOL    HW214934   2.515   4.585   2.226
 4679SOL     OW14935   4.873   6.931   1.323
 4679SOL    HW114936   4.956   6.935   1.378
 4679SOL    HW214937   4.827   7.020   1.325
 4680SOL     OW14938   1.701   1.050   1.236
 4680SOL    HW114939   1.752   1.046   1.150
 4680SOL    HW214940   1.634   0.976   1.237
 4681SOL     OW14941   4.818   5.442   1.553
 4681SOL    HW114942   4.862   5.424   1.641
 4681SOL    HW214943   4.887   5.471   1.487
 4682SOL     OW14944   3.632   4.012   6.978
 4682SOL    HW114945   3.570   4.077   6.935
 4682SOL    HW214946   3.720   4.056   6.996
 4683SOL     OW14947   6.601   4.585   3.731
 4683SOL    HW114948   6.633   4.494   3.705
 4683SOL    HW214949   6.584   4.639   3.649
 4684SOL     OW14950   5.477   0.031   0.173
 4684SOL    HW114951   5.510   0.117   0.132
 4684SOL    HW214952   5.542   0.001   0.242
 4685SOL     OW14953   3.180   3.834   5.707
 4685SOL    HW114954   3.118   3.870   5.637
 4685SOL    HW214955   3.126   3.802   5.785
 4686SOL     OW14956   3.274   5.281   0.255
 4686SOL    HW114957   3.355   5.333   0.281
 4686SOL    HW214958   3.289   5.238   0.166
 4687SOL     OW14959   3.325   0.826   2.877
 4687SOL    HW114960   3.233   0.846   2.841
 4687SOL    HW214961   3.340   0.727   2.875
 4688SOL     OW14962   5.831   2.970   5.658
 4688SOL    HW114963   5.808   3.067   5.668
 4688SOL    HW214964   5.822   2.944   5.562
 4689SOL     OW14965   5.484   0.807   1.910
 4689SOL    HW114966   5.517   0.899   1.889
 4689SOL    HW214967   5.393   0.813   1.950
 4690SOL     OW14968   2.418   2.136   0.447
 4690SOL    HW114969   2.395   2.233   0.459
 4690SOL    HW214970   2.338   2.080   0.468
 4691SOL     OW14971   0.119   4.427   1.959
 4691SOL    HW114972   0.047   4.408   2.026
 4691SOL    HW214973   0.081   4.417   1.867
 4692SOL     OW14974   5.507   3.590   2.129
 4692SOL    HW114975   5.584   3.527   2.142
 4692SOL    HW214976   5.435   3.568   2.195
 4693SOL     OW14977   1.696   1.328   3.897
 4693SOL    HW114978   1.673   1.247   3.843
 4693SOL    HW214979   1.631   1.401   3.877
 4694SOL     OW14980   2.184   0.939   0.335
 4694SOL    HW114981   2.084   0.951   0.332
 4694SOL    HW214982   2.226   1.021   0.372
 4695SOL     OW14983   1.340   5.930   1.763
 4695SOL    HW114984   1.272   5.959   1.695
 4695SOL    HW214985   1.415   5.996   1.766
 4696SOL     OW14986   1.743   5.483   5.834
 4696SOL    HW114987   1.721   5.571   5.875
 4696SOL    HW214988   1.749   5.413   5.905
 4697SOL     OW14989   4.037   4.786   0.874
 4697SOL    HW114990   4.037   4.884   0.890
 4697SOL    HW214991   3.943   4.751   0.881
 4698SOL     OW14992   5.534   1.091   3.434
 4698SOL    HW114993   5.533   1.074   3.532
 4698SOL    HW214994   5.572   1.181   3.415
 4699SOL     OW14995   1.234   0.170   2.645
 4699SOL    HW114996   1.177   0.101   2.600
 4699SOL    HW214997   1.324   0.131   2.665
 4700SOL     OW14998   6.274   2.267   2.247
 4700SOL    HW114999   6.350   2.258   2.312
 4700SOL    HW215000   6.195   2.216   2.281
 4701SOL     OW15001   3.061   2.263   1.696
 4701SOL    HW115002   3.008   2.306   1.769
 4701SOL    HW215003   3.083   2.331   1.626
 4702SOL     OW15004   5.459   4.579   6.790
 4702SOL    HW115005   5.488   4.668   6.758
 4702SOL    HW215006   5.444   4.518   6.712
 4703SOL     OW15007   0.702   5.188   3.660
 4703SOL    HW115008   0.725   5.197   3.757
 4703SOL    HW215009   0.614   5.142   3.651
 4704SOL     OW15010   1.161   4.842   5.149
 4704SOL    HW115011   1.074   4.793   5.153
 4704SOL    HW215012   1.169   4.888   5.061
 4705SOL     OW15013   3.467   2.352   1.601
 4705SOL    HW115014   3.525   2.369   1.680
 4705SOL    HW215015   3.478   2.258   1.571
 4706SOL     OW15016   2.014   1.168   0.539
 4706SOL    HW115017   2.003   1.199   0.445
 4706SOL    HW215018   2.005   1.068   0.543
 4707SOL     OW15019   1.529   6.367   1.440
 4707SOL    HW115020   1.523   6.407   1.532
 4707SOL    HW215021   1.467   6.416   1.379
 4708SOL     OW15022   1.074   2.725   4.659
 4708SOL    HW115023   0.989   2.725   4.608
 4708SOL    HW215024   1.113   2.633   4.659
 4709SOL     OW15025   4.858   3.835   5.201
 4709SOL    HW115026   4.885   3.894   5.125
 4709SOL    HW215027   4.804   3.759   5.166
 4710SOL     OW15028   6.633   6.236   4.602
 4710SOL    HW115029   6.697   6.311   4.614
 4710SOL    HW215030   6.602   6.233   4.506
 4711SOL     OW15031   5.603   3.257   3.152
 4711SOL    HW115032   5.544   3.335   3.132
 4711SOL    HW215033   5.551   3.189   3.203
 4712SOL     OW15034   4.721   3.962   5.443
 4712SOL    HW115035   4.639   4.019   5.440
 4712SOL    HW215036   4.753   3.944   5.350
 4713SOL     OW15037   6.264   4.400   1.224
 4713SOL    HW115038   6.272   4.301   1.213
 4713SOL    HW215039   6.251   4.443   1.135
 4714SOL     OW15040   5.358   1.349   6.562
 4714SOL    HW115041   5.411   1.410   6.622
 4714SOL    HW215042   5.274   1.395   6.535
 4715SOL     OW15043   6.382   1.299   2.171
 4715SOL    HW115044   6.442   1.256   2.239
 4715SOL    HW215045   6.394   1.398   2.174
 4716SOL     OW15046   3.854   4.723   6.038
 4716SOL    HW115047   3.918   4.683   5.971
 4716SOL    HW215048   3.823   4.812   6.005
 4717SOL     OW15049   2.569   5.369   5.500
 4717SOL    HW115050   2.536   5.432   5.430
 4717SOL    HW215051   2.492   5.340   5.558
 4718SOL     OW15052   4.673   4.014   0.880
 4718SOL    HW115053   4.601   3.965   0.930
 4718SOL    HW215054   4.762   3.974   0.902
 4719SOL     OW15055   0.231   3.779   3.925
 4719SOL    HW115056   0.301   3.803   3.991
 4719SOL    HW215057   0.221   3.679   3.921
 4720SOL     OW15058   2.362   3.494   6.968
 4720SOL    HW115059   2.292   3.560   6.942
 4720SOL    HW215060   2.452   3.534   6.955
 4721SOL     OW15061   6.065   2.935   3.395
 4721SOL    HW115062   6.069   2.916   3.493
 4721SOL    HW215063   6.078   2.850   3.344
 4722SOL     OW15064   1.112   4.948   0.174
 4722SOL    HW115065   1.055   4.907   0.103
 4722SOL    HW215066   1.162   5.026   0.136
 4723SOL     OW15067   4.040   3.875   7.027
 4723SOL    HW115068   4.031   3.961   0.050
 4723SOL    HW215069   4.036   3.798   0.064
 4724SOL     OW15070   0.633   6.600   4.701
 4724SOL    HW115071   0.687   6.668   4.651
 4724SOL    HW215072   0.635   6.620   4.799
 4725SOL     OW15073   4.808   5.809   0.301
 4725SOL    HW115074   4.867   5.802   0.381
 4725SOL    HW215075   4.818   5.727   0.245
 4726SOL     OW15076   1.082   3.149   5.763
 4726SOL    HW115077   1.048   3.202   5.841
 4726SOL    HW215078   1.104   3.211   5.688
 4727SOL     OW15079   0.429   5.734   1.193
 4727SOL    HW115080   0.449   5.643   1.229
 4727SOL    HW215081   0.383   5.726   1.105
 4728SOL     OW15082   6.602   1.869   4.678
 4728SOL    HW115083   6.543   1.823   4.744
 4728SOL    HW215084   6.687   1.818   4.668
 4729SOL     OW15085   5.766   1.572   1.860
 4729SOL    HW115086   5.705   1.516   1.804
 4729SOL    HW215087   5.756   1.545   1.956
 4730SOL     OW15088   3.222   6.952   4.434
 4730SOL    HW115089   3.148   6.963   4.500
 4730SOL    HW215090   3.305   6.925   4.482
 4731SOL     OW15091   3.311   0.026   0.363
 4731SOL    HW115092   3.397   0.048   0.317
 4731SOL    HW215093   3.331   7.009   0.451
 4732SOL     OW15094   0.562   4.800   4.366
 4732SOL    HW115095   0.514   4.882   4.336
 4732SOL    HW215096   0.645   4.825   4.415
 4733SOL     OW15097   1.758   3.622   3.697
 4733SOL    HW115098   1.853   3.627   3.727
 4733SOL    HW215099   1.754   3.574   3.609
 4734SOL     OW15100   4.749   3.131   0.282
 4734SOL    HW115101   4.735   3.227   0.257
 4734SOL    HW215102   4.662   3.082   0.274
 4735SOL     OW15103   6.952   0.295   5.123
 4735SOL    HW115104   6.854   0.276   5.120
 4735SOL    HW215105   7.003   0.210   5.113
 4736SOL     OW15106   6.503   2.308   3.768
 4736SOL    HW115107   6.477   2.349   3.681
 4736SOL    HW215108   6.490   2.375   3.841
 4737SOL     OW15109   2.207   5.039   0.777
 4737SOL    HW115110   2.154   4.957   0.754
 4737SOL    HW215111   2.179   5.114   0.718
 4738SOL     OW15112   1.792   6.765   3.877
 4738SOL    HW115113   1.780   6.697   3.949
 4738SOL    HW215114   1.753   6.852   3.906
 4739SOL     OW15115   5.718   3.420   3.710
 4739SOL    HW115116   5.663   3.443   3.790
 4739SOL    HW215117   5.727   3.321   3.703
 4740SOL     OW15118   0.931   1.075   1.926
 4740SOL    HW115119   0.834   1.091   1.943
 4740SOL    HW215120   0.964   1.137   1.855
 4741SOL     OW15121   4.338   4.622   1.719
 4741SOL    HW115122   4.375   4.573   1.641
 4741SOL    HW215123   4.411   4.642   1.784
 4742SOL     OW15124   2.620   6.112   2.098
 4742SOL    HW115125   2.567   6.196   2.088
 4742SOL    HW215126   2.680   6.120   2.177
 4743SOL     OW15127   2.510   2.566   0.234
 4743SOL    HW115128   2.578   2.610   0.175
 4743SOL    HW215129   2.531   2.587   0.330
 4744SOL     OW15130   1.920   3.155   5.417
 4744SOL    HW115131   1.832   3.112   5.397
 4744SOL    HW215132   1.925   3.245   5.372
 4745SOL     OW15133   2.788   5.854   4.678
 4745SOL    HW115134   2.760   5.926   4.615
 4745SOL    HW215135   2.708   5.800   4.706
 4746SOL     OW15136   6.005   0.727   0.415
 4746SOL    HW115137   5.970   0.703   0.325
 4746SOL    HW215138   6.103   0.707   0.419
 4747SOL     OW15139   6.127   2.429   1.611
 4747SOL    HW115140   6.164   2.337   1.624
 4747SOL    HW215141   6.035   2.434   1.651
 4748SOL     OW15142   1.425   0.594   1.465
 4748SOL    HW115143   1.404   0.661   1.536
 4748SOL    HW215144   1.341   0.545   1.439
 4749SOL     OW15145   1.764   6.960   6.866
 4749SOL    HW115146   1.672   6.998   6.881
 4749SOL    HW215147   1.758   6.883   6.803
 4750SOL     OW15148   0.210   1.047   4.512
 4750SOL    HW115149   0.256   1.131   4.483
 4750SOL    HW215150   0.263   1.003   4.584
 4751SOL     OW15151   0.856   3.753   6.626
 4751SOL    HW115152   0.810   3.699   6.556
 4751SOL    HW215153   0.787   3.794   6.687
 4752SOL     OW15154   2.649   5.758   1.477
 4752SOL    HW115155   2.694   5.806   1.553
 4752SOL    HW215156   2.711   5.690   1.439
 4753SOL     OW15157   6.740   6.892   5.179
 4753SOL    HW115158   6.804   6.867   5.252
 4753SOL    HW215159   6.787   6.886   5.090
 4754SOL     OW15160   0.741   0.007   5.448
 4754SOL    HW115161   0.745   0.100   5.411
 4754SOL    HW215162   0.762   0.009   5.546
 4755SOL     OW15163   2.647   2.096   7.008
 4755SOL    HW115164   2.550   2.072   7.006
 4755SOL    HW215165   2.693   2.044   0.054
 4756SOL     OW15166   5.316   2.814   1.352
 4756SOL    HW115167   5.318   2.840   1.449
 4756SOL    HW215168   5.387   2.864   1.303
 4757SOL     OW15169   1.986   2.064   0.932
 4757SOL    HW115170   2.086   2.061   0.927
 4757SOL    HW215171   1.956   2.020   1.017
 4758SOL     OW15172   5.153   4.464   5.219
 4758SOL    HW115173   5.149   4.564   5.218
 4758SOL    HW215174   5.220   4.435   5.287
 4759SOL     OW15175   5.756   5.077   5.483
 4759SOL    HW115176   5.691   5.024   5.537
 4759SOL    HW215177   5.751   5.047   5.387
 4760SOL     OW15178   1.331   2.146   0.907
 4760SOL    HW115179   1.277   2.093   0.972
 4760SOL    HW215180   1.275   2.171   0.829
 4761SOL     OW15181   0.839   6.140   5.923
 4761SOL    HW115182   0.895   6.202   5.979
 4761SOL    HW215183   0.882   6.050   5.920
 4762SOL     OW15184   2.976   5.839   2.502
 4762SOL    HW115185   2.921   5.870   2.579
 4762SOL    HW215186   3.058   5.895   2.494
 4763SOL     OW15187   5.811   5.569   4.403
 4763SOL    HW115188   5.873   5.624   4.347
 4763SOL    HW215189   5.754   5.512   4.344
 4764SOL     OW15190   3.762   3.503   4.150
 4764SOL    HW115191   3.674   3.548   4.167
 4764SOL    HW215192   3.747   3.405   4.139
 4765SOL     OW15193   5.735   5.259   5.107
 4765SOL    HW115194   5.655   5.309   5.075
 4765SOL    HW215195   5.814   5.282   5.050
 4766SOL     OW15196   3.087   0.527   3.022
 4766SOL    HW115197   3.155   0.584   3.068
 4766SOL    HW215198   3.015   0.502   3.087
 4767SOL     OW15199   4.263   5.525   6.212
 4767SOL    HW115200   4.164   5.517   6.225
 4767SOL    HW215201   4.296   5.602   6.267
 4768SOL     OW15202   6.997   0.721   5.092
 4768SOL    HW115203   6.935   0.682   5.023
 4768SOL    HW215204   7.009   0.655   5.166
 4769SOL     OW15205   3.547   0.033   1.552
 4769SOL    HW115206   3.546   6.996   1.475
 4769SOL    HW215207   3.636   0.078   1.557
 4770SOL     OW15208   2.590   0.289   3.464
 4770SOL    HW115209   2.516   0.349   3.433
 4770SOL    HW215210   2.583   0.201   3.417
 4771SOL     OW15211   3.878   4.071   5.622
 4771SOL    HW115212   3.782   4.080   5.596
 4771SOL    HW215213   3.936   4.087   5.542
 4772SOL     OW15214   2.391   2.544   1.397
 4772SOL    HW115215   2.396   2.642   1.377
 4772SOL    HW215216   2.320   2.528   1.466
 4773SOL     OW15217   6.781   6.385   3.909
 4773SOL    HW115218   6.725   6.376   3.991
 4773SOL    HW215219   6.850   6.313   3.907
 4774SOL     OW15220   0.594   4.375   1.313
 4774SOL    HW115221   0.614   4.291   1.263
 4774SOL    HW215222   0.556   4.352   1.403
 4775SOL     OW15223   3.629   1.178   1.469
 4775SOL    HW115224   3.658   1.253   1.529
 4775SOL    HW215225   3.681   1.096   1.489
 4776SOL     OW15226   3.294   5.650   1.815
 4776SOL    HW115227   3.379   5.597   1.819
 4776SOL    HW215228   3.304   5.733   1.869
 4777SOL     OW15229   3.033   4.365   1.277
 4777SOL    HW115230   3.043   4.437   1.346
 4777SOL    HW215231   3.107   4.372   1.210
 4778SOL     OW15232   4.790   4.009   2.007
 4778SOL    HW115233   4.837   3.921   2.004
 4778SOL    HW215234   4.757   4.026   2.100
 4779SOL     OW15235   5.064   0.525   2.818
 4779SOL    HW115236   5.163   0.527   2.811
 4779SOL    HW215237   5.033   0.597   2.880
 4780SOL     OW15238   1.642   6.379   5.996
 4780SOL    HW115239   1.677   6.333   5.914
 4780SOL    HW215240   1.583   6.455   5.969
 4781SOL     OW15241   2.014   5.689   2.188
 4781SOL    HW115242   1.952   5.611   2.185
 4781SOL    HW215243   2.010   5.739   2.102
 4782SOL     OW15244   5.695   6.137   6.482
 4782SOL    HW115245   5.643   6.096   6.557
 4782SOL    HW215246   5.696   6.074   6.404
 4783SOL     OW15247   6.215   4.590   1.461
 4783SOL    HW115248   6.126   4.557   1.492
 4783SOL    HW215249   6.270   4.512   1.429
 4784SOL     OW15250   5.549   4.933   5.045
 4784SOL    HW115251   5.555   4.834   5.033
 4784SOL    HW215252   5.471   4.968   4.993
 4785SOL     OW15253   6.492   0.616   0.814
 4785SOL    HW115254   6.561   0.621   0.886
 4785SOL    HW215255   6.513   0.541   0.752
 4786SOL     OW15256   1.730   3.142   2.186
 4786SOL    HW115257   1.796   3.125   2.258
 4786SOL    HW215258   1.637   3.129   2.222
 4787SOL     OW15259   3.542   2.070   2.534
 4787SOL    HW115260   3.446   2.044   2.547
 4787SOL    HW215261   3.565   2.067   2.437
 4788SOL     OW15262   1.336   5.183   4.026
 4788SOL    HW115263   1.312   5.090   4.054
 4788SOL    HW215264   1.259   5.225   3.979
 4789SOL     OW15265   6.322   0.762   0.984
 4789SOL    HW115266   6.411   0.728   1.016
 4789SOL    HW215267   6.316   0.752   0.885
 4790SOL     OW15268   5.286   1.134   6.703
 4790SOL    HW115269   5.326   1.199   6.639
 4790SOL    HW215270   5.332   1.140   6.791
 4791SOL     OW15271   4.690   6.742   2.428
 4791SOL    HW115272   4.661   6.836   2.448
 4791SOL    HW215273   4.785   6.730   2.457
 4792SOL     OW15274   2.419   2.624   1.991
 4792SOL    HW115275   2.450   2.639   2.085
 4792SOL    HW215276   2.445   2.532   1.962
 4793SOL     OW15277   1.205   6.773   6.040
 4793SOL    HW115278   1.283   6.808   5.988
 4793SOL    HW215279   1.141   6.727   5.977
 4794SOL     OW15280   3.167   0.943   1.878
 4794SOL    HW115281   3.158   0.926   1.976
 4794SOL    HW215282   3.235   1.015   1.862
 4795SOL     OW15283   6.463   3.339   4.107
 4795SOL    HW115284   6.384   3.324   4.047
 4795SOL    HW215285   6.437   3.320   4.202
 4796SOL     OW15286   5.978   3.936   1.260
 4796SOL    HW115287   6.062   3.896   1.296
 4796SOL    HW215288   6.001   4.012   1.199
 4797SOL     OW15289   0.348   5.214   5.114
 4797SOL    HW115290   0.303   5.303   5.105
 4797SOL    HW215291   0.315   5.153   5.041
 4798SOL     OW15292   6.916   3.726   4.438
 4798SOL    HW115293   6.975   3.754   4.514
 4798SOL    HW215294   6.883   3.633   4.453
 4799SOL     OW15295   3.612   1.605   4.746
 4799SOL    HW115296   3.670   1.525   4.735
 4799SOL    HW215297   3.598   1.623   4.843
 4800SOL     OW15298   1.968   1.793   4.492
 4800SOL    HW115299   1.899   1.758   4.556
 4800SOL    HW215300   1.924   1.855   4.427
 4801SOL     OW15301   0.925   2.887   0.859
 4801SOL    HW115302   0.909   2.903   0.761
 4801SOL    HW215303   0.853   2.932   0.912
 4802SOL     OW15304   2.727   0.466   2.231
 4802SOL    HW115305   2.749   0.507   2.319
 4802SOL    HW215306   2.782   0.510   2.159
 4803SOL     OW15307   0.938   6.864   0.486
 4803SOL    HW115308   1.015   6.848   0.547
 4803SOL    HW215309   0.913   6.961   0.490
 4804SOL     OW15310   4.095   5.358   6.832
 4804SOL    HW115311   4.162   5.328   6.899
 4804SOL    HW215312   4.141   5.411   6.760
 4805SOL     OW15313   0.337   1.898   0.947
 4805SOL    HW115314   0.317   1.963   1.020
 4805SOL    HW215315   0.356   1.949   0.862
 4806SOL     OW15316   0.729   2.597   3.048
 4806SOL    HW115317   0.709   2.683   3.094
 4806SOL    HW215318   0.643   2.556   3.015
 4807SOL     OW15319   6.908   6.427   1.027
 4807SOL    HW115320   6.899   6.497   1.098
 4807SOL    HW215321   6.820   6.413   0.982
 4808SOL     OW15322   4.910   3.247   1.052
 4808SOL    HW115323   4.927   3.165   1.106
 4808SOL    HW215324   4.906   3.327   1.113
 4809SOL     OW15325   3.902   5.692   6.918
 4809SOL    HW115326   3.890   5.769   6.981
 4809SOL    HW215327   3.947   5.724   6.835
 4810SOL     OW15328   0.684   0.286   1.465
 4810SOL    HW115329   0.665   0.199   1.419
 4810SOL    HW215330   0.705   0.356   1.396
 4811SOL     OW15331   4.297   6.155   2.273
 4811SOL    HW115332   4.334   6.241   2.309
 4811SOL    HW215333   4.355   6.079   2.302
 4812SOL     OW15334   6.770   5.662   4.531
 4812SOL    HW115335   6.675   5.642   4.508
 4812SOL    HW215336   6.827   5.583   4.509
 4813SOL     OW15337   6.073   2.705   3.244
 4813SOL    HW115338   6.073   2.712   3.144
 4813SOL    HW215339   5.997   2.646   3.273
 4814SOL     OW15340   0.147   3.165   2.022
 4814SOL    HW115341   0.198   3.242   1.983
 4814SOL    HW215342   0.053   3.192   2.041
 4815SOL     OW15343   4.052   6.336   1.713
 4815SOL    HW115344   4.001   6.310   1.795
 4815SOL    HW215345   4.149   6.342   1.734
 4816SOL     OW15346   5.779   5.285   3.237
 4816SOL    HW115347   5.809   5.250   3.148
 4816SOL    HW215348   5.686   5.255   3.254
 4817SOL     OW15349   0.016   1.411   6.719
 4817SOL    HW115350   0.088   1.342   6.722
 4817SOL    HW215351   0.021   1.469   6.800
 4818SOL     OW15352   0.995   0.560   4.549
 4818SOL    HW115353   0.978   0.626   4.476
 4818SOL    HW215354   1.048   0.483   4.513
 4819SOL     OW15355   1.906   3.190   0.559
 4819SOL    HW115356   1.994   3.215   0.520
 4819SOL    HW215357   1.920   3.124   0.633
 4820SOL     OW15358   6.927   3.137   2.365
 4820SOL    HW115359   6.870   3.165   2.442
 4820SOL    HW215360   7.011   3.192   2.363
 4821SOL     OW15361   6.805   5.744   2.824
 4821SOL    HW115362   6.799   5.647   2.801
 4821SOL    HW215363   6.900   5.770   2.836
 4822SOL     OW15364   1.652   3.993   4.638
 4822SOL    HW115365   1.676   3.932   4.714
 4822SOL    HW215366   1.727   4.057   4.622
 4823SOL     OW15367   1.905   3.290   1.273
 4823SOL    HW115368   1.813   3.269   1.240
 4823SOL    HW215369   1.971   3.271   1.200
 4824SOL     OW15370   6.427   1.180   6.001
 4824SOL    HW115371   6.349   1.230   6.038
 4824SOL    HW215372   6.403   1.143   5.911
 4825SOL     OW15373   1.717   6.866   4.132
 4825SOL    HW115374   1.749   6.771   4.142
 4825SOL    HW215375   1.791   6.929   4.155
 4826SOL     OW15376   3.867   0.559   1.545
 4826SOL    HW115377   3.933   0.603   1.606
 4826SOL    HW215378   3.774   0.584   1.573
 4827SOL     OW15379   6.797   1.865   0.973
 4827SOL    HW115380   6.717   1.841   0.919
 4827SOL    HW215381   6.850   1.935   0.926
 4828SOL     OW15382   5.041   0.966   4.319
 4828SOL    HW115383   5.077   1.033   4.383
 4828SOL    HW215384   5.044   0.874   4.360
 4829SOL     OW15385   4.444   6.821   4.755
 4829SOL    HW115386   4.517   6.786   4.697
 4829SOL    HW215387   4.418   6.750   4.821
 4830SOL     OW15388   2.828   6.214   2.941
 4830SOL    HW115389   2.830   6.224   3.040
 4830SOL    HW215390   2.832   6.304   2.898
 4831SOL     OW15391   3.061   4.628   5.353
 4831SOL    HW115392   2.993   4.576   5.301
 4831SOL    HW215393   3.020   4.663   5.437
 4832SOL     OW15394   3.627   3.395   4.528
 4832SOL    HW115395   3.637   3.485   4.486
 4832SOL    HW215396   3.540   3.391   4.578
 4833SOL     OW15397   6.357   3.387   4.393
 4833SOL    HW115398   6.437   3.349   4.440
 4833SOL    HW215399   6.277   3.331   4.411
 4834SOL     OW15400   0.905   5.145   1.553
 4834SOL    HW115401   0.816   5.104   1.572
 4834SOL    HW215402   0.920   5.222   1.614
 4835SOL     OW15403   6.861   2.311   5.252
 4835SOL    HW115404   6.929   2.240   5.233
 4835SOL    HW215405   6.800   2.279   5.324
 4836SOL     OW15406   5.013   1.218   5.933
 4836SOL    HW115407   4.945   1.243   6.002
 4836SOL    HW215408   5.104   1.214   5.975
 4837SOL     OW15409   0.376   4.129   3.843
 4837SOL    HW115410   0.371   4.059   3.771
 4837SOL    HW215411   0.284   4.149   3.876
 4838SOL     OW15412   2.505   4.051   6.180
 4838SOL    HW115413   2.568   4.047   6.103
 4838SOL    HW215414   2.541   4.112   6.250
 4839SOL     OW15415   2.580   1.497   0.716
 4839SOL    HW115416   2.606   1.453   0.802
 4839SOL    HW215417   2.646   1.472   0.645
 4840SOL     OW15418   5.947   3.963   4.096
 4840SOL    HW115419   6.009   4.027   4.142
 4840SOL    HW215420   5.964   3.871   4.129
 4841SOL     OW15421   3.317   6.329   3.017
 4841SOL    HW115422   3.394   6.268   3.034
 4841SOL    HW215423   3.264   6.339   3.102
 4842SOL     OW15424   3.319   5.444   3.113
 4842SOL    HW115425   3.396   5.474   3.056
 4842SOL    HW215426   3.331   5.479   3.206
 4843SOL     OW15427   0.322   2.263   0.890
 4843SOL    HW115428   0.308   2.196   0.963
 4843SOL    HW215429   0.242   2.323   0.885
 4844SOL     OW15430   1.898   5.180   5.487
 4844SOL    HW115431   1.832   5.226   5.546
 4844SOL    HW215432   1.879   5.202   5.391
 4845SOL     OW15433   4.891   3.967   4.962
 4845SOL    HW115434   4.861   4.051   4.917
 4845SOL    HW215435   4.873   3.889   4.902
 4846SOL     OW15436   6.550   3.611   4.629
 4846SOL    HW115437   6.470   3.630   4.572
 4846SOL    HW215438   6.596   3.529   4.595
 4847SOL     OW15439   2.903   6.002   6.121
 4847SOL    HW115440   2.976   6.043   6.067
 4847SOL    HW215441   2.863   6.072   6.180
 4848SOL     OW15442   3.634   0.720   4.457
 4848SOL    HW115443   3.669   0.698   4.366
 4848SOL    HW215444   3.710   0.731   4.521
 4849SOL     OW15445   2.279   6.913   1.661
 4849SOL    HW115446   2.276   6.918   1.561
 4849SOL    HW215447   2.188   6.891   1.696
 4850SOL     OW15448   4.074   7.013   0.622
 4850SOL    HW115449   4.019   0.034   0.690
 4850SOL    HW215450   4.081   6.916   0.646
 4851SOL     OW15451   3.870   4.523   6.501
 4851SOL    HW115452   3.903   4.431   6.479
 4851SOL    HW215453   3.850   4.572   6.416
 4852SOL     OW15454   5.283   5.105   5.190
 4852SOL    HW115455   5.343   5.046   5.244
 4852SOL    HW215456   5.317   5.109   5.095
 4853SOL     OW15457   4.190   6.844   2.311
 4853SOL    HW115458   4.225   6.896   2.389
 4853SOL    HW215459   4.090   6.850   2.310
 4854SOL     OW15460   4.902   6.890   1.701
 4854SOL    HW115461   4.887   6.797   1.736
 4854SOL    HW215462   4.962   6.886   1.621
 4855SOL     OW15463   5.357   4.680   6.068
 4855SOL    HW115464   5.433   4.615   6.074
 4855SOL    HW215465   5.335   4.697   5.972
 4856SOL     OW15466   0.679   3.373   3.054
 4856SOL    HW115467   0.754   3.311   3.033
 4856SOL    HW215468   0.596   3.321   3.073
 4857SOL     OW15469   2.250   2.492   5.227
 4857SOL    HW115470   2.285   2.553   5.156
 4857SOL    HW215471   2.322   2.475   5.294
 4858SOL     OW15472   1.070   6.139   4.829
 4858SOL    HW115473   1.053   6.074   4.755
 4858SOL    HW215474   1.162   6.124   4.866
 4859SOL     OW15475   0.417   6.544   2.822
 4859SOL    HW115476   0.479   6.602   2.769
 4859SOL    HW215477   0.342   6.514   2.763
 4860SOL     OW15478   4.835   5.255   1.121
 4860SOL    HW115479   4.772   5.317   1.167
 4860SOL    HW215480   4.929   5.275   1.150
 4861SOL     OW15481   0.282   3.902   6.041
 4861SOL    HW115482   0.195   3.881   5.996
 4861SOL    HW215483   0.349   3.832   6.015
 4862SOL     OW15484   2.239   5.599   4.900
 4862SOL    HW115485   2.292   5.596   4.816
 4862SOL    HW215486   2.293   5.643   4.972
 4863SOL     OW15487   4.863   2.376   2.660
 4863SOL    HW115488   4.939   2.311   2.666
 4863SOL    HW215489   4.782   2.338   2.704
 4864SOL     OW15490   1.631   1.291   1.302
 4864SOL    HW115491   1.710   1.236   1.276
 4864SOL    HW215492   1.563   1.232   1.347
 4865SOL     OW15493   3.959   5.995   5.502
 4865SOL    HW115494   3.912   5.998   5.590
 4865SOL    HW215495   3.910   5.932   5.441
 4866SOL     OW15496   0.251   4.653   2.175
 4866SOL    HW115497   0.204   4.569   2.201
 4866SOL    HW215498   0.312   4.681   2.249
 4867SOL     OW15499   4.770   5.412   3.458
 4867SOL    HW115500   4.857   5.431   3.503
 4867SOL    HW215501   4.703   5.383   3.526
 4868SOL     OW15502   1.489   6.445   1.691
 4868SOL    HW115503   1.403   6.434   1.740
 4868SOL    HW215504   1.521   6.540   1.700
 4869SOL     OW15505   6.324   1.505   0.994
 4869SOL    HW115506   6.407   1.510   1.051
 4869SOL    HW215507   6.341   1.446   0.915
 4870SOL     OW15508   6.780   0.258   1.104
 4870SOL    HW115509   6.804   0.211   1.019
 4870SOL    HW215510   6.731   0.195   1.165
 4871SOL     OW15511   0.844   3.375   4.312
 4871SOL    HW115512   0.839   3.413   4.220
 4871SOL    HW215513   0.939   3.348   4.332
 4872SOL     OW15514   0.862   0.552   3.818
 4872SOL    HW115515   0.935   0.489   3.793
 4872SOL    HW215516   0.882   0.592   3.908
 4873SOL     OW15517   1.339   6.080   4.879
 4873SOL    HW115518   1.365   6.112   4.970
 4873SOL    HW215519   1.352   5.981   4.872
 4874SOL     OW15520   5.246   3.431   3.518
 4874SOL    HW115521   5.331   3.463   3.478
 4874SOL    HW215522   5.258   3.336   3.548
 4875SOL     OW15523   6.156   3.058   6.724
 4875SOL    HW115524   6.239   3.014   6.689
 4875SOL    HW215525   6.079   3.038   6.663
 4876SOL     OW15526   0.507   1.645   6.774
 4876SOL    HW115527   0.595   1.688   6.796
 4876SOL    HW215528   0.494   1.645   6.675
 4877SOL     OW15529   6.487   1.812   0.896
 4877SOL    HW115530   6.539   1.764   0.967
 4877SOL    HW215531   6.393   1.778   0.895
 4878SOL     OW15532   6.414   2.228   1.649
 4878SOL    HW115533   6.417   2.324   1.676
 4878SOL    HW215534   6.353   2.178   1.710
 4879SOL     OW15535   4.372   6.214   3.072
 4879SOL    HW115536   4.295   6.257   3.026
 4879SOL    HW215537   4.431   6.169   3.004
 4880SOL     OW15538   6.160   2.303   6.538
 4880SOL    HW115539   6.176   2.401   6.529
 4880SOL    HW215540   6.073   2.279   6.495
 4881SOL     OW15541   2.768   5.754   6.763
 4881SOL    HW115542   2.793   5.845   6.795
 4881SOL    HW215543   2.828   5.686   6.806
 4882SOL     OW15544   5.184   0.676   6.172
 4882SOL    HW115545   5.133   0.741   6.228
 4882SOL    HW215546   5.177   0.585   6.212
 4883SOL     OW15547   6.365   6.033   0.650
 4883SOL    HW115548   6.397   6.107   0.708
 4883SOL    HW215549   6.424   5.953   0.662
 4884SOL     OW15550   3.578   6.614   1.935
 4884SOL    HW115551   3.563   6.699   1.886
 4884SOL    HW215552   3.599   6.633   2.031
 4885SOL     OW15553   2.223   0.032   2.565
 4885SOL    HW115554   2.137   7.019   2.594
 4885SOL    HW215555   2.205   0.120   2.520
 4886SOL     OW15556   6.390   0.702   6.060
 4886SOL    HW115557   6.442   0.726   6.142
 4886SOL    HW215558   6.437   0.739   5.979
 4887SOL     OW15559   0.531   2.027   5.125
 4887SOL    HW115560   0.596   2.093   5.088
 4887SOL    HW215561   0.461   2.076   5.177
 4888SOL     OW15562   3.030   5.447   1.684
 4888SOL    HW115563   3.040   5.462   1.783
 4888SOL    HW215564   3.072   5.524   1.635
 4889SOL     OW15565   1.285   2.888   6.829
 4889SOL    HW115566   1.359   2.841   6.878
 4889SOL    HW215567   1.214   2.914   6.895
 4890SOL     OW15568   1.284   0.336   4.848
 4890SOL    HW115569   1.294   0.319   4.750
 4890SOL    HW215570   1.189   0.361   4.868
 4891SOL     OW15571   1.034   3.734   0.709
 4891SOL    HW115572   1.051   3.829   0.734
 4891SOL    HW215573   1.119   3.682   0.716
 4892SOL     OW15574   1.770   5.872   1.239
 4892SOL    HW115575   1.836   5.924   1.186
 4892SOL    HW215576   1.689   5.929   1.255
 4893SOL     OW15577   0.923   3.445   6.297
 4893SOL    HW115578   1.023   3.435   6.295
 4893SOL    HW215579   0.889   3.459   6.204
 4894SOL     OW15580   1.867   1.439   3.478
 4894SOL    HW115581   1.930   1.368   3.511
 4894SOL    HW215582   1.868   1.516   3.542
 4895SOL     OW15583   6.071   4.028   0.069
 4895SOL    HW115584   6.080   4.000   0.165
 4895SOL    HW215585   6.007   3.967   0.022
 4896SOL     OW15586   4.481   5.734   3.454
 4896SOL    HW115587   4.530   5.705   3.536
 4896SOL    HW215588   4.500   5.669   3.380
 4897SOL     OW15589   2.713   5.863   5.746
 4897SOL    HW115590   2.638   5.807   5.711
 4897SOL    HW215591   2.694   5.891   5.840
 4898SOL     OW15592   5.737   2.546   4.907
 4898SOL    HW115593   5.733   2.447   4.919
 4898SOL    HW215594   5.723   2.568   4.810
 4899SOL     OW15595   5.612   4.250   4.560
 4899SOL    HW115596   5.686   4.253   4.492
 4899SOL    HW215597   5.610   4.337   4.610
 4900SOL     OW15598   0.996   6.720   5.071
 4900SOL    HW115599   0.930   6.795   5.064
 4900SOL    HW215600   1.011   6.699   5.168
 4901SOL     OW15601   1.000   6.216   2.934
 4901SOL    HW115602   1.047   6.303   2.916
 4901SOL    HW215603   1.067   6.148   2.964
 4902SOL     OW15604   3.071   4.754   1.936
 4902SOL    HW115605   3.130   4.731   2.013
 4902SOL    HW215606   3.001   4.683   1.925
 4903SOL     OW15607   5.516   6.033   5.863
 4903SOL    HW115608   5.565   6.032   5.776
 4903SOL    HW215609   5.444   6.102   5.860
 4904SOL     OW15610   3.508   6.026   3.348
 4904SOL    HW115611   3.412   6.051   3.346
 4904SOL    HW215612   3.564   6.108   3.352
 4905SOL     OW15613   6.361   3.260   3.464
 4905SOL    HW115614   6.377   3.169   3.427
 4905SOL    HW215615   6.327   3.321   3.392
 4906SOL     OW15616   5.602   0.911   1.633
 4906SOL    HW115617   5.550   0.825   1.642
 4906SOL    HW215618   5.565   0.964   1.556
 4907SOL     OW15619   2.406   1.522   2.198
 4907SOL    HW115620   2.411   1.621   2.212
 4907SOL    HW215621   2.496   1.482   2.211
 4908SOL     OW15622   3.595   5.871   0.199
 4908SOL    HW115623   3.646   5.914   0.125
 4908SOL    HW215624   3.517   5.821   0.162
 4909SOL     OW15625   6.327   6.813   5.646
 4909SOL    HW115626   6.306   6.832   5.550
 4909SOL    HW215627   6.288   6.724   5.671
 4910SOL     OW15628   6.443   0.432   6.105
 4910SOL    HW115629   6.398   0.522   6.113
 4910SOL    HW215630   6.541   0.443   6.117
 4911SOL     OW15631   0.450   2.819   6.107
 4911SOL    HW115632   0.541   2.807   6.067
 4911SOL    HW215633   0.415   2.910   6.083
 4912SOL     OW15634   2.578   2.425   2.182
 4912SOL    HW115635   2.664   2.413   2.132
 4912SOL    HW215636   2.598   2.424   2.280
 4913SOL     OW15637   3.002   3.229   2.398
 4913SOL    HW115638   2.998   3.143   2.449
 4913SOL    HW215639   3.097   3.247   2.371
 4914SOL     OW15640   1.336   6.234   3.079
 4914SOL    HW115641   1.325   6.188   3.167
 4914SOL    HW215642   1.434   6.244   3.059
 4915SOL     OW15643   3.073   6.098   3.031
 4915SOL    HW115644   3.005   6.157   3.075
 4915SOL    HW215645   3.111   6.144   2.951
 4916SOL     OW15646   2.134   1.837   2.352
 4916SOL    HW115647   2.077   1.876   2.425
 4916SOL    HW215648   2.091   1.753   2.318
 4917SOL     OW15649   2.103   5.131   7.000
 4917SOL    HW115650   2.042   5.193   0.021
 4917SOL    HW215651   2.175   5.100   0.036
 4918SOL     OW15652   2.336   0.247   2.465
 4918SOL    HW115653   2.351   0.346   2.476
 4918SOL    HW215654   2.422   0.199   2.483
 4919SOL     OW15655   2.628   3.154   1.574
 4919SOL    HW115656   2.576   3.069   1.568
 4919SOL    HW215657   2.565   3.230   1.590
 4920SOL     OW15658   4.343   0.895   0.296
 4920SOL    HW115659   4.331   0.908   0.394
 4920SOL    HW215660   4.310   0.804   0.270
 4921SOL     OW15661   1.448   4.626   1.864
 4921SOL    HW115662   1.374   4.623   1.931
 4921SOL    HW215663   1.525   4.677   1.901
 4922SOL     OW15664   0.910   2.713   5.732
 4922SOL    HW115665   0.908   2.799   5.784
 4922SOL    HW215666   0.993   2.663   5.753
 4923SOL     OW15667   3.735   1.783   0.712
 4923SOL    HW115668   3.647   1.818   0.680
 4923SOL    HW215669   3.786   1.856   0.756
 4924SOL     OW15670   0.454   3.785   4.737
 4924SOL    HW115671   0.468   3.820   4.644
 4924SOL    HW215672   0.436   3.861   4.799
 4925SOL     OW15673   4.991   5.790   6.139
 4925SOL    HW115674   4.962   5.697   6.116
 4925SOL    HW215675   4.910   5.848   6.150
 4926SOL     OW15676   4.055   2.548   1.638
 4926SOL    HW115677   4.101   2.543   1.550
 4926SOL    HW215678   4.107   2.495   1.706
 4927SOL     OW15679   3.849   3.856   2.887
 4927SOL    HW115680   3.791   3.800   2.947
 4927SOL    HW215681   3.916   3.798   2.842
 4928SOL     OW15682   0.115   6.508   0.914
 4928SOL    HW115683   0.031   6.474   0.957
 4928SOL    HW215684   0.189   6.441   0.928
 4929SOL     OW15685   1.009   4.535   4.017
 4929SOL    HW115686   1.034   4.446   3.979
 4929SOL    HW215687   1.093   4.587   4.035
 4930SOL     OW15688   6.747   2.152   0.635
 4930SOL    HW115689   6.687   2.072   0.633
 4930SOL    HW215690   6.692   2.235   0.628
 4931SOL     OW15691   0.272   0.537   1.229
 4931SOL    HW115692   0.309   0.629   1.242
 4931SOL    HW215693   0.206   0.517   1.302
 4932SOL     OW15694   3.773   2.185   0.863
 4932SOL    HW115695   3.785   2.267   0.807
 4932SOL    HW215696   3.766   2.211   0.959
 4933SOL     OW15697   2.843   0.836   5.334
 4933SOL    HW115698   2.928   0.795   5.301
 4933SOL    HW215699   2.770   0.819   5.267
 4934SOL     OW15700   1.451   6.182   5.127
 4934SOL    HW115701   1.537   6.132   5.116
 4934SOL    HW215702   1.421   6.176   5.222
 4935SOL     OW15703   1.600   1.201   0.843
 4935SOL    HW115704   1.585   1.105   0.818
 4935SOL    HW215705   1.512   1.245   0.862
 4936SOL     OW15706   4.232   5.951   0.669
 4936SOL    HW115707   4.293   5.926   0.744
 4936SOL    HW215708   4.285   5.990   0.594
 4937SOL     OW15709   1.137   2.936   6.223
 4937SOL    HW115710   1.200   3.002   6.263
 4937SOL    HW215711   1.048   2.979   6.210
 4938SOL     OW15712   3.184   4.903   1.556
 4938SOL    HW115713   3.169   4.810   1.590
 4938SOL    HW215714   3.151   4.968   1.624
 4939SOL     OW15715   1.391   1.732   2.045
 4939SOL    HW115716   1.356   1.821   2.076
 4939SOL    HW215717   1.315   1.667   2.041
 4940SOL     OW15718   0.041   2.145   5.121
 4940SOL    HW115719   0.073   2.121   5.212
 4940SOL    HW215720   0.090   2.089   5.053
 4941SOL     OW15721   4.542   1.828   5.628
 4941SOL    HW115722   4.543   1.729   5.645
 4941SOL    HW215723   4.629   1.868   5.658
 4942SOL     OW15724   0.410   1.249   3.032
 4942SOL    HW115725   0.481   1.206   3.088
 4942SOL    HW215726   0.449   1.325   2.981
 4943SOL     OW15727   5.019   2.992   6.719
 4943SOL    HW115728   5.082   3.056   6.761
 4943SOL    HW215729   4.999   3.021   6.626
 4944SOL     OW15730   0.783   4.933   0.154
 4944SOL    HW115731   0.710   4.872   0.183
 4944SOL    HW215732   0.825   4.976   0.234
 4945SOL     OW15733   2.102   0.573   5.140
 4945SOL    HW115734   2.182   0.584   5.199
 4945SOL    HW215735   2.045   0.499   5.174
 4946SOL     OW15736   3.055   5.245   6.985
 4946SOL    HW115737   3.004   5.182   6.926
 4946SOL    HW215738   3.152   5.237   6.965
 4947SOL     OW15739   1.112   0.709   1.764
 4947SOL    HW115740   1.088   0.618   1.730
 4947SOL    HW215741   1.030   0.767   1.764
 4948SOL     OW15742   1.894   2.390   1.499
 4948SOL    HW115743   1.942   2.475   1.522
 4948SOL    HW215744   1.851   2.353   1.581
 4949SOL     OW15745   0.078   4.696   6.756
 4949SOL    HW115746   0.065   4.785   6.712
 4949SOL    HW215747   0.066   4.623   6.688
 4950SOL     OW15748   3.559   3.988   5.945
 4950SOL    HW115749   3.508   3.945   6.019
 4950SOL    HW215750   3.592   3.917   5.882
 4951SOL     OW15751   5.293   5.367   3.424
 4951SOL    HW115752   5.234   5.297   3.385
 4951SOL    HW215753   5.322   5.431   3.353
 4952SOL     OW15754   0.336   0.292   6.208
 4952SOL    HW115755   0.271   0.358   6.247
 4952SOL    HW215756   0.301   0.199   6.222
 4953SOL     OW15757   1.106   2.187   4.752
 4953SOL    HW115758   1.138   2.212   4.844
 4953SOL    HW215759   1.018   2.141   4.759
 4954SOL     OW15760   3.202   4.048   4.673
 4954SOL    HW115761   3.251   4.095   4.599
 4954SOL    HW215762   3.268   4.012   4.739
 4955SOL     OW15763   3.822   5.432   5.327
 4955SOL    HW115764   3.786   5.348   5.286
 4955SOL    HW215765   3.813   5.507   5.262
 4956SOL     OW15766   2.720   0.264   5.055
 4956SOL    HW115767   2.634   0.291   5.012
 4956SOL    HW215768   2.795   0.320   5.018
 4957SOL     OW15769   5.890   4.600   6.355
 4957SOL    HW115770   5.957   4.653   6.303
 4957SOL    HW215771   5.937   4.534   6.413
 4958SOL     OW15772   3.860   6.549   0.330
 4958SOL    HW115773   3.780   6.521   0.276
 4958SOL    HW215774   3.849   6.518   0.424
 4959SOL     OW15775   0.412   2.130   3.047
 4959SOL    HW115776   0.393   2.079   2.963
 4959SOL    HW215777   0.508   2.116   3.074
 4960SOL     OW15778   4.525   4.487   4.004
 4960SOL    HW115779   4.469   4.526   4.077
 4960SOL    HW215780   4.598   4.552   3.980
 4961SOL     OW15781   3.429   1.558   1.003
 4961SOL    HW115782   3.421   1.565   1.102
 4961SOL    HW215783   3.428   1.649   0.962
 4962SOL     OW15784   1.218   4.317   0.972
 4962SOL    HW115785   1.139   4.273   1.014
 4962SOL    HW215786   1.301   4.271   1.002
 4963SOL     OW15787   0.725   3.625   6.387
 4963SOL    HW115788   0.714   3.664   6.296
 4963SOL    HW215789   0.818   3.589   6.398
 4964SOL     OW15790   2.646   6.460   4.725
 4964SOL    HW115791   2.557   6.477   4.765
 4964SOL    HW215792   2.650   6.500   4.634
 4965SOL     OW15793   1.264   6.100   3.321
 4965SOL    HW115794   1.260   6.002   3.301
 4965SOL    HW215795   1.294   6.113   3.415
 4966SOL     OW15796   3.118   6.819   4.243
 4966SOL    HW115797   3.020   6.805   4.229
 4966SOL    HW215798   3.134   6.846   4.338
 4967SOL     OW15799   4.354   4.785   4.839
 4967SOL    HW115800   4.412   4.854   4.882
 4967SOL    HW215801   4.349   4.704   4.898
 4968SOL     OW15802   6.667   2.350   3.201
 4968SOL    HW115803   6.598   2.288   3.162
 4968SOL    HW215804   6.647   2.443   3.172
 4969SOL     OW15805   0.532   6.182   3.695
 4969SOL    HW115806   0.621   6.138   3.683
 4969SOL    HW215807   0.471   6.156   3.620
 4970SOL     OW15808   0.925   1.661   1.436
 4970SOL    HW115809   1.014   1.642   1.395
 4970SOL    HW215810   0.853   1.631   1.374
 4971SOL     OW15811   0.029   6.186   2.735
 4971SOL    HW115812   7.003   6.244   2.673
 4971SOL    HW215813   6.994   6.138   2.797
 4972SOL     OW15814   0.688   4.561   0.907
 4972SOL    HW115815   0.661   4.654   0.884
 4972SOL    HW215816   0.761   4.531   0.845
 4973SOL     OW15817   6.431   1.290   0.857
 4973SOL    HW115818   6.492   1.368   0.842
 4973SOL    HW215819   6.465   1.236   0.933
 4974SOL     OW15820   3.559   6.041   5.074
 4974SOL    HW115821   3.482   6.101   5.098
 4974SOL    HW215822   3.531   5.946   5.082
 4975SOL     OW15823   5.157   4.727   1.054
 4975SOL    HW115824   5.147   4.688   0.963
 4975SOL    HW215825   5.070   4.720   1.103
 4976SOL     OW15826   1.676   6.909   3.091
 4976SOL    HW115827   1.753   6.895   3.154
 4976SOL    HW215828   1.646   6.821   3.055
 4977SOL     OW15829   1.701   4.548   5.832
 4977SOL    HW115830   1.790   4.534   5.875
 4977SOL    HW215831   1.686   4.646   5.818
 4978SOL     OW15832   4.950   4.925   4.869
 4978SOL    HW115833   4.869   4.976   4.840
 4978SOL    HW215834   5.000   4.893   4.788
 4979SOL     OW15835   2.484   6.810   6.001
 4979SOL    HW115836   2.386   6.822   6.011
 4979SOL    HW215837   2.512   6.837   5.908
 4980SOL     OW15838   5.363   3.713   3.890
 4980SOL    HW115839   5.351   3.800   3.842
 4980SOL    HW215840   5.312   3.642   3.843
 4981SOL     OW15841   3.318   4.870   2.769
 4981SOL    HW115842   3.260   4.863   2.688
 4981SOL    HW215843   3.391   4.935   2.752
 4982SOL     OW15844   4.163   1.649   5.714
 4982SOL    HW115845   4.132   1.723   5.773
 4982SOL    HW215846   4.252   1.616   5.745
 4983SOL     OW15847   5.568   5.626   3.072
 4983SOL    HW115848   5.490   5.670   3.027
 4983SOL    HW215849   5.639   5.608   3.005
 4984SOL     OW15850   4.824   4.275   3.116
 4984SOL    HW115851   4.798   4.230   3.030
 4984SOL    HW215852   4.923   4.274   3.125
 4985SOL     OW15853   5.164   6.900   2.691
 4985SOL    HW115854   5.134   6.973   2.630
 4985SOL    HW215855   5.242   6.852   2.650
 4986SOL     OW15856   0.855   5.491   2.295
 4986SOL    HW115857   0.885   5.518   2.387
 4986SOL    HW215858   0.873   5.393   2.282
 4987SOL     OW15859   1.084   0.952   2.571
 4987SOL    HW115860   1.175   0.993   2.571
 4987SOL    HW215861   1.056   0.932   2.477
 4988SOL     OW15862   6.128   6.404   3.435
 4988SOL    HW115863   6.109   6.319   3.387
 4988SOL    HW215864   6.227   6.421   3.434
 4989SOL     OW15865   4.736   0.084   3.233
 4989SOL    HW115866   4.741   0.053   3.328
 4989SOL    HW215867   4.828   0.097   3.197
 4990SOL     OW15868   4.759   2.318   4.735
 4990SOL    HW115869   4.679   2.283   4.687
 4990SOL    HW215870   4.733   2.346   4.827
 4991SOL     OW15871   1.589   4.795   5.401
 4991SOL    HW115872   1.523   4.868   5.382
 4991SOL    HW215873   1.645   4.821   5.480
 4992SOL     OW15874   0.523   2.917   3.881
 4992SOL    HW115875   0.427   2.918   3.851
 4992SOL    HW215876   0.554   2.823   3.891
 4993SOL     OW15877   3.146   6.363   3.909
 4993SOL    HW115878   3.193   6.449   3.928
 4993SOL    HW215879   3.206   6.286   3.929
 4994SOL     OW15880   3.461   4.230   5.231
 4994SOL    HW115881   3.413   4.313   5.258
 4994SOL    HW215882   3.487   4.236   5.134
 4995SOL     OW15883   0.781   0.092   5.723
 4995SOL    HW115884   0.786   0.029   5.801
 4995SOL    HW215885   0.838   0.172   5.742
 4996SOL     OW15886   6.917   1.461   4.114
 4996SOL    HW115887   6.983   1.457   4.189
 4996SOL    HW215888   6.869   1.374   4.106
 4997SOL     OW15889   3.855   1.756   1.310
 4997SOL    HW115890   3.898   1.822   1.249
 4997SOL    HW215891   3.868   1.785   1.405
 4998SOL     OW15892   0.309   3.571   3.164
 4998SOL    HW115893   0.403   3.538   3.176
 4998SOL    HW215894   0.277   3.549   3.072
 4999SOL     OW15895   0.622   3.308   4.485
 4999SOL    HW115896   0.707   3.338   4.442
 4999SOL    HW215897   0.640   3.281   4.580
 5000SOL     OW15898   3.307   5.467   2.818
 5000SOL    HW115899   3.383   5.531   2.831
 5000SOL    HW215900   3.233   5.489   2.882
 5001SOL     OW15901   0.380   5.783   3.342
 5001SOL    HW115902   0.404   5.690   3.314
 5001SOL    HW215903   0.390   5.791   3.442
 5002SOL     OW15904   0.532   3.254   3.389
 5002SOL    HW115905   0.497   3.266   3.482
 5002SOL    HW215906   0.612   3.194   3.392
 5003SOL     OW15907   4.129   0.689   3.734
 5003SOL    HW115908   4.058   0.652   3.674
 5003SOL    HW215909   4.177   0.614   3.779
 5004SOL     OW15910   2.572   5.519   6.753
 5004SOL    HW115911   2.521   5.590   6.802
 5004SOL    HW215912   2.617   5.459   6.819
 5005SOL     OW15913   3.126   2.319   0.477
 5005SOL    HW115914   3.186   2.290   0.551
 5005SOL    HW215915   3.042   2.264   0.479
 5006SOL     OW15916   4.638   1.177   1.742
 5006SOL    HW115917   4.634   1.157   1.840
 5006SOL    HW215918   4.734   1.184   1.714
 5007SOL     OW15919   5.884   6.540   1.947
 5007SOL    HW115920   5.815   6.467   1.942
 5007SOL    HW215921   5.849   6.614   2.004
 5008SOL     OW15922   5.418   6.759   2.596
 5008SOL    HW115923   5.486   6.764   2.670
 5008SOL    HW215924   5.448   6.693   2.528
 5009SOL     OW15925   6.709   2.351   1.338
 5009SOL    HW115926   6.809   2.357   1.345
 5009SOL    HW215927   6.667   2.428   1.385
 5010SOL     OW15928   3.774   3.798   1.016
 5010SOL    HW115929   3.810   3.708   1.040
 5010SOL    HW215930   3.728   3.794   0.927
 5011SOL     OW15931   2.377   3.202   6.667
 5011SOL    HW115932   2.407   3.153   6.585
 5011SOL    HW215933   2.432   3.285   6.678
 5012SOL     OW15934   6.368   1.935   5.439
 5012SOL    HW115935   6.331   2.027   5.436
 5012SOL    HW215936   6.363   1.900   5.533
 5013SOL     OW15937   5.721   6.849   5.834
 5013SOL    HW115938   5.803   6.885   5.877
 5013SOL    HW215939   5.657   6.924   5.816
 5014SOL     OW15940   6.380   3.550   1.836
 5014SOL    HW115941   6.466   3.577   1.878
 5014SOL    HW215942   6.351   3.462   1.874
 5015SOL     OW15943   5.606   6.294   3.951
 5015SOL    HW115944   5.608   6.303   3.852
 5015SOL    HW215945   5.530   6.234   3.978
 5016SOL     OW15946   2.092   3.705   5.611
 5016SOL    HW115947   2.176   3.693   5.559
 5016SOL    HW215948   2.019   3.652   5.567
 5017SOL     OW15949   0.287   3.354   1.871
 5017SOL    HW115950   0.369   3.400   1.905
 5017SOL    HW215951   0.304   3.320   1.778
 5018SOL     OW15952   0.868   0.196   1.229
 5018SOL    HW115953   0.895   0.227   1.137
 5018SOL    HW215954   0.769   0.191   1.235
 5019SOL     OW15955   1.243   5.092   5.161
 5019SOL    HW115956   1.185   5.011   5.175
 5019SOL    HW215957   1.318   5.091   5.228
 5020SOL     OW15958   2.292   6.493   4.583
 5020SOL    HW115959   2.273   6.587   4.557
 5020SOL    HW215960   2.206   6.447   4.605
 5021SOL     OW15961   1.427   1.492   0.887
 5021SOL    HW115962   1.381   1.404   0.899
 5021SOL    HW215963   1.496   1.504   0.958
 5022SOL     OW15964   6.716   3.082   1.552
 5022SOL    HW115965   6.798   3.039   1.514
 5022SOL    HW215966   6.741   3.137   1.632
 5023SOL     OW15967   6.731   4.523   2.638
 5023SOL    HW115968   6.673   4.580   2.696
 5023SOL    HW215969   6.801   4.479   2.693
 5024SOL     OW15970   4.560   3.541   1.399
 5024SOL    HW115971   4.570   3.566   1.495
 5024SOL    HW215972   4.513   3.453   1.393
 5025SOL     OW15973   3.988   1.127   3.966
 5025SOL    HW115974   4.078   1.087   3.945
 5025SOL    HW215975   3.995   1.226   3.962
 5026SOL     OW15976   4.130   0.070   4.573
 5026SOL    HW115977   4.077   0.126   4.636
 5026SOL    HW215978   4.069   0.013   4.518
 5027SOL     OW15979   5.221   0.025   0.092
 5027SOL    HW115980   5.319   0.022   0.111
 5027SOL    HW215981   5.204   0.086   0.014
 5028SOL     OW15982   0.051   1.741   2.952
 5028SOL    HW115983   0.128   1.745   2.889
 5028SOL    HW215984   0.063   1.665   3.016
 5029SOL     OW15985   6.123   1.708   3.007
 5029SOL    HW115986   6.109   1.613   2.980
 5029SOL    HW215987   6.187   1.711   3.084
 5030SOL     OW15988   0.186   4.864   6.335
 5030SOL    HW115989   0.250   4.929   6.376
 5030SOL    HW215990   0.194   4.776   6.381
 5031SOL     OW15991   7.015   6.899   6.617
 5031SOL    HW115992   6.966   6.849   6.546
 5031SOL    HW215993   6.977   6.991   6.627
 5032SOL     OW15994   2.730   3.420   5.588
 5032SOL    HW115995   2.742   3.497   5.526
 5032SOL    HW215996   2.683   3.346   5.540
 5033SOL     OW15997   2.080   0.774   0.133
 5033SOL    HW115998   2.078   0.841   0.207
 5033SOL    HW215999   2.001   0.789   0.073
 5034SOL     OW16000   4.217   6.506   3.781
 5034SOL    HW116001   4.129   6.459   3.795
 5034SOL    HW216002   4.252   6.538   3.869
 5035SOL     OW16003   1.818   3.935   3.867
 5035SOL    HW116004   1.847   3.842   3.890
 5035SOL    HW216005   1.802   3.942   3.769
 5036SOL     OW16006   6.316   2.563   5.290
 5036SOL    HW116007   6.362   2.646   5.258
 5036SOL    HW216008   6.297   2.571   5.388
 5037SOL     OW16009   4.326   4.070   1.078
 5037SOL    HW116010   4.389   3.992   1.077
 5037SOL    HW216011   4.231   4.037   1.074
 5038SOL     OW16012   3.463   3.845   4.212
 5038SOL    HW116013   3.543   3.862   4.154
 5038SOL    HW216014   3.383   3.826   4.154
 5039SOL     OW16015   0.596   3.528   6.720
 5039SOL    HW116016   0.658   3.484   6.654
 5039SOL    HW216017   0.607   3.485   6.810
 5040SOL     OW16018   0.455   6.524   6.213
 5040SOL    HW116019   0.477   6.617   6.186
 5040SOL    HW216020   0.539   6.469   6.213
 5041SOL     OW16021   6.883   3.502   2.111
 5041SOL    HW116022   6.977   3.499   2.079
 5041SOL    HW216023   6.864   3.590   2.155
 5042SOL     OW16024   0.416   2.560   6.106
 5042SOL    HW116025   0.435   2.657   6.094
 5042SOL    HW216026   0.423   2.513   6.018
 5043SOL     OW16027   3.803   6.467   1.040
 5043SOL    HW116028   3.721   6.522   1.022
 5043SOL    HW216029   3.810   6.396   0.970
 5044SOL     OW16030   6.012   5.126   0.980
 5044SOL    HW116031   5.924   5.160   1.010
 5044SOL    HW216032   5.999   5.058   0.908
 5045SOL     OW16033   6.475   3.455   6.361
 5045SOL    HW116034   6.446   3.423   6.271
 5045SOL    HW216035   6.542   3.528   6.350
 5046SOL     OW16036   3.481   3.272   3.506
 5046SOL    HW116037   3.411   3.219   3.554
 5046SOL    HW216038   3.569   3.226   3.516
 5047SOL     OW16039   1.170   3.528   3.183
 5047SOL    HW116040   1.096   3.480   3.230
 5047SOL    HW216041   1.202   3.604   3.239
 5048SOL     OW16042   1.821   1.337   5.803
 5048SOL    HW116043   1.804   1.339   5.902
 5048SOL    HW216044   1.916   1.360   5.785
 5049SOL     OW16045   5.794   0.820   6.069
 5049SOL    HW116046   5.776   0.916   6.048
 5049SOL    HW216047   5.807   0.769   5.984
 5050SOL     OW16048   1.268   0.427   1.222
 5050SOL    HW116049   1.349   0.375   1.195
 5050SOL    HW216050   1.238   0.484   1.145
 5051SOL     OW16051   3.879   5.213   1.351
 5051SOL    HW116052   3.924   5.138   1.303
 5051SOL    HW216053   3.792   5.181   1.388
 5052SOL     OW16054   2.685   1.172   5.888
 5052SOL    HW116055   2.781   1.147   5.883
 5052SOL    HW216056   2.631   1.093   5.916
 5053SOL     OW16057   0.409   0.084   2.153
 5053SOL    HW116058   0.346   0.154   2.119
 5053SOL    HW216059   0.417   0.092   2.252
 5054SOL     OW16060   4.036   5.015   4.272
 5054SOL    HW116061   4.025   5.051   4.365
 5054SOL    HW216062   3.946   5.004   4.230
 5055SOL     OW16063   6.378   3.098   6.454
 5055SOL    HW116064   6.445   3.158   6.497
 5055SOL    HW216065   6.345   3.031   6.520
 5056SOL     OW16066   5.332   4.114   5.019
 5056SOL    HW116067   5.294   4.100   4.927
 5056SOL    HW216068   5.372   4.205   5.025
 5057SOL     OW16069   1.152   6.509   2.739
 5057SOL    HW116070   1.075   6.523   2.801
 5057SOL    HW216071   1.212   6.437   2.774
 5058SOL     OW16072   3.064   4.796   5.773
 5058SOL    HW116073   3.118   4.779   5.691
 5058SOL    HW216074   3.120   4.778   5.854
 5059SOL     OW16075   0.758   0.730   2.288
 5059SOL    HW116076   0.731   0.647   2.337
 5059SOL    HW216077   0.719   0.729   2.196
 5060SOL     OW16078   6.468   2.226   5.729
 5060SOL    HW116079   6.523   2.168   5.669
 5060SOL    HW216080   6.525   2.260   5.804
 5061SOL     OW16081   5.702   4.134   0.131
 5061SOL    HW116082   5.696   4.230   0.103
 5061SOL    HW216083   5.779   4.123   0.194
 5062SOL     OW16084   0.616   6.963   1.012
 5062SOL    HW116085   0.528   6.919   1.033
 5062SOL    HW216086   0.690   6.903   1.042
 5063SOL     OW16087   1.239   6.444   1.838
 5063SOL    HW116088   1.193   6.523   1.878
 5063SOL    HW216089   1.245   6.371   1.905
 5064SOL     OW16090   4.743   3.265   6.952
 5064SOL    HW116091   4.655   3.219   6.952
 5064SOL    HW216092   4.814   3.200   6.982
 5065SOL     OW16093   2.210   6.294   5.632
 5065SOL    HW116094   2.158   6.371   5.595
 5065SOL    HW216095   2.303   6.297   5.595
 5066SOL     OW16096   5.757   4.857   1.284
 5066SOL    HW116097   5.679   4.878   1.343
 5066SOL    HW216098   5.838   4.843   1.340
 5067SOL     OW16099   5.305   1.038   0.462
 5067SOL    HW116100   5.260   0.971   0.521
 5067SOL    HW216101   5.362   1.099   0.517
 5068SOL     OW16102   2.636   5.172   0.933
 5068SOL    HW116103   2.537   5.179   0.923
 5068SOL    HW216104   2.659   5.174   1.031
 5069SOL     OW16105   0.853   4.317   3.252
 5069SOL    HW116106   0.910   4.304   3.333
 5069SOL    HW216107   0.777   4.253   3.254
 5070SOL     OW16108   5.422   3.014   3.574
 5070SOL    HW116109   5.400   2.917   3.586
 5070SOL    HW216110   5.342   3.070   3.596
 5071SOL     OW16111   4.470   1.472   6.857
 5071SOL    HW116112   4.521   1.507   6.936
 5071SOL    HW216113   4.514   1.502   6.773
 5072SOL     OW16114   1.453   4.200   1.623
 5072SOL    HW116115   1.488   4.115   1.660
 5072SOL    HW216116   1.358   4.187   1.593
 5073SOL     OW16117   4.318   1.172   3.486
 5073SOL    HW116118   4.262   1.095   3.516
 5073SOL    HW216119   4.259   1.246   3.454
 5074SOL     OW16120   2.701   4.071   6.476
 5074SOL    HW116121   2.754   3.987   6.465
 5074SOL    HW216122   2.715   4.130   6.397
 5075SOL     OW16123   0.388   5.547   4.513
 5075SOL    HW116124   0.434   5.501   4.436
 5075SOL    HW216125   0.397   5.490   4.595
 5076SOL     OW16126   3.311   0.344   1.400
 5076SOL    HW116127   3.368   0.282   1.346
 5076SOL    HW216128   3.299   0.430   1.351
 5077SOL     OW16129   7.018   2.117   2.709
 5077SOL    HW116130   7.015   2.181   2.632
 5077SOL    HW216131   0.077   2.128   2.758
 5078SOL     OW16132   1.146   1.678   3.904
 5078SOL    HW116133   1.175   1.585   3.927
 5078SOL    HW216134   1.076   1.675   3.833
 5079SOL     OW16135   3.510   5.247   5.185
 5079SOL    HW116136   3.605   5.241   5.155
 5079SOL    HW216137   3.492   5.177   5.254
 5080SOL     OW16138   5.827   6.658   5.671
 5080SOL    HW116139   5.790   6.708   5.750
 5080SOL    HW216140   5.926   6.649   5.681
 5081SOL     OW16141   3.460   3.539   3.576
 5081SOL    HW116142   3.423   3.580   3.493
 5081SOL    HW216143   3.468   3.440   3.564
 5082SOL     OW16144   6.038   5.872   4.896
 5082SOL    HW116145   6.099   5.867   4.817
 5082SOL    HW216146   5.952   5.826   4.875
 5083SOL     OW16147   1.987   5.758   1.930
 5083SOL    HW116148   1.889   5.759   1.951
 5083SOL    HW216149   2.009   5.677   1.876
 5084SOL     OW16150   1.754   5.881   3.558
 5084SOL    HW116151   1.768   5.861   3.461
 5084SOL    HW216152   1.737   5.796   3.608
 5085SOL     OW16153   6.342   2.588   6.432
 5085SOL    HW116154   6.385   2.678   6.426
 5085SOL    HW216155   6.267   2.591   6.497
 5086SOL     OW16156   6.464   5.157   3.418
 5086SOL    HW116157   6.483   5.241   3.468
 5086SOL    HW216158   6.549   5.115   3.387
 5087SOL     OW16159   0.176   5.592   5.867
 5087SOL    HW116160   0.087   5.594   5.822
 5087SOL    HW216161   0.164   5.586   5.966
 5088SOL     OW16162   5.825   0.180   6.463
 5088SOL    HW116163   5.743   0.160   6.517
 5088SOL    HW216164   5.798   0.199   6.369
 5089SOL     OW16165   5.468   3.476   3.387
 5089SOL    HW116166   5.453   3.459   3.289
 5089SOL    HW216167   5.550   3.429   3.417
 5090SOL     OW16168   1.491   5.070   1.048
 5090SOL    HW116169   1.455   5.102   1.136
 5090SOL    HW216170   1.486   5.144   0.981
 5091SOL     OW16171   1.361   5.919   3.014
 5091SOL    HW116172   1.272   5.953   3.045
 5091SOL    HW216173   1.347   5.852   2.941
 5092SOL     OW16174   3.834   2.707   1.528
 5092SOL    HW116175   3.833   2.786   1.589
 5092SOL    HW216176   3.902   2.641   1.559
 5093SOL     OW16177   0.660   2.387   1.337
 5093SOL    HW116178   0.660   2.322   1.261
 5093SOL    HW216179   0.567   2.397   1.372
 5094SOL     OW16180   0.375   0.420   5.928
 5094SOL    HW116181   0.368   0.397   6.025
 5094SOL    HW216182   0.355   0.338   5.873
 5095SOL     OW16183   2.527   6.755   5.426
 5095SOL    HW116184   2.485   6.846   5.425
 5095SOL    HW216185   2.623   6.762   5.397
 5096SOL     OW16186   4.533   5.117   1.271
 5096SOL    HW116187   4.605   5.051   1.293
 5096SOL    HW216188   4.497   5.099   1.179
 5097SOL     OW16189   1.412   0.227   6.087
 5097SOL    HW116190   1.339   0.248   6.152
 5097SOL    HW216191   1.501   0.249   6.128
 5098SOL     OW16192   0.441   1.868   2.857
 5098SOL    HW116193   0.394   1.914   2.782
 5098SOL    HW216194   0.476   1.780   2.825
 5099SOL     OW16195   1.127   0.406   5.131
 5099SOL    HW116196   1.168   0.317   5.148
 5099SOL    HW216197   1.063   0.400   5.055
 5100SOL     OW16198   5.012   6.897   6.077
 5100SOL    HW116199   4.973   6.931   5.992
 5100SOL    HW216200   5.046   6.974   6.131
 5101SOL     OW16201   4.100   6.130   0.443
 5101SOL    HW116202   4.196   6.146   0.464
 5101SOL    HW216203   4.045   6.205   0.481
 5102SOL     OW16204   3.488   6.552   5.025
 5102SOL    HW116205   3.576   6.526   5.065
 5102SOL    HW216206   3.419   6.485   5.051
 5103SOL     OW16207   0.996   0.857   4.283
 5103SOL    HW116208   1.017   0.790   4.213
 5103SOL    HW216209   1.062   0.932   4.280
 5104SOL     OW16210   1.539   0.341   1.244
 5104SOL    HW116211   1.523   0.333   1.342
 5104SOL    HW216212   1.587   0.427   1.225
 5105SOL     OW16213   2.786   3.916   6.736
 5105SOL    HW116214   2.788   3.816   6.724
 5105SOL    HW216215   2.880   3.951   6.735
 5106SOL     OW16216   3.357   0.157   2.081
 5106SOL    HW116217   3.340   0.254   2.061
 5106SOL    HW216218   3.288   0.101   2.034
 5107SOL     OW16219   1.571   6.803   5.570
 5107SOL    HW116220   1.606   6.877   5.627
 5107SOL    HW216221   1.486   6.832   5.525
 5108SOL     OW16222   3.246   3.583   4.188
 5108SOL    HW116223   3.226   3.650   4.117
 5108SOL    HW216224   3.236   3.491   4.151
 5109SOL     OW16225   6.895   1.189   1.308
 5109SOL    HW116226   6.818   1.139   1.346
 5109SOL    HW216227   6.926   1.258   1.373
 5110SOL     OW16228   2.060   5.722   5.813
 5110SOL    HW116229   1.975   5.752   5.770
 5110SOL    HW216230   2.064   5.758   5.907
 5111SOL     OW16231   1.364   1.222   0.934
 5111SOL    HW116232   1.391   1.146   0.992
 5111SOL    HW216233   1.302   1.190   0.862
 5112SOL     OW16234   0.177   6.238   3.629
 5112SOL    HW116235   0.186   6.320   3.572
 5112SOL    HW216236   0.080   6.216   3.641
 5113SOL     OW16237   1.275   6.863   6.920
 5113SOL    HW116238   1.257   6.802   6.842
 5113SOL    HW216239   1.198   6.926   6.931
 5114SOL     OW16240   4.255   4.864   0.217
 5114SOL    HW116241   4.197   4.863   0.299
 5114SOL    HW216242   4.223   4.936   0.155
 5115SOL     OW16243   1.837   3.557   5.570
 5115SOL    HW116244   1.825   3.632   5.636
 5115SOL    HW216245   1.749   3.512   5.555
 5116SOL     OW16246   7.005   4.005   1.135
 5116SOL    HW116247   6.957   4.053   1.062
 5116SOL    HW216248   7.013   3.908   1.111
 5117SOL     OW16249   2.385   4.387   4.549
 5117SOL    HW116250   2.455   4.458   4.546
 5117SOL    HW216251   2.305   4.417   4.497
 5118SOL     OW16252   4.436   6.245   0.952
 5118SOL    HW116253   4.383   6.299   1.017
 5118SOL    HW216254   4.525   6.288   0.939
 5119SOL     OW16255   5.593   6.975   2.337
 5119SOL    HW116256   5.624   6.884   2.365
 5119SOL    HW216257   5.580   0.005   2.418
 5120SOL     OW16258   4.992   1.393   2.561
 5120SOL    HW116259   4.945   1.420   2.645
 5120SOL    HW216260   4.924   1.365   2.493
 5121SOL     OW16261   0.332   4.034   5.259
 5121SOL    HW116262   0.376   4.070   5.341
 5121SOL    HW216263   0.275   4.106   5.217
 5122SOL     OW16264   1.829   6.476   3.708
 5122SOL    HW116265   1.750   6.519   3.751
 5122SOL    HW216266   1.866   6.536   3.638
 5123SOL     OW16267   5.280   4.712   2.177
 5123SOL    HW116268   5.216   4.663   2.235
 5123SOL    HW216269   5.294   4.804   2.213
 5124SOL     OW16270   3.001   6.143   7.023
 5124SOL    HW116271   3.059   6.106   0.068
 5124SOL    HW216272   2.963   6.231   0.025
 5125SOL     OW16273   6.801   2.574   5.962
 5125SOL    HW116274   6.862   2.564   6.041
 5125SOL    HW216275   6.775   2.483   5.929
 5126SOL     OW16276   5.273   3.431   6.223
 5126SOL    HW116277   5.210   3.490   6.174
 5126SOL    HW216278   5.226   3.388   6.301
 5127SOL     OW16279   5.887   2.769   6.504
 5127SOL    HW116280   5.933   2.835   6.445
 5127SOL    HW216281   5.798   2.806   6.532
 5128SOL     OW16282   0.775   0.733   6.871
 5128SOL    HW116283   0.714   0.694   6.939
 5128SOL    HW216284   0.862   0.757   6.913
 5129SOL     OW16285   4.175   2.282   2.645
 5129SOL    HW116286   4.202   2.370   2.607
 5129SOL    HW216287   4.192   2.281   2.743
 5130SOL     OW16288   0.895   6.297   4.707
 5130SOL    HW116289   0.971   6.252   4.753
 5130SOL    HW216290   0.812   6.242   4.716
 5131SOL     OW16291   3.302   4.932   3.514
 5131SOL    HW116292   3.237   4.873   3.467
 5131SOL    HW216293   3.395   4.905   3.490
 5132SOL     OW16294   3.380   1.034   6.878
 5132SOL    HW116295   3.400   0.946   6.836
 5132SOL    HW216296   3.316   1.085   6.820
 5133SOL     OW16297   5.133   4.253   6.709
 5133SOL    HW116298   5.052   4.310   6.718
 5133SOL    HW216299   5.210   4.296   6.757
 5134SOL     OW16300   6.322   6.296   1.065
 5134SOL    HW116301   6.348   6.337   1.152
 5134SOL    HW216302   6.231   6.329   1.037
 5135SOL     OW16303   6.488   2.809   2.820
 5135SOL    HW116304   6.409   2.841   2.767
 5135SOL    HW216305   6.489   2.856   2.908
 5136SOL     OW16306   1.477   1.131   5.985
 5136SOL    HW116307   1.412   1.122   6.059
 5136SOL    HW216308   1.430   1.158   5.901
 5137SOL     OW16309   6.218   0.922   4.634
 5137SOL    HW116310   6.182   0.991   4.572
 5137SOL    HW216311   6.173   0.931   4.723
 5138SOL     OW16312   3.045   3.343   3.855
 5138SOL    HW116313   3.115   3.351   3.927
 5138SOL    HW216314   2.962   3.391   3.884
 5139SOL     OW16315   2.765   0.289   5.999
 5139SOL    HW116316   2.748   0.383   6.028
 5139SOL    HW216317   2.863   0.271   5.996
 5140SOL     OW16318   3.767   3.314   6.646
 5140SOL    HW116319   3.861   3.291   6.672
 5140SOL    HW216320   3.763   3.409   6.614
 5141SOL     OW16321   6.613   2.732   1.801
 5141SOL    HW116322   6.678   2.681   1.745
 5141SOL    HW216323   6.590   2.678   1.882
 5142SOL     OW16324   0.108   0.119   2.402
 5142SOL    HW116325   0.059   0.036   2.379
 5142SOL    HW216326   0.091   0.189   2.333
 5143SOL     OW16327   0.076   6.651   2.506
 5143SOL    HW116328   7.018   6.608   2.535
 5143SOL    HW216329   0.096   6.729   2.566
 5144SOL     OW16330   2.401   3.078   5.459
 5144SOL    HW116331   2.456   3.057   5.378
 5144SOL    HW216332   2.330   3.009   5.470
 5145SOL     OW16333   2.347   5.472   6.581
 5145SOL    HW116334   2.365   5.416   6.500
 5145SOL    HW216335   2.408   5.444   6.655
 5146SOL     OW16336   5.319   5.886   6.556
 5146SOL    HW116337   5.262   5.954   6.510
 5146SOL    HW216338   5.326   5.805   6.498
 5147SOL     OW16339   4.438   2.475   3.085
 5147SOL    HW116340   4.411   2.497   2.992
 5147SOL    HW216341   4.503   2.544   3.118
 5148SOL     OW16342   0.757   0.201   6.440
 5148SOL    HW116343   0.807   0.143   6.505
 5148SOL    HW216344   0.821   0.253   6.384
 5149SOL     OW16345   4.880   4.890   4.051
 5149SOL    HW116346   4.938   4.899   3.971
 5149SOL    HW216347   4.888   4.972   4.107
 5150SOL     OW16348   0.188   6.576   3.964
 5150SOL    HW116349   0.180   6.595   3.866
 5150SOL    HW216350   0.151   6.653   4.016
 5151SOL     OW16351   5.941   5.716   2.465
 5151SOL    HW116352   5.962   5.766   2.549
 5151SOL    HW216353   6.024   5.672   2.431
 5152SOL     OW16354   1.651   1.136   0.370
 5152SOL    HW116355   1.681   1.193   0.293
 5152SOL    HW216356   1.668   1.184   0.456
 5153SOL     OW16357   0.890   1.831   0.700
 5153SOL    HW116358   0.799   1.871   0.709
 5153SOL    HW216359   0.929   1.816   0.791
 5154SOL     OW16360   6.871   3.067   0.916
 5154SOL    HW116361   6.954   3.067   0.860
 5154SOL    HW216362   6.797   3.022   0.866
 5155SOL     OW16363   1.913   1.456   0.340
 5155SOL    HW116364   1.949   1.549   0.338
 5155SOL    HW216365   1.919   1.420   0.433
 5156SOL     OW16366   5.266   6.295   5.271
 5156SOL    HW116367   5.344   6.350   5.300
 5156SOL    HW216368   5.189   6.311   5.333
 5157SOL     OW16369   3.149   0.087   1.676
 5157SOL    HW116370   3.055   0.054   1.670
 5157SOL    HW216371   3.155   0.159   1.745
 5158SOL     OW16372   1.589   2.040   1.464
 5158SOL    HW116373   1.566   2.137   1.469
 5158SOL    HW216374   1.659   2.018   1.533
 5159SOL     OW16375   6.415   3.069   5.929
 5159SOL    HW116376   6.349   3.063   6.004
 5159SOL    HW216377   6.380   3.018   5.851
 5160SOL     OW16378   6.094   6.897   3.677
 5160SOL    HW116379   6.029   6.883   3.751
 5160SOL    HW216380   6.160   6.967   3.704
 5161SOL     OW16381   1.742   3.464   0.223
 5161SOL    HW116382   1.732   3.558   0.190
 5161SOL    HW216383   1.831   3.428   0.195
 5162SOL     OW16384   6.487   0.271   3.732
 5162SOL    HW116385   6.544   0.224   3.799
 5162SOL    HW216386   6.479   0.214   3.650
 5163SOL     OW16387   2.801   0.669   1.823
 5163SOL    HW116388   2.833   0.756   1.785
 5163SOL    HW216389   2.719   0.640   1.774
 5164SOL     OW16390   3.031   3.882   6.930
 5164SOL    HW116391   3.045   3.873   6.832
 5164SOL    HW216392   3.119   3.882   6.977
 5165SOL     OW16393   1.680   4.149   6.366
 5165SOL    HW116394   1.609   4.079   6.380
 5165SOL    HW216395   1.755   4.134   6.431
 5166SOL     OW16396   1.094   5.360   0.869
 5166SOL    HW116397   1.006   5.313   0.870
 5166SOL    HW216398   1.083   5.451   0.908
 5167SOL     OW16399   5.561   3.314   5.276
 5167SOL    HW116400   5.496   3.241   5.256
 5167SOL    HW216401   5.556   3.384   5.205
 5168SOL     OW16402   4.568   2.285   2.815
 5168SOL    HW116403   4.579   2.279   2.914
 5168SOL    HW216404   4.514   2.207   2.782
 5169SOL     OW16405   3.894   5.822   4.428
 5169SOL    HW116406   3.814   5.819   4.368
 5169SOL    HW216407   3.961   5.887   4.391
 5170SOL     OW16408   2.058   3.109   6.828
 5170SOL    HW116409   2.147   3.064   6.829
 5170SOL    HW216410   2.057   3.183   6.895
 5171SOL     OW16411   1.814   5.838   5.919
 5171SOL    HW116412   1.884   5.832   5.990
 5171SOL    HW216413   1.725   5.810   5.957
 5172SOL     OW16414   6.107   5.439   5.258
 5172SOL    HW116415   6.101   5.477   5.166
 5172SOL    HW216416   6.016   5.433   5.298
 5173SOL     OW16417   4.081   4.942   5.809
 5173SOL    HW116418   4.179   4.932   5.828
 5173SOL    HW216419   4.060   4.904   5.719
 5174SOL     OW16420   2.221   6.393   3.913
 5174SOL    HW116421   2.308   6.390   3.864
 5174SOL    HW216422   2.164   6.316   3.884
 5175SOL     OW16423   3.193   3.170   6.925
 5175SOL    HW116424   3.214   3.268   6.928
 5175SOL    HW216425   3.185   3.135   7.018
 5176SOL     OW16426   6.046   6.396   6.701
 5176SOL    HW116427   6.134   6.376   6.658
 5176SOL    HW216428   5.972   6.360   6.644
 5177SOL     OW16429   6.376   6.985   0.309
 5177SOL    HW116430   6.428   6.905   0.279
 5177SOL    HW216431   6.284   6.958   0.336
 5178SOL     OW16432   0.914   4.272   1.356
 5178SOL    HW116433   0.862   4.198   1.399
 5178SOL    HW216434   0.905   4.355   1.410
 5179SOL     OW16435   5.196   6.132   2.622
 5179SOL    HW116436   5.233   6.071   2.552
 5179SOL    HW216437   5.128   6.083   2.676
 5180SOL     OW16438   2.149   6.146   2.772
 5180SOL    HW116439   2.109   6.164   2.862
 5180SOL    HW216440   2.242   6.111   2.783
 5181SOL     OW16441   6.992   0.054   6.294
 5181SOL    HW116442   6.976   7.020   6.216
 5181SOL    HW216443   6.959   0.145   6.271
 5182SOL     OW16444   2.814   6.434   3.386
 5182SOL    HW116445   2.722   6.432   3.425
 5182SOL    HW216446   2.846   6.529   3.383
 5183SOL     OW16447   4.257   1.725   3.813
 5183SOL    HW116448   4.354   1.743   3.797
 5183SOL    HW216449   4.231   1.759   3.903
 5184SOL     OW16450   2.843   1.216   3.791
 5184SOL    HW116451   2.815   1.147   3.724
 5184SOL    HW216452   2.809   1.306   3.763
 5185SOL     OW16453   6.525   0.304   1.515
 5185SOL    HW116454   6.544   0.220   1.565
 5185SOL    HW216455   6.478   0.282   1.429
 5186SOL     OW16456   6.889   3.750   6.490
 5186SOL    HW116457   6.831   3.814   6.439
 5186SOL    HW216458   6.861   3.657   6.469
 5187SOL     OW16459   1.182   4.528   5.007
 5187SOL    HW116460   1.251   4.561   5.071
 5187SOL    HW216461   1.201   4.565   4.916
 5188SOL     OW16462   5.670   0.088   2.780
 5188SOL    HW116463   5.763   0.051   2.790
 5188SOL    HW216464   5.644   0.089   2.683
 5189SOL     OW16465   5.281   0.125   6.227
 5189SOL    HW116466   5.223   0.072   6.289
 5189SOL    HW216467   5.377   0.110   6.251
 5190SOL     OW16468   1.707   4.293   0.366
 5190SOL    HW116469   1.786   4.315   0.310
 5190SOL    HW216470   1.727   4.314   0.462
 5191SOL     OW16471   2.792   5.139   1.742
 5191SOL    HW116472   2.819   5.116   1.836
 5191SOL    HW216473   2.707   5.191   1.744
 5192SOL     OW16474   1.856   5.122   2.587
 5192SOL    HW116475   1.765   5.083   2.603
 5192SOL    HW216476   1.915   5.099   2.664
 5193SOL     OW16477   5.469   0.604   5.309
 5193SOL    HW116478   5.515   0.565   5.388
 5193SOL    HW216479   5.372   0.580   5.312
 5194SOL     OW16480   5.135   1.364   6.285
 5194SOL    HW116481   5.056   1.421   6.262
 5194SOL    HW216482   5.218   1.421   6.287
 5195SOL     OW16483   0.198   0.717   4.927
 5195SOL    HW116484   0.268   0.673   4.984
 5195SOL    HW216485   0.118   0.738   4.983
 5196SOL     OW16486   6.038   6.666   3.308
 5196SOL    HW116487   6.065   6.574   3.336
 5196SOL    HW216488   5.974   6.661   3.232
 5197SOL     OW16489   0.810   3.445   4.658
 5197SOL    HW116490   0.736   3.487   4.709
 5197SOL    HW216491   0.830   3.354   4.695
 5198SOL     OW16492   5.716   5.470   3.555
 5198SOL    HW116493   5.801   5.455   3.605
 5198SOL    HW216494   5.736   5.504   3.463
 5199SOL     OW16495   0.557   4.585   1.824
 5199SOL    HW116496   0.521   4.647   1.894
 5199SOL    HW216497   0.524   4.614   1.734
 5200SOL     OW16498   0.073   3.787   4.619
 5200SOL    HW116499   0.117   3.876   4.614
 5200SOL    HW216500   0.129   3.725   4.675
 5201SOL     OW16501   1.034   4.957   4.313
 5201SOL    HW116502   1.077   4.874   4.281
 5201SOL    HW216503   1.085   4.994   4.391
 5202SOL     OW16504   0.997   5.065   1.971
 5202SOL    HW116505   0.907   5.075   2.015
 5202SOL    HW216506   1.003   4.974   1.930
 5203SOL     OW16507   0.656   3.129   0.023
 5203SOL    HW116508   0.708   3.044   0.011
 5203SOL    HW216509   0.651   3.151   0.121
 5204SOL     OW16510   4.848   3.991   7.015
 5204SOL    HW116511   4.814   4.022   0.077
 5204SOL    HW216512   4.833   4.063   6.947
 5205SOL     OW16513   1.622   7.023   1.185
 5205SOL    HW116514   1.594   0.092   1.184
 5205SOL    HW216515   1.665   7.000   1.098
 5206SOL     OW16516   0.383   4.284   5.012
 5206SOL    HW116517   0.451   4.305   4.942
 5206SOL    HW216518   0.358   4.188   5.007
 5207SOL     OW16519   1.686   4.459   3.880
 5207SOL    HW116520   1.751   4.436   3.953
 5207SOL    HW216521   1.599   4.413   3.896
 5208SOL     OW16522   4.437   1.247   0.115
 5208SOL    HW116523   4.492   1.311   0.062
 5208SOL    HW216524   4.340   1.270   0.104
 5209SOL     OW16525   5.464   5.948   3.097
 5209SOL    HW116526   5.397   5.955   3.023
 5209SOL    HW216527   5.552   5.919   3.061
 5210SOL     OW16528   4.322   4.797   3.336
 5210SOL    HW116529   4.352   4.737   3.410
 5210SOL    HW216530   4.361   4.765   3.250
 5211SOL     OW16531   3.681   3.674   2.397
 5211SOL    HW116532   3.661   3.625   2.482
 5211SOL    HW216533   3.673   3.773   2.412
 5212SOL     OW16534   0.986   1.615   0.283
 5212SOL    HW116535   1.021   1.692   0.230
 5212SOL    HW216536   1.000   1.632   0.380
 5213SOL     OW16537   4.018   1.834   6.538
 5213SOL    HW116538   4.013   1.738   6.566
 5213SOL    HW216539   3.968   1.847   6.453
 5214SOL     OW16540   5.638   1.714   6.141
 5214SOL    HW116541   5.606   1.628   6.101
 5214SOL    HW216542   5.684   1.769   6.071
 5215SOL     OW16543   5.388   5.313   2.515
 5215SOL    HW116544   5.368   5.357   2.602
 5215SOL    HW216545   5.304   5.278   2.474
 5216SOL     OW16546   4.771   5.883   0.825
 5216SOL    HW116547   4.723   5.869   0.738
 5216SOL    HW216548   4.705   5.881   0.900
 5217SOL     OW16549   2.604   4.758   3.971
 5217SOL    HW116550   2.508   4.777   3.989
 5217SOL    HW216551   2.613   4.713   3.882
 5218SOL     OW16552   1.658   6.964   4.398
 5218SOL    HW116553   1.716   6.943   4.319
 5218SOL    HW216554   1.678   6.900   4.472
 5219SOL     OW16555   2.602   5.447   0.137
 5219SOL    HW116556   2.505   5.471   0.136
 5219SOL    HW216557   2.617   5.371   0.201
 5220SOL     OW16558   0.369   6.827   2.550
 5220SOL    HW116559   0.367   6.875   2.462
 5220SOL    HW216560   0.426   6.745   2.542
 5221SOL     OW16561   4.983   1.424   5.167
 5221SOL    HW116562   4.953   1.467   5.082
 5221SOL    HW216563   5.002   1.494   5.236
 5222SOL     OW16564   1.161   0.413   2.544
 5222SOL    HW116565   1.196   0.425   2.451
 5222SOL    HW216566   1.191   0.325   2.580
 5223SOL     OW16567   5.228   7.000   1.228
 5223SOL    HW116568   5.213   0.035   1.305
 5223SOL    HW216569   5.326   6.983   1.217
 5224SOL     OW16570   5.689   1.614   2.615
 5224SOL    HW116571   5.744   1.581   2.538
 5224SOL    HW216572   5.650   1.536   2.663
 5225SOL     OW16573   5.476   5.851   5.605
 5225SOL    HW116574   5.473   5.924   5.537
 5225SOL    HW216575   5.383   5.829   5.633
 5226SOL     OW16576   1.307   6.538   4.159
 5226SOL    HW116577   1.214   6.566   4.137
 5226SOL    HW216578   1.371   6.611   4.136
 5227SOL     OW16579   6.050   5.118   3.081
 5227SOL    HW116580   6.037   5.040   3.143
 5227SOL    HW216581   6.138   5.161   3.101
 5228SOL     OW16582   5.677   1.192   1.131
 5228SOL    HW116583   5.715   1.113   1.179
 5228SOL    HW216584   5.744   1.227   1.065
 5229SOL     OW16585   0.930   4.513   4.862
 5229SOL    HW116586   0.971   4.437   4.812
 5229SOL    HW216587   0.984   4.531   4.944
 5230SOL     OW16588   0.952   6.638   6.874
 5230SOL    HW116589   0.976   6.559   6.932
 5230SOL    HW216590   0.859   6.667   6.894
 5231SOL     OW16591   3.543   3.280   3.920
 5231SOL    HW116592   3.573   3.190   3.889
 5231SOL    HW216593   3.557   3.287   4.019
 5232SOL     OW16594   4.789   2.772   6.195
 5232SOL    HW116595   4.844   2.735   6.270
 5232SOL    HW216596   4.692   2.760   6.216
 5233SOL     OW16597   0.420   0.703   2.385
 5233SOL    HW116598   0.448   0.719   2.290
 5233SOL    HW216599   0.467   0.622   2.420
 5234SOL     OW16600   3.607   6.418   1.280
 5234SOL    HW116601   3.509   6.405   1.268
 5234SOL    HW216602   3.643   6.473   1.205
 5235SOL     OW16603   0.775   3.537   1.184
 5235SOL    HW116604   0.799   3.439   1.184
 5235SOL    HW216605   0.733   3.561   1.097
 5236SOL     OW16606   5.221   2.952   0.926
 5236SOL    HW116607   5.240   2.883   0.996
 5236SOL    HW216608   5.122   2.959   0.912
 5237SOL     OW16609   2.383   1.921   4.775
 5237SOL    HW116610   2.297   1.920   4.723
 5237SOL    HW216611   2.450   1.978   4.727
 5238SOL     OW16612   1.721   4.331   1.067
 5238SOL    HW116613   1.671   4.416   1.053
 5238SOL    HW216614   1.815   4.343   1.034
 5239SOL     OW16615   3.023   3.662   4.985
 5239SOL    HW116616   2.968   3.585   4.951
 5239SOL    HW216617   2.966   3.743   4.992
 5240SOL     OW16618   3.267   2.072   4.858
 5240SOL    HW116619   3.236   2.149   4.914
 5240SOL    HW216620   3.192   2.006   4.848
 5241SOL     OW16621   2.115   5.524   6.192
 5241SOL    HW116622   2.193   5.558   6.244
 5241SOL    HW216623   2.127   5.426   6.173
 5242SOL     OW16624   5.452   1.088   6.106
 5242SOL    HW116625   5.483   1.122   6.195
 5242SOL    HW216626   5.364   1.041   6.118
 5243SOL     OW16627   1.084   4.542   1.159
 5243SOL    HW116628   0.989   4.550   1.187
 5243SOL    HW216629   1.093   4.567   1.062
 5244SOL     OW16630   5.785   3.954   6.435
 5244SOL    HW116631   5.838   3.890   6.380
 5244SOL    HW216632   5.688   3.948   6.408
 5245SOL     OW16633   5.397   4.015   6.842
 5245SOL    HW116634   5.426   3.921   6.822
 5245SOL    HW216635   5.307   4.014   6.884
 5246SOL     OW16636   0.937   3.196   3.044
 5246SOL    HW116637   0.911   3.107   3.005
 5246SOL    HW216638   1.026   3.188   3.089
 5247SOL     OW16639   0.648   5.102   1.552
 5247SOL    HW116640   0.607   5.181   1.597
 5247SOL    HW216641   0.633   5.108   1.453
 5248SOL     OW16642   4.830   0.919   6.645
 5248SOL    HW116643   4.819   0.938   6.548
 5248SOL    HW216644   4.744   0.886   6.683
 5249SOL     OW16645   1.244   5.538   4.996
 5249SOL    HW116646   1.179   5.491   5.056
 5249SOL    HW216647   1.237   5.500   4.904
 5250SOL     OW16648   0.770   0.729   5.920
 5250SOL    HW116649   0.706   0.788   5.871
 5250SOL    HW216650   0.804   0.777   6.001
 5251SOL     OW16651   6.947   2.998   1.438
 5251SOL    HW116652   7.011   2.922   1.436
 5251SOL    HW216653   6.969   3.060   1.513
 5252SOL     OW16654   3.965   5.659   0.420
 5252SOL    HW116655   3.884   5.629   0.371
 5252SOL    HW216656   3.964   5.622   0.513
 5253SOL     OW16657   5.648   3.159   3.665
 5253SOL    HW116658   5.704   3.106   3.729
 5253SOL    HW216659   5.586   3.098   3.615
 5254SOL     OW16660   4.605   1.085   3.991
 5254SOL    HW116661   4.603   1.169   3.937
 5254SOL    HW216662   4.686   1.086   4.051
 5255SOL     OW16663   3.517   6.670   4.607
 5255SOL    HW116664   3.549   6.579   4.579
 5255SOL    HW216665   3.501   6.671   4.705
 5256SOL     OW16666   5.981   6.552   3.628
 5256SOL    HW116667   6.050   6.496   3.581
 5256SOL    HW216668   5.998   6.648   3.610
 5257SOL     OW16669   3.457   1.115   1.285
 5257SOL    HW116670   3.516   1.121   1.366
 5257SOL    HW216671   3.364   1.142   1.309
 5258SOL     OW16672   5.767   2.895   2.343
 5258SOL    HW116673   5.759   2.966   2.273
 5258SOL    HW216674   5.704   2.914   2.418
 5259SOL     OW16675   4.673   4.915   2.404
 5259SOL    HW116676   4.596   4.960   2.359
 5259SOL    HW216677   4.668   4.816   2.386
 5260SOL     OW16678   5.394   3.179   1.476
 5260SOL    HW116679   5.427   3.256   1.421
 5260SOL    HW216680   5.295   3.183   1.485
 5261SOL     OW16681   1.656   2.653   4.734
 5261SOL    HW116682   1.694   2.614   4.818
 5261SOL    HW216683   1.714   2.727   4.702
 5262SOL     OW16684   2.694   6.683   2.290
 5262SOL    HW116685   2.705   6.780   2.271
 5262SOL    HW216686   2.607   6.668   2.336
 5263SOL     OW16687   0.920   6.356   0.347
 5263SOL    HW116688   0.886   6.390   0.434
 5263SOL    HW216689   0.909   6.428   0.277
 5264SOL     OW16690   0.486   2.472   0.883
 5264SOL    HW116691   0.433   2.389   0.899
 5264SOL    HW216692   0.564   2.474   0.945
 5265SOL     OW16693   5.055   5.098   1.991
 5265SOL    HW116694   5.050   5.003   2.021
 5265SOL    HW216695   5.046   5.102   1.892
 5266SOL     OW16696   1.800   6.923   0.992
 5266SOL    HW116697   1.726   6.968   0.943
 5266SOL    HW216698   1.844   6.988   1.053
 5267SOL     OW16699   5.106   4.832   4.647
 5267SOL    HW116700   5.074   4.840   4.552
 5267SOL    HW216701   5.177   4.763   4.653
 5268SOL     OW16702   5.914   4.611   4.223
 5268SOL    HW116703   5.953   4.610   4.131
 5268SOL    HW216704   5.983   4.643   4.288
 5269SOL     OW16705   1.686   5.669   4.336
 5269SOL    HW116706   1.705   5.766   4.346
 5269SOL    HW216707   1.589   5.656   4.315
 5270SOL     OW16708   6.275   2.695   2.507
 5270SOL    HW116709   6.290   2.752   2.426
 5270SOL    HW216710   6.338   2.617   2.505
 5271SOL     OW16711   4.571   4.943   4.901
 5271SOL    HW116712   4.625   4.974   4.980
 5271SOL    HW216713   4.608   4.984   4.818
 5272SOL     OW16714   1.672   1.142   4.767
 5272SOL    HW116715   1.607   1.153   4.691
 5272SOL    HW216716   1.680   1.045   4.790
 5273SOL     OW16717   0.667   0.976   4.064
 5273SOL    HW116718   0.750   0.953   4.012
 5273SOL    HW216719   0.693   1.022   4.149
 5274SOL     OW16720   6.586   5.042   3.777
 5274SOL    HW116721   6.636   5.123   3.806
 5274SOL    HW216722   6.617   4.962   3.829
 5275SOL     OW16723   2.405   6.908   0.003
 5275SOL    HW116724   2.354   6.993   0.018
 5275SOL    HW216725   2.357   6.833   0.048
 5276SOL     OW16726   0.136   6.495   1.240
 5276SOL    HW116727   0.103   6.548   1.162
 5276SOL    HW216728   0.059   6.473   1.300
 5277SOL     OW16729   1.244   1.886   2.803
 5277SOL    HW116730   1.269   1.912   2.710
 5277SOL    HW216731   1.316   1.830   2.843
 5278SOL     OW16732   1.336   5.133   5.829
 5278SOL    HW116733   1.366   5.212   5.883
 5278SOL    HW216734   1.243   5.109   5.856
 5279SOL     OW16735   2.059   5.805   6.466
 5279SOL    HW116736   2.081   5.723   6.520
 5279SOL    HW216737   2.140   5.834   6.416
 5280SOL     OW16738   4.118   6.259   4.998
 5280SOL    HW116739   4.143   6.312   5.078
 5280SOL    HW216740   4.034   6.208   5.017
 5281SOL     OW16741   2.191   0.695   4.705
 5281SOL    HW116742   2.263   0.743   4.656
 5281SOL    HW216743   2.124   0.761   4.739
 5282SOL     OW16744   1.513   6.951   1.524
 5282SOL    HW116745   1.471   0.009   1.493
 5282SOL    HW216746   1.604   6.943   1.485
 5283SOL     OW16747   0.787   0.927   4.760
 5283SOL    HW116748   0.757   0.863   4.831
 5283SOL    HW216749   0.720   1.000   4.749
 5284SOL     OW16750   4.573   2.440   1.113
 5284SOL    HW116751   4.551   2.439   1.211
 5284SOL    HW216752   4.538   2.525   1.073
 5285SOL     OW16753   1.339   2.269   4.545
 5285SOL    HW116754   1.410   2.199   4.529
 5285SOL    HW216755   1.249   2.229   4.527
 5286SOL     OW16756   6.131   3.399   0.851
 5286SOL    HW116757   6.091   3.390   0.942
 5286SOL    HW216758   6.072   3.456   0.794
 5287SOL     OW16759   2.199   5.467   1.463
 5287SOL    HW116760   2.224   5.391   1.524
 5287SOL    HW216761   2.246   5.456   1.376
 5288SOL     OW16762   3.916   0.499   2.023
 5288SOL    HW116763   3.923   0.445   2.107
 5288SOL    HW216764   3.861   0.451   1.956
 5289SOL     OW16765   2.246   4.945   6.580
 5289SOL    HW116766   2.230   4.867   6.641
 5289SOL    HW216767   2.185   4.940   6.501
 5290SOL     OW16768   1.700   3.046   5.322
 5290SOL    HW116769   1.630   3.068   5.391
 5290SOL    HW216770   1.695   2.949   5.299
 5291SOL     OW16771   2.824   4.826   4.779
 5291SOL    HW116772   2.776   4.781   4.704
 5291SOL    HW216773   2.823   4.766   4.860
 5292SOL     OW16774   6.733   4.096   5.971
 5292SOL    HW116775   6.634   4.105   5.984
 5292SOL    HW216776   6.779   4.130   6.053
 5293SOL     OW16777   1.993   5.878   4.519
 5293SOL    HW116778   1.966   5.783   4.504
 5293SOL    HW216779   2.070   5.901   4.459
 5294SOL     OW16780   3.727   0.633   5.157
 5294SOL    HW116781   3.634   0.625   5.192
 5294SOL    HW216782   3.791   0.640   5.233
 5295SOL     OW16783   2.675   1.444   2.281
 5295SOL    HW116784   2.697   1.538   2.310
 5295SOL    HW216785   2.751   1.383   2.306
 5296SOL     OW16786   5.099   4.937   1.336
 5296SOL    HW116787   5.145   4.984   1.261
 5296SOL    HW216788   5.159   4.865   1.371
 5297SOL     OW16789   2.465   4.809   0.575
 5297SOL    HW116790   2.547   4.843   0.530
 5297SOL    HW216791   2.489   4.740   0.642
 5298SOL     OW16792   2.204   0.702   0.689
 5298SOL    HW116793   2.190   0.687   0.591
 5298SOL    HW216794   2.299   0.730   0.705
 5299SOL     OW16795   3.023   1.894   0.523
 5299SOL    HW116796   3.111   1.912   0.478
 5299SOL    HW216797   3.004   1.796   0.518
 5300SOL     OW16798   1.976   4.294   0.211
 5300SOL    HW116799   2.034   4.213   0.217
 5300SOL    HW216800   1.976   4.328   0.117
 5301SOL     OW16801   5.045   0.792   5.651
 5301SOL    HW116802   4.977   0.788   5.578
 5301SOL    HW216803   5.049   0.704   5.698
 5302SOL     OW16804   5.486   5.878   3.379
 5302SOL    HW116805   5.425   5.927   3.441
 5302SOL    HW216806   5.486   5.922   3.290
 5303SOL     OW16807   0.216   5.200   5.838
 5303SOL    HW116808   0.300   5.251   5.822
 5303SOL    HW216809   0.139   5.246   5.794
 5304SOL     OW16810   6.885   0.559   1.471
 5304SOL    HW116811   6.899   0.648   1.427
 5304SOL    HW216812   6.792   0.554   1.507
 5305SOL     OW16813   1.538   4.935   2.913
 5305SOL    HW116814   1.444   4.910   2.939
 5305SOL    HW216815   1.564   5.020   2.958
 5306SOL     OW16816   6.660   3.693   5.756
 5306SOL    HW116817   6.619   3.667   5.668
 5306SOL    HW216818   6.707   3.613   5.795
 5307SOL     OW16819   5.588   2.470   1.308
 5307SOL    HW116820   5.634   2.559   1.310
 5307SOL    HW216821   5.653   2.398   1.328
 5308SOL     OW16822   1.502   4.645   2.827
 5308SOL    HW116823   1.570   4.688   2.888
 5308SOL    HW216824   1.411   4.660   2.864
 5309SOL     OW16825   5.768   6.317   2.741
 5309SOL    HW116826   5.699   6.352   2.678
 5309SOL    HW216827   5.804   6.392   2.797
 5310SOL     OW16828   6.182   3.074   2.968
 5310SOL    HW116829   6.188   3.048   2.872
 5310SOL    HW216830   6.087   3.067   2.998
 5311SOL     OW16831   5.830   0.010   0.601
 5311SOL    HW116832   5.806   6.950   0.559
 5311SOL    HW216833   5.928   0.026   0.594
 5312SOL     OW16834   6.716   6.383   0.826
 5312SOL    HW116835   6.744   6.305   0.769
 5312SOL    HW216836   6.638   6.428   0.784
 5313SOL     OW16837   0.210   5.054   5.292
 5313SOL    HW116838   0.180   5.138   5.248
 5313SOL    HW216839   0.304   5.034   5.265
 5314SOL     OW16840   6.280   0.382   1.387
 5314SOL    HW116841   6.356   0.437   1.353
 5314SOL    HW216842   6.196   0.408   1.338
 5315SOL     OW16843   4.333   1.280   3.735
 5315SOL    HW116844   4.268   1.355   3.750
 5315SOL    HW216845   4.347   1.267   3.637
 5316SOL     OW16846   0.771   2.856   5.225
 5316SOL    HW116847   0.848   2.861   5.160
 5316SOL    HW216848   0.752   2.761   5.246
 5317SOL     OW16849   6.700   1.915   5.942
 5317SOL    HW116850   6.687   1.863   5.857
 5317SOL    HW216851   6.793   1.953   5.944
 5318SOL     OW16852   6.655   2.732   0.083
 5318SOL    HW116853   6.660   2.682   7.024
 5318SOL    HW216854   6.600   2.680   0.149
 5319SOL     OW16855   4.115   6.652   1.238
 5319SOL    HW116856   4.196   6.629   1.184
 5319SOL    HW216857   4.141   6.716   1.310
 5320SOL     OW16858   3.296   5.691   1.244
 5320SOL    HW116859   3.204   5.655   1.231
 5320SOL    HW216860   3.292   5.779   1.290
 5321SOL     OW16861   1.737   4.305   5.051
 5321SOL    HW116862   1.805   4.350   5.109
 5321SOL    HW216863   1.754   4.328   4.955
 5322SOL     OW16864   5.394   6.823   1.779
 5322SOL    HW116865   5.439   6.742   1.743
 5322SOL    HW216866   5.358   6.804   1.871
 5323SOL     OW16867   4.820   1.573   5.419
 5323SOL    HW116868   4.734   1.541   5.380
 5323SOL    HW216869   4.838   1.666   5.389
 5324SOL     OW16870   2.266   1.848   0.418
 5324SOL    HW116871   2.232   1.913   0.351
 5324SOL    HW216872   2.328   1.783   0.373
 5325SOL     OW16873   2.703   2.320   4.998
 5325SOL    HW116874   2.670   2.404   5.042
 5325SOL    HW216875   2.675   2.241   5.053
 5326SOL     OW16876   6.153   6.724   2.794
 5326SOL    HW116877   6.117   6.760   2.879
 5326SOL    HW216878   6.253   6.729   2.795
 5327SOL     OW16879   5.458   2.645   4.908
 5327SOL    HW116880   5.382   2.618   4.849
 5327SOL    HW216881   5.538   2.667   4.851
 5328SOL     OW16882   4.425   4.399   6.745
 5328SOL    HW116883   4.481   4.373   6.666
 5328SOL    HW216884   4.374   4.320   6.777
 5329SOL     OW16885   1.372   6.361   6.462
 5329SOL    HW116886   1.291   6.403   6.419
 5329SOL    HW216887   1.442   6.346   6.392
 5330SOL     OW16888   2.797   3.775   0.436
 5330SOL    HW116889   2.734   3.844   0.469
 5330SOL    HW216890   2.829   3.718   0.512
 5331SOL     OW16891   6.656   0.718   6.855
 5331SOL    HW116892   6.729   0.653   6.835
 5331SOL    HW216893   6.670   0.801   6.801
 5332SOL     OW16894   0.971   4.781   2.215
 5332SOL    HW116895   0.966   4.681   2.208
 5332SOL    HW216896   1.067   4.810   2.209
 5333SOL     OW16897   0.840   6.588   4.183
 5333SOL    HW116898   0.842   6.640   4.269
 5333SOL    HW216899   0.753   6.539   4.177
 5334SOL     OW16900   2.940   0.173   4.409
 5334SOL    HW116901   2.897   0.245   4.355
 5334SOL    HW216902   3.036   0.164   4.383
 5335SOL     OW16903   6.525   5.654   0.974
 5335SOL    HW116904   6.533   5.715   0.895
 5335SOL    HW216905   6.466   5.696   1.043
 5336SOL     OW16906   1.842   3.865   2.084
 5336SOL    HW116907   1.864   3.790   2.145
 5336SOL    HW216908   1.922   3.888   2.029
 5337SOL     OW16909   4.532   4.512   1.167
 5337SOL    HW116910   4.489   4.428   1.135
 5337SOL    HW216911   4.630   4.510   1.146
 5338SOL     OW16912   6.687   2.239   6.733
 5338SOL    HW116913   6.613   2.293   6.692
 5338SOL    HW216914   6.666   2.222   6.829
 5339SOL     OW16915   6.485   2.044   3.867
 5339SOL    HW116916   6.526   2.127   3.831
 5339SOL    HW216917   6.512   1.966   3.809
 5340SOL     OW16918   5.377   2.746   6.646
 5340SOL    HW116919   5.428   2.826   6.676
 5340SOL    HW216920   5.431   2.695   6.579
 5341SOL     OW16921   5.121   0.579   6.608
 5341SOL    HW116922   5.098   0.634   6.528
 5341SOL    HW216923   5.037   0.545   6.651
 5342SOL     OW16924   4.047   1.273   5.709
 5342SOL    HW116925   4.013   1.314   5.794
 5342SOL    HW216926   4.090   1.185   5.729
 5343SOL     OW16927   4.169   3.540   2.586
 5343SOL    HW116928   4.161   3.483   2.504
 5343SOL    HW216929   4.265   3.554   2.608
 5344SOL     OW16930   1.983   2.731   2.983
 5344SOL    HW116931   1.945   2.671   2.913
 5344SOL    HW216932   1.988   2.683   3.070
 5345SOL     OW16933   4.361   6.591   1.093
 5345SOL    HW116934   4.403   6.605   1.003
 5345SOL    HW216935   4.401   6.657   1.158
 5346SOL     OW16936   2.865   6.212   3.228
 5346SOL    HW116937   2.863   6.307   3.259
 5346SOL    HW216938   2.846   6.151   3.305
 5347SOL     OW16939   7.008   2.249   1.129
 5347SOL    HW116940   0.001   2.309   1.207
 5347SOL    HW216941   6.983   2.158   1.163
 5348SOL     OW16942   1.197   1.033   6.881
 5348SOL    HW116943   1.290   1.062   6.856
 5348SOL    HW216944   1.171   0.954   6.826
 5349SOL     OW16945   6.891   0.833   1.340
 5349SOL    HW116946   6.940   0.829   1.252
 5349SOL    HW216947   6.830   0.913   1.341
 5350SOL     OW16948   2.203   1.172   6.347
 5350SOL    HW116949   2.258   1.222   6.413
 5350SOL    HW216950   2.148   1.236   6.293
 5351SOL     OW16951   4.406   6.612   1.489
 5351SOL    HW116952   4.323   6.668   1.493
 5351SOL    HW216953   4.476   6.653   1.548
 5352SOL     OW16954   3.211   6.139   3.636
 5352SOL    HW116955   3.150   6.061   3.651
 5352SOL    HW216956   3.158   6.223   3.633
 5353SOL     OW16957   5.434   5.432   5.311
 5353SOL    HW116958   5.352   5.395   5.354
 5353SOL    HW216959   5.515   5.403   5.362
 5354SOL     OW16960   1.069   3.787   1.614
 5354SOL    HW116961   1.025   3.804   1.526
 5354SOL    HW216962   1.024   3.711   1.660
 5355SOL     OW16963   4.232   1.819   4.103
 5355SOL    HW116964   4.286   1.848   4.183
 5355SOL    HW216965   4.208   1.900   4.049
 5356SOL     OW16966   6.674   3.986   1.561
 5356SOL    HW116967   6.578   4.016   1.558
 5356SOL    HW216968   6.681   3.903   1.616
 5357SOL     OW16969   3.937   0.077   0.180
 5357SOL    HW116970   3.924   7.006   0.167
 5357SOL    HW216971   3.894   0.127   0.104
 5358SOL     OW16972   4.971   3.338   0.589
 5358SOL    HW116973   4.966   3.274   0.512
 5358SOL    HW216974   4.933   3.295   0.671
 5359SOL     OW16975   1.767   1.653   0.527
 5359SOL    HW116976   1.815   1.588   0.585
 5359SOL    HW216977   1.828   1.684   0.453
 5360SOL     OW16978   3.614   6.592   6.585
 5360SOL    HW116979   3.625   6.681   6.539
 5360SOL    HW216980   3.691   6.577   6.647
 5361SOL     OW16981   1.989   0.926   5.429
 5361SOL    HW116982   1.894   0.923   5.398
 5361SOL    HW216983   2.050   0.903   5.353
 5362SOL     OW16984   4.968   5.039   2.835
 5362SOL    HW116985   4.885   4.984   2.843
 5362SOL    HW216986   4.958   5.102   2.758
 5363SOL     OW16987   0.518   5.002   6.551
 5363SOL    HW116988   0.455   5.055   6.494
 5363SOL    HW216989   0.612   5.020   6.524
 5364SOL     OW16990   7.010   6.659   0.306
 5364SOL    HW116991   0.006   6.561   0.307
 5364SOL    HW216992   0.003   6.699   0.395
 5365SOL     OW16993   5.010   1.864   5.515
 5365SOL    HW116994   4.991   1.808   5.595
 5365SOL    HW216995   4.980   1.815   5.433
 5366SOL     OW16996   4.432   3.858   0.713
 5366SOL    HW116997   4.502   3.787   0.721
 5366SOL    HW216998   4.344   3.816   0.694
 5367SOL     OW16999   0.447   4.771   1.987
 5367SOL    HW117000   0.435   4.867   2.011
 5367SOL    HW217001   0.377   4.716   2.033
 5368SOL     OW17002   5.569   2.168   3.209
 5368SOL    HW117003   5.497   2.106   3.240
 5368SOL    HW217004   5.629   2.120   3.146
 5369SOL     OW17005   2.040   4.289   2.999
 5369SOL    HW117006   2.004   4.380   3.016
 5369SOL    HW217007   1.987   4.221   3.050
 5370SOL     OW17008   3.731   2.621   1.074
 5370SOL    HW117009   3.762   2.547   1.134
 5370SOL    HW217010   3.655   2.669   1.116
 5371SOL     OW17011   1.252   4.274   5.005
 5371SOL    HW117012   1.344   4.290   4.971
 5371SOL    HW217013   1.208   4.362   5.024
 5372SOL     OW17014   2.609   5.359   3.114
 5372SOL    HW117015   2.585   5.271   3.155
 5372SOL    HW217016   2.647   5.419   3.185
 5373SOL     OW17017   3.062   4.855   3.935
 5373SOL    HW117018   2.994   4.804   3.989
 5373SOL    HW217019   3.124   4.903   3.996
 5374SOL     OW17020   2.593   2.358   6.519
 5374SOL    HW117021   2.540   2.377   6.602
 5374SOL    HW217022   2.682   2.404   6.525
 5375SOL     OW17023   1.527   4.173   4.470
 5375SOL    HW117024   1.573   4.100   4.520
 5375SOL    HW217025   1.575   4.192   4.385
 5376SOL     OW17026   1.724   3.610   1.372
 5376SOL    HW117027   1.713   3.582   1.277
 5376SOL    HW217028   1.771   3.538   1.423
 5377SOL     OW17029   0.352   0.789   1.371
 5377SOL    HW117030   0.386   0.748   1.456
 5377SOL    HW217031   0.263   0.832   1.389
 5378SOL     OW17032   5.716   0.969   0.337
 5378SOL    HW117033   5.722   0.897   0.405
 5378SOL    HW217034   5.630   0.960   0.286
 5379SOL     OW17035   0.235   5.587   2.718
 5379SOL    HW117036   0.273   5.494   2.714
 5379SOL    HW217037   0.173   5.600   2.640
 5380SOL     OW17038   2.882   0.123   3.188
 5380SOL    HW117039   2.806   0.088   3.133
 5380SOL    HW217040   2.956   0.152   3.128
 5381SOL     OW17041   6.065   4.230   1.721
 5381SOL    HW117042   5.994   4.203   1.786
 5381SOL    HW217043   6.129   4.154   1.708
 5382SOL     OW17044   2.876   1.161   1.023
 5382SOL    HW117045   2.952   1.190   0.965
 5382SOL    HW217046   2.866   1.062   1.020
 5383SOL     OW17047   2.705   2.044   5.058
 5383SOL    HW117048   2.630   1.986   5.091
 5383SOL    HW217049   2.744   2.005   4.975
 5384SOL     OW17050   6.265   0.053   4.198
 5384SOL    HW117051   6.186   0.011   4.243
 5384SOL    HW217052   6.275   0.015   4.106
 5385SOL     OW17053   3.546   3.907   2.460
 5385SOL    HW117054   3.509   3.998   2.438
 5385SOL    HW217055   3.567   3.902   2.557
 5386SOL     OW17056   5.425   6.419   4.441
 5386SOL    HW117057   5.521   6.399   4.461
 5386SOL    HW217058   5.392   6.490   4.502
 5387SOL     OW17059   2.979   5.052   2.317
 5387SOL    HW117060   2.890   5.014   2.289
 5387SOL    HW217061   2.979   5.067   2.416
 5388SOL     OW17062   5.392   6.127   2.813
 5388SOL    HW117063   5.405   6.030   2.834
 5388SOL    HW217064   5.333   6.136   2.733
 5389SOL     OW17065   4.562   1.466   1.211
 5389SOL    HW117066   4.537   1.385   1.264
 5389SOL    HW217067   4.574   1.441   1.115
 5390SOL     OW17068   6.126   5.244   5.704
 5390SOL    HW117069   6.216   5.287   5.695
 5390SOL    HW217070   6.075   5.288   5.778
 5391SOL     OW17071   2.585   2.873   0.591
 5391SOL    HW117072   2.549   2.963   0.616
 5391SOL    HW217073   2.657   2.883   0.522
 5392SOL     OW17074   6.224   3.258   2.294
 5392SOL    HW117075   6.183   3.172   2.266
 5392SOL    HW217076   6.323   3.247   2.302
 5393SOL     OW17077   6.749   6.617   0.223
 5393SOL    HW117078   6.750   6.573   0.134
 5393SOL    HW217079   6.838   6.606   0.267
 5394SOL     OW17080   0.870   3.724   5.720
 5394SOL    HW117081   0.810   3.706   5.798
 5394SOL    HW217082   0.818   3.767   5.647
 5395SOL     OW17083   3.955   0.486   0.575
 5395SOL    HW117084   3.967   0.576   0.617
 5395SOL    HW217085   4.036   0.430   0.592
 5396SOL     OW17086   5.658   3.723   2.324
 5396SOL    HW117087   5.616   3.695   2.238
 5396SOL    HW217088   5.756   3.740   2.309
 5397SOL     OW17089   0.094   3.479   1.603
 5397SOL    HW117090   0.079   3.565   1.652
 5397SOL    HW217091   0.186   3.480   1.562
 5398SOL     OW17092   2.993   2.630   1.758
 5398SOL    HW117093   3.035   2.613   1.669
 5398SOL    HW217094   2.967   2.543   1.800
 5399SOL     OW17095   1.821   6.172   1.741
 5399SOL    HW117096   1.882   6.095   1.719
 5399SOL    HW217097   1.735   6.136   1.775
 5400SOL     OW17098   2.822   4.646   0.269
 5400SOL    HW117099   2.806   4.648   0.171
 5400SOL    HW217100   2.788   4.731   0.310
 5401SOL     OW17101   6.083   3.207   1.943
 5401SOL    HW117102   6.096   3.214   1.844
 5401SOL    HW217103   6.173   3.208   1.987
 5402SOL     OW17104   1.432   6.179   1.980
 5402SOL    HW117105   1.513   6.159   2.035
 5402SOL    HW217106   1.455   6.170   1.883
 5403SOL     OW17107   0.215   3.700   6.608
 5403SOL    HW117108   0.206   3.602   6.589
 5403SOL    HW217109   0.204   3.751   6.524
 5404SOL     OW17110   1.458   2.996   3.922
 5404SOL    HW117111   1.400   2.947   3.856
 5404SOL    HW217112   1.512   3.064   3.873
 5405SOL     OW17113   6.659   5.011   5.512
 5405SOL    HW117114   6.569   5.006   5.468
 5405SOL    HW217115   6.649   5.054   5.602
 5406SOL     OW17116   1.405   0.868   6.787
 5406SOL    HW117117   1.317   0.839   6.749
 5406SOL    HW217118   1.479   0.826   6.734
 5407SOL     OW17119   3.886   3.168   0.430
 5407SOL    HW117120   3.858   3.255   0.470
 5407SOL    HW217121   3.848   3.092   0.483
 5408SOL     OW17122   2.627   0.879   6.882
 5408SOL    HW117123   2.712   0.930   6.892
 5408SOL    HW217124   2.553   0.941   6.856
 5409SOL     OW17125   4.216   0.639   3.133
 5409SOL    HW117126   4.183   0.545   3.125
 5409SOL    HW217127   4.246   0.672   3.043
 5410SOL     OW17128   2.960   1.896   1.870
 5410SOL    HW117129   2.876   1.844   1.891
 5410SOL    HW217130   2.973   1.967   1.939
 5411SOL     OW17131   0.464   5.462   5.518
 5411SOL    HW117132   0.367   5.444   5.531
 5411SOL    HW217133   0.477   5.525   5.442
 5412SOL     OW17134   5.933   2.959   0.754
 5412SOL    HW117135   6.002   2.888   0.741
 5412SOL    HW217136   5.951   3.034   0.690
 5413SOL     OW17137   2.589   1.825   2.040
 5413SOL    HW117138   2.531   1.794   1.964
 5413SOL    HW217139   2.538   1.820   2.125
 5414SOL     OW17140   4.108   1.744   5.067
 5414SOL    HW117141   4.087   1.783   4.977
 5414SOL    HW217142   4.036   1.680   5.093
 5415SOL     OW17143   6.374   5.451   1.941
 5415SOL    HW117144   6.386   5.357   1.910
 5415SOL    HW217145   6.421   5.464   2.029
 5416SOL     OW17146   4.114   4.904   4.833
 5416SOL    HW117147   4.063   4.874   4.752
 5416SOL    HW217148   4.204   4.859   4.833
 5417SOL     OW17149   3.476   6.939   4.514
 5417SOL    HW117150   3.525   7.018   4.552
 5417SOL    HW217151   3.514   6.855   4.551
 5418SOL     OW17152   3.905   0.306   2.920
 5418SOL    HW117153   3.834   0.258   2.869
 5418SOL    HW217154   3.992   0.257   2.910
 5419SOL     OW17155   3.457   5.170   6.314
 5419SOL    HW117156   3.363   5.142   6.296
 5419SOL    HW217157   3.518   5.124   6.250
 5420SOL     OW17158   1.876   1.949   2.522
 5420SOL    HW117159   1.815   1.884   2.567
 5420SOL    HW217160   1.879   1.931   2.424
 5421SOL     OW17161   2.194   3.998   2.018
 5421SOL    HW117162   2.167   3.902   2.018
 5421SOL    HW217163   2.235   4.022   1.930
 5422SOL     OW17164   2.188   4.202   1.558
 5422SOL    HW117165   2.227   4.115   1.527
 5422SOL    HW217166   2.220   4.276   1.498
 5423SOL     OW17167   6.000   2.780   6.780
 5423SOL    HW117168   6.099   2.792   6.788
 5423SOL    HW217169   5.954   2.831   6.853
 5424SOL     OW17170   5.028   3.662   4.518
 5424SOL    HW117171   5.058   3.747   4.562
 5424SOL    HW217172   4.982   3.683   4.432
 5425SOL     OW17173   4.737   0.900   5.156
 5425SOL    HW117174   4.823   0.944   5.181
 5425SOL    HW217175   4.660   0.961   5.177
 5426SOL     OW17176   6.091   6.773   4.880
 5426SOL    HW117177   6.116   6.863   4.914
 5426SOL    HW217178   6.005   6.743   4.923
 5427SOL     OW17179   4.413   6.001   6.561
 5427SOL    HW117180   4.487   6.063   6.586
 5427SOL    HW217181   4.338   6.009   6.627
 5428SOL     OW17182   1.143   0.568   1.016
 5428SOL    HW117183   1.165   0.489   0.959
 5428SOL    HW217184   1.048   0.595   1.000
 5429SOL     OW17185   0.811   2.220   6.826
 5429SOL    HW117186   0.809   2.168   6.741
 5429SOL    HW217187   0.882   2.291   6.821
 5430SOL     OW17188   1.362   2.446   6.083
 5430SOL    HW117189   1.318   2.367   6.125
 5430SOL    HW217190   1.410   2.418   6.000
 5431SOL     OW17191   3.914   6.208   6.158
 5431SOL    HW117192   3.983   6.251   6.100
 5431SOL    HW217193   3.920   6.109   6.151
 5432SOL     OW17194   4.696   6.653   0.676
 5432SOL    HW117195   4.627   6.655   0.749
 5432SOL    HW217196   4.779   6.608   0.710
 5433SOL     OW17197   0.184   1.728   4.769
 5433SOL    HW117198   0.199   1.696   4.675
 5433SOL    HW217199   0.272   1.747   4.812
 5434SOL     OW17200   2.797   0.178   6.556
 5434SOL    HW117201   2.815   0.108   6.626
 5434SOL    HW217202   2.705   0.215   6.568
 5435SOL     OW17203   4.174   0.467   1.847
 5435SOL    HW117204   4.184   0.443   1.943
 5435SOL    HW217205   4.080   0.447   1.817
 5436SOL     OW17206   4.565   4.406   3.106
 5436SOL    HW117207   4.645   4.348   3.125
 5436SOL    HW217208   4.521   4.431   3.193
 5437SOL     OW17209   2.801   4.158   0.020
 5437SOL    HW117210   2.759   4.167   0.111
 5437SOL    HW217211   2.883   4.214   0.017
 5438SOL     OW17212   5.879   2.056   1.552
 5438SOL    HW117213   5.806   1.996   1.519
 5438SOL    HW217214   5.873   2.065   1.651
 5439SOL     OW17215   0.907   2.848   1.376
 5439SOL    HW117216   0.838   2.786   1.338
 5439SOL    HW217217   0.987   2.796   1.404
 5440SOL     OW17218   1.053   2.208   1.040
 5440SOL    HW117219   1.086   2.303   1.042
 5440SOL    HW217220   0.976   2.201   0.977
 5441SOL     OW17221   3.283   1.818   3.628
 5441SOL    HW117222   3.187   1.789   3.632
 5441SOL    HW217223   3.287   1.918   3.633
 5442SOL     OW17224   3.432   0.563   1.904
 5442SOL    HW117225   3.408   0.544   2.000
 5442SOL    HW217226   3.402   0.487   1.847
 5443SOL     OW17227   2.974   6.561   5.780
 5443SOL    HW117228   2.992   6.508   5.862
 5443SOL    HW217229   3.060   6.588   5.737
 5444SOL     OW17230   0.289   6.950   4.038
 5444SOL    HW117231   0.387   6.928   4.042
 5444SOL    HW217232   0.238   6.884   4.094
 5445SOL     OW17233   5.834   3.496   2.469
 5445SOL    HW117234   5.736   3.491   2.490
 5445SOL    HW217235   5.881   3.547   2.541
 5446SOL     OW17236   6.244   5.542   5.500
 5446SOL    HW117237   6.190   5.477   5.446
 5446SOL    HW217238   6.296   5.602   5.438
 5447SOL     OW17239   3.717   2.270   0.316
 5447SOL    HW117240   3.661   2.267   0.233
 5447SOL    HW217241   3.680   2.206   0.383
 5448SOL     OW17242   5.373   2.250   5.224
 5448SOL    HW117243   5.456   2.219   5.177
 5448SOL    HW217244   5.293   2.221   5.171
 5449SOL     OW17245   0.802   3.754   6.940
 5449SOL    HW117246   0.778   3.702   7.022
 5449SOL    HW217247   0.721   3.766   6.883
 5450SOL     OW17248   2.093   0.271   1.542
 5450SOL    HW117249   2.075   0.215   1.622
 5450SOL    HW217250   2.186   0.253   1.509
 5451SOL     OW17251   0.942   5.783   3.028
 5451SOL    HW117252   0.905   5.694   3.002
 5451SOL    HW217253   0.873   5.833   3.080
 5452SOL     OW17254   2.463   4.356   6.921
 5452SOL    HW117255   2.421   4.287   6.981
 5452SOL    HW217256   2.492   4.312   6.836
 5453SOL     OW17257   5.947   4.626   0.368
 5453SOL    HW117258   5.954   4.602   0.465
 5453SOL    HW217259   5.853   4.653   0.348
 5454SOL     OW17260   6.908   4.563   0.120
 5454SOL    HW117261   6.844   4.540   0.193
 5454SOL    HW217262   6.859   4.605   0.044
 5455SOL     OW17263   6.592   3.225   0.899
 5455SOL    HW117264   6.692   3.238   0.902
 5455SOL    HW217265   6.564   3.165   0.974
 5456SOL     OW17266   3.096   6.990   7.000
 5456SOL    HW117267   3.136   6.922   6.939
 5456SOL    HW217268   3.067   0.042   6.947
 5457SOL     OW17269   5.823   2.932   1.003
 5457SOL    HW117270   5.737   2.882   1.018
 5457SOL    HW217271   5.855   2.915   0.910
 5458SOL     OW17272   1.880   4.173   6.598
 5458SOL    HW117273   1.810   4.140   6.660
 5458SOL    HW217274   1.968   4.134   6.622
 5459SOL     OW17275   1.652   4.389   7.025
 5459SOL    HW117276   1.655   4.291   0.015
 5459SOL    HW217277   1.557   4.421   0.002
 5460SOL     OW17278   2.602   0.364   1.027
 5460SOL    HW117279   2.691   0.330   1.056
 5460SOL    HW217280   2.587   0.455   1.066
 5461SOL     OW17281   4.673   0.035   5.146
 5461SOL    HW117282   4.593   7.027   5.194
 5461SOL    HW217283   4.657   0.031   5.048
 5462SOL     OW17284   1.433   0.155   0.601
 5462SOL    HW117285   1.494   0.090   0.646
 5462SOL    HW217286   1.339   0.123   0.609
 5463SOL     OW17287   6.509   2.733   0.839
 5463SOL    HW117288   6.480   2.778   0.924
 5463SOL    HW217289   6.603   2.757   0.819
 5464SOL     OW17290   2.317   0.328   4.408
 5464SOL    HW117291   2.257   0.406   4.394
 5464SOL    HW217292   2.412   0.358   4.403
 5465SOL     OW17293   3.078   0.499   4.824
 5465SOL    HW117294   3.168   0.534   4.848
 5465SOL    HW217295   3.088   0.417   4.768
 5466SOL     OW17296   4.639   4.290   4.423
 5466SOL    HW117297   4.664   4.351   4.498
 5466SOL    HW217298   4.684   4.202   4.434
 5467SOL     OW17299   5.347   1.405   2.700
 5467SOL    HW117300   5.286   1.330   2.674
 5467SOL    HW217301   5.441   1.371   2.707
 5468SOL     OW17302   4.514   2.241   4.659
 5468SOL    HW117303   4.502   2.336   4.631
 5468SOL    HW217304   4.448   2.218   4.730
 5469SOL     OW17305   3.515   4.568   6.042
 5469SOL    HW117306   3.446   4.496   6.044
 5469SOL    HW217307   3.583   4.552   6.114
 5470SOL     OW17308   1.952   5.119   3.961
 5470SOL    HW117309   1.917   5.126   4.054
 5470SOL    HW217310   1.893   5.057   3.908
 5471SOL     OW17311   0.115   5.987   1.620
 5471SOL    HW117312   0.200   6.005   1.670
 5471SOL    HW217313   0.115   5.893   1.586
 5472SOL     OW17314   4.071   4.647   5.882
 5472SOL    HW117315   4.124   4.628   5.800
 5472SOL    HW217316   4.091   4.740   5.913
 5473SOL     OW17317   1.442   3.286   3.739
 5473SOL    HW117318   1.477   3.331   3.822
 5473SOL    HW217319   1.456   3.346   3.660
 5474SOL     OW17320   1.701   5.478   4.030
 5474SOL    HW117321   1.636   5.409   3.997
 5474SOL    HW217322   1.655   5.566   4.037
 5475SOL     OW17323   3.068   2.287   1.359
 5475SOL    HW117324   3.086   2.189   1.359
 5475SOL    HW217325   2.970   2.303   1.348
 5476SOL     OW17326   1.253   2.970   6.589
 5476SOL    HW117327   1.322   2.931   6.528
 5476SOL    HW217328   1.267   2.936   6.682
 5477SOL     OW17329   1.972   3.012   3.134
 5477SOL    HW117330   1.932   2.936   3.082
 5477SOL    HW217331   1.994   2.981   3.227
 5478SOL     OW17332   5.669   5.685   5.680
 5478SOL    HW117333   5.596   5.739   5.638
 5478SOL    HW217334   5.630   5.623   5.748
 5479SOL     OW17335   4.883   0.534   4.281
 5479SOL    HW117336   4.884   0.607   4.349
 5479SOL    HW217337   4.791   0.495   4.275
 5480SOL     OW17338   1.056   3.493   4.505
 5480SOL    HW117339   1.082   3.411   4.455
 5480SOL    HW217340   0.957   3.491   4.523
 5481SOL     OW17341   3.681   7.018   4.041
 5481SOL    HW117342   3.621   7.008   4.121
 5481SOL    HW217343   3.628   0.026   3.964
 5482SOL     OW17344   2.512   4.914   1.538
 5482SOL    HW117345   2.608   4.938   1.556
 5482SOL    HW217346   2.505   4.816   1.521
 5483SOL     OW17347   7.002   2.595   6.150
 5483SOL    HW117348   0.042   2.564   6.217
 5483SOL    HW217349   0.018   2.661   6.088
 5484SOL     OW17350   4.520   0.973   4.950
 5484SOL    HW117351   4.556   0.883   4.973
 5484SOL    HW217352   4.509   0.981   4.851
 5485SOL     OW17353   3.256   0.108   5.928
 5485SOL    HW117354   3.286   0.035   5.988
 5485SOL    HW217355   3.307   0.192   5.948
 5486SOL     OW17356   2.940   6.393   5.451
 5486SOL    HW117357   2.873   6.438   5.510
 5486SOL    HW217358   2.901   6.307   5.417
 5487SOL     OW17359   3.275   5.013   5.567
 5487SOL    HW117360   3.193   5.065   5.588
 5487SOL    HW217361   3.310   4.971   5.651
 5488SOL     OW17362   6.203   1.748   0.992
 5488SOL    HW117363   6.139   1.748   0.914
 5488SOL    HW217364   6.246   1.658   0.999
 5489SOL     OW17365   6.541   4.015   3.012
 5489SOL    HW117366   6.564   3.927   2.971
 5489SOL    HW217367   6.477   4.064   2.952
 5490SOL     OW17368   1.556   6.731   2.961
 5490SOL    HW117369   1.555   6.733   2.861
 5490SOL    HW217370   1.485   6.668   2.994
 5491SOL     OW17371   6.568   4.339   0.626
 5491SOL    HW117372   6.666   4.332   0.643
 5491SOL    HW217373   6.521   4.263   0.670
 5492SOL     OW17374   0.010   1.819   5.538
 5492SOL    HW117375   0.105   1.849   5.547
 5492SOL    HW217376   6.986   1.886   5.483
 5493SOL     OW17377   3.649   3.783   1.278
 5493SOL    HW117378   3.745   3.764   1.295
 5493SOL    HW217379   3.611   3.710   1.221
 5494SOL     OW17380   6.450   4.112   5.167
 5494SOL    HW117381   6.513   4.084   5.239
 5494SOL    HW217382   6.392   4.187   5.200
 5495SOL     OW17383   5.775   0.667   0.869
 5495SOL    HW117384   5.840   0.632   0.800
 5495SOL    HW217385   5.757   0.764   0.852
 5496SOL     OW17386   3.786   0.673   4.213
 5496SOL    HW117387   3.883   0.660   4.234
 5496SOL    HW217388   3.771   0.766   4.179
 5497SOL     OW17389   1.076   0.081   5.908
 5497SOL    HW117390   1.090   0.177   5.883
 5497SOL    HW217391   1.117   0.064   5.998
 5498SOL     OW17392   0.804   5.368   1.934
 5498SOL    HW117393   0.792   5.274   1.965
 5498SOL    HW217394   0.775   5.431   2.007
 5499SOL     OW17395   1.651   0.523   4.825
 5499SOL    HW117396   1.593   0.495   4.902
 5499SOL    HW217397   1.602   0.588   4.767
 5500SOL     OW17398   2.798   1.006   0.697
 5500SOL    HW117399   2.815   0.929   0.635
 5500SOL    HW217400   2.741   1.074   0.651
 5501SOL     OW17401   3.738   3.580   6.562
 5501SOL    HW117402   3.716   3.553   6.468
 5501SOL    HW217403   3.655   3.573   6.618
 5502SOL     OW17404   4.422   2.473   6.515
 5502SOL    HW117405   4.365   2.445   6.592
 5502SOL    HW217406   4.518   2.454   6.536
 5503SOL     OW17407   6.593   4.196   0.924
 5503SOL    HW117408   6.626   4.110   0.963
 5503SOL    HW217409   6.662   4.267   0.937
 5504SOL     OW17410   3.410   1.883   6.171
 5504SOL    HW117411   3.345   1.842   6.235
 5504SOL    HW217412   3.492   1.912   6.219
 5505SOL     OW17413   2.308   4.856   4.007
 5505SOL    HW117414   2.279   4.948   4.032
 5505SOL    HW217415   2.254   4.789   4.059
 5506SOL     OW17416   0.597   3.358   6.071
 5506SOL    HW117417   0.510   3.386   6.112
 5506SOL    HW217418   0.634   3.280   6.121
 5507SOL     OW17419   2.595   6.540   0.055
 5507SOL    HW117420   2.625   6.445   0.048
 5507SOL    HW217421   2.496   6.545   0.045
 5508SOL     OW17422   0.123   0.910   6.454
 5508SOL    HW117423   0.171   0.973   6.393
 5508SOL    HW217424   0.042   0.874   6.407
 5509SOL     OW17425   0.320   5.185   0.768
 5509SOL    HW117426   0.245   5.122   0.789
 5509SOL    HW217427   0.285   5.260   0.712
 5510SOL     OW17428   3.893   5.192   7.025
 5510SOL    HW117429   3.861   5.277   0.039
 5510SOL    HW217430   3.939   5.212   6.938
 5511SOL     OW17431   0.930   1.796   5.516
 5511SOL    HW117432   1.012   1.744   5.495
 5511SOL    HW217433   0.913   1.863   5.443
 5512SOL     OW17434   3.152   0.790   2.256
 5512SOL    HW117435   3.133   0.698   2.223
 5512SOL    HW217436   3.117   0.857   2.189
 5513SOL     OW17437   3.861   4.158   0.037
 5513SOL    HW117438   3.854   4.183   0.133
 5513SOL    HW217439   3.957   4.147   0.012
 5514SOL     OW17440   3.241   0.951   0.251
 5514SOL    HW117441   3.290   0.915   0.171
 5514SOL    HW217442   3.151   0.983   0.222
 5515SOL     OW17443   2.805   5.914   2.314
 5515SOL    HW117444   2.872   5.880   2.379
 5515SOL    HW217445   2.719   5.865   2.326
 5516SOL     OW17446   2.453   2.477   5.405
 5516SOL    HW117447   2.420   2.401   5.461
 5516SOL    HW217448   2.482   2.552   5.464
 5517SOL     OW17449   1.260   3.020   3.438
 5517SOL    HW117450   1.240   3.058   3.529
 5517SOL    HW217451   1.347   2.971   3.440
 5518SOL     OW17452   4.338   4.552   6.108
 5518SOL    HW117453   4.284   4.472   6.135
 5518SOL    HW217454   4.374   4.596   6.191
 5519SOL     OW17455   4.707   2.685   3.518
 5519SOL    HW117456   4.669   2.623   3.450
 5519SOL    HW217457   4.728   2.773   3.476
 5520SOL     OW17458   4.642   6.633   1.617
 5520SOL    HW117459   4.727   6.653   1.567
 5520SOL    HW217460   4.649   6.668   1.710
 5521SOL     OW17461   5.759   5.623   1.930
 5521SOL    HW117462   5.724   5.554   1.993
 5521SOL    HW217463   5.682   5.672   1.888
 5522SOL     OW17464   6.108   5.916   0.937
 5522SOL    HW117465   6.085   5.995   0.880
 5522SOL    HW217466   6.152   5.947   1.021
 5523SOL     OW17467   5.583   1.098   1.918
 5523SOL    HW117468   5.525   1.171   1.882
 5523SOL    HW217469   5.665   1.088   1.861
 5524SOL     OW17470   3.036   1.586   4.368
 5524SOL    HW117471   3.062   1.674   4.408
 5524SOL    HW217472   2.945   1.561   4.399
 5525SOL     OW17473   6.271   1.331   1.482
 5525SOL    HW117474   6.345   1.398   1.489
 5525SOL    HW217475   6.301   1.243   1.519
 5526SOL     OW17476   4.869   4.727   3.665
 5526SOL    HW117477   4.795   4.663   3.644
 5526SOL    HW217478   4.839   4.790   3.737
 5527SOL     OW17479   5.817   1.659   3.616
 5527SOL    HW117480   5.897   1.659   3.556
 5527SOL    HW217481   5.740   1.704   3.570
 5528SOL     OW17482   1.051   1.359   0.544
 5528SOL    HW117483   1.073   1.455   0.562
 5528SOL    HW217484   1.129   1.315   0.499
 5529SOL     OW17485   3.577   0.134   2.224
 5529SOL    HW117486   3.554   0.205   2.291
 5529SOL    HW217487   3.503   0.125   2.158
 5530SOL     OW17488   6.432   2.195   0.981
 5530SOL    HW117489   6.528   2.220   0.995
 5530SOL    HW217490   6.427   2.096   0.964
 5531SOL     OW17491   2.112   3.789   1.318
 5531SOL    HW117492   2.039   3.855   1.336
 5531SOL    HW217493   2.162   3.816   1.236
 5532SOL     OW17494   1.528   3.210   0.522
 5532SOL    HW117495   1.605   3.155   0.489
 5532SOL    HW217496   1.542   3.306   0.498
 5533SOL     OW17497   3.688   2.067   2.964
 5533SOL    HW117498   3.747   2.135   2.923
 5533SOL    HW217499   3.741   1.984   2.985
 5534SOL     OW17500   1.378   0.737   4.853
 5534SOL    HW117501   1.359   0.647   4.891
 5534SOL    HW217502   1.438   0.788   4.915
 5535SOL     OW17503   0.405   1.867   3.592
 5535SOL    HW117504   0.347   1.791   3.561
 5535SOL    HW217505   0.466   1.895   3.518
 5536SOL     OW17506   4.063   6.206   4.010
 5536SOL    HW117507   4.160   6.188   3.992
 5536SOL    HW217508   4.023   6.255   3.932
 5537SOL     OW17509   2.629   1.248   3.295
 5537SOL    HW117510   2.677   1.316   3.351
 5537SOL    HW217511   2.694   1.185   3.255
 5538SOL     OW17512   4.231   5.158   4.961
 5538SOL    HW117513   4.199   5.184   4.869
 5538SOL    HW217514   4.186   5.074   4.989
 5539SOL     OW17515   2.671   4.402   0.633
 5539SOL    HW117516   2.635   4.327   0.578
 5539SOL    HW217517   2.596   4.460   0.665
 5540SOL     OW17518   5.481   5.148   1.371
 5540SOL    HW117519   5.442   5.081   1.308
 5540SOL    HW217520   5.518   5.225   1.319
 5541SOL     OW17521   4.553   1.562   5.617
 5541SOL    HW117522   4.597   1.473   5.606
 5541SOL    HW217523   4.476   1.569   5.554
 5542SOL     OW17524   5.062   4.661   6.152
 5542SOL    HW117525   5.150   4.706   6.133
 5542SOL    HW217526   5.066   4.616   6.241
 5543SOL     OW17527   6.962   2.040   6.198
 5543SOL    HW117528   0.010   2.085   6.246
 5543SOL    HW217529   6.875   2.075   6.232
 5544SOL     OW17530   5.831   1.076   6.950
 5544SOL    HW117531   5.835   1.154   7.013
 5544SOL    HW217532   5.770   1.006   6.987
 5545SOL     OW17533   2.674   2.510   1.826
 5545SOL    HW117534   2.745   2.482   1.891
 5545SOL    HW217535   2.585   2.476   1.857
 5546SOL     OW17536   2.616   4.890   5.522
 5546SOL    HW117537   2.612   4.933   5.612
 5546SOL    HW217538   2.529   4.845   5.503
 5547SOL     OW17539   3.794   6.211   4.867
 5547SOL    HW117540   3.834   6.185   4.955
 5547SOL    HW217541   3.707   6.164   4.855
 5548SOL     OW17542   0.093   2.887   5.461
 5548SOL    HW117543   0.037   2.947   5.403
 5548SOL    HW217544   0.189   2.894   5.433
 5549SOL     OW17545   3.574   4.371   6.657
 5549SOL    HW117546   3.559   4.449   6.597
 5549SOL    HW217547   3.619   4.401   6.741
 5550SOL     OW17548   3.516   6.828   2.535
 5550SOL    HW117549   3.589   6.876   2.486
 5550SOL    HW217550   3.439   6.815   2.473
 5551SOL     OW17551   0.709   1.184   3.132
 5551SOL    HW117552   0.736   1.094   3.168
 5551SOL    HW217553   0.741   1.193   3.038
 5552SOL     OW17554   0.484   2.879   0.627
 5552SOL    HW117555   0.535   2.795   0.647
 5552SOL    HW217556   0.549   2.952   0.605
 5553SOL     OW17557   5.234   6.460   0.075
 5553SOL    HW117558   5.198   6.403   0.002
 5553SOL    HW217559   5.228   6.556   0.049
 5554SOL     OW17560   2.874   1.736   4.752
 5554SOL    HW117561   2.817   1.666   4.796
 5554SOL    HW217562   2.837   1.827   4.773
 5555SOL     OW17563   0.423   6.334   2.058
 5555SOL    HW117564   0.349   6.282   2.015
 5555SOL    HW217565   0.390   6.425   2.082
 5556SOL     OW17566   0.755   1.107   4.275
 5556SOL    HW117567   0.830   1.173   4.278
 5556SOL    HW217568   0.774   1.032   4.339
 5557SOL     OW17569   2.787   0.478   3.515
 5557SOL    HW117570   2.745   0.569   3.507
 5557SOL    HW217571   2.717   0.408   3.499
 5558SOL     OW17572   5.291   2.529   4.678
 5558SOL    HW117573   5.257   2.548   4.586
 5558SOL    HW217574   5.214   2.517   4.741
 5559SOL     OW17575   2.237   0.303   1.137
 5559SOL    HW117576   2.275   0.337   1.051
 5559SOL    HW217577   2.182   0.375   1.180
 5560SOL     OW17578   0.142   0.767   4.466
 5560SOL    HW117579   0.079   0.755   4.543
 5560SOL    HW217580   0.164   0.864   4.455
 5561SOL     OW17581   1.455   3.875   3.214
 5561SOL    HW117582   1.357   3.874   3.197
 5561SOL    HW217583   1.504   3.885   3.127
 5562SOL     OW17584   2.694   2.881   6.083
 5562SOL    HW117585   2.623   2.813   6.098
 5562SOL    HW217586   2.654   2.973   6.088
 5563SOL     OW17587   4.335   4.033   1.681
 5563SOL    HW117588   4.295   4.085   1.605
 5563SOL    HW217589   4.378   4.095   1.746
 5564SOL     OW17590   6.401   4.055   1.537
 5564SOL    HW117591   6.379   4.147   1.504
 5564SOL    HW217592   6.336   4.029   1.608
 5565SOL     OW17593   3.127   2.866   5.546
 5565SOL    HW117594   3.139   2.831   5.454
 5565SOL    HW217595   3.191   2.941   5.562
 5566SOL     OW17596   1.961   4.882   0.636
 5566SOL    HW117597   1.977   4.823   0.556
 5566SOL    HW217598   1.881   4.940   0.619
 5567SOL     OW17599   1.772   5.800   3.320
 5567SOL    HW117600   1.826   5.720   3.295
 5567SOL    HW217601   1.776   5.867   3.246
 5568SOL     OW17602   4.006   1.966   1.167
 5568SOL    HW117603   4.050   1.886   1.128
 5568SOL    HW217604   4.074   2.038   1.183
 5569SOL     OW17605   5.537   2.359   0.001
 5569SOL    HW117606   5.486   2.429   6.978
 5569SOL    HW217607   5.603   2.402   0.062
 5570SOL     OW17608   0.084   3.798   5.861
 5570SOL    HW117609   7.020   3.823   5.830
 5570SOL    HW217610   0.152   3.826   5.793
 5571SOL     OW17611   6.841   4.761   6.513
 5571SOL    HW117612   6.772   4.726   6.576
 5571SOL    HW217613   6.849   4.698   6.435
 5572SOL     OW17614   5.425   2.565   5.153
 5572SOL    HW117615   5.467   2.586   5.064
 5572SOL    HW217616   5.340   2.515   5.139
 5573SOL     OW17617   0.778   3.845   0.299
 5573SOL    HW117618   0.691   3.878   0.337
 5573SOL    HW217619   0.834   3.807   0.373
 5574SOL     OW17620   0.403   5.801   4.479
 5574SOL    HW117621   0.422   5.715   4.526
 5574SOL    HW217622   0.315   5.794   4.432
 5575SOL     OW17623   1.239   0.897   1.442
 5575SOL    HW117624   1.248   0.873   1.539
 5575SOL    HW217625   1.210   0.816   1.390
 5576SOL     OW17626   6.395   5.518   0.440
 5576SOL    HW117627   6.456   5.470   0.377
 5576SOL    HW217628   6.440   5.602   0.472
 5577SOL     OW17629   2.217   3.758   5.198
 5577SOL    HW117630   2.306   3.746   5.242
 5577SOL    HW217631   2.223   3.832   5.131
 5578SOL     OW17632   3.467   1.507   5.859
 5578SOL    HW117633   3.560   1.543   5.849
 5578SOL    HW217634   3.462   1.417   5.815
 5579SOL     OW17635   5.195   4.688   1.465
 5579SOL    HW117636   5.195   4.720   1.559
 5579SOL    HW217637   5.287   4.654   1.441
 5580SOL     OW17638   4.962   0.591   1.279
 5580SOL    HW117639   4.892   0.661   1.263
 5580SOL    HW217640   4.937   0.507   1.232
 5581SOL     OW17641   2.481   2.426   0.802
 5581SOL    HW117642   2.453   2.487   0.877
 5581SOL    HW217643   2.570   2.384   0.825
 5582SOL     OW17644   4.139   3.371   3.537
 5582SOL    HW117645   4.224   3.415   3.566
 5582SOL    HW217646   4.065   3.437   3.536
 5583SOL     OW17647   3.933   0.753   0.296
 5583SOL    HW117648   3.905   0.806   0.376
 5583SOL    HW217649   3.903   0.659   0.305
 5584SOL     OW17650   5.616   3.032   3.013
 5584SOL    HW117651   5.690   2.969   3.036
 5584SOL    HW217652   5.632   3.120   3.058
 5585SOL     OW17653   6.795   6.469   4.655
 5585SOL    HW117654   6.859   6.518   4.714
 5585SOL    HW217655   6.844   6.427   4.579
 5586SOL     OW17656   2.217   1.832   6.518
 5586SOL    HW117657   2.169   1.751   6.486
 5586SOL    HW217658   2.161   1.880   6.584
 5587SOL     OW17659   3.595   0.030   3.790
 5587SOL    HW117660   3.501   0.055   3.768
 5587SOL    HW217661   3.641   7.024   3.707
 5588SOL     OW17662   4.414   0.302   5.873
 5588SOL    HW117663   4.490   0.345   5.923
 5588SOL    HW217664   4.444   0.212   5.839
 5589SOL     OW17665   3.466   3.528   6.655
 5589SOL    HW117666   3.441   3.573   6.569
 5589SOL    HW217667   3.421   3.574   6.732
 5590SOL     OW17668   6.574   6.902   3.554
 5590SOL    HW117669   6.661   6.928   3.512
 5590SOL    HW217670   6.506   6.973   3.537
 5591SOL     OW17671   5.120   0.425   6.983
 5591SOL    HW117672   5.138   0.330   6.958
 5591SOL    HW217673   5.103   0.478   6.900
 5592SOL     OW17674   2.388   1.772   2.296
 5592SOL    HW117675   2.289   1.784   2.297
 5592SOL    HW217676   2.428   1.827   2.370
 5593SOL     OW17677   2.098   3.543   5.081
 5593SOL    HW117678   2.055   3.563   4.993
 5593SOL    HW217679   2.135   3.627   5.121
 5594SOL     OW17680   2.391   1.266   6.585
 5594SOL    HW117681   2.314   1.317   6.622
 5594SOL    HW217682   2.467   1.329   6.568
 5595SOL     OW17683   0.101   1.672   5.808
 5595SOL    HW117684   0.092   1.762   5.851
 5595SOL    HW217685   0.171   1.677   5.736
 5596SOL     OW17686   5.210   2.016   2.989
 5596SOL    HW117687   5.123   1.967   2.990
 5596SOL    HW217688   5.274   1.971   3.051
 5597SOL     OW17689   0.728   1.040   6.099
 5597SOL    HW117690   0.695   1.128   6.132
 5597SOL    HW217691   0.663   1.001   6.034
 5598SOL     OW17692   6.832   2.121   4.312
 5598SOL    HW117693   6.819   2.154   4.219
 5598SOL    HW217694   6.768   2.046   4.330
 5599SOL     OW17695   5.064   2.732   3.293
 5599SOL    HW117696   5.143   2.793   3.281
 5599SOL    HW217697   5.050   2.679   3.209
 5600SOL     OW17698   2.179   2.291   2.039
 5600SOL    HW117699   2.195   2.207   2.092
 5600SOL    HW217700   2.185   2.370   2.099
 5601SOL     OW17701   5.778   3.016   6.101
 5601SOL    HW117702   5.840   2.938   6.110
 5601SOL    HW217703   5.816   3.082   6.037
 5602SOL     OW17704   6.441   2.178   2.467
 5602SOL    HW117705   6.378   2.106   2.497
 5602SOL    HW217706   6.521   2.137   2.424
 5603SOL     OW17707   4.310   1.733   5.951
 5603SOL    HW117708   4.273   1.823   5.975
 5603SOL    HW217709   4.409   1.739   5.938
 5604SOL     OW17710   1.297   6.453   3.671
 5604SOL    HW117711   1.322   6.445   3.768
 5604SOL    HW217712   1.308   6.548   3.642
 5605SOL     OW17713   4.318   6.973   4.205
 5605SOL    HW117714   4.355   6.983   4.113
 5605SOL    HW217715   4.310   6.875   4.227
 5606SOL     OW17716   5.246   2.922   0.602
 5606SOL    HW117717   5.175   2.992   0.613
 5606SOL    HW217718   5.329   2.951   0.650
 5607SOL     OW17719   6.895   2.151   2.960
 5607SOL    HW117720   6.913   2.129   2.864
 5607SOL    HW217721   6.917   2.246   2.977
 5608SOL     OW17722   4.923   0.734   2.974
 5608SOL    HW117723   4.972   0.796   3.035
 5608SOL    HW217724   4.835   0.774   2.950
 5609SOL     OW17725   6.436   0.403   0.358
 5609SOL    HW117726   6.469   0.394   0.264
 5609SOL    HW217727   6.439   0.314   0.403
 5610SOL     OW17728   6.126   5.579   7.010
 5610SOL    HW117729   6.026   5.580   7.001
 5610SOL    HW217730   6.159   5.485   7.004
 5611SOL     OW17731   5.916   4.590   1.907
 5611SOL    HW117732   5.847   4.644   1.858
 5611SOL    HW217733   6.003   4.638   1.906
 5612SOL     OW17734   4.031   1.661   0.083
 5612SOL    HW117735   4.048   1.754   0.050
 5612SOL    HW217736   4.063   1.653   0.177
 5613SOL     OW17737   5.895   5.063   5.967
 5613SOL    HW117738   5.949   5.144   5.991
 5613SOL    HW217739   5.938   5.017   5.889
 5614SOL     OW17740   4.929   3.055   3.938
 5614SOL    HW117741   4.997   3.070   4.010
 5614SOL    HW217742   4.932   2.959   3.909
 5615SOL     OW17743   0.563   2.446   3.360
 5615SOL    HW117744   0.576   2.545   3.358
 5615SOL    HW217745   0.652   2.400   3.354
 5616SOL     OW17746   2.036   3.459   2.426
 5616SOL    HW117747   2.074   3.397   2.494
 5616SOL    HW217748   2.037   3.416   2.336
 5617SOL     OW17749   1.366   4.634   6.422
 5617SOL    HW117750   1.370   4.634   6.322
 5617SOL    HW217751   1.459   4.642   6.459
 5618SOL     OW17752   5.287   6.412   2.117
 5618SOL    HW117753   5.220   6.338   2.120
 5618SOL    HW217754   5.249   6.489   2.065
 5619SOL     OW17755   3.472   3.554   3.848
 5619SOL    HW117756   3.470   3.568   3.749
 5619SOL    HW217757   3.501   3.460   3.867
 5620SOL     OW17758   4.838   4.467   4.055
 5620SOL    HW117759   4.911   4.413   4.014
 5620SOL    HW217760   4.764   4.406   4.083
 5621SOL     OW17761   0.846   2.585   6.536
 5621SOL    HW117762   0.788   2.589   6.617
 5621SOL    HW217763   0.792   2.602   6.454
 5622SOL     OW17764   4.864   5.601   4.329
 5622SOL    HW117765   4.824   5.602   4.238
 5622SOL    HW217766   4.940   5.665   4.334
 5623SOL     OW17767   4.522   4.969   4.183
 5623SOL    HW117768   4.538   5.021   4.099
 5623SOL    HW217769   4.497   4.875   4.160
 5624SOL     OW17770   4.992   4.922   3.382
 5624SOL    HW117771   4.945   4.996   3.431
 5624SOL    HW217772   4.998   4.945   3.285
 5625SOL     OW17773   2.765   6.212   6.241
 5625SOL    HW117774   2.788   6.287   6.303
 5625SOL    HW217775   2.686   6.238   6.186
 5626SOL     OW17776   0.191   5.040   6.740
 5626SOL    HW117777   0.114   5.025   6.678
 5626SOL    HW217778   0.251   4.960   6.739
 5627SOL     OW17779   1.333   5.538   6.978
 5627SOL    HW117780   1.343   5.555   6.880
 5627SOL    HW217781   1.310   5.441   6.992
 5628SOL     OW17782   2.388   3.865   0.507
 5628SOL    HW117783   2.304   3.906   0.472
 5628SOL    HW217784   2.381   3.765   0.503
 5629SOL     OW17785   6.786   3.368   3.116
 5629SOL    HW117786   6.843   3.300   3.162
 5629SOL    HW217787   6.705   3.387   3.172
 5630SOL     OW17788   0.965   3.962   6.870
 5630SOL    HW117789   0.969   3.863   6.861
 5630SOL    HW217790   0.998   3.989   6.960
 5631SOL     OW17791   4.254   1.584   1.664
 5631SOL    HW117792   4.250   1.650   1.739
 5631SOL    HW217793   4.336   1.528   1.673
 5632SOL     OW17794   4.951   0.106   5.560
 5632SOL    HW117795   5.002   0.123   5.645
 5632SOL    HW217796   5.010   0.126   5.482
 5633SOL     OW17797   1.303   5.637   5.616
 5633SOL    HW117798   1.269   5.549   5.649
 5633SOL    HW217799   1.265   5.711   5.671
 5634SOL     OW17800   2.735   0.553   1.379
 5634SOL    HW117801   2.802   0.487   1.414
 5634SOL    HW217802   2.771   0.598   1.298
 5635SOL     OW17803   3.284   0.664   1.678
 5635SOL    HW117804   3.320   0.656   1.585
 5635SOL    HW217805   3.337   0.605   1.739
 5636SOL     OW17806   4.823   0.921   5.964
 5636SOL    HW117807   4.919   0.896   5.952
 5636SOL    HW217808   4.803   1.001   5.908
 5637SOL     OW17809   4.713   0.089   4.124
 5637SOL    HW117810   4.712   7.017   4.139
 5637SOL    HW217811   4.686   0.136   4.208
 5638SOL     OW17812   6.733   5.191   1.074
 5638SOL    HW117813   6.802   5.139   1.024
 5638SOL    HW217814   6.737   5.287   1.046
 5639SOL     OW17815   2.074   0.163   1.785
 5639SOL    HW117816   2.173   0.151   1.800
 5639SOL    HW217817   2.045   0.251   1.822
 5640SOL     OW17818   3.183   6.820   2.966
 5640SOL    HW117819   3.279   6.797   2.980
 5640SOL    HW217820   3.152   6.881   3.039
 5641SOL     OW17821   6.795   4.154   4.222
 5641SOL    HW117822   6.853   4.073   4.212
 5641SOL    HW217823   6.726   4.136   4.292
 5642SOL     OW17824   2.265   3.548   6.601
 5642SOL    HW117825   2.243   3.586   6.691
 5642SOL    HW217826   2.204   3.472   6.581
 5643SOL     OW17827   5.661   1.998   4.207
 5643SOL    HW117828   5.675   1.909   4.163
 5643SOL    HW217829   5.623   1.985   4.298
 5644SOL     OW17830   4.139   0.334   4.920
 5644SOL    HW117831   4.234   0.322   4.947
 5644SOL    HW217832   4.136   0.378   4.830
 5645SOL     OW17833   6.840   5.685   3.833
 5645SOL    HW117834   6.830   5.765   3.892
 5645SOL    HW217835   6.897   5.617   3.879
 5646SOL     OW17836   6.933   6.185   3.835
 5646SOL    HW117837   6.903   6.121   3.765
 5646SOL    HW217838   6.998   6.139   3.896
 5647SOL     OW17839   6.864   5.209   6.619
 5647SOL    HW117840   6.822   5.280   6.562
 5647SOL    HW217841   6.945   5.246   6.663
 5648SOL     OW17842   2.206   1.293   4.993
 5648SOL    HW117843   2.178   1.389   4.992
 5648SOL    HW217844   2.125   1.235   4.989
 5649SOL     OW17845   1.460   0.159   4.978
 5649SOL    HW117846   1.521   0.158   4.900
 5649SOL    HW217847   1.378   0.212   4.956
 5650SOL     OW17848   6.306   5.020   6.549
 5650SOL    HW117849   6.224   4.962   6.548
 5650SOL    HW217850   6.357   5.006   6.464
 5651SOL     OW17851   5.927   1.353   2.732
 5651SOL    HW117852   6.018   1.317   2.711
 5651SOL    HW217853   5.858   1.282   2.714
 5652SOL     OW17854   5.784   4.019   0.383
 5652SOL    HW117855   5.874   3.983   0.357
 5652SOL    HW217856   5.753   3.974   0.467
 5653SOL     OW17857   2.173   6.382   6.855
 5653SOL    HW117858   2.242   6.433   6.804
 5653SOL    HW217859   2.084   6.395   6.812
 5654SOL     OW17860   0.520   6.072   6.086
 5654SOL    HW117861   0.574   6.156   6.081
 5654SOL    HW217862   0.476   6.055   5.998
 5655SOL     OW17863   0.101   4.589   2.993
 5655SOL    HW117864   0.157   4.531   3.052
 5655SOL    HW217865   0.160   4.639   2.930
 5656SOL     OW17866   3.498   5.356   5.929
 5656SOL    HW117867   3.414   5.308   5.956
 5656SOL    HW217868   3.517   5.429   5.994
 5657SOL     OW17869   4.089   5.708   1.795
 5657SOL    HW117870   4.186   5.727   1.807
 5657SOL    HW217871   4.036   5.753   1.866
 5658SOL     OW17872   4.933   6.892   5.132
 5658SOL    HW117873   4.879   6.972   5.107
 5658SOL    HW217874   4.886   6.841   5.205
 5659SOL     OW17875   3.515   4.180   2.922
 5659SOL    HW117876   3.419   4.152   2.922
 5659SOL    HW217877   3.522   4.275   2.892
 5660SOL     OW17878   6.053   6.574   0.787
 5660SOL    HW117879   6.092   6.567   0.695
 5660SOL    HW217880   5.957   6.600   0.781
 5661SOL     OW17881   6.647   5.633   4.905
 5661SOL    HW117882   6.586   5.660   4.980
 5661SOL    HW217883   6.678   5.539   4.920
 5662SOL     OW17884   2.069   3.645   4.072
 5662SOL    HW117885   2.121   3.599   4.144
 5662SOL    HW217886   1.978   3.668   4.107
 5663SOL     OW17887   1.948   3.681   0.391
 5663SOL    HW117888   1.908   3.627   0.465
 5663SOL    HW217889   1.886   3.683   0.313
 5664SOL     OW17890   0.185   5.097   2.620
 5664SOL    HW117891   0.230   5.011   2.598
 5664SOL    HW217892   0.086   5.085   2.619
 5665SOL     OW17893   2.019   1.334   6.239
 5665SOL    HW117894   2.008   1.384   6.153
 5665SOL    HW217895   1.932   1.292   6.264
 5666SOL     OW17896   5.860   5.625   0.413
 5666SOL    HW117897   5.857   5.532   0.450
 5666SOL    HW217898   5.936   5.633   0.348
 5667SOL     OW17899   6.943   5.969   3.636
 5667SOL    HW117900   6.989   5.931   3.717
 5667SOL    HW217901   6.961   5.910   3.558
 5668SOL     OW17902   5.829   2.802   5.880
 5668SOL    HW117903   5.841   2.868   5.806
 5668SOL    HW217904   5.736   2.766   5.878
 5669SOL     OW17905   6.973   3.143   5.561
 5669SOL    HW117906   6.993   3.123   5.465
 5669SOL    HW217907   6.958   3.241   5.573
 5670SOL     OW17908   1.823   3.656   3.087
 5670SOL    HW117909   1.843   3.739   3.034
 5670SOL    HW217910   1.827   3.678   3.184
 5671SOL     OW17911   1.328   1.242   5.301
 5671SOL    HW117912   1.392   1.205   5.368
 5671SOL    HW217913   1.365   1.325   5.261
 5672SOL     OW17914   5.539   4.460   5.690
 5672SOL    HW117915   5.634   4.488   5.706
 5672SOL    HW217916   5.520   4.461   5.592
 5673SOL     OW17917   1.634   0.583   1.784
 5673SOL    HW117918   1.727   0.617   1.794
 5673SOL    HW217919   1.582   0.602   1.867
 5674SOL     OW17920   6.859   3.560   1.274
 5674SOL    HW117921   6.910   3.475   1.285
 5674SOL    HW217922   6.809   3.559   1.188
 5675SOL     OW17923   4.315   1.857   5.443
 5675SOL    HW117924   4.368   1.817   5.369
 5675SOL    HW217925   4.359   1.835   5.531
 5676SOL     OW17926   3.337   6.939   1.736
 5676SOL    HW117927   3.258   6.985   1.696
 5676SOL    HW217928   3.413   6.942   1.671
 5677SOL     OW17929   0.165   0.939   4.183
 5677SOL    HW117930   0.196   1.008   4.248
 5677SOL    HW217931   0.228   0.862   4.183
 5678SOL     OW17932   1.924   5.029   3.578
 5678SOL    HW117933   1.852   5.038   3.647
 5678SOL    HW217934   2.008   5.073   3.611
 5679SOL     OW17935   3.031   6.104   5.476
 5679SOL    HW117936   2.951   6.115   5.534
 5679SOL    HW217937   3.110   6.147   5.520
 5680SOL     OW17938   2.231   6.880   5.978
 5680SOL    HW117939   2.159   6.914   5.918
 5680SOL    HW217940   2.246   6.946   6.052
 5681SOL     OW17941   2.103   3.897   0.445
 5681SOL    HW117942   2.030   3.965   0.445
 5681SOL    HW217943   2.066   3.807   0.423
 5682SOL     OW17944   0.489   3.303   3.660
 5682SOL    HW117945   0.510   3.399   3.676
 5682SOL    HW217946   0.466   3.259   3.747
 5683SOL     OW17947   3.645   2.974   5.108
 5683SOL    HW117948   3.678   3.044   5.171
 5683SOL    HW217949   3.550   2.991   5.085
 5684SOL     OW17950   3.154   3.410   3.321
 5684SOL    HW117951   3.250   3.391   3.299
 5684SOL    HW217952   3.102   3.325   3.320
 5685SOL     OW17953   0.964   5.531   2.537
 5685SOL    HW117954   1.017   5.524   2.621
 5685SOL    HW217955   0.896   5.604   2.546
 5686SOL     OW17956   3.390   5.693   0.073
 5686SOL    HW117957   3.296   5.661   0.059
 5686SOL    HW217958   3.454   5.626   0.036
 5687SOL     OW17959   4.827   5.262   5.404
 5687SOL    HW117960   4.774   5.179   5.420
 5687SOL    HW217961   4.827   5.284   5.307
 5688SOL     OW17962   6.154   2.062   2.436
 5688SOL    HW117963   6.206   1.985   2.400
 5688SOL    HW217964   6.056   2.039   2.436
 5689SOL     OW17965   4.405   2.419   6.248
 5689SOL    HW117966   4.412   2.446   6.344
 5689SOL    HW217967   4.388   2.500   6.192
 5690SOL     OW17968   4.914   6.634   1.822
 5690SOL    HW117969   4.899   6.543   1.785
 5690SOL    HW217970   4.833   6.663   1.873
 5691SOL     OW17971   1.956   6.991   2.617
 5691SOL    HW117972   1.895   6.917   2.588
 5691SOL    HW217973   1.920   0.006   2.700
 5692SOL     OW17974   6.139   2.992   0.415
 5692SOL    HW117975   6.139   2.910   0.472
 5692SOL    HW217976   6.164   2.967   0.321
 5693SOL     OW17977   4.687   2.772   2.827
 5693SOL    HW117978   4.708   2.818   2.741
 5693SOL    HW217979   4.635   2.689   2.808
 5694SOL     OW17980   1.333   1.819   4.394
 5694SOL    HW117981   1.371   1.726   4.395
 5694SOL    HW217982   1.256   1.822   4.331
 5695SOL     OW17983   1.606   3.489   3.896
 5695SOL    HW117984   1.670   3.515   3.823
 5695SOL    HW217985   1.559   3.571   3.930
 5696SOL     OW17986   3.752   0.182   5.739
 5696SOL    HW117987   3.719   0.276   5.749
 5696SOL    HW217988   3.705   0.138   5.663
 5697SOL     OW17989   6.734   3.518   6.975
 5697SOL    HW117990   6.673   3.455   7.024
 5697SOL    HW217991   6.773   3.583   0.013
 5698SOL     OW17992   0.933   3.954   2.207
 5698SOL    HW117993   1.033   3.953   2.213
 5698SOL    HW217994   0.904   3.906   2.125
 5699SOL     OW17995   6.561   1.119   4.901
 5699SOL    HW117996   6.629   1.192   4.899
 5699SOL    HW217997   6.514   1.118   4.989
 5700SOL     OW17998   0.926   4.997   3.587
 5700SOL    HW117999   1.003   5.055   3.612
 5700SOL    HW218000   0.843   5.053   3.580
 5701SOL     OW18001   5.481   5.093   1.622
 5701SOL    HW118002   5.517   5.166   1.681
 5701SOL    HW218003   5.466   5.129   1.530
 5702SOL     OW18004   2.077   0.689   6.830
 5702SOL    HW118005   2.053   0.680   6.733
 5702SOL    HW218006   2.176   0.682   6.840
 5703SOL     OW18007   4.252   4.714   0.745
 5703SOL    HW118008   4.307   4.667   0.815
 5703SOL    HW218009   4.162   4.736   0.783
 5704SOL     OW18010   4.065   5.558   3.820
 5704SOL    HW118011   4.095   5.621   3.892
 5704SOL    HW218012   3.982   5.593   3.778
 5705SOL     OW18013   6.508   1.549   2.141
 5705SOL    HW118014   6.597   1.518   2.110
 5705SOL    HW218015   6.456   1.585   2.063
 5706SOL     OW18016   1.764   1.195   6.972
 5706SOL    HW118017   1.677   1.147   6.963
 5706SOL    HW218018   1.759   1.260   0.021
 5707SOL     OW18019   3.327   2.375   6.000
 5707SOL    HW118020   3.296   2.470   6.000
 5707SOL    HW218021   3.324   2.339   5.906
 5708SOL     OW18022   5.597   0.040   1.883
 5708SOL    HW118023   5.675   0.092   1.849
 5708SOL    HW218024   5.571   0.073   1.974
 5709SOL     OW18025   1.103   0.969   3.038
 5709SOL    HW118026   1.053   0.951   2.953
 5709SOL    HW218027   1.092   0.892   3.100
 5710SOL     OW18028   2.831   4.617   6.066
 5710SOL    HW118029   2.802   4.652   5.977
 5710SOL    HW218030   2.753   4.575   6.113
 5711SOL     OW18031   4.161   1.421   4.241
 5711SOL    HW118032   4.068   1.444   4.271
 5711SOL    HW218033   4.204   1.501   4.198
 5712SOL     OW18034   0.011   5.706   6.768
 5712SOL    HW118035   0.110   5.695   6.756
 5712SOL    HW218036   6.991   5.672   6.686
 5713SOL     OW18037   0.240   1.664   3.470
 5713SOL    HW118038   0.312   1.612   3.424
 5713SOL    HW218039   0.150   1.626   3.446
 5714SOL     OW18040   1.876   0.808   6.967
 5714SOL    HW118041   1.949   0.764   6.914
 5714SOL    HW218042   1.896   0.906   6.975
 5715SOL     OW18043   1.655   0.244   3.359
 5715SOL    HW118044   1.716   0.263   3.436
 5715SOL    HW218045   1.590   0.172   3.385
 5716SOL     OW18046   2.403   3.312   5.616
 5716SOL    HW118047   2.400   3.226   5.566
 5716SOL    HW218048   2.433   3.385   5.554
 5717SOL     OW18049   0.594   4.166   0.199
 5717SOL    HW118050   0.643   4.099   0.142
 5717SOL    HW218051   0.496   4.152   0.189
 5718SOL     OW18052   2.020   4.582   5.362
 5718SOL    HW118053   2.051   4.655   5.300
 5718SOL    HW218054   2.079   4.581   5.443
 5719SOL     OW18055   2.873   0.427   6.712
 5719SOL    HW118056   2.916   0.420   6.801
 5719SOL    HW218057   2.839   0.337   6.684
 5720SOL     OW18058   1.994   5.061   4.253
 5720SOL    HW118059   2.075   5.054   4.195
 5720SOL    HW218060   1.981   5.155   4.282
 5721SOL     OW18061   0.866   4.576   1.824
 5721SOL    HW118062   0.874   4.509   1.898
 5721SOL    HW218063   0.775   4.618   1.827
 5722SOL     OW18064   5.063   0.905   3.805
 5722SOL    HW118065   5.064   0.921   3.904
 5722SOL    HW218066   4.979   0.858   3.780
 5723SOL     OW18067   1.609   4.807   1.106
 5723SOL    HW118068   1.574   4.892   1.066
 5723SOL    HW218069   1.641   4.825   1.199
 5724SOL     OW18070   4.718   1.884   0.007
 5724SOL    HW118071   4.803   1.934   0.022
 5724SOL    HW218072   4.645   1.948   7.010
 5725SOL     OW18073   5.188   5.849   5.963
 5725SOL    HW118074   5.130   5.815   6.038
 5725SOL    HW218075   5.284   5.837   5.988
 5726SOL     OW18076   4.608   3.270   6.164
 5726SOL    HW118077   4.668   3.320   6.102
 5726SOL    HW218078   4.634   3.290   6.259
 5727SOL     OW18079   5.876   1.839   3.845
 5727SOL    HW118080   5.954   1.798   3.891
 5727SOL    HW218081   5.860   1.793   3.757
 5728SOL     OW18082   5.991   0.828   6.272
 5728SOL    HW118083   5.919   0.806   6.206
 5728SOL    HW218084   6.026   0.743   6.312
 5729SOL     OW18085   0.784   3.086   5.406
 5729SOL    HW118086   0.790   2.995   5.365
 5729SOL    HW218087   0.876   3.122   5.422
 5730SOL     OW18088   4.609   5.326   6.820
 5730SOL    HW118089   4.625   5.272   6.737
 5730SOL    HW218090   4.679   5.303   6.888
 5731SOL     OW18091   3.498   0.848   4.264
 5731SOL    HW118092   3.420   0.908   4.284
 5731SOL    HW218093   3.524   0.798   4.347
 5732SOL     OW18094   5.677   3.961   4.038
 5732SOL    HW118095   5.772   3.958   4.069
 5732SOL    HW218096   5.623   3.895   4.090
 5733SOL     OW18097   3.033   0.220   0.829
 5733SOL    HW118098   2.942   0.214   0.787
 5733SOL    HW218099   3.075   0.129   0.829
 5734SOL     OW18100   2.352   5.754   6.513
 5734SOL    HW118101   2.357   5.747   6.414
 5734SOL    HW218102   2.391   5.671   6.554
 5735SOL     OW18103   4.632   0.566   1.704
 5735SOL    HW118104   4.586   0.573   1.615
 5735SOL    HW218105   4.575   0.607   1.775
 5736SOL     OW18106   5.471   4.216   0.519
 5736SOL    HW118107   5.499   4.200   0.613
 5736SOL    HW218108   5.460   4.129   0.472
 5737SOL     OW18109   4.136   5.242   1.132
 5737SOL    HW118110   4.110   5.332   1.166
 5737SOL    HW218111   4.152   5.181   1.210
 5738SOL     OW18112   3.114   0.746   0.560
 5738SOL    HW118113   3.172   0.698   0.494
 5738SOL    HW218114   3.158   0.743   0.650
 5739SOL     OW18115   1.875   0.845   5.682
 5739SOL    HW118116   1.906   0.886   5.596
 5739SOL    HW218117   1.875   0.915   5.754
 5740SOL     OW18118   4.766   3.525   1.843
 5740SOL    HW118119   4.825   3.584   1.787
 5740SOL    HW218120   4.820   3.448   1.878
 5741SOL     OW18121   0.640   3.418   3.926
 5741SOL    HW118122   0.568   3.349   3.918
 5741SOL    HW218123   0.673   3.443   3.835
 5742SOL     OW18124   4.919   0.492   3.183
 5742SOL    HW118125   4.959   0.426   3.119
 5742SOL    HW218126   4.896   0.576   3.134
 5743SOL     OW18127   3.928   4.635   0.158
 5743SOL    HW118128   3.897   4.722   0.122
 5743SOL    HW218129   3.877   4.613   0.241
 5744SOL     OW18130   5.296   6.813   3.067
 5744SOL    HW118131   5.293   6.718   3.099
 5744SOL    HW218132   5.228   6.826   2.995
 5745SOL     OW18133   1.416   2.619   1.992
 5745SOL    HW118134   1.515   2.608   1.996
 5745SOL    HW218135   1.394   2.717   1.987
 5746SOL     OW18136   4.802   6.856   3.041
 5746SOL    HW118137   4.728   6.909   3.084
 5746SOL    HW218138   4.859   6.816   3.113
 5747SOL     OW18139   0.777   6.237   0.983
 5747SOL    HW118140   0.829   6.215   1.066
 5747SOL    HW218141   0.807   6.326   0.948
 5748SOL     OW18142   0.072   5.984   0.640
 5748SOL    HW118143   0.130   6.040   0.580
 5748SOL    HW218144   0.056   6.032   0.726
 5749SOL     OW18145   1.528   5.650   6.312
 5749SOL    HW118146   1.607   5.654   6.373
 5749SOL    HW218147   1.485   5.741   6.307
 5750SOL     OW18148   6.554   3.469   3.805
 5750SOL    HW118149   6.548   3.470   3.905
 5750SOL    HW218150   6.466   3.442   3.766
 5751SOL     OW18151   1.601   3.757   4.927
 5751SOL    HW118152   1.630   3.770   5.022
 5751SOL    HW218153   1.538   3.830   4.901
 5752SOL     OW18154   4.683   0.191   0.989
 5752SOL    HW118155   4.686   0.226   1.083
 5752SOL    HW218156   4.721   0.099   0.987
 5753SOL     OW18157   3.792   4.232   5.052
 5753SOL    HW118158   3.868   4.227   4.987
 5753SOL    HW218159   3.706   4.217   5.003
 5754SOL     OW18160   0.864   5.849   1.656
 5754SOL    HW118161   0.829   5.843   1.750
 5754SOL    HW218162   0.907   5.939   1.643
 5755SOL     OW18163   1.041   2.373   6.817
 5755SOL    HW118164   1.085   2.450   6.864
 5755SOL    HW218165   1.085   2.359   6.728
 5756SOL     OW18166   5.914   6.008   1.285
 5756SOL    HW118167   5.992   5.947   1.298
 5756SOL    HW218168   5.870   5.989   1.198
 5757SOL     OW18169   6.653   0.412   4.548
 5757SOL    HW118170   6.649   0.363   4.460
 5757SOL    HW218171   6.742   0.456   4.557
 5758SOL     OW18172   5.995   6.839   2.966
 5758SOL    HW118173   5.935   6.872   2.893
 5758SOL    HW218174   6.015   6.913   3.030
 5759SOL     OW18175   3.720   0.061   1.170
 5759SOL    HW118176   3.671   0.042   1.084
 5759SOL    HW218177   3.756   7.002   1.206
 5760SOL     OW18178   0.771   3.201   0.525
 5760SOL    HW118179   0.736   3.155   0.607
 5760SOL    HW218180   0.753   3.299   0.532
 5761SOL     OW18181   5.964   0.064   4.288
 5761SOL    HW118182   5.943   0.162   4.289
 5761SOL    HW218183   5.878   0.012   4.288
 5762SOL     OW18184   6.352   5.779   6.755
 5762SOL    HW118185   6.411   5.720   6.810
 5762SOL    HW218186   6.261   5.737   6.747
 5763SOL     OW18187   6.114   6.969   6.693
 5763SOL    HW118188   6.080   6.875   6.688
 5763SOL    HW218189   6.061   7.019   6.762
 5764SOL     OW18190   4.885   6.850   3.647
 5764SOL    HW118191   4.856   6.755   3.664
 5764SOL    HW218192   4.974   6.865   3.689
 5765SOL     OW18193   6.127   5.244   1.980
 5765SOL    HW118194   6.053   5.254   2.046
 5765SOL    HW218195   6.158   5.149   1.978
 5766SOL     OW18196   0.157   1.483   4.264
 5766SOL    HW118197   0.204   1.413   4.211
 5766SOL    HW218198   0.220   1.558   4.285
 5767SOL     OW18199   3.423   6.742   6.972
 5767SOL    HW118200   3.523   6.748   6.974
 5767SOL    HW218201   3.392   6.684   0.021
 5768SOL     OW18202   0.358   0.587   4.485
 5768SOL    HW118203   0.439   0.647   4.487
 5768SOL    HW218204   0.281   0.638   4.448
 5769SOL     OW18205   1.625   4.535   6.567
 5769SOL    HW118206   1.633   4.480   6.484
 5769SOL    HW218207   1.575   4.483   6.637
 5770SOL     OW18208   1.720   4.878   1.658
 5770SOL    HW118209   1.803   4.893   1.711
 5770SOL    HW218210   1.659   4.957   1.669
 5771SOL     OW18211   2.970   5.284   3.309
 5771SOL    HW118212   2.930   5.203   3.265
 5771SOL    HW218213   3.059   5.259   3.348
 5772SOL     OW18214   2.917   0.584   2.080
 5772SOL    HW118215   3.006   0.538   2.076
 5772SOL    HW218216   2.898   0.629   1.993
 5773SOL     OW18217   4.807   1.853   2.502
 5773SOL    HW118218   4.769   1.891   2.586
 5773SOL    HW218219   4.906   1.844   2.511
 5774SOL     OW18220   0.108   6.799   2.287
 5774SOL    HW118221   0.070   6.885   2.321
 5774SOL    HW218222   0.102   6.730   2.359
 5775SOL     OW18223   6.638   5.742   2.058
 5775SOL    HW118224   6.561   5.696   2.103
 5775SOL    HW218225   6.616   5.839   2.046
 5776SOL     OW18226   2.715   0.900   3.963
 5776SOL    HW118227   2.688   0.874   3.871
 5776SOL    HW218228   2.702   0.999   3.976
 5777SOL     OW18229   1.585   6.265   3.014
 5777SOL    HW118230   1.600   6.214   2.929
 5777SOL    HW218231   1.642   6.348   3.013
 5778SOL     OW18232   0.426   1.712   0.440
 5778SOL    HW118233   0.395   1.797   0.483
 5778SOL    HW218234   0.448   1.729   0.344
 5779SOL     OW18235   6.038   1.747   5.914
 5779SOL    HW118236   6.047   1.830   5.858
 5779SOL    HW218237   6.075   1.669   5.864
 5780SOL     OW18238   5.232   6.059   3.816
 5780SOL    HW118239   5.201   6.137   3.871
 5780SOL    HW218240   5.326   6.073   3.788
 5781SOL     OW18241   0.573   4.748   4.924
 5781SOL    HW118242   0.543   4.682   4.993
 5781SOL    HW218243   0.494   4.783   4.874
 5782SOL     OW18244   0.601   0.761   0.444
 5782SOL    HW118245   0.650   0.712   0.372
 5782SOL    HW218246   0.507   0.729   0.449
 5783SOL     OW18247   1.379   1.721   1.141
 5783SOL    HW118248   1.429   1.634   1.137
 5783SOL    HW218249   1.365   1.756   1.048
 5784SOL     OW18250   6.845   6.616   6.194
 5784SOL    HW118251   6.789   6.688   6.154
 5784SOL    HW218252   6.939   6.624   6.161
 5785SOL     OW18253   1.192   1.860   0.655
 5785SOL    HW118254   1.233   1.894   0.570
 5785SOL    HW218255   1.126   1.926   0.690
 5786SOL     OW18256   5.865   4.339   1.051
 5786SOL    HW118257   5.865   4.416   0.988
 5786SOL    HW218258   5.913   4.366   1.135
 5787SOL     OW18259   3.476   2.141   5.710
 5787SOL    HW118260   3.433   2.231   5.718
 5787SOL    HW218261   3.443   2.096   5.627
 5788SOL     OW18262   2.753   0.999   3.643
 5788SOL    HW118263   2.771   0.911   3.599
 5788SOL    HW218264   2.662   1.032   3.617
 5789SOL     OW18265   4.087   5.078   6.163
 5789SOL    HW118266   4.076   5.176   6.175
 5789SOL    HW218267   4.105   5.058   6.066
 5790SOL     OW18268   0.577   2.204   3.582
 5790SOL    HW118269   0.513   2.270   3.542
 5790SOL    HW218270   0.538   2.164   3.664
 5791SOL     OW18271   2.798   0.711   2.883
 5791SOL    HW118272   2.749   0.771   2.819
 5791SOL    HW218273   2.871   0.763   2.928
 5792SOL     OW18274   6.653   2.459   2.691
 5792SOL    HW118275   6.565   2.455   2.644
 5792SOL    HW218276   6.638   2.485   2.786
 5793SOL     OW18277   6.970   0.626   3.701
 5793SOL    HW118278   6.935   0.654   3.790
 5793SOL    HW218279   0.029   0.674   3.682
 5794SOL     OW18280   4.397   3.510   6.983
 5794SOL    HW118281   4.420   3.448   6.907
 5794SOL    HW218282   4.479   3.559   7.012
 5795SOL     OW18283   5.943   4.093   6.137
 5795SOL    HW118284   5.929   4.019   6.203
 5795SOL    HW218285   5.883   4.080   6.058
 5796SOL     OW18286   3.754   1.379   0.167
 5796SOL    HW118287   3.759   1.292   0.118
 5796SOL    HW218288   3.739   1.453   0.101
 5797SOL     OW18289   3.184   1.832   4.696
 5797SOL    HW118290   3.102   1.816   4.640
 5797SOL    HW218291   3.170   1.796   4.788
 5798SOL     OW18292   6.716   4.384   4.822
 5798SOL    HW118293   6.728   4.318   4.896
 5798SOL    HW218294   6.629   4.366   4.775
 5799SOL     OW18295   5.624   0.322   4.016
 5799SOL    HW118296   5.532   0.309   4.053
 5799SOL    HW218297   5.663   0.233   3.992
 5800SOL     OW18298   6.059   4.940   0.773
 5800SOL    HW118299   6.152   4.930   0.737
 5800SOL    HW218300   6.008   4.855   0.760
 5801SOL     OW18301   1.855   1.645   3.665
 5801SOL    HW118302   1.889   1.666   3.757
 5801SOL    HW218303   1.803   1.723   3.631
 5802SOL     OW18304   0.345   3.528   5.750
 5802SOL    HW118305   0.255   3.524   5.706
 5802SOL    HW218306   0.411   3.567   5.687
 5803SOL     OW18307   1.284   4.419   0.529
 5803SOL    HW118308   1.359   4.408   0.464
 5803SOL    HW218309   1.226   4.495   0.502
 5804SOL     OW18310   6.209   3.975   4.646
 5804SOL    HW118311   6.120   3.955   4.606
 5804SOL    HW218312   6.243   4.062   4.611
 5805SOL     OW18313   4.869   3.336   6.538
 5805SOL    HW118314   4.858   3.326   6.637
 5805SOL    HW218315   4.920   3.258   6.502
 5806SOL     OW18316   0.586   6.409   0.093
 5806SOL    HW118317   0.554   6.448   0.007
 5806SOL    HW218318   0.582   6.309   0.089
 5807SOL     OW18319   1.737   3.261   1.683
 5807SOL    HW118320   1.792   3.313   1.617
 5807SOL    HW218321   1.753   3.296   1.775
 5808SOL     OW18322   6.360   3.778   2.707
 5808SOL    HW118323   6.279   3.769   2.766
 5808SOL    HW218324   6.397   3.687   2.687
 5809SOL     OW18325   0.120   3.476   4.485
 5809SOL    HW118326   0.214   3.451   4.507
 5809SOL    HW218327   0.099   3.566   4.524
 5810SOL     OW18328   2.821   2.009   2.104
 5810SOL    HW118329   2.736   1.969   2.069
 5810SOL    HW218330   2.800   2.095   2.150
 5811SOL     OW18331   2.503   1.167   4.014
 5811SOL    HW118332   2.461   1.236   3.955
 5811SOL    HW218333   2.454   1.080   4.002
 5812SOL     OW18334   4.558   0.739   4.175
 5812SOL    HW118335   4.535   0.827   4.216
 5812SOL    HW218336   4.477   0.680   4.172
 5813SOL     OW18337   1.304   0.911   5.492
 5813SOL    HW118338   1.369   0.843   5.523
 5813SOL    HW218339   1.221   0.907   5.549
 5814SOL     OW18340   0.309   5.167   1.576
 5814SOL    HW118341   0.247   5.155   1.653
 5814SOL    HW218342   0.376   5.238   1.598
 5815SOL     OW18343   3.798   1.382   3.013
 5815SOL    HW118344   3.896   1.398   3.004
 5815SOL    HW218345   3.774   1.378   3.109
 5816SOL     OW18346   4.602   0.679   0.340
 5816SOL    HW118347   4.615   0.589   0.300
 5816SOL    HW218348   4.510   0.686   0.379
 5817SOL     OW18349   4.864   3.103   5.093
 5817SOL    HW118350   4.960   3.094   5.120
 5817SOL    HW218351   4.805   3.088   5.173
 5818SOL     OW18352   6.092   6.664   6.270
 5818SOL    HW118353   6.006   6.704   6.303
 5818SOL    HW218354   6.154   6.648   6.347
 5819SOL     OW18355   5.926   0.410   1.602
 5819SOL    HW118356   5.937   0.465   1.519
 5819SOL    HW218357   5.852   0.447   1.657
 5820SOL     OW18358   5.700   6.499   3.637
 5820SOL    HW118359   5.792   6.532   3.655
 5820SOL    HW218360   5.699   6.446   3.552
 5821SOL     OW18361   2.603   1.079   1.920
 5821SOL    HW118362   2.553   1.165   1.906
 5821SOL    HW218363   2.572   1.012   1.853
 5822SOL     OW18364   0.006   1.683   1.828
 5822SOL    HW118365   0.027   1.752   1.758
 5822SOL    HW218366   6.949   1.634   1.802
 5823SOL     OW18367   2.610   1.931   4.127
 5823SOL    HW118368   2.554   1.863   4.081
 5823SOL    HW218369   2.552   2.003   4.165
 5824SOL     OW18370   5.520   0.126   3.702
 5824SOL    HW118371   5.545   0.138   3.798
 5824SOL    HW218372   5.456   0.199   3.675
 5825SOL     OW18373   2.625   0.721   0.402
 5825SOL    HW118374   2.698   0.747   0.464
 5825SOL    HW218375   2.606   0.623   0.412
 5826SOL     OW18376   6.263   6.902   5.397
 5826SOL    HW118377   6.335   6.918   5.330
 5826SOL    HW218378   6.212   6.987   5.411
 5827SOL     OW18379   0.946   5.755   4.875
 5827SOL    HW118380   0.958   5.784   4.969
 5827SOL    HW218381   0.918   5.833   4.819
 5828SOL     OW18382   0.096   3.506   2.001
 5828SOL    HW118383   0.153   3.572   2.050
 5828SOL    HW218384   0.154   3.444   1.949
 5829SOL     OW18385   2.342   1.370   1.579
 5829SOL    HW118386   2.244   1.356   1.590
 5829SOL    HW218387   2.358   1.442   1.511
 5830SOL     OW18388   3.131   1.456   6.124
 5830SOL    HW118389   3.143   1.473   6.221
 5830SOL    HW218390   3.163   1.535   6.072
 5831SOL     OW18391   5.523   6.761   3.446
 5831SOL    HW118392   5.558   6.762   3.540
 5831SOL    HW218393   5.490   6.853   3.422
 5832SOL     OW18394   4.039   3.939   5.221
 5832SOL    HW118395   4.112   4.003   5.241
 5832SOL    HW218396   3.951   3.987   5.221
 5833SOL     OW18397   3.246   3.250   4.941
 5833SOL    HW118398   3.223   3.190   4.865
 5833SOL    HW218399   3.176   3.243   5.012
 5834SOL     OW18400   6.070   1.416   0.934
 5834SOL    HW118401   6.162   1.443   0.962
 5834SOL    HW218402   6.058   1.438   0.837
 5835SOL     OW18403   5.186   2.275   3.577
 5835SOL    HW118404   5.259   2.272   3.508
 5835SOL    HW218405   5.129   2.356   3.561
 5836SOL     OW18406   3.615   5.932   1.943
 5836SOL    HW118407   3.680   5.938   1.867
 5836SOL    HW218408   3.659   5.885   2.020
 5837SOL     OW18409   5.074   3.988   6.848
 5837SOL    HW118410   5.005   3.960   6.915
 5837SOL    HW218411   5.040   4.066   6.796
 5838SOL     OW18412   0.989   1.009   5.062
 5838SOL    HW118413   1.009   1.099   5.101
 5838SOL    HW218414   1.028   0.938   5.120
 5839SOL     OW18415   6.652   3.081   3.195
 5839SOL    HW118416   6.623   3.174   3.220
 5839SOL    HW218417   6.748   3.084   3.165
 5840SOL     OW18418   1.421   5.286   6.750
 5840SOL    HW118419   1.334   5.256   6.709
 5840SOL    HW218420   1.442   5.229   6.829
 5841SOL     OW18421   6.551   2.498   3.576
 5841SOL    HW118422   6.520   2.566   3.643
 5841SOL    HW218423   6.650   2.484   3.587
 5842SOL     OW18424   3.964   3.061   0.824
 5842SOL    HW118425   3.930   3.014   0.906
 5842SOL    HW218426   3.899   3.050   0.749
 5843SOL     OW18427   1.975   4.164   2.384
 5843SOL    HW118428   2.051   4.136   2.325
 5843SOL    HW218429   1.996   4.139   2.478
 5844SOL     OW18430   1.096   6.461   6.424
 5844SOL    HW118431   1.142   6.526   6.364
 5844SOL    HW218432   1.085   6.500   6.515
 5845SOL     OW18433   0.724   2.580   4.369
 5845SOL    HW118434   0.775   2.576   4.283
 5845SOL    HW218435   0.684   2.490   4.388
 5846SOL     OW18436   0.014   2.730   5.690
 5846SOL    HW118437   0.060   2.658   5.742
 5846SOL    HW218438   0.075   2.763   5.618
 5847SOL     OW18439   2.063   3.050   2.298
 5847SOL    HW118440   2.099   3.142   2.316
 5847SOL    HW218441   1.972   3.041   2.338
 5848SOL     OW18442   1.195   4.478   3.434
 5848SOL    HW118443   1.216   4.576   3.443
 5848SOL    HW218444   1.109   4.459   3.481
 5849SOL     OW18445   2.520   0.166   5.527
 5849SOL    HW118446   2.587   0.194   5.596
 5849SOL    HW218447   2.568   0.141   5.443
 5850SOL     OW18448   0.754   4.462   2.064
 5850SOL    HW118449   0.694   4.455   2.144
 5850SOL    HW218450   0.700   4.493   1.985
 5851SOL     OW18451   6.329   4.020   2.013
 5851SOL    HW118452   6.266   4.087   2.053
 5851SOL    HW218453   6.361   3.958   2.085
 5852SOL     OW18454   4.355   6.081   2.649
 5852SOL    HW118455   4.377   6.058   2.554
 5852SOL    HW218456   4.367   6.179   2.663
 5853SOL     OW18457   3.250   4.651   5.604
 5853SOL    HW118458   3.302   4.722   5.652
 5853SOL    HW218459   3.299   4.625   5.521
 5854SOL     OW18460   6.843   1.157   6.125
 5854SOL    HW118461   6.797   1.225   6.068
 5854SOL    HW218462   6.774   1.104   6.174
 5855SOL     OW18463   1.154   1.118   4.484
 5855SOL    HW118464   1.115   1.073   4.564
 5855SOL    HW218465   1.154   1.217   4.497
 5856SOL     OW18466   1.572   4.351   3.599
 5856SOL    HW118467   1.620   4.299   3.670
 5856SOL    HW218468   1.622   4.343   3.512
 5857SOL     OW18469   6.725   3.052   5.620
 5857SOL    HW118470   6.816   3.072   5.584
 5857SOL    HW218471   6.659   3.117   5.581
 5858SOL     OW18472   3.486   1.246   2.797
 5858SOL    HW118473   3.449   1.196   2.718
 5858SOL    HW218474   3.576   1.284   2.773
 5859SOL     OW18475   5.828   6.347   0.767
 5859SOL    HW118476   5.767   6.384   0.698
 5859SOL    HW218477   5.798   6.255   0.793
 5860SOL     OW18478   1.647   3.980   1.713
 5860SOL    HW118479   1.746   3.986   1.714
 5860SOL    HW218480   1.618   3.904   1.656
 5861SOL     OW18481   6.224   2.427   4.484
 5861SOL    HW118482   6.263   2.486   4.554
 5861SOL    HW218483   6.297   2.375   4.440
 5862SOL     OW18484   4.172   5.044   2.933
 5862SOL    HW118485   4.084   5.005   2.958
 5862SOL    HW218486   4.178   5.053   2.834
 5863SOL     OW18487   2.256   1.073   6.868
 5863SOL    HW118488   2.262   0.977   6.895
 5863SOL    HW218489   2.329   1.125   6.912
 5864SOL     OW18490   4.728   4.479   1.579
 5864SOL    HW118491   4.820   4.492   1.542
 5864SOL    HW218492   4.734   4.455   1.676
 5865SOL     OW18493   4.828   1.102   3.100
 5865SOL    HW118494   4.895   1.165   3.140
 5865SOL    HW218495   4.749   1.153   3.068
 5866SOL     OW18496   4.172   0.183   5.988
 5866SOL    HW118497   4.255   0.231   5.958
 5866SOL    HW218498   4.113   0.166   5.910
 5867SOL     OW18499   0.133   2.724   1.743
 5867SOL    HW118500   0.103   2.781   1.819
 5867SOL    HW218501   0.200   2.658   1.775
 5868SOL     OW18502   1.820   0.065   5.208
 5868SOL    HW118503   1.824   0.093   5.112
 5868SOL    HW218504   1.770   7.007   5.216
 5869SOL     OW18505   2.695   4.628   4.269
 5869SOL    HW118506   2.788   4.663   4.261
 5869SOL    HW218507   2.668   4.585   4.183
 5870SOL     OW18508   5.092   5.342   4.821
 5870SOL    HW118509   5.068   5.263   4.876
 5870SOL    HW218510   5.136   5.312   4.736
 5871SOL     OW18511   3.418   3.095   6.771
 5871SOL    HW118512   3.318   3.091   6.765
 5871SOL    HW218513   3.446   3.076   6.865
 5872SOL     OW18514   3.250   6.172   5.707
 5872SOL    HW118515   3.298   6.117   5.775
 5872SOL    HW218516   3.263   6.269   5.728
 5873SOL     OW18517   3.206   3.430   6.925
 5873SOL    HW118518   3.130   3.455   6.984
 5873SOL    HW218519   3.262   3.510   6.906
 5874SOL     OW18520   2.183   3.491   1.158
 5874SOL    HW118521   2.282   3.484   1.174
 5874SOL    HW218522   2.136   3.498   1.246
 5875SOL     OW18523   3.535   1.622   6.958
 5875SOL    HW118524   3.466   1.576   7.014
 5875SOL    HW218525   3.611   1.651   7.015
 5876SOL     OW18526   3.234   4.162   6.197
 5876SOL    HW118527   3.291   4.101   6.252
 5876SOL    HW218528   3.138   4.145   6.219
 5877SOL     OW18529   6.793   0.126   3.063
 5877SOL    HW118530   6.878   0.180   3.067
 5877SOL    HW218531   6.737   0.157   2.987
 5878SOL     OW18532   4.996   4.703   2.789
 5878SOL    HW118533   5.095   4.693   2.803
 5878SOL    HW218534   4.978   4.784   2.733
 5879SOL     OW18535   3.940   3.462   5.775
 5879SOL    HW118536   3.923   3.389   5.841
 5879SOL    HW218537   4.037   3.462   5.751
 5880SOL     OW18538   4.926   2.640   5.568
 5880SOL    HW118539   4.859   2.589   5.623
 5880SOL    HW218540   5.018   2.611   5.593
 5881SOL     OW18541   1.411   5.945   2.619
 5881SOL    HW118542   1.469   6.011   2.573
 5881SOL    HW218543   1.341   5.912   2.556
 5882SOL     OW18544   1.826   5.591   6.207
 5882SOL    HW118545   1.808   5.677   6.253
 5882SOL    HW218546   1.925   5.578   6.199
 5883SOL     OW18547   0.436   4.448   0.945
 5883SOL    HW118548   0.525   4.487   0.920
 5883SOL    HW218549   0.429   4.441   1.044
 5884SOL     OW18550   6.233   1.736   3.770
 5884SOL    HW118551   6.252   1.672   3.696
 5884SOL    HW218552   6.223   1.828   3.734
 5885SOL     OW18553   0.288   5.286   6.995
 5885SOL    HW118554   0.290   5.239   6.906
 5885SOL    HW218555   0.219   5.244   0.026
 5886SOL     OW18556   2.002   4.190   3.688
 5886SOL    HW118557   2.022   4.187   3.590
 5886SOL    HW218558   2.084   4.164   3.740
 5887SOL     OW18559   2.359   2.631   0.935
 5887SOL    HW118560   2.269   2.652   0.973
 5887SOL    HW218561   2.350   2.606   0.839
 5888SOL     OW18562   3.386   6.752   0.901
 5888SOL    HW118563   3.391   6.848   0.925
 5888SOL    HW218564   3.316   6.707   0.957
 5889SOL     OW18565   6.390   0.647   1.932
 5889SOL    HW118566   6.398   0.565   1.876
 5889SOL    HW218567   6.338   0.626   2.015
 5890SOL     OW18568   2.471   6.145   2.476
 5890SOL    HW118569   2.458   6.087   2.557
 5890SOL    HW218570   2.569   6.164   2.465
 5891SOL     OW18571   2.848   3.590   0.630
 5891SOL    HW118572   2.822   3.607   0.725
 5891SOL    HW218573   2.803   3.508   0.597
 5892SOL     OW18574   1.097   3.924   1.214
 5892SOL    HW118575   1.029   3.879   1.271
 5892SOL    HW218576   1.186   3.881   1.228
 5893SOL     OW18577   0.622   6.224   1.920
 5893SOL    HW118578   0.556   6.264   1.984
 5893SOL    HW218579   0.714   6.235   1.955
 5894SOL     OW18580   2.089   5.102   5.917
 5894SOL    HW118581   2.129   5.046   5.844
 5894SOL    HW218582   1.999   5.066   5.941
 5895SOL     OW18583   5.401   3.134   4.735
 5895SOL    HW118584   5.425   3.217   4.785
 5895SOL    HW218585   5.476   3.107   4.675
 5896SOL     OW18586   5.288   2.243   1.971
 5896SOL    HW118587   5.209   2.300   1.993
 5896SOL    HW218588   5.318   2.194   2.052
 5897SOL     OW18589   4.100   2.479   0.630
 5897SOL    HW118590   4.117   2.532   0.547
 5897SOL    HW218591   4.160   2.512   0.703
 5898SOL     OW18592   2.075   1.424   5.764
 5898SOL    HW118593   2.106   1.474   5.844
 5898SOL    HW218594   2.074   1.485   5.684
 5899SOL     OW18595   6.973   5.610   6.118
 5899SOL    HW118596   0.043   5.604   6.144
 5899SOL    HW218597   6.936   5.697   6.150
 5900SOL     OW18598   5.714   6.355   3.333
 5900SOL    HW118599   5.753   6.334   3.243
 5900SOL    HW218600   5.673   6.446   3.331
 5901SOL     OW18601   1.484   0.748   5.601
 5901SOL    HW118602   1.478   0.765   5.700
 5901SOL    HW218603   1.513   0.653   5.585
 5902SOL     OW18604   4.892   4.115   5.625
 5902SOL    HW118605   4.837   4.059   5.563
 5902SOL    HW218606   4.840   4.132   5.709
 5903SOL     OW18607   6.267   2.373   5.637
 5903SOL    HW118608   6.196   2.382   5.707
 5903SOL    HW218609   6.340   2.314   5.670
 5904SOL     OW18610   2.126   4.647   2.033
 5904SOL    HW118611   2.158   4.569   1.978
 5904SOL    HW218612   2.182   4.727   2.012
 5905SOL     OW18613   5.793   1.391   4.223
 5905SOL    HW118614   5.864   1.380   4.292
 5905SOL    HW218615   5.710   1.345   4.253
 5906SOL     OW18616   4.633   0.875   5.584
 5906SOL    HW118617   4.549   0.829   5.556
 5906SOL    HW218618   4.707   0.809   5.589
 5907SOL     OW18619   1.673   3.216   6.441
 5907SOL    HW118620   1.744   3.200   6.510
 5907SOL    HW218621   1.585   3.229   6.485
 5908SOL     OW18622   4.865   2.996   6.030
 5908SOL    HW118623   4.890   3.073   6.090
 5908SOL    HW218624   4.854   2.913   6.085
 5909SOL     OW18625   6.750   4.833   4.333
 5909SOL    HW118626   6.779   4.754   4.388
 5909SOL    HW218627   6.740   4.913   4.392
 5910SOL     OW18628   1.981   4.021   1.125
 5910SOL    HW118629   1.927   3.984   1.200
 5910SOL    HW218630   2.003   4.117   1.144
 5911SOL     OW18631   5.546   6.792   6.264
 5911SOL    HW118632   5.463   6.839   6.294
 5911SOL    HW218633   5.532   6.756   6.172
 5912SOL     OW18634   6.604   3.663   6.619
 5912SOL    HW118635   6.540   3.629   6.689
 5912SOL    HW218636   6.582   3.758   6.598
 5913SOL     OW18637   1.266   1.582   6.055
 5913SOL    HW118638   1.229   1.493   6.077
 5913SOL    HW218639   1.366   1.576   6.049
 5914SOL     OW18640   2.212   6.329   0.743
 5914SOL    HW118641   2.161   6.245   0.725
 5914SOL    HW218642   2.303   6.322   0.700
 5915SOL     OW18643   4.912   3.392   2.590
 5915SOL    HW118644   5.004   3.370   2.558
 5915SOL    HW218645   4.907   3.380   2.689
 5916SOL     OW18646   3.619   0.429   5.787
 5916SOL    HW118647   3.664   0.450   5.874
 5916SOL    HW218648   3.551   0.499   5.767
 5917SOL     OW18649   3.562   2.881   3.207
 5917SOL    HW118650   3.626   2.944   3.249
 5917SOL    HW218651   3.613   2.808   3.161
 5918SOL     OW18652   2.029   3.187   4.443
 5918SOL    HW118653   2.074   3.258   4.497
 5918SOL    HW218654   2.079   3.175   4.357
 5919SOL     OW18655   1.254   3.287   6.730
 5919SOL    HW118656   1.237   3.377   6.770
 5919SOL    HW218657   1.331   3.243   6.777
 5920SOL     OW18658   3.929   6.610   6.617
 5920SOL    HW118659   3.877   6.575   6.694
 5920SOL    HW218660   3.974   6.695   6.643
 5921SOL     OW18661   3.996   5.267   5.034
 5921SOL    HW118662   3.998   5.367   5.035
 5921SOL    HW218663   4.078   5.232   5.078
 5922SOL     OW18664   5.654   4.274   2.099
 5922SOL    HW118665   5.708   4.358   2.102
 5922SOL    HW218666   5.650   4.234   2.190
 5923SOL     OW18667   0.211   6.904   3.777
 5923SOL    HW118668   0.252   6.919   3.867
 5923SOL    HW218669   0.147   6.979   3.757
 5924SOL     OW18670   5.341   2.059   4.062
 5924SOL    HW118671   5.374   2.122   4.132
 5924SOL    HW218672   5.407   2.053   3.988
 5925SOL     OW18673   5.733   6.477   1.334
 5925SOL    HW118674   5.782   6.391   1.348
 5925SOL    HW218675   5.684   6.473   1.247
 5926SOL     OW18676   3.798   5.251   1.632
 5926SOL    HW118677   3.741   5.194   1.572
 5926SOL    HW218678   3.807   5.342   1.592
 5927SOL     OW18679   2.624   5.811   2.838
 5927SOL    HW118680   2.617   5.713   2.851
 5927SOL    HW218681   2.576   5.837   2.754
 5928SOL     OW18682   1.118   6.921   1.761
 5928SOL    HW118683   1.108   6.880   1.671
 5928SOL    HW218684   1.185   6.870   1.814
 5929SOL     OW18685   1.171   7.013   6.156
 5929SOL    HW118686   1.172   0.000   6.255
 5929SOL    HW218687   1.196   6.919   6.136
 5930SOL     OW18688   6.876   1.969   4.785
 5930SOL    HW118689   6.852   2.023   4.865
 5930SOL    HW218690   6.894   2.030   4.708
 5931SOL     OW18691   6.084   5.343   1.427
 5931SOL    HW118692   6.008   5.280   1.417
 5931SOL    HW218693   6.051   5.437   1.421
 5932SOL     OW18694   2.688   6.478   0.527
 5932SOL    HW118695   2.674   6.448   0.621
 5932SOL    HW218696   2.668   6.576   0.520
 5933SOL     OW18697   6.177   3.682   2.939
 5933SOL    HW118698   6.275   3.662   2.950
 5933SOL    HW218699   6.126   3.597   2.928
 5934SOL     OW18700   3.245   3.599   2.933
 5934SOL    HW118701   3.298   3.634   2.856
 5934SOL    HW218702   3.199   3.675   2.979
 5935SOL     OW18703   3.877   3.372   3.870
 5935SOL    HW118704   3.798   3.391   3.928
 5935SOL    HW218705   3.860   3.407   3.778
 5936SOL     OW18706   5.077   5.965   6.339
 5936SOL    HW118707   4.987   5.977   6.382
 5936SOL    HW218708   5.071   5.898   6.265
 5937SOL     OW18709   1.973   3.616   1.066
 5937SOL    HW118710   1.964   3.707   1.106
 5937SOL    HW218711   2.049   3.568   1.109
 5938SOL     OW18712   1.936   4.887   1.827
 5938SOL    HW118713   1.976   4.953   1.890
 5938SOL    HW218714   2.008   4.844   1.773
 5939SOL     OW18715   3.700   0.329   3.306
 5939SOL    HW118716   3.651   0.349   3.390
 5939SOL    HW218717   3.645   0.359   3.227
 5940SOL     OW18718   4.014   5.792   3.207
 5940SOL    HW118719   4.062   5.715   3.251
 5940SOL    HW218720   3.962   5.842   3.276
 5941SOL     OW18721   6.368   4.878   2.243
 5941SOL    HW118722   6.272   4.869   2.270
 5941SOL    HW218723   6.420   4.801   2.280
 5942SOL     OW18724   5.218   1.967   5.403
 5942SOL    HW118725   5.127   1.936   5.429
 5942SOL    HW218726   5.283   1.892   5.413
 5943SOL     OW18727   1.466   6.144   0.290
 5943SOL    HW118728   1.525   6.214   0.249
 5943SOL    HW218729   1.382   6.137   0.237
 5944SOL     OW18730   4.583   1.508   2.512
 5944SOL    HW118731   4.526   1.474   2.586
 5944SOL    HW218732   4.543   1.482   2.424
 5945SOL     OW18733   6.703   4.541   5.205
 5945SOL    HW118734   6.710   4.636   5.174
 5945SOL    HW218735   6.666   4.539   5.298
 5946SOL     OW18736   3.985   2.992   5.337
 5946SOL    HW118737   3.993   2.895   5.312
 5946SOL    HW218738   4.072   3.038   5.316
 5947SOL     OW18739   4.351   3.392   1.709
 5947SOL    HW118740   4.431   3.451   1.698
 5947SOL    HW218741   4.278   3.443   1.754
 5948SOL     OW18742   3.585   4.899   2.270
 5948SOL    HW118743   3.608   4.850   2.186
 5948SOL    HW218744   3.549   4.989   2.247
 5949SOL     OW18745   4.554   4.699   1.885
 5949SOL    HW118746   4.492   4.724   1.959
 5949SOL    HW218747   4.648   4.713   1.914
 5950SOL     OW18748   5.825   2.398   3.623
 5950SOL    HW118749   5.759   2.395   3.698
 5950SOL    HW218750   5.912   2.434   3.656
 5951SOL     OW18751   1.552   5.721   4.037
 5951SOL    HW118752   1.467   5.768   4.012
 5951SOL    HW218753   1.596   5.771   4.111
 5952SOL     OW18754   0.008   6.575   5.048
 5952SOL    HW118755   0.054   6.553   4.962
 5952SOL    HW218756   6.996   6.667   5.042
 5953SOL     OW18757   0.045   3.499   6.258
 5953SOL    HW118758   6.996   3.436   6.261
 5953SOL    HW218759   0.025   3.573   6.193
 5954SOL     OW18760   0.084   5.295   6.734
 5954SOL    HW118761   0.036   5.303   6.821
 5954SOL    HW218762   0.136   5.209   6.732
 5955SOL     OW18763   5.371   5.507   2.233
 5955SOL    HW118764   5.298   5.441   2.222
 5955SOL    HW218765   5.385   5.526   2.330
 5956SOL     OW18766   5.663   1.987   0.089
 5956SOL    HW118767   5.668   2.021   7.022
 5956SOL    HW218768   5.724   2.041   0.147
 5957SOL     OW18769   5.316   6.820   6.020
 5957SOL    HW118770   5.285   6.788   5.930
 5957SOL    HW218771   5.394   6.766   6.050
 5958SOL     OW18772   0.248   5.443   2.061
 5958SOL    HW118773   0.227   5.463   2.157
 5958SOL    HW218774   0.348   5.438   2.050
 5959SOL     OW18775   2.334   1.469   6.333
 5959SOL    HW118776   2.409   1.403   6.332
 5959SOL    HW218777   2.346   1.534   6.258
 5960SOL     OW18778   3.232   0.732   3.522
 5960SOL    HW118779   3.139   0.732   3.559
 5960SOL    HW218780   3.246   0.651   3.465
 5961SOL     OW18781   2.965   0.651   5.856
 5961SOL    HW118782   3.034   0.604   5.911
 5961SOL    HW218783   2.970   0.749   5.874
 5962SOL     OW18784   5.084   5.180   2.423
 5962SOL    HW118785   5.086   5.204   2.520
 5962SOL    HW218786   4.992   5.150   2.398
 5963SOL     OW18787   4.102   3.713   2.093
 5963SOL    HW118788   4.024   3.686   2.150
 5963SOL    HW218789   4.163   3.773   2.145
 5964SOL     OW18790   0.840   4.874   5.443
 5964SOL    HW118791   0.837   4.957   5.499
 5964SOL    HW218792   0.747   4.847   5.418
 5965SOL     OW18793   2.926   2.327   5.725
 5965SOL    HW118794   2.830   2.344   5.705
 5965SOL    HW218795   2.975   2.414   5.728
 5966SOL     OW18796   2.454   6.308   3.761
 5966SOL    HW118797   2.532   6.352   3.806
 5966SOL    HW218798   2.452   6.211   3.786
 5967SOL     OW18799   4.798   6.913   2.038
 5967SOL    HW118800   4.792   6.958   1.949
 5967SOL    HW218801   4.759   6.972   2.108
 5968SOL     OW18802   0.493   3.100   4.839
 5968SOL    HW118803   0.417   3.068   4.782
 5968SOL    HW218804   0.576   3.049   4.817
 5969SOL     OW18805   5.798   3.583   3.481
 5969SOL    HW118806   5.789   3.679   3.508
 5969SOL    HW218807   5.772   3.525   3.558
 5970SOL     OW18808   1.509   2.911   3.414
 5970SOL    HW118809   1.538   2.893   3.320
 5970SOL    HW218810   1.589   2.906   3.475
 5971SOL     OW18811   2.417   6.696   2.366
 5971SOL    HW118812   2.395   6.793   2.359
 5971SOL    HW218813   2.402   6.666   2.460
 5972SOL     OW18814   4.378   6.106   0.464
 5972SOL    HW118815   4.446   6.073   0.399
 5972SOL    HW218816   4.424   6.156   0.537
 5973SOL     OW18817   1.366   4.138   3.598
 5973SOL    HW118818   1.340   4.198   3.522
 5973SOL    HW218819   1.462   4.152   3.621
 5974SOL     OW18820   0.724   4.128   6.850
 5974SOL    HW118821   0.752   4.083   6.935
 5974SOL    HW218822   0.703   4.059   6.781
 5975SOL     OW18823   2.566   2.838   0.902
 5975SOL    HW118824   2.485   2.781   0.918
 5975SOL    HW218825   2.627   2.791   0.838
 5976SOL     OW18826   3.159   3.160   5.280
 5976SOL    HW118827   3.255   3.188   5.273
 5976SOL    HW218828   3.114   3.214   5.351
 5977SOL     OW18829   0.961   3.368   2.813
 5977SOL    HW118830   0.893   3.371   2.740
 5977SOL    HW218831   0.939   3.294   2.876
 5978SOL     OW18832   4.841   5.764   2.061
 5978SOL    HW118833   4.846   5.677   2.012
 5978SOL    HW218834   4.758   5.812   2.036
 5979SOL     OW18835   0.232   0.516   3.723
 5979SOL    HW118836   0.236   0.595   3.661
 5979SOL    HW218837   0.165   0.450   3.689
 5980SOL     OW18838   6.204   4.140   6.880
 5980SOL    HW118839   6.149   4.121   6.961
 5980SOL    HW218840   6.219   4.238   6.871
 5981SOL     OW18841   4.492   0.929   2.264
 5981SOL    HW118842   4.482   0.875   2.348
 5981SOL    HW218843   4.537   0.873   2.194
 5982SOL     OW18844   6.721   2.135   6.321
 5982SOL    HW118845   6.644   2.116   6.260
 5982SOL    HW218846   6.727   2.233   6.338
 5983SOL     OW18847   1.395   1.309   4.633
 5983SOL    HW118848   1.371   1.262   4.718
 5983SOL    HW218849   1.452   1.249   4.576
 5984SOL     OW18850   0.026   6.837   5.307
 5984SOL    HW118851   7.011   6.922   5.337
 5984SOL    HW218852   0.049   6.781   5.386
 5985SOL     OW18853   4.470   2.205   4.144
 5985SOL    HW118854   4.539   2.275   4.127
 5985SOL    HW218855   4.459   2.147   4.063
 5986SOL     OW18856   3.767   2.988   2.316
 5986SOL    HW118857   3.796   2.893   2.301
 5986SOL    HW218858   3.682   3.005   2.266
 5987SOL     OW18859   3.996   0.251   5.150
 5987SOL    HW118860   3.904   0.252   5.109
 5987SOL    HW218861   4.060   0.299   5.090
 5988SOL     OW18862   3.740   0.274   3.981
 5988SOL    HW118863   3.813   0.295   3.915
 5988SOL    HW218864   3.728   0.175   3.987
 5989SOL     OW18865   2.917   1.037   6.126
 5989SOL    HW118866   2.899   1.135   6.118
 5989SOL    HW218867   2.968   1.006   6.046
 5990SOL     OW18868   3.163   4.678   1.695
 5990SOL    HW118869   3.119   4.703   1.781
 5990SOL    HW218870   3.244   4.623   1.714
 5991SOL     OW18871   2.816   5.097   4.456
 5991SOL    HW118872   2.873   5.017   4.443
 5991SOL    HW218873   2.788   5.104   4.552
 5992SOL     OW18874   4.578   0.601   3.832
 5992SOL    HW118875   4.626   0.566   3.752
 5992SOL    HW218876   4.569   0.700   3.825
 5993SOL     OW18877   2.741   5.677   5.406
 5993SOL    HW118878   2.822   5.735   5.397
 5993SOL    HW218879   2.743   5.631   5.495
 5994SOL     OW18880   0.207   1.917   2.072
 5994SOL    HW118881   0.225   2.011   2.102
 5994SOL    HW218882   0.226   1.909   1.974
 5995SOL     OW18883   0.073   4.617   1.598
 5995SOL    HW118884   0.075   4.693   1.662
 5995SOL    HW218885   0.144   4.550   1.622
 5996SOL     OW18886   0.525   5.208   5.783
 5996SOL    HW118887   0.470   5.129   5.757
 5996SOL    HW218888   0.470   5.291   5.775
 5997SOL     OW18889   0.341   6.517   2.406
 5997SOL    HW118890   0.323   6.431   2.455
 5997SOL    HW218891   0.265   6.580   2.420
 5998SOL     OW18892   5.450   1.889   2.626
 5998SOL    HW118893   5.452   1.971   2.569
 5998SOL    HW218894   5.454   1.808   2.567
 5999SOL     OW18895   1.759   1.259   2.585
 5999SOL    HW118896   1.759   1.168   2.627
 5999SOL    HW218897   1.783   1.327   2.654
 6000SOL     OW18898   4.628   5.878   1.982
 6000SOL    HW118899   4.662   5.972   1.975
 6000SOL    HW218900   4.574   5.856   1.901
 6001SOL     OW18901   6.331   2.468   0.123
 6001SOL    HW118902   6.302   2.460   0.219
 6001SOL    HW218903   6.291   2.550   0.083
 6002SOL     OW18904   1.825   7.026   2.188
 6002SOL    HW118905   1.844   7.013   2.091
 6002SOL    HW218906   1.726   7.021   2.203
 6003SOL     OW18907   4.870   4.127   4.166
 6003SOL    HW118908   4.787   4.182   4.157
 6003SOL    HW218909   4.903   4.132   4.260
 6004SOL     OW18910   0.032   3.722   2.440
 6004SOL    HW118911   7.019   3.796   2.494
 6004SOL    HW218912   0.130   3.738   2.429
 6005SOL     OW18913   3.284   5.885   2.996
 6005SOL    HW118914   3.198   5.905   3.043
 6005SOL    HW218915   3.269   5.882   2.897
 6006SOL     OW18916   2.594   6.241   0.037
 6006SOL    HW118917   2.582   6.178   6.987
 6006SOL    HW218918   2.644   6.195   0.110
 6007SOL     OW18919   5.652   2.816   3.542
 6007SOL    HW118920   5.552   2.820   3.540
 6007SOL    HW218921   5.685   2.871   3.619
 6008SOL     OW18922   3.221   4.864   6.584
 6008SOL    HW118923   3.318   4.852   6.562
 6008SOL    HW218924   3.189   4.788   6.640
 6009SOL     OW18925   3.266   2.094   4.151
 6009SOL    HW118926   3.290   2.129   4.241
 6009SOL    HW218927   3.205   2.016   4.161
 6010SOL     OW18928   1.125   3.614   3.443
 6010SOL    HW118929   1.063   3.561   3.501
 6010SOL    HW218930   1.120   3.711   3.468
 6011SOL     OW18931   5.913   3.059   3.046
 6011SOL    HW118932   5.878   2.965   3.050
 6011SOL    HW218933   5.906   3.101   3.136
 6012SOL     OW18934   6.717   3.397   0.419
 6012SOL    HW118935   6.734   3.321   0.355
 6012SOL    HW218936   6.662   3.467   0.374
 6013SOL     OW18937   5.537   1.038   2.200
 6013SOL    HW118938   5.572   1.037   2.107
 6013SOL    HW218939   5.523   1.132   2.231
 6014SOL     OW18940   5.844   0.448   1.057
 6014SOL    HW118941   5.830   0.509   0.979
 6014SOL    HW218942   5.832   0.500   1.142
 6015SOL     OW18943   5.802   1.705   4.813
 6015SOL    HW118944   5.710   1.694   4.773
 6015SOL    HW218945   5.795   1.704   4.912
 6016SOL     OW18946   2.066   6.832   4.863
 6016SOL    HW118947   2.129   6.885   4.919
 6016SOL    HW218948   2.108   6.814   4.774
 6017SOL     OW18949   6.682   4.777   2.468
 6017SOL    HW118950   6.781   4.768   2.478
 6017SOL    HW218951   6.642   4.687   2.450
 6018SOL     OW18952   2.085   4.439   0.963
 6018SOL    HW118953   2.044   4.508   0.902
 6018SOL    HW218954   2.180   4.463   0.982
 6019SOL     OW18955   3.903   6.900   4.204
 6019SOL    HW118956   3.977   6.963   4.182
 6019SOL    HW218957   3.830   6.910   4.136
 6020SOL     OW18958   3.852   0.575   2.878
 6020SOL    HW118959   3.810   0.615   2.960
 6020SOL    HW218960   3.855   0.475   2.888
 6021SOL     OW18961   4.192   1.071   2.762
 6021SOL    HW118962   4.107   1.018   2.755
 6021SOL    HW218963   4.184   1.152   2.704
 6022SOL     OW18964   4.378   1.906   4.550
 6022SOL    HW118965   4.464   1.855   4.556
 6022SOL    HW218966   4.340   1.917   4.642
 6023SOL     OW18967   6.840   1.341   2.294
 6023SOL    HW118968   6.840   1.341   2.394
 6023SOL    HW218969   6.915   1.284   2.261
 6024SOL     OW18970   0.637   4.663   2.647
 6024SOL    HW118971   0.717   4.675   2.589
 6024SOL    HW218972   0.571   4.735   2.628
 6025SOL     OW18973   4.446   1.955   1.507
 6025SOL    HW118974   4.362   1.901   1.495
 6025SOL    HW218975   4.463   2.010   1.425
 6026SOL     OW18976   0.552   4.824   5.419
 6026SOL    HW118977   0.468   4.783   5.454
 6026SOL    HW218978   0.531   4.908   5.369
 6027SOL     OW18979   3.207   3.800   0.224
 6027SOL    HW118980   3.252   3.715   0.196
 6027SOL    HW218981   3.253   3.877   0.180
 6028SOL     OW18982   1.409   3.693   0.035
 6028SOL    HW118983   1.438   3.737   6.977
 6028SOL    HW218984   1.445   3.745   0.113
 6029SOL     OW18985   1.773   5.586   1.324
 6029SOL    HW118986   1.831   5.581   1.405
 6029SOL    HW218987   1.738   5.679   1.314
 6030SOL     OW18988   2.072   0.523   1.221
 6030SOL    HW118989   1.987   0.543   1.271
 6030SOL    HW218990   2.062   0.551   1.126
 6031SOL     OW18991   4.992   0.261   5.132
 6031SOL    HW118992   4.895   0.283   5.143
 6031SOL    HW218993   5.020   0.197   5.202
 6032SOL     OW18994   0.515   3.448   2.836
 6032SOL    HW118995   0.421   3.441   2.868
 6032SOL    HW218996   0.577   3.451   2.915
 6033SOL     OW18997   1.229   0.643   4.234
 6033SOL    HW118998   1.144   0.601   4.201
 6033SOL    HW218999   1.224   0.652   4.334
 6034SOL     OW19000   1.873   3.925   5.526
 6034SOL    HW119001   1.922   4.006   5.495
 6034SOL    HW219002   1.911   3.844   5.481
 6035SOL     OW19003   6.055   1.160   4.452
 6035SOL    HW119004   6.061   1.258   4.433
 6035SOL    HW219005   6.012   1.114   4.375
 6036SOL     OW19006   6.583   0.150   4.982
 6036SOL    HW119007   6.484   0.144   4.990
 6036SOL    HW219008   6.624   0.149   5.074
 6037SOL     OW19009   6.166   5.439   4.837
 6037SOL    HW119010   6.258   5.476   4.823
 6037SOL    HW219011   6.109   5.459   4.758
 6038SOL     OW19012   4.864   3.754   6.531
 6038SOL    HW119013   4.849   3.718   6.439
 6038SOL    HW219014   4.929   3.696   6.579
 6039SOL     OW19015   3.256   4.073   2.886
 6039SOL    HW119016   3.194   4.042   2.814
 6039SOL    HW219017   3.237   4.022   2.970
 6040SOL     OW19018   0.184   1.695   0.277
 6040SOL    HW119019   0.258   1.647   0.229
 6040SOL    HW219020   0.098   1.682   0.228
 6041SOL     OW19021   0.771   2.710   0.487
 6041SOL    HW119022   0.722   2.668   0.563
 6041SOL    HW219023   0.856   2.660   0.470
 6042SOL     OW19024   4.997   5.373   3.642
 6042SOL    HW119025   5.050   5.449   3.603
 6042SOL    HW219026   4.955   5.403   3.728
 6043SOL     OW19027   0.931   4.537   3.713
 6043SOL    HW119028   0.939   4.457   3.773
 6043SOL    HW219029   1.016   4.590   3.716
 6044SOL     OW19030   1.014   0.455   1.710
 6044SOL    HW119031   1.069   0.372   1.693
 6044SOL    HW219032   0.982   0.455   1.805
 6045SOL     OW19033   0.339   4.165   1.766
 6045SOL    HW119034   0.246   4.180   1.800
 6045SOL    HW219035   0.404   4.168   1.841
 6046SOL     OW19036   2.780   2.861   0.418
 6046SOL    HW119037   2.823   2.919   0.349
 6046SOL    HW219038   2.851   2.822   0.477
 6047SOL     OW19039   6.920   0.072   4.433
 6047SOL    HW119040   6.999   0.099   4.488
 6047SOL    HW219041   6.909   7.000   4.436
 6048SOL     OW19042   4.218   6.343   5.245
 6048SOL    HW119043   4.302   6.330   5.298
 6048SOL    HW219044   4.139   6.315   5.300
 6049SOL     OW19045   6.480   5.091   0.995
 6049SOL    HW119046   6.577   5.113   0.991
 6049SOL    HW219047   6.441   5.092   0.902
 6050SOL     OW19048   5.272   4.424   4.972
 6050SOL    HW119049   5.232   4.431   5.063
 6050SOL    HW219050   5.202   4.396   4.907
 6051SOL     OW19051   1.938   1.620   2.692
 6051SOL    HW119052   2.033   1.643   2.709
 6051SOL    HW219053   1.914   1.536   2.742
 6052SOL     OW19054   6.702   1.152   0.387
 6052SOL    HW119055   6.790   1.118   0.420
 6052SOL    HW219056   6.640   1.163   0.464
 6053SOL     OW19057   1.849   0.068   6.414
 6053SOL    HW119058   1.876   0.037   6.505
 6053SOL    HW219059   1.765   0.121   6.420
 6054SOL     OW19060   2.210   4.765   0.276
 6054SOL    HW119061   2.137   4.721   0.329
 6054SOL    HW219062   2.250   4.840   0.329
 6055SOL     OW19063   4.737   0.429   4.639
 6055SOL    HW119064   4.721   0.362   4.712
 6055SOL    HW219065   4.661   0.494   4.636
 6056SOL     OW19066   4.888   2.162   6.447
 6056SOL    HW119067   4.821   2.088   6.455
 6056SOL    HW219068   4.854   2.231   6.383
 6057SOL     OW19069   3.700   0.991   5.286
 6057SOL    HW119070   3.774   0.933   5.319
 6057SOL    HW219071   3.652   1.033   5.364
 6058SOL     OW19072   5.455   2.216   4.255
 6058SOL    HW119073   5.535   2.166   4.223
 6058SOL    HW219074   5.473   2.255   4.345
 6059SOL     OW19075   6.774   4.997   6.370
 6059SOL    HW119076   6.813   4.915   6.410
 6059SOL    HW219077   6.845   5.047   6.320
 6060SOL     OW19078   4.152   6.107   5.745
 6060SOL    HW119079   4.216   6.107   5.821
 6060SOL    HW219080   4.172   6.185   5.685
 6061SOL     OW19081   2.452   1.800   6.141
 6061SOL    HW119082   2.396   1.839   6.214
 6061SOL    HW219083   2.401   1.727   6.095
 6062SOL     OW19084   2.634   0.002   4.138
 6062SOL    HW119085   2.591   6.940   4.124
 6062SOL    HW219086   2.658   0.043   4.050
 6063SOL     OW19087   4.691   0.441   6.302
 6063SOL    HW119088   4.598   0.446   6.340
 6063SOL    HW219089   4.743   0.521   6.332
 6064SOL     OW19090   1.349   5.581   3.474
 6064SOL    HW119091   1.387   5.490   3.457
 6064SOL    HW219092   1.381   5.614   3.563
 6065SOL     OW19093   0.400   0.397   0.861
 6065SOL    HW119094   0.360   0.366   0.774
 6065SOL    HW219095   0.410   0.497   0.859
 6066SOL     OW19096   4.453   2.671   6.908
 6066SOL    HW119097   4.400   2.736   6.854
 6066SOL    HW219098   4.539   2.715   6.938
 6067SOL     OW19099   6.603   1.914   6.667
 6067SOL    HW119100   6.549   1.996   6.683
 6067SOL    HW219101   6.543   1.833   6.673
 6068SOL     OW19102   4.641   2.698   4.859
 6068SOL    HW119103   4.654   2.616   4.804
 6068SOL    HW219104   4.552   2.693   4.906
 6069SOL     OW19105   6.198   4.292   4.596
 6069SOL    HW119106   6.185   4.239   4.512
 6069SOL    HW219107   6.232   4.383   4.572
 6070SOL     OW19108   4.792   2.171   6.089
 6070SOL    HW119109   4.736   2.253   6.083
 6070SOL    HW219110   4.763   2.116   6.168
 6071SOL     OW19111   4.420   5.998   5.031
 6071SOL    HW119112   4.327   5.963   5.039
 6071SOL    HW219113   4.449   6.035   5.119
 6072SOL     OW19114   0.149   1.608   0.952
 6072SOL    HW119115   0.202   1.627   1.034
 6072SOL    HW219116   0.211   1.585   0.877
 6073SOL     OW19117   6.725   2.673   1.194
 6073SOL    HW119118   6.656   2.685   1.266
 6073SOL    HW219119   6.684   2.625   1.117
 6074SOL     OW19120   0.756   0.439   4.657
 6074SOL    HW119121   0.792   0.368   4.718
 6074SOL    HW219122   0.831   0.495   4.622
 6075SOL     OW19123   5.786   4.236   6.902
 6075SOL    HW119124   5.781   4.165   6.971
 6075SOL    HW219125   5.785   4.195   6.811
 6076SOL     OW19126   1.999   6.212   4.314
 6076SOL    HW119127   1.943   6.201   4.396
 6076SOL    HW219128   2.095   6.195   4.337
 6077SOL     OW19129   5.961   6.334   2.296
 6077SOL    HW119130   5.971   6.307   2.200
 6077SOL    HW219131   5.970   6.253   2.355
 6078SOL     OW19132   2.568   4.512   3.690
 6078SOL    HW119133   2.634   4.587   3.698
 6078SOL    HW219134   2.534   4.507   3.597
 6079SOL     OW19135   2.117   1.642   0.097
 6079SOL    HW119136   2.159   1.733   0.084
 6079SOL    HW219137   2.187   1.578   0.129
 6080SOL     OW19138   5.946   2.504   1.967
 6080SOL    HW119139   5.850   2.497   1.994
 6080SOL    HW219140   5.971   2.600   1.955
 6081SOL     OW19141   0.262   3.603   3.474
 6081SOL    HW119142   0.185   3.538   3.475
 6081SOL    HW219143   0.252   3.665   3.396
 6082SOL     OW19144   4.135   1.480   3.777
 6082SOL    HW119145   4.056   1.462   3.835
 6082SOL    HW219146   4.184   1.560   3.812
 6083SOL     OW19147   1.649   6.525   0.367
 6083SOL    HW119148   1.663   6.553   0.462
 6083SOL    HW219149   1.684   6.595   0.305
 6084SOL     OW19150   0.515   4.808   5.726
 6084SOL    HW119151   0.517   4.807   5.626
 6084SOL    HW219152   0.455   4.735   5.759
 6085SOL     OW19153   5.553   4.104   1.265
 6085SOL    HW119154   5.572   4.084   1.169
 6085SOL    HW219155   5.459   4.135   1.275
 6086SOL     OW19156   3.027   1.729   3.640
 6086SOL    HW119157   3.033   1.643   3.690
 6086SOL    HW219158   2.971   1.794   3.691
 6087SOL     OW19159   4.979   6.846   6.790
 6087SOL    HW119160   4.909   6.784   6.827
 6087SOL    HW219161   4.975   6.933   6.838
 6088SOL     OW19162   1.015   0.059   4.643
 6088SOL    HW119163   1.096   0.040   4.699
 6088SOL    HW219164   0.970   7.001   4.618
 6089SOL     OW19165   0.160   3.718   0.067
 6089SOL    HW119166   0.200   3.636   0.106
 6089SOL    HW219167   0.106   3.694   7.014
 6090SOL     OW19168   0.460   5.986   4.686
 6090SOL    HW119169   0.445   5.924   4.609
 6090SOL    HW219170   0.530   6.053   4.662
 6091SOL     OW19171   6.101   2.018   2.142
 6091SOL    HW119172   6.038   2.066   2.081
 6091SOL    HW219173   6.186   1.997   2.092
 6092SOL     OW19174   2.000   2.100   1.611
 6092SOL    HW119175   1.913   2.051   1.613
 6092SOL    HW219176   2.074   2.037   1.588
 6093SOL     OW19177   0.782   3.060   1.014
 6093SOL    HW119178   0.839   3.133   1.052
 6093SOL    HW219179   0.704   3.044   1.074
 6094SOL     OW19180   1.100   0.683   1.303
 6094SOL    HW119181   1.087   0.592   1.342
 6094SOL    HW219182   1.141   0.675   1.212
 6095SOL     OW19183   6.538   3.803   5.949
 6095SOL    HW119184   6.501   3.721   5.994
 6095SOL    HW219185   6.543   3.788   5.851
 6096SOL     OW19186   3.384   2.006   3.395
 6096SOL    HW119187   3.399   1.907   3.389
 6096SOL    HW219188   3.291   2.027   3.366
 6097SOL     OW19189   2.879   2.271   2.315
 6097SOL    HW119190   2.977   2.258   2.330
 6097SOL    HW219191   2.865   2.335   2.240
 6098SOL     OW19192   2.117   2.034   5.796
 6098SOL    HW119193   2.100   2.066   5.890
 6098SOL    HW219194   2.216   2.023   5.782
 6099SOL     OW19195   5.918   5.594   5.035
 6099SOL    HW119196   5.874   5.649   4.964
 6099SOL    HW219197   5.938   5.503   4.998
 6100SOL     OW19198   6.662   3.015   0.178
 6100SOL    HW119199   6.678   2.926   0.135
 6100SOL    HW219200   6.749   3.061   0.194
 6101SOL     OW19201   6.249   1.538   5.136
 6101SOL    HW119202   6.282   1.553   5.043
 6101SOL    HW219203   6.229   1.440   5.148
 6102SOL     OW19204   2.845   0.377   5.452
 6102SOL    HW119205   2.814   0.472   5.446
 6102SOL    HW219206   2.943   0.373   5.431
 6103SOL     OW19207   6.125   6.570   6.007
 6103SOL    HW119208   6.051   6.504   6.023
 6103SOL    HW219209   6.133   6.631   6.085
 6104SOL     OW19210   0.406   2.478   6.774
 6104SOL    HW119211   0.433   2.556   6.830
 6104SOL    HW219212   0.340   2.422   6.824
 6105SOL     OW19213   3.485   6.143   4.260
 6105SOL    HW119214   3.555   6.173   4.196
 6105SOL    HW219215   3.404   6.202   4.251
 6106SOL     OW19216   3.072   5.531   5.104
 6106SOL    HW119217   2.976   5.538   5.131
 6106SOL    HW219218   3.100   5.615   5.058
 6107SOL     OW19219   2.297   4.628   5.537
 6107SOL    HW119220   2.330   4.665   5.450
 6107SOL    HW219221   2.285   4.529   5.530
 6108SOL     OW19222   0.499   2.500   5.091
 6108SOL    HW119223   0.482   2.513   4.994
 6108SOL    HW219224   0.431   2.551   5.144
 6109SOL     OW19225   6.557   4.491   1.273
 6109SOL    HW119226   6.504   4.507   1.189
 6109SOL    HW219227   6.654   4.495   1.252
 6110SOL     OW19228   3.058   1.286   4.499
 6110SOL    HW119229   3.068   1.377   4.540
 6110SOL    HW219230   2.971   1.282   4.449
 6111SOL     OW19231   1.720   4.731   2.974
 6111SOL    HW119232   1.691   4.822   2.943
 6111SOL    HW219233   1.673   4.709   3.059
 6112SOL     OW19234   0.542   1.826   2.143
 6112SOL    HW119235   0.470   1.810   2.075
 6112SOL    HW219236   0.598   1.743   2.151
 6113SOL     OW19237   1.521   6.342   5.634
 6113SOL    HW119238   1.546   6.253   5.672
 6113SOL    HW219239   1.553   6.414   5.695
 6114SOL     OW19240   4.969   5.841   0.530
 6114SOL    HW119241   5.060   5.810   0.504
 6114SOL    HW219242   4.962   5.846   0.630
 6115SOL     OW19243   5.730   5.152   2.406
 6115SOL    HW119244   5.700   5.247   2.408
 6115SOL    HW219245   5.670   5.099   2.346
 6116SOL     OW19246   4.469   0.882   1.748
 6116SOL    HW119247   4.557   0.902   1.791
 6116SOL    HW219248   4.438   0.791   1.776
 6117SOL     OW19249   4.919   0.593   4.971
 6117SOL    HW119250   4.838   0.589   4.912
 6117SOL    HW219251   4.890   0.591   5.067
 6118SOL     OW19252   5.998   0.325   3.250
 6118SOL    HW119253   6.016   0.402   3.311
 6118SOL    HW219254   5.899   0.310   3.242
 6119SOL     OW19255   0.134   5.355   4.309
 6119SOL    HW119256   0.228   5.382   4.287
 6119SOL    HW219257   0.133   5.311   4.399
 6120SOL     OW19258   2.727   1.073   3.044
 6120SOL    HW119259   2.731   1.171   3.022
 6120SOL    HW219260   2.632   1.046   3.059
 6121SOL     OW19261   6.686   2.434   4.429
 6121SOL    HW119262   6.684   2.502   4.502
 6121SOL    HW219263   6.769   2.378   4.438
 6122SOL     OW19264   4.600   5.466   3.230
 6122SOL    HW119265   4.586   5.381   3.180
 6122SOL    HW219266   4.654   5.448   3.313
 6123SOL     OW19267   5.920   1.001   2.225
 6123SOL    HW119268   5.926   0.928   2.294
 6123SOL    HW219269   5.874   1.080   2.265
 6124SOL     OW19270   3.603   0.775   5.620
 6124SOL    HW119271   3.613   0.677   5.601
 6124SOL    HW219272   3.673   0.803   5.685
 6125SOL     OW19273   2.028   5.902   1.485
 6125SOL    HW119274   1.951   5.885   1.547
 6125SOL    HW219275   2.005   5.978   1.424
 6126SOL     OW19276   5.292   5.531   2.741
 6126SOL    HW119277   5.314   5.472   2.819
 6126SOL    HW219278   5.210   5.585   2.763
 6127SOL     OW19279   2.353   5.170   1.902
 6127SOL    HW119280   2.428   5.231   1.926
 6127SOL    HW219281   2.320   5.123   1.984
 6128SOL     OW19282   5.477   1.683   0.687
 6128SOL    HW119283   5.427   1.660   0.604
 6128SOL    HW219284   5.438   1.767   0.727
 6129SOL     OW19285   6.173   4.835   3.784
 6129SOL    HW119286   6.223   4.865   3.702
 6129SOL    HW219287   6.082   4.875   3.784
 6130SOL     OW19288   5.181   3.373   2.535
 6130SOL    HW119289   5.207   3.419   2.450
 6130SOL    HW219290   5.258   3.372   2.598
 6131SOL     OW19291   6.603   1.036   5.200
 6131SOL    HW119292   6.555   0.953   5.228
 6131SOL    HW219293   6.661   1.016   5.121
 6132SOL     OW19294   5.672   2.545   0.800
 6132SOL    HW119295   5.684   2.544   0.701
 6132SOL    HW219296   5.753   2.508   0.844
 6133SOL     OW19297   0.825   4.166   0.548
 6133SOL    HW119298   0.835   4.157   0.449
 6133SOL    HW219299   0.913   4.189   0.589
 6134SOL     OW19300   4.594   3.619   6.168
 6134SOL    HW119301   4.518   3.604   6.104
 6134SOL    HW219302   4.567   3.687   6.236
 6135SOL     OW19303   5.511   6.913   1.135
 6135SOL    HW119304   5.598   6.892   1.181
 6135SOL    HW219305   5.478   6.831   1.089
 6136SOL     OW19306   0.636   1.814   1.402
 6136SOL    HW119307   0.685   1.840   1.319
 6136SOL    HW219308   0.636   1.891   1.466
 6137SOL     OW19309   2.647   6.958   6.300
 6137SOL    HW119310   2.577   7.025   6.275
 6137SOL    HW219311   2.626   6.920   6.390
 6138SOL     OW19312   4.505   0.360   2.710
 6138SOL    HW119313   4.406   0.363   2.726
 6138SOL    HW219314   4.539   0.268   2.725
 6139SOL     OW19315   1.917   4.747   4.044
 6139SOL    HW119316   1.978   4.669   4.052
 6139SOL    HW219317   1.876   4.767   4.133
 6140SOL     OW19318   1.978   6.672   1.236
 6140SOL    HW119319   1.967   6.701   1.331
 6140SOL    HW219320   2.064   6.709   1.200
 6141SOL     OW19321   6.488   6.163   6.219
 6141SOL    HW119322   6.560   6.232   6.225
 6141SOL    HW219323   6.405   6.206   6.181
 6142SOL     OW19324   0.373   4.357   1.998
 6142SOL    HW119325   0.279   4.387   1.980
 6142SOL    HW219326   0.413   4.416   2.068
 6143SOL     OW19327   6.201   5.325   6.377
 6143SOL    HW119328   6.228   5.367   6.463
 6143SOL    HW219329   6.140   5.247   6.395
 6144SOL     OW19330   0.619   4.465   3.957
 6144SOL    HW119331   0.694   4.518   3.916
 6144SOL    HW219332   0.607   4.494   4.052
 6145SOL     OW19333   5.415   6.271   3.562
 6145SOL    HW119334   5.424   6.235   3.469
 6145SOL    HW219335   5.483   6.228   3.621
 6146SOL     OW19336   5.550   1.154   3.027
 6146SOL    HW119337   5.608   1.133   2.949
 6146SOL    HW219338   5.566   1.088   3.100
 6147SOL     OW19339   1.761   3.506   3.448
 6147SOL    HW119340   1.783   3.409   3.455
 6147SOL    HW219341   1.686   3.518   3.383
 6148SOL     OW19342   6.438   6.818   4.801
 6148SOL    HW119343   6.375   6.791   4.728
 6148SOL    HW219344   6.475   6.908   4.781
 6149SOL     OW19345   2.049   6.646   3.871
 6149SOL    HW119346   1.954   6.658   3.898
 6149SOL    HW219347   2.075   6.549   3.881
 6150SOL     OW19348   4.703   5.238   5.881
 6150SOL    HW119349   4.609   5.263   5.858
 6150SOL    HW219350   4.705   5.190   5.969
 6151SOL     OW19351   5.195   2.586   5.665
 6151SOL    HW119352   5.258   2.544   5.600
 6151SOL    HW219353   5.228   2.678   5.688
 6152SOL     OW19354   6.831   4.682   6.869
 6152SOL    HW119355   6.756   4.698   6.805
 6152SOL    HW219356   6.911   4.650   6.819
 6153SOL     OW19357   4.586   3.199   1.021
 6153SOL    HW119358   4.648   3.142   1.074
 6153SOL    HW219359   4.632   3.283   0.995
 6154SOL     OW19360   5.328   3.291   2.756
 6154SOL    HW119361   5.344   3.210   2.700
 6154SOL    HW219362   5.291   3.264   2.844
 6155SOL     OW19363   0.684   4.165   4.825
 6155SOL    HW119364   0.706   4.100   4.752
 6155SOL    HW219365   0.635   4.116   4.898
 6156SOL     OW19366   6.579   0.411   3.332
 6156SOL    HW119367   6.520   0.384   3.256
 6156SOL    HW219368   6.572   0.510   3.346
 6157SOL     OW19369   2.167   1.593   3.699
 6157SOL    HW119370   2.207   1.530   3.632
 6157SOL    HW219371   2.173   1.687   3.666
 6158SOL     OW19372   4.877   0.865   6.931
 6158SOL    HW119373   4.974   0.872   6.949
 6158SOL    HW219374   4.859   0.888   6.835
 6159SOL     OW19375   5.260   3.436   6.798
 6159SOL    HW119376   5.255   3.475   6.706
 6159SOL    HW219377   5.247   3.508   6.866
 6160SOL     OW19378   6.024   5.869   1.713
 6160SOL    HW119379   6.105   5.814   1.693
 6160SOL    HW219380   6.039   5.920   1.798
 6161SOL     OW19381   5.863   0.664   5.858
 6161SOL    HW119382   5.838   0.707   5.771
 6161SOL    HW219383   5.961   0.648   5.860
 6162SOL     OW19384   6.390   5.236   3.968
 6162SOL    HW119385   6.473   5.267   3.922
 6162SOL    HW219386   6.321   5.211   3.901
 6163SOL     OW19387   6.528   4.240   1.976
 6163SOL    HW119388   6.472   4.162   1.949
 6163SOL    HW219389   6.469   4.319   1.993
 6164SOL     OW19390   4.158   2.672   0.453
 6164SOL    HW119391   4.157   2.731   0.534
 6164SOL    HW219392   4.069   2.677   0.407
 6165SOL     OW19393   4.256   6.007   6.881
 6165SOL    HW119394   4.250   6.084   6.817
 6165SOL    HW219395   4.223   6.036   6.971
 6166SOL     OW19396   3.318   1.919   5.893
 6166SOL    HW119397   3.333   1.923   5.992
 6166SOL    HW219398   3.370   1.991   5.848
 6167SOL     OW19399   6.660   4.321   3.709
 6167SOL    HW119400   6.652   4.251   3.638
 6167SOL    HW219401   6.613   4.289   3.792
 6168SOL     OW19402   0.373   2.986   2.702
 6168SOL    HW119403   0.288   3.028   2.670
 6168SOL    HW219404   0.353   2.897   2.743
 6169SOL     OW19405   2.208   4.164   2.222
 6169SOL    HW119406   2.202   4.094   2.151
 6169SOL    HW219407   2.264   4.240   2.190
 6170SOL     OW19408   6.883   3.347   4.661
 6170SOL    HW119409   6.884   3.250   4.635
 6170SOL    HW219410   6.889   3.403   4.579
 6171SOL     OW19411   0.379   0.734   6.183
 6171SOL    HW119412   0.282   0.715   6.170
 6171SOL    HW219413   0.432   0.698   6.106
 6172SOL     OW19414   0.736   3.472   3.682
 6172SOL    HW119415   0.828   3.438   3.663
 6172SOL    HW219416   0.681   3.470   3.598
 6173SOL     OW19417   6.670   6.324   3.631
 6173SOL    HW119418   6.651   6.234   3.669
 6173SOL    HW219419   6.733   6.373   3.692
 6174SOL     OW19420   5.954   4.270   2.314
 6174SOL    HW119421   5.941   4.306   2.407
 6174SOL    HW219422   5.939   4.343   2.247
 6175SOL     OW19423   3.276   2.351   5.734
 6175SOL    HW119424   3.238   2.285   5.669
 6175SOL    HW219425   3.283   2.441   5.689
 6176SOL     OW19426   4.885   4.058   6.090
 6176SOL    HW119427   4.840   4.094   6.171
 6176SOL    HW219428   4.826   4.072   6.010
 6177SOL     OW19429   6.239   1.058   1.595
 6177SOL    HW119430   6.238   0.970   1.642
 6177SOL    HW219431   6.211   1.130   1.658
 6178SOL     OW19432   3.805   4.531   1.434
 6178SOL    HW119433   3.716   4.532   1.389
 6178SOL    HW219434   3.793   4.548   1.532
 6179SOL     OW19435   5.907   4.878   3.758
 6179SOL    HW119436   5.850   4.959   3.748
 6179SOL    HW219437   5.860   4.799   3.718
 6180SOL     OW19438   2.976   4.046   0.229
 6180SOL    HW119439   2.929   4.117   0.177
 6180SOL    HW219440   2.925   3.961   0.222
 6181SOL     OW19441   6.116   5.886   6.529
 6181SOL    HW119442   6.129   5.831   6.611
 6181SOL    HW219443   6.025   5.927   6.530
 6182SOL     OW19444   3.529   2.597   0.533
 6182SOL    HW119445   3.474   2.678   0.515
 6182SOL    HW219446   3.472   2.527   0.577
 6183SOL     OW19447   0.610   0.203   0.557
 6183SOL    HW119448   0.606   0.188   0.655
 6183SOL    HW219449   0.562   0.288   0.534
 6184SOL     OW19450   2.320   0.385   5.549
 6184SOL    HW119451   2.387   0.311   5.545
 6184SOL    HW219452   2.366   0.473   5.540
 6185SOL     OW19453   3.871   2.846   5.577
 6185SOL    HW119454   3.892   2.758   5.535
 6185SOL    HW219455   3.932   2.916   5.542
 6186SOL     OW19456   0.049   1.910   1.643
 6186SOL    HW119457   6.991   1.938   1.687
 6186SOL    HW219458   0.039   1.915   1.544
 6187SOL     OW19459   5.447   1.476   6.005
 6187SOL    HW119460   5.404   1.561   5.974
 6187SOL    HW219461   5.385   1.400   5.990
 6188SOL     OW19462   1.470   1.806   4.879
 6188SOL    HW119463   1.372   1.816   4.894
 6188SOL    HW219464   1.489   1.716   4.838
 6189SOL     OW19465   6.280   6.560   1.346
 6189SOL    HW119466   6.263   6.618   1.426
 6189SOL    HW219467   6.227   6.593   1.268
 6190SOL     OW19468   0.530   3.115   5.111
 6190SOL    HW119469   0.520   3.117   5.012
 6190SOL    HW219470   0.604   3.052   5.135
 6191SOL     OW19471   4.013   3.729   0.229
 6191SOL    HW119472   3.926   3.749   0.275
 6191SOL    HW219473   4.056   3.650   0.272
 6192SOL     OW19474   2.941   1.605   0.513
 6192SOL    HW119475   2.865   1.670   0.521
 6192SOL    HW219476   2.904   1.512   0.513
 6193SOL     OW19477   4.615   5.666   6.779
 6193SOL    HW119478   4.575   5.702   6.863
 6193SOL    HW219479   4.712   5.649   6.793
 6194SOL     OW19480   5.824   6.738   6.256
 6194SOL    HW119481   5.724   6.747   6.248
 6194SOL    HW219482   5.868   6.804   6.195
 6195SOL     OW19483   6.661   6.376   6.208
 6195SOL    HW119484   6.640   6.474   6.204
 6195SOL    HW219485   6.754   6.363   6.242
 6196SOL     OW19486   6.109   3.827   3.163
 6196SOL    HW119487   6.142   3.772   3.086
 6196SOL    HW219488   6.134   3.782   3.249
 6197SOL     OW19489   2.435   5.472   1.900
 6197SOL    HW119490   2.518   5.474   1.956
 6197SOL    HW219491   2.405   5.565   1.881
 6198SOL     OW19492   6.339   0.875   0.021
 6198SOL    HW119493   6.355   0.909   0.114
 6198SOL    HW219494   6.275   0.935   7.001
 6199SOL     OW19495   1.296   0.130   6.638
 6199SOL    HW119496   1.359   0.070   6.688
 6199SOL    HW219497   1.245   0.186   6.704
 6200SOL     OW19498   1.911   1.766   2.036
 6200SOL    HW119499   1.990   1.724   1.991
 6200SOL    HW219500   1.882   1.845   1.982
 6201SOL     OW19501   7.025   4.233   3.575
 6201SOL    HW119502   7.002   4.164   3.644
 6201SOL    HW219503   0.091   4.218   3.543
 6202SOL     OW19504   6.105   1.540   2.492
 6202SOL    HW119505   6.082   1.604   2.565
 6202SOL    HW219506   6.175   1.477   2.524
 6203SOL     OW19507   6.765   0.109   1.508
 6203SOL    HW119508   6.831   0.149   1.571
 6203SOL    HW219509   6.726   0.026   1.548
 6204SOL     OW19510   1.850   0.127   4.949
 6204SOL    HW119511   1.839   0.103   4.853
 6204SOL    HW219512   1.939   0.169   4.963
 6205SOL     OW19513   5.216   4.793   3.428
 6205SOL    HW119514   5.218   4.760   3.523
 6205SOL    HW219515   5.145   4.862   3.418
 6206SOL     OW19516   5.980   1.536   4.650
 6206SOL    HW119517   5.898   1.484   4.629
 6206SOL    HW219518   5.955   1.619   4.701
 6207SOL     OW19519   2.171   4.611   4.674
 6207SOL    HW119520   2.167   4.511   4.669
 6207SOL    HW219521   2.079   4.649   4.666
 6208SOL     OW19522   3.949   3.711   5.915
 6208SOL    HW119523   3.943   3.627   5.862
 6208SOL    HW219524   3.987   3.784   5.857
 6209SOL     OW19525   3.273   2.456   1.418
 6209SOL    HW119526   3.330   2.413   1.489
 6209SOL    HW219527   3.225   2.385   1.367
 6210SOL     OW19528   4.687   2.373   4.092
 6210SOL    HW119529   4.712   2.380   4.189
 6210SOL    HW219530   4.719   2.454   4.043
 6211SOL     OW19531   5.498   4.512   5.373
 6211SOL    HW119532   5.557   4.446   5.327
 6211SOL    HW219533   5.405   4.475   5.380
 6212SOL     OW19534   4.459   5.676   4.772
 6212SOL    HW119535   4.536   5.613   4.762
 6212SOL    HW219536   4.485   5.766   4.736
 6213SOL     OW19537   4.197   6.054   0.121
 6213SOL    HW119538   4.199   6.142   0.168
 6213SOL    HW219539   4.258   5.989   0.167
 6214SOL     OW19540   6.841   5.875   6.241
 6214SOL    HW119541   6.865   5.914   6.330
 6214SOL    HW219542   6.742   5.861   6.236
 6215SOL     OW19543   5.591   2.592   5.620
 6215SOL    HW119544   5.511   2.579   5.561
 6215SOL    HW219545   5.653   2.515   5.610
 6216SOL     OW19546   4.807   1.878   3.530
 6216SOL    HW119547   4.837   1.866   3.624
 6216SOL    HW219548   4.707   1.884   3.527
 6217SOL     OW19549   0.274   4.382   3.103
 6217SOL    HW119550   0.220   4.313   3.152
 6217SOL    HW219551   0.353   4.339   3.059
 6218SOL     OW19552   4.571   6.451   0.224
 6218SOL    HW119553   4.580   6.517   0.150
 6218SOL    HW219554   4.629   6.477   0.301
 6219SOL     OW19555   2.068   1.159   6.035
 6219SOL    HW119556   2.038   1.186   6.127
 6219SOL    HW219557   2.121   1.234   5.994
 6220SOL     OW19558   3.412   6.923   0.587
 6220SOL    HW119559   3.378   6.945   0.678
 6220SOL    HW219560   3.512   6.927   0.587
 6221SOL     OW19561   5.760   5.291   6.809
 6221SOL    HW119562   5.677   5.280   6.755
 6221SOL    HW219563   5.836   5.246   6.763
 6222SOL     OW19564   6.403   1.584   1.899
 6222SOL    HW119565   6.350   1.499   1.901
 6222SOL    HW219566   6.341   1.661   1.884
 6223SOL     OW19567   0.245   4.665   4.161
 6223SOL    HW119568   0.267   4.722   4.241
 6223SOL    HW219569   0.175   4.710   4.107
 6224SOL     OW19570   4.211   0.661   0.227
 6224SOL    HW119571   4.204   0.562   0.216
 6224SOL    HW219572   4.129   0.694   0.274
 6225SOL     OW19573   4.779   6.305   6.445
 6225SOL    HW119574   4.878   6.315   6.435
 6225SOL    HW219575   4.734   6.393   6.426
 6226SOL     OW19576   1.438   1.477   5.138
 6226SOL    HW119577   1.514   1.513   5.083
 6226SOL    HW219578   1.355   1.477   5.083
 6227SOL     OW19579   2.641   4.553   5.308
 6227SOL    HW119580   2.646   4.516   5.401
 6227SOL    HW219581   2.730   4.546   5.264
 6228SOL     OW19582   0.895   2.884   3.304
 6228SOL    HW119583   0.826   2.879   3.231
 6228SOL    HW219584   0.986   2.881   3.264
 6229SOL     OW19585   0.432   3.189   4.303
 6229SOL    HW119586   0.369   3.245   4.250
 6229SOL    HW219587   0.494   3.248   4.355
 6230SOL     OW19588   0.112   0.569   1.816
 6230SOL    HW119589   0.112   0.490   1.754
 6230SOL    HW219590   0.039   0.632   1.789
 6231SOL     OW19591   1.769   5.128   0.072
 6231SOL    HW119592   1.801   5.208   0.121
 6231SOL    HW219593   1.808   5.045   0.113
 6232SOL     OW19594   3.867   0.854   6.673
 6232SOL    HW119595   3.942   0.882   6.613
 6232SOL    HW219596   3.844   0.929   6.735
 6233SOL     OW19597   6.568   3.031   1.846
 6233SOL    HW119598   6.640   3.066   1.787
 6233SOL    HW219599   6.555   2.934   1.829
 6234SOL     OW19600   4.951   6.003   4.565
 6234SOL    HW119601   4.853   5.985   4.575
 6234SOL    HW219602   5.003   5.934   4.616
 6235SOL     OW19603   6.864   0.281   2.763
 6235SOL    HW119604   6.777   0.281   2.813
 6235SOL    HW219605   6.907   0.370   2.773
 6236SOL     OW19606   0.118   6.200   1.353
 6236SOL    HW119607   0.144   6.104   1.363
 6236SOL    HW219608   0.190   6.248   1.304
 6237SOL     OW19609   3.228   1.904   0.786
 6237SOL    HW119610   3.209   1.817   0.739
 6237SOL    HW219611   3.308   1.893   0.845
 6238SOL     OW19612   2.123   0.617   4.090
 6238SOL    HW119613   2.061   0.539   4.086
 6238SOL    HW219614   2.071   0.702   4.086
 6239SOL     OW19615   4.457   1.300   4.147
 6239SOL    HW119616   4.394   1.356   4.092
 6239SOL    HW219617   4.423   1.206   4.152
 6240SOL     OW19618   3.741   2.989   3.973
 6240SOL    HW119619   3.696   2.978   3.885
 6240SOL    HW219620   3.692   2.935   4.042
 6241SOL     OW19621   3.200   0.467   3.389
 6241SOL    HW119622   3.110   0.446   3.349
 6241SOL    HW219623   3.248   0.382   3.409
 6242SOL     OW19624   2.527   2.077   3.329
 6242SOL    HW119625   2.600   2.031   3.278
 6242SOL    HW219626   2.562   2.162   3.368
 6243SOL     OW19627   4.790   1.705   6.346
 6243SOL    HW119628   4.811   1.755   6.262
 6243SOL    HW219629   4.844   1.742   6.421
 6244SOL     OW19630   5.275   3.547   2.322
 6244SOL    HW119631   5.271   3.645   2.340
 6244SOL    HW219632   5.229   3.528   2.235
 6245SOL     OW19633   0.118   4.426   2.347
 6245SOL    HW119634   0.036   4.481   2.328
 6245SOL    HW219635   0.098   4.330   2.328
 6246SOL     OW19636   6.674   0.162   3.878
 6246SOL    HW119637   6.764   0.131   3.847
 6246SOL    HW219638   6.642   0.103   3.952
 6247SOL     OW19639   6.450   6.733   4.076
 6247SOL    HW119640   6.352   6.723   4.058
 6247SOL    HW219641   6.463   6.771   4.168
 6248SOL     OW19642   3.794   2.687   5.894
 6248SOL    HW119643   3.833   2.735   5.816
 6248SOL    HW219644   3.712   2.636   5.865
 6249SOL     OW19645   5.950   2.970   1.973
 6249SOL    HW119646   5.966   2.922   1.887
 6249SOL    HW219647   5.984   3.063   1.967
 6250SOL     OW19648   6.221   0.527   6.973
 6250SOL    HW119649   6.129   0.553   6.942
 6250SOL    HW219650   6.236   0.561   0.038
 6251SOL     OW19651   3.001   0.072   3.922
 6251SOL    HW119652   3.001   7.014   3.869
 6251SOL    HW219653   3.088   0.080   3.972
 6252SOL     OW19654   3.041   5.605   6.489
 6252SOL    HW119655   3.089   5.676   6.542
 6252SOL    HW219656   2.943   5.611   6.508
 6253SOL     OW19657   3.585   5.696   4.665
 6253SOL    HW119658   3.560   5.671   4.571
 6253SOL    HW219659   3.667   5.753   4.664
 6254SOL     OW19660   0.274   0.040   1.319
 6254SOL    HW119661   0.244   0.135   1.329
 6254SOL    HW219662   0.214   7.007   1.372
 6255SOL     OW19663   0.555   1.318   1.477
 6255SOL    HW119664   0.654   1.334   1.484
 6255SOL    HW219665   0.537   1.220   1.478
 6256SOL     OW19666   5.357   6.578   2.360
 6256SOL    HW119667   5.347   6.532   2.272
 6256SOL    HW219668   5.279   6.557   2.418
 6257SOL     OW19669   3.310   3.734   1.245
 6257SOL    HW119670   3.370   3.796   1.296
 6257SOL    HW219671   3.320   3.751   1.147
 6258SOL     OW19672   4.428   5.349   5.002
 6258SOL    HW119673   4.450   5.327   5.097
 6258SOL    HW219674   4.345   5.300   4.974
 6259SOL     OW19675   3.395   0.588   4.532
 6259SOL    HW119676   3.338   0.670   4.527
 6259SOL    HW219677   3.481   0.605   4.485
 6260SOL     OW19678   1.546   1.037   6.945
 6260SOL    HW119679   1.482   0.986   6.889
 6260SOL    HW219680   1.509   1.049   0.010
 6261SOL     OW19681   3.641   0.039   0.907
 6261SOL    HW119682   3.575   6.993   0.922
 6261SOL    HW219683   3.726   0.001   0.871
 6262SOL     OW19684   5.320   0.541   2.228
 6262SOL    HW119685   5.314   0.442   2.240
 6262SOL    HW219686   5.410   0.564   2.191
 6263SOL     OW19687   5.764   6.065   5.690
 6263SOL    HW119688   5.767   6.036   5.594
 6263SOL    HW219689   5.809   5.996   5.746
 6264SOL     OW19690   2.270   6.377   0.088
 6264SOL    HW119691   2.247   6.380   7.018
 6264SOL    HW219692   2.357   6.330   0.101
 6265SOL     OW19693   4.869   0.134   6.490
 6265SOL    HW119694   4.822   0.167   6.409
 6265SOL    HW219695   4.832   0.179   6.571
 6266SOL     OW19696   2.728   5.015   3.290
 6266SOL    HW119697   2.699   4.923   3.316
 6266SOL    HW219698   2.787   5.009   3.209
 6267SOL     OW19699   2.368   6.483   4.838
 6267SOL    HW119700   2.348   6.492   4.740
 6267SOL    HW219701   2.282   6.478   4.889
 6268SOL     OW19702   3.166   1.593   1.124
 6268SOL    HW119703   3.208   1.503   1.140
 6268SOL    HW219704   3.119   1.623   1.207
 6269SOL     OW19705   6.329   4.953   0.100
 6269SOL    HW119706   6.375   4.913   0.021
 6269SOL    HW219707   6.231   4.961   0.082
 6270SOL     OW19708   1.936   6.039   0.463
 6270SOL    HW119709   1.919   6.137   0.474
 6270SOL    HW219710   1.850   5.989   0.477
 6271SOL     OW19711   6.401   3.343   5.618
 6271SOL    HW119712   6.345   3.326   5.537
 6271SOL    HW219713   6.353   3.313   5.700
 6272SOL     OW19714   0.037   0.238   0.095
 6272SOL    HW119715   0.022   0.142   0.118
 6272SOL    HW219716   7.024   0.296   0.166
 6273SOL     OW19717   0.977   6.442   1.488
 6273SOL    HW119718   0.897   6.475   1.437
 6273SOL    HW219719   0.983   6.490   1.575
 6274SOL     OW19720   3.214   5.291   3.688
 6274SOL    HW119721   3.218   5.258   3.593
 6274SOL    HW219722   3.164   5.225   3.744
 6275SOL     OW19723   2.304   5.664   6.893
 6275SOL    HW119724   2.227   5.699   6.840
 6275SOL    HW219725   2.310   5.565   6.881
 6276SOL     OW19726   2.009   5.065   2.791
 6276SOL    HW119727   2.104   5.095   2.782
 6276SOL    HW219728   1.976   5.087   2.882
 6277SOL     OW19729   5.487   3.019   1.265
 6277SOL    HW119730   5.436   3.055   1.344
 6277SOL    HW219731   5.570   3.073   1.252
 6278SOL     OW19732   3.006   1.982   0.031
 6278SOL    HW119733   3.039   1.926   6.982
 6278SOL    HW219734   3.035   2.077   0.018
 6279SOL     OW19735   3.053   6.760   2.063
 6279SOL    HW119736   3.115   6.737   1.988
 6279SOL    HW219737   2.967   6.710   2.052
 6280SOL     OW19738   5.496   2.654   6.438
 6280SOL    HW119739   5.545   2.598   6.372
 6280SOL    HW219740   5.560   2.716   6.483
 6281SOL     OW19741   5.822   3.988   5.900
 6281SOL    HW119742   5.826   3.988   5.800
 6281SOL    HW219743   5.829   3.895   5.934
 6282SOL     OW19744   6.788   3.245   6.163
 6282SOL    HW119745   6.784   3.197   6.251
 6282SOL    HW219746   6.776   3.343   6.177
 6283SOL     OW19747   1.698   6.424   4.695
 6283SOL    HW119748   1.651   6.501   4.652
 6283SOL    HW219749   1.630   6.358   4.728
 6284SOL     OW19750   1.310   4.020   5.088
 6284SOL    HW119751   1.372   4.040   5.163
 6284SOL    HW219752   1.257   4.101   5.065
 6285SOL     OW19753   1.559   3.615   3.296
 6285SOL    HW119754   1.541   3.713   3.291
 6285SOL    HW219755   1.524   3.570   3.214
 6286SOL     OW19756   0.164   2.427   0.146
 6286SOL    HW119757   0.211   2.485   0.213
 6286SOL    HW219758   0.222   2.349   0.123
 6287SOL     OW19759   4.715   5.059   5.103
 6287SOL    HW119760   4.747   5.153   5.089
 6287SOL    HW219761   4.780   5.010   5.161
 6288SOL     OW19762   3.194   4.192   6.639
 6288SOL    HW119763   3.274   4.209   6.581
 6288SOL    HW219764   3.161   4.099   6.624
 6289SOL     OW19765   2.274   4.264   6.234
 6289SOL    HW119766   2.255   4.169   6.258
 6289SOL    HW219767   2.372   4.274   6.216
 6290SOL     OW19768   6.166   6.200   4.657
 6290SOL    HW119769   6.183   6.293   4.625
 6290SOL    HW219770   6.209   6.187   4.746
 6291SOL     OW19771   4.130   3.262   3.046
 6291SOL    HW119772   4.149   3.332   3.116
 6291SOL    HW219773   4.128   3.305   2.956
 6292SOL     OW19774   2.142   3.760   4.389
 6292SOL    HW119775   2.044   3.739   4.380
 6292SOL    HW219776   2.195   3.676   4.377
 6293SOL     OW19777   3.108   1.179   6.743
 6293SOL    HW119778   3.187   1.161   6.685
 6293SOL    HW219779   3.024   1.160   6.693
 6294SOL     OW19780   1.872   1.256   2.326
 6294SOL    HW119781   1.859   1.341   2.275
 6294SOL    HW219782   1.811   1.255   2.406
 6295SOL     OW19783   5.039   3.479   6.376
 6295SOL    HW119784   4.974   3.436   6.440
 6295SOL    HW219785   4.990   3.543   6.317
 6296SOL     OW19786   1.141   3.297   0.161
 6296SOL    HW119787   1.153   3.200   0.141
 6296SOL    HW219788   1.227   3.335   0.194
 6297SOL     OW19789   5.773   1.369   4.585
 6297SOL    HW119790   5.683   1.394   4.550
 6297SOL    HW219791   5.813   1.299   4.527
 6298SOL     OW19792   6.734   5.863   0.872
 6298SOL    HW119793   6.728   5.889   0.969
 6298SOL    HW219794   6.642   5.848   0.836
 6299SOL     OW19795   3.840   1.397   3.544
 6299SOL    HW119796   3.796   1.390   3.454
 6299SOL    HW219797   3.891   1.482   3.549
 6300SOL     OW19798   2.676   1.417   6.780
 6300SOL    HW119799   2.763   1.453   6.816
 6300SOL    HW219800   2.622   1.378   6.855
 6301SOL     OW19801   4.038   6.394   6.980
 6301SOL    HW119802   4.043   6.294   6.974
 6301SOL    HW219803   4.044   6.421   0.049
 6302SOL     OW19804   3.422   2.736   6.333
 6302SOL    HW119805   3.492   2.805   6.348
 6302SOL    HW219806   3.372   2.720   6.419
 6303SOL     OW19807   0.402   5.597   4.904
 6303SOL    HW119808   0.342   5.667   4.866
 6303SOL    HW219809   0.492   5.637   4.923
 6304SOL     OW19810   3.848   0.698   4.624
 6304SOL    HW119811   3.945   0.691   4.602
 6304SOL    HW219812   3.834   0.765   4.697
 6305SOL     OW19813   0.899   5.779   6.413
 6305SOL    HW119814   0.992   5.810   6.396
 6305SOL    HW219815   0.889   5.751   6.509
 6306SOL     OW19816   0.513   5.198   4.516
 6306SOL    HW119817   0.606   5.226   4.491
 6306SOL    HW219818   0.478   5.259   4.586
 6307SOL     OW19819   3.987   2.969   1.935
 6307SOL    HW119820   3.906   2.915   1.959
 6307SOL    HW219821   3.982   3.058   1.980
 6308SOL     OW19822   0.491   2.256   0.526
 6308SOL    HW119823   0.423   2.329   0.523
 6308SOL    HW219824   0.476   2.193   0.451
 6309SOL     OW19825   2.441   6.213   4.903
 6309SOL    HW119826   2.537   6.239   4.898
 6309SOL    HW219827   2.383   6.289   4.871
 6310SOL     OW19828   1.190   0.200   3.168
 6310SOL    HW119829   1.262   0.240   3.224
 6310SOL    HW219830   1.142   0.130   3.220
 6311SOL     OW19831   5.950   0.834   6.562
 6311SOL    HW119832   5.937   0.735   6.565
 6311SOL    HW219833   5.966   0.863   6.468
 6312SOL     OW19834   3.422   6.166   6.986
 6312SOL    HW119835   3.391   6.094   6.924
 6312SOL    HW219836   3.398   6.142   0.053
 6313SOL     OW19837   6.191   5.283   4.491
 6313SOL    HW119838   6.284   5.288   4.454
 6313SOL    HW219839   6.190   5.225   4.572
 6314SOL     OW19840   2.191   6.473   2.745
 6314SOL    HW119841   2.226   6.385   2.715
 6314SOL    HW219842   2.140   6.462   2.831
 6315SOL     OW19843   2.397   2.226   3.824
 6315SOL    HW119844   2.468   2.292   3.850
 6315SOL    HW219845   2.327   2.273   3.769
 6316SOL     OW19846   4.588   1.124   4.559
 6316SOL    HW119847   4.505   1.102   4.609
 6316SOL    HW219848   4.643   1.042   4.546
 6317SOL     OW19849   5.290   5.334   1.881
 6317SOL    HW119850   5.244   5.294   1.802
 6317SOL    HW219851   5.296   5.433   1.869
 6318SOL     OW19852   6.473   6.712   0.189
 6318SOL    HW119853   6.421   6.631   0.218
 6318SOL    HW219854   6.571   6.692   0.196
 6319SOL     OW19855   5.358   1.678   3.750
 6319SOL    HW119856   5.302   1.691   3.832
 6319SOL    HW219857   5.444   1.633   3.775
 6320SOL     OW19858   6.299   1.148   5.727
 6320SOL    HW119859   6.348   1.141   5.640
 6320SOL    HW219860   6.271   1.056   5.756
 6321SOL     OW19861   6.659   2.545   6.666
 6321SOL    HW119862   6.585   2.496   6.622
 6321SOL    HW219863   6.670   2.512   6.760
 6322SOL     OW19864   0.961   0.896   2.322
 6322SOL    HW119865   1.033   0.884   2.254
 6322SOL    HW219866   0.893   0.823   2.312
 6323SOL     OW19867   2.333   4.999   1.180
 6323SOL    HW119868   2.287   4.910   1.171
 6323SOL    HW219869   2.274   5.061   1.232
 6324SOL     OW19870   4.443   2.942   1.015
 6324SOL    HW119871   4.502   3.023   1.011
 6324SOL    HW219872   4.358   2.965   1.062
 6325SOL     OW19873   1.494   2.585   3.999
 6325SOL    HW119874   1.523   2.657   4.061
 6325SOL    HW219875   1.531   2.497   4.030
 6326SOL     OW19876   5.339   4.689   5.793
 6326SOL    HW119877   5.253   4.668   5.746
 6326SOL    HW219878   5.414   4.646   5.743
 6327SOL     OW19879   0.490   1.141   3.483
 6327SOL    HW119880   0.435   1.064   3.453
 6327SOL    HW219881   0.451   1.226   3.448
 6328SOL     OW19882   4.502   3.522   5.305
 6328SOL    HW119883   4.574   3.580   5.267
 6328SOL    HW219884   4.435   3.500   5.234
 6329SOL     OW19885   0.686   2.161   5.461
 6329SOL    HW119886   0.705   2.191   5.554
 6329SOL    HW219887   0.635   2.233   5.413
 6330SOL     OW19888   5.480   1.361   3.655
 6330SOL    HW119889   5.475   1.267   3.688
 6330SOL    HW219890   5.559   1.407   3.697
 6331SOL     OW19891   0.572   2.701   3.344
 6331SOL    HW119892   0.483   2.737   3.369
 6331SOL    HW219893   0.607   2.749   3.263
 6332SOL     OW19894   3.188   1.738   6.332
 6332SOL    HW119895   3.175   1.646   6.366
 6332SOL    HW219896   3.125   1.756   6.256
 6333SOL     OW19897   5.691   1.442   1.257
 6333SOL    HW119898   5.736   1.460   1.170
 6333SOL    HW219899   5.649   1.352   1.255
 6334SOL     OW19900   1.643   1.309   1.747
 6334SOL    HW119901   1.572   1.244   1.775
 6334SOL    HW219902   1.619   1.349   1.659
 6335SOL     OW19903   6.353   2.887   6.619
 6335SOL    HW119904   6.292   2.810   6.639
 6335SOL    HW219905   6.448   2.859   6.637
 6336SOL     OW19906   0.798   4.266   5.247
 6336SOL    HW119907   0.751   4.337   5.194
 6336SOL    HW219908   0.879   4.235   5.198
 6337SOL     OW19909   5.467   6.805   5.012
 6337SOL    HW119910   5.525   6.875   5.056
 6337SOL    HW219911   5.388   6.786   5.070
 6338SOL     OW19912   1.424   1.233   3.173
 6338SOL    HW119913   1.393   1.227   3.078
 6338SOL    HW219914   1.359   1.287   3.227
 6339SOL     OW19915   0.327   4.416   4.178
 6339SOL    HW119916   0.413   4.394   4.131
 6339SOL    HW219917   0.299   4.509   4.154
 6340SOL     OW19918   2.757   4.051   0.541
 6340SOL    HW119919   2.843   4.002   0.555
 6340SOL    HW219920   2.714   4.068   0.629
 6341SOL     OW19921   0.700   5.030   2.429
 6341SOL    HW119922   0.736   5.081   2.507
 6341SOL    HW219923   0.727   4.934   2.436
 6342SOL     OW19924   1.517   0.853   1.285
 6342SOL    HW119925   1.543   0.759   1.261
 6342SOL    HW219926   1.494   0.858   1.382
 6343SOL     OW19927   0.914   5.465   0.172
 6343SOL    HW119928   0.836   5.506   0.125
 6343SOL    HW219929   0.899   5.468   0.271
 6344SOL     OW19930   0.757   1.376   4.026
 6344SOL    HW119931   0.809   1.316   4.087
 6344SOL    HW219932   0.698   1.436   4.079
 6345SOL     OW19933   5.991   2.762   2.259
 6345SOL    HW119934   5.901   2.804   2.246
 6345SOL    HW219935   5.981   2.676   2.310
 6346SOL     OW19936   0.143   4.529   5.923
 6346SOL    HW119937   0.181   4.442   5.954
 6346SOL    HW219938   0.202   4.604   5.954
 6347SOL     OW19939   2.323   2.140   3.159
 6347SOL    HW119940   2.307   2.055   3.109
 6347SOL    HW219941   2.396   2.126   3.226
 6348SOL     OW19942   0.559   2.169   6.009
 6348SOL    HW119943   0.587   2.236   6.078
 6348SOL    HW219944   0.583   2.077   6.040
 6349SOL     OW19945   6.922   1.066   0.530
 6349SOL    HW119946   6.850   1.102   0.589
 6349SOL    HW219947   7.008   1.064   0.579
 6350SOL     OW19948   0.963   6.143   1.721
 6350SOL    HW119949   0.914   6.227   1.699
 6350SOL    HW219950   0.971   6.134   1.820
 6351SOL     OW19951   5.812   4.163   1.885
 6351SOL    HW119952   5.769   4.207   1.965
 6351SOL    HW219953   5.752   4.175   1.805
 6352SOL     OW19954   3.188   0.746   4.455
 6352SOL    HW119955   3.211   0.832   4.409
 6352SOL    HW219956   3.148   0.766   4.544
 6353SOL     OW19957   3.545   6.735   5.908
 6353SOL    HW119958   3.563   6.687   5.994
 6353SOL    HW219959   3.450   6.764   5.905
 6354SOL     OW19960   4.672   5.443   1.241
 6354SOL    HW119961   4.629   5.434   1.330
 6354SOL    HW219962   4.653   5.533   1.203
 6355SOL     OW19963   3.370   5.080   0.558
 6355SOL    HW119964   3.335   5.114   0.646
 6355SOL    HW219965   3.416   4.993   0.571
 6356SOL     OW19966   6.999   5.319   6.074
 6356SOL    HW119967   6.957   5.311   5.983
 6356SOL    HW219968   6.974   5.408   6.114
 6357SOL     OW19969   5.143   0.906   1.875
 6357SOL    HW119970   5.196   0.900   1.959
 6357SOL    HW219971   5.125   0.814   1.841
 6358SOL     OW19972   1.282   1.919   5.697
 6358SOL    HW119973   1.369   1.948   5.656
 6358SOL    HW219974   1.240   1.849   5.640
 6359SOL     OW19975   5.423   6.445   0.534
 6359SOL    HW119976   5.423   6.495   0.447
 6359SOL    HW219977   5.393   6.351   0.518
 6360SOL     OW19978   0.606   1.348   1.779
 6360SOL    HW119979   0.513   1.316   1.760
 6360SOL    HW219980   0.636   1.410   1.707
 6361SOL     OW19981   0.333   0.890   0.672
 6361SOL    HW119982   0.427   0.923   0.678
 6361SOL    HW219983   0.329   0.810   0.614
 6362SOL     OW19984   0.891   5.518   0.483
 6362SOL    HW119985   0.973   5.475   0.522
 6362SOL    HW219986   0.824   5.534   0.556
 6363SOL     OW19987   2.159   4.086   2.871
 6363SOL    HW119988   2.153   3.998   2.919
 6363SOL    HW219989   2.103   4.153   2.919
 6364SOL     OW19990   2.495   2.594   4.134
 6364SOL    HW119991   2.445   2.519   4.177
 6364SOL    HW219992   2.562   2.631   4.198
 6365SOL     OW19993   5.559   6.554   3.258
 6365SOL    HW119994   5.550   6.613   3.338
 6365SOL    HW219995   5.486   6.574   3.192
 6366SOL     OW19996   5.892   0.827   4.987
 6366SOL    HW119997   5.881   0.904   5.050
 6366SOL    HW219998   5.810   0.818   4.931
 6367SOL     OW19999   1.316   2.367   2.514
 6367SOL    HW120000   1.289   2.462   2.498
 6367SOL    HW220001   1.239   2.306   2.492
 6368SOL     OW20002   5.218   3.858   4.596
 6368SOL    HW120003   5.297   3.797   4.607
 6368SOL    HW220004   5.245   3.937   4.541
 6369SOL     OW20005   4.324   5.355   0.422
 6369SOL    HW120006   4.250   5.367   0.356
 6369SOL    HW220007   4.409   5.332   0.374
 6370SOL     OW20008   5.233   4.159   4.541
 6370SOL    HW120009   5.177   4.152   4.458
 6370SOL    HW220010   5.256   4.254   4.558
 6371SOL     OW20011   5.387   4.217   1.617
 6371SOL    HW120012   5.374   4.122   1.648
 6371SOL    HW220013   5.365   4.223   1.520
 6372SOL     OW20014   6.782   1.832   2.393
 6372SOL    HW120015   6.766   1.782   2.478
 6372SOL    HW220016   6.872   1.876   2.397
 6373SOL     OW20017   5.296   3.955   1.663
 6373SOL    HW120018   5.251   3.975   1.576
 6373SOL    HW220019   5.227   3.949   1.735
 6374SOL     OW20020   4.214   3.668   6.831
 6374SOL    HW120021   4.287   3.634   6.891
 6374SOL    HW220022   4.221   3.767   6.824
 6375SOL     OW20023   4.723   1.326   2.107
 6375SOL    HW120024   4.669   1.243   2.116
 6375SOL    HW220025   4.694   1.392   2.177
 6376SOL     OW20026   3.467   0.779   0.122
 6376SOL    HW120027   3.503   0.759   0.213
 6376SOL    HW220028   3.376   0.738   0.112
 6377SOL     OW20029   0.901   0.714   0.839
 6377SOL    HW120030   0.867   0.662   0.761
 6377SOL    HW220031   0.863   0.676   0.923
 6378SOL     OW20032   5.053   4.613   1.819
 6378SOL    HW120033   5.070   4.516   1.837
 6378SOL    HW220034   5.132   4.651   1.770
 6379SOL     OW20035   1.934   5.387   0.096
 6379SOL    HW120036   1.887   5.434   0.171
 6379SOL    HW220037   1.937   5.446   0.016
 6380SOL     OW20038   0.993   4.162   5.105
 6380SOL    HW120039   0.966   4.101   5.031
 6380SOL    HW220040   1.079   4.207   5.081
 6381SOL     OW20041   4.666   2.972   0.557
 6381SOL    HW120042   4.605   2.984   0.479
 6381SOL    HW220043   4.652   3.046   0.622
 6382SOL     OW20044   1.455   1.403   0.179
 6382SOL    HW120045   1.364   1.442   0.166
 6382SOL    HW220046   1.490   1.431   0.269
 6383SOL     OW20047   2.428   2.366   1.899
 6383SOL    HW120048   2.431   2.341   1.802
 6383SOL    HW220049   2.351   2.321   1.943
 6384SOL     OW20050   6.367   2.785   2.270
 6384SOL    HW120051   6.437   2.851   2.241
 6384SOL    HW220052   6.372   2.704   2.211
 6385SOL     OW20053   0.295   3.112   0.597
 6385SOL    HW120054   0.341   3.139   0.513
 6385SOL    HW220055   0.363   3.075   0.661
 6386SOL     OW20056   2.349   3.072   0.373
 6386SOL    HW120057   2.362   3.036   0.280
 6386SOL    HW220058   2.428   3.128   0.398
 6387SOL     OW20059   0.320   0.073   0.269
 6387SOL    HW120060   0.265   0.057   0.187
 6387SOL    HW220061   0.313   7.021   0.330
 6388SOL     OW20062   5.897   5.342   2.153
 6388SOL    HW120063   5.834   5.267   2.134
 6388SOL    HW220064   5.846   5.424   2.179
 6389SOL     OW20065   6.983   0.396   0.713
 6389SOL    HW120066   6.963   0.491   0.734
 6389SOL    HW220067   0.053   0.385   0.691
 6390SOL     OW20068   5.519   0.413   6.680
 6390SOL    HW120069   5.465   0.341   6.637
 6390SOL    HW220070   5.465   0.458   6.752
 6391SOL     OW20071   1.333   2.021   4.687
 6391SOL    HW120072   1.295   1.941   4.640
 6391SOL    HW220073   1.265   2.094   4.690
 6392SOL     OW20074   3.851   6.681   3.524
 6392SOL    HW120075   3.879   6.775   3.541
 6392SOL    HW220076   3.928   6.629   3.489
 6393SOL     OW20077   1.003   5.207   0.073
 6393SOL    HW120078   0.969   5.290   0.116
 6393SOL    HW220079   0.933   5.136   0.077
 6394SOL     OW20080   1.739   5.580   1.922
 6394SOL    HW120081   1.678   5.564   1.999
 6394SOL    HW220082   1.768   5.493   1.883
 6395SOL     OW20083   2.118   3.625   3.539
 6395SOL    HW120084   2.135   3.530   3.513
 6395SOL    HW220085   2.082   3.628   3.632
 6396SOL     OW20086   1.325   2.884   5.623
 6396SOL    HW120087   1.347   2.797   5.667
 6396SOL    HW220088   1.241   2.873   5.568
 6397SOL     OW20089   5.926   3.620   4.639
 6397SOL    HW120090   6.022   3.591   4.643
 6397SOL    HW220091   5.872   3.566   4.703
 6398SOL     OW20092   2.099   0.051   2.221
 6398SOL    HW120093   2.106   7.018   2.301
 6398SOL    HW220094   2.003   0.062   2.196
 6399SOL     OW20095   3.123   0.780   6.649
 6399SOL    HW120096   3.119   0.840   6.569
 6399SOL    HW220097   3.097   0.687   6.622
 6400SOL     OW20098   0.919   5.971   3.658
 6400SOL    HW120099   0.880   6.031   3.588
 6400SOL    HW220100   0.846   5.930   3.712
 6401SOL     OW20101   3.839   5.142   3.211
 6401SOL    HW120102   3.869   5.121   3.305
 6401SOL    HW220103   3.847   5.240   3.195
 6402SOL     OW20104   2.457   4.744   5.314
 6402SOL    HW120105   2.482   4.828   5.266
 6402SOL    HW220106   2.532   4.679   5.308
 6403SOL     OW20107   5.083   5.111   4.987
 6403SOL    HW120108   5.087   5.130   5.085
 6403SOL    HW220109   5.027   5.030   4.971
 6404SOL     OW20110   4.692   7.014   1.788
 6404SOL    HW120111   4.728   0.073   1.823
 6404SOL    HW220112   4.767   6.961   1.746
 6405SOL     OW20113   5.518   1.829   2.885
 6405SOL    HW120114   5.477   1.741   2.909
 6405SOL    HW220115   5.509   1.845   2.787
 6406SOL     OW20116   6.970   3.403   2.855
 6406SOL    HW120117   6.957   3.412   2.756
 6406SOL    HW220118   6.883   3.421   2.902
 6407SOL     OW20119   0.405   6.188   2.732
 6407SOL    HW120120   0.389   6.107   2.788
 6407SOL    HW220121   0.413   6.268   2.791
 6408SOL     OW20122   6.432   0.352   2.289
 6408SOL    HW120123   6.468   0.445   2.286
 6408SOL    HW220124   6.394   0.328   2.199
 6409SOL     OW20125   5.043   4.941   3.857
 6409SOL    HW120126   5.074   4.986   3.773
 6409SOL    HW220127   5.119   4.891   3.898
 6410SOL     OW20128   1.552   1.758   0.267
 6410SOL    HW120129   1.631   1.779   0.209
 6410SOL    HW220130   1.580   1.758   0.363
 6411SOL     OW20131   0.453   2.671   2.018
 6411SOL    HW120132   0.450   2.767   2.044
 6411SOL    HW220133   0.543   2.633   2.040
 6412SOL     OW20134   3.296   1.344   0.421
 6412SOL    HW120135   3.205   1.347   0.462
 6412SOL    HW220136   3.326   1.437   0.399
 6413SOL     OW20137   4.808   6.030   2.976
 6413SOL    HW120138   4.831   6.126   2.988
 6413SOL    HW220139   4.708   6.020   2.973
 6414SOL     OW20140   2.160   0.286   0.659
 6414SOL    HW120141   2.163   0.188   0.637
 6414SOL    HW220142   2.070   0.309   0.695
 6415SOL     OW20143   0.346   2.654   3.678
 6415SOL    HW120144   0.433   2.650   3.726
 6415SOL    HW220145   0.320   2.562   3.648
 6416SOL     OW20146   2.775   5.697   0.155
 6416SOL    HW120147   2.735   5.743   0.234
 6416SOL    HW220148   2.719   5.619   0.129
 6417SOL     OW20149   4.575   2.730   6.346
 6417SOL    HW120150   4.571   2.686   6.436
 6417SOL    HW220151   4.484   2.733   6.306
 6418SOL     OW20152   4.873   4.263   0.364
 6418SOL    HW120153   4.821   4.312   0.433
 6418SOL    HW220154   4.850   4.166   0.368
 6419SOL     OW20155   0.580   6.335   5.993
 6419SOL    HW120156   0.639   6.282   5.932
 6419SOL    HW220157   0.542   6.413   5.943
 6420SOL     OW20158   2.111   4.576   4.129
 6420SOL    HW120159   2.101   4.643   4.202
 6420SOL    HW220160   2.204   4.538   4.132
 6421SOL     OW20161   3.441   0.864   1.942
 6421SOL    HW120162   3.367   0.802   1.918
 6421SOL    HW220163   3.419   0.957   1.911
 6422SOL     OW20164   5.780   2.088   4.478
 6422SOL    HW120165   5.719   2.008   4.472
 6422SOL    HW220166   5.871   2.062   4.446
 6423SOL     OW20167   1.696   4.602   4.605
 6423SOL    HW120168   1.725   4.572   4.514
 6423SOL    HW220169   1.641   4.685   4.596
 6424SOL     OW20170   6.802   4.815   5.363
 6424SOL    HW120171   6.749   4.887   5.409
 6424SOL    HW220172   6.817   4.739   5.427
 6425SOL     OW20173   0.058   5.854   3.843
 6425SOL    HW120174   0.148   5.835   3.882
 6425SOL    HW220175   7.017   5.854   3.916
 6426SOL     OW20176   4.837   4.181   4.789
 6426SOL    HW120177   4.782   4.217   4.864
 6426SOL    HW220178   4.926   4.226   4.789
 6427SOL     OW20179   3.709   3.363   3.301
 6427SOL    HW120180   3.615   3.340   3.278
 6427SOL    HW220181   3.714   3.459   3.330
 6428SOL     OW20182   5.660   2.622   0.321
 6428SOL    HW120183   5.686   2.526   0.323
 6428SOL    HW220184   5.623   2.649   0.411
 6429SOL     OW20185   2.237   1.211   5.718
 6429SOL    HW120186   2.177   1.284   5.751
 6429SOL    HW220187   2.325   1.249   5.692
 6430SOL     OW20188   6.110   0.136   5.374
 6430SOL    HW120189   6.174   0.205   5.340
 6430SOL    HW220190   6.052   0.176   5.445
 6431SOL     OW20191   3.722   4.960   1.824
 6431SOL    HW120192   3.688   4.884   1.880
 6431SOL    HW220193   3.668   4.966   1.740
 6432SOL     OW20194   5.197   4.298   6.252
 6432SOL    HW120195   5.145   4.222   6.213
 6432SOL    HW220196   5.136   4.374   6.272
 6433SOL     OW20197   3.128   4.516   6.023
 6433SOL    HW120198   3.117   4.511   5.924
 6433SOL    HW220199   3.041   4.537   6.066
 6434SOL     OW20200   4.562   5.501   6.529
 6434SOL    HW120201   4.470   5.534   6.511
 6434SOL    HW220202   4.594   5.537   6.617
 6435SOL     OW20203   4.888   2.354   0.949
 6435SOL    HW120204   4.931   2.362   0.859
 6435SOL    HW220205   4.880   2.444   0.991
 6436SOL     OW20206   6.182   3.109   3.739
 6436SOL    HW120207   6.123   3.036   3.704
 6436SOL    HW220208   6.272   3.072   3.760
 6437SOL     OW20209   1.497   2.312   5.597
 6437SOL    HW120210   1.438   2.300   5.517
 6437SOL    HW220211   1.577   2.366   5.571
 6438SOL     OW20212   0.443   4.922   0.036
 6438SOL    HW120213   0.500   4.937   6.983
 6438SOL    HW220214   0.491   4.862   0.100
 6439SOL     OW20215   4.826   6.835   3.318
 6439SOL    HW120216   4.912   6.878   3.344
 6439SOL    HW220217   4.826   6.739   3.346
 6440SOL     OW20218   2.993   1.811   6.158
 6440SOL    HW120219   2.982   1.778   6.064
 6440SOL    HW220220   2.972   1.909   6.161
 6441SOL     OW20221   0.220   1.834   2.352
 6441SOL    HW120222   0.168   1.749   2.344
 6441SOL    HW220223   0.237   1.872   2.261
 6442SOL     OW20224   2.909   2.255   4.844
 6442SOL    HW120225   2.994   2.257   4.896
 6442SOL    HW220226   2.832   2.271   4.905
 6443SOL     OW20227   4.027   3.247   6.691
 6443SOL    HW120228   4.096   3.319   6.687
 6443SOL    HW220229   4.055   3.170   6.634
 6444SOL     OW20230   6.297   3.862   4.885
 6444SOL    HW120231   6.284   3.905   4.797
 6444SOL    HW220232   6.387   3.887   4.922
 6445SOL     OW20233   3.071   3.424   3.601
 6445SOL    HW120234   3.067   3.396   3.697
 6445SOL    HW220235   3.121   3.355   3.548
 6446SOL     OW20236   1.556   1.389   6.527
 6446SOL    HW120237   1.633   1.400   6.589
 6446SOL    HW220238   1.565   1.451   6.449
 6447SOL     OW20239   6.042   3.477   2.305
 6447SOL    HW120240   5.983   3.445   2.379
 6447SOL    HW220241   6.117   3.412   2.291
 6448SOL     OW20242   2.963   4.991   1.924
 6448SOL    HW120243   3.011   4.908   1.948
 6448SOL    HW220244   3.020   5.048   1.865
 6449SOL     OW20245   2.711   5.139   0.659
 6449SOL    HW120246   2.684   5.156   0.754
 6449SOL    HW220247   2.809   5.121   0.655
 6450SOL     OW20248   0.066   4.313   0.053
 6450SOL    HW120249   7.015   4.376   0.052
 6450SOL    HW220250   0.094   4.292   6.987
 6451SOL     OW20251   4.234   2.796   1.448
 6451SOL    HW120252   4.150   2.756   1.411
 6451SOL    HW220253   4.212   2.862   1.520
 6452SOL     OW20254   4.223   2.045   3.917
 6452SOL    HW120255   4.320   2.040   3.893
 6452SOL    HW220256   4.169   2.061   3.834
 6453SOL     OW20257   2.100   0.758   2.310
 6453SOL    HW120258   2.183   0.716   2.274
 6453SOL    HW220259   2.120   0.804   2.397
 6454SOL     OW20260   5.045   2.515   3.466
 6454SOL    HW120261   4.971   2.477   3.411
 6454SOL    HW220262   5.070   2.605   3.430
 6455SOL     OW20263   6.311   2.821   3.920
 6455SOL    HW120264   6.376   2.889   3.885
 6455SOL    HW220265   6.289   2.842   4.015
 6456SOL     OW20266   5.901   0.814   2.436
 6456SOL    HW120267   5.809   0.778   2.421
 6456SOL    HW220268   5.948   0.757   2.503
 6457SOL     OW20269   3.705   6.978   2.398
 6457SOL    HW120270   3.762   7.021   2.468
 6457SOL    HW220271   3.668   0.022   2.338
 6458SOL     OW20272   0.093   5.540   3.842
 6458SOL    HW120273   0.087   5.512   3.746
 6458SOL    HW220274   0.138   5.630   3.848
 6459SOL     OW20275   0.214   3.461   2.929
 6459SOL    HW120276   0.206   3.361   2.930
 6459SOL    HW220277   0.132   3.501   2.889
 6460SOL     OW20278   0.445   5.515   6.878
 6460SOL    HW120279   0.411   5.458   6.953
 6460SOL    HW220280   0.543   5.498   6.865
 6461SOL     OW20281   1.528   6.183   1.131
 6461SOL    HW120282   1.623   6.209   1.149
 6461SOL    HW220283   1.470   6.264   1.136
 6462SOL     OW20284   1.906   4.096   5.182
 6462SOL    HW120285   1.866   4.014   5.224
 6462SOL    HW220286   1.833   4.158   5.153
 6463SOL     OW20287   4.541   2.153   1.058
 6463SOL    HW120288   4.627   2.124   1.016
 6463SOL    HW220289   4.529   2.251   1.046
 6464SOL     OW20290   1.115   4.077   3.742
 6464SOL    HW120291   1.208   4.075   3.706
 6464SOL    HW220292   1.054   4.027   3.681
 6465SOL     OW20293   3.662   1.288   3.722
 6465SOL    HW120294   3.695   1.206   3.770
 6465SOL    HW220295   3.734   1.324   3.664
 6466SOL     OW20296   6.241   4.436   6.944
 6466SOL    HW120297   6.205   4.526   6.917
 6466SOL    HW220298   6.251   4.432   0.016
 6467SOL     OW20299   2.799   2.978   7.002
 6467SOL    HW120300   2.715   2.980   6.946
 6467SOL    HW220301   2.782   3.024   0.062
 6468SOL     OW20302   2.491   0.962   1.315
 6468SOL    HW120303   2.509   1.057   1.337
 6468SOL    HW220304   2.569   0.905   1.342
 6469SOL     OW20305   2.833   1.655   2.022
 6469SOL    HW120306   2.740   1.690   2.038
 6469SOL    HW220307   2.827   1.562   1.985
 6470SOL     OW20308   0.043   1.654   6.886
 6470SOL    HW120309   0.028   1.623   6.980
 6470SOL    HW220310   6.999   1.720   6.861
 6471SOL     OW20311   0.515   6.303   5.395
 6471SOL    HW120312   0.610   6.317   5.423
 6471SOL    HW220313   0.467   6.249   5.464
 6472SOL     OW20314   6.788   6.575   2.881
 6472SOL    HW120315   6.796   6.674   2.893
 6472SOL    HW220316   6.783   6.554   2.784
 6473SOL     OW20317   2.499   1.073   3.541
 6473SOL    HW120318   2.400   1.083   3.555
 6473SOL    HW220319   2.535   1.157   3.501
 6474SOL     OW20320   4.060   5.527   5.037
 6474SOL    HW120321   4.156   5.531   5.065
 6474SOL    HW220322   4.044   5.591   4.963
 6475SOL     OW20323   5.753   5.604   2.269
 6475SOL    HW120324   5.775   5.634   2.362
 6475SOL    HW220325   5.792   5.668   2.203
 6476SOL     OW20326   3.914   2.494   6.682
 6476SOL    HW120327   3.835   2.544   6.646
 6476SOL    HW220328   3.922   2.511   6.780
 6477SOL     OW20329   0.141   6.086   1.964
 6477SOL    HW120330   0.190   6.076   1.877
 6477SOL    HW220331   0.082   6.166   1.959
 6478SOL     OW20332   3.019   5.896   1.292
 6478SOL    HW120333   2.932   5.857   1.320
 6478SOL    HW220334   3.066   5.934   1.372
 6479SOL     OW20335   3.956   6.312   3.193
 6479SOL    HW120336   3.864   6.315   3.156
 6479SOL    HW220337   3.986   6.217   3.201
 6480SOL     OW20338   3.929   1.116   6.779
 6480SOL    HW120339   3.844   1.156   6.812
 6480SOL    HW220340   3.978   1.184   6.724
 6481SOL     OW20341   3.837   2.942   1.699
 6481SOL    HW120342   3.914   2.988   1.743
 6481SOL    HW220343   3.776   2.906   1.769
 6482SOL     OW20344   5.885   3.744   6.001
 6482SOL    HW120345   5.979   3.726   5.972
 6482SOL    HW220346   5.822   3.687   5.948
 6483SOL     OW20347   2.115   6.432   5.275
 6483SOL    HW120348   2.115   6.332   5.278
 6483SOL    HW220349   2.200   6.465   5.235
 6484SOL     OW20350   2.662   0.725   3.474
 6484SOL    HW120351   2.563   0.736   3.463
 6484SOL    HW220352   2.709   0.786   3.411
 6485SOL     OW20353   2.409   5.786   5.082
 6485SOL    HW120354   2.427   5.766   5.179
 6485SOL    HW220355   2.494   5.813   5.037
 6486SOL     OW20356   0.816   4.807   2.958
 6486SOL    HW120357   0.781   4.714   2.960
 6486SOL    HW220358   0.910   4.808   2.992
 6487SOL     OW20359   5.794   4.226   4.032
 6487SOL    HW120360   5.704   4.193   4.005
 6487SOL    HW220361   5.854   4.148   4.051
 6488SOL     OW20362   3.526   5.411   4.755
 6488SOL    HW120363   3.551   5.508   4.753
 6488SOL    HW220364   3.601   5.358   4.795
 6489SOL     OW20365   5.079   2.788   5.148
 6489SOL    HW120366   5.124   2.781   5.059
 6489SOL    HW220367   4.983   2.761   5.139
 6490SOL     OW20368   2.012   2.231   7.015
 6490SOL    HW120369   2.094   2.270   6.973
 6490SOL    HW220370   1.983   2.289   0.064
 6491SOL     OW20371   2.188   6.739   2.007
 6491SOL    HW120372   2.161   6.706   1.917
 6491SOL    HW220373   2.229   6.830   2.000
 6492SOL     OW20374   4.017   3.231   5.056
 6492SOL    HW120375   3.969   3.144   5.052
 6492SOL    HW220376   3.993   3.287   4.977
 6493SOL     OW20377   1.423   4.591   4.373
 6493SOL    HW120378   1.482   4.546   4.307
 6493SOL    HW220379   1.370   4.523   4.423
 6494SOL     OW20380   6.530   0.439   1.189
 6494SOL    HW120381   6.629   0.452   1.193
 6494SOL    HW220382   6.510   0.362   1.128
 6495SOL     OW20383   6.347   0.707   3.069
 6495SOL    HW120384   6.400   0.750   3.142
 6495SOL    HW220385   6.396   0.627   3.035
 6496SOL     OW20386   3.503   2.128   1.474
 6496SOL    HW120387   3.463   2.053   1.421
 6496SOL    HW220388   3.600   2.110   1.489
 6497SOL     OW20389   0.571   1.160   0.723
 6497SOL    HW120390   0.592   1.155   0.625
 6497SOL    HW220391   0.545   1.253   0.747
 6498SOL     OW20392   1.893   4.458   3.691
 6498SOL    HW120393   1.893   4.361   3.668
 6498SOL    HW220394   1.809   4.481   3.740
 6499SOL     OW20395   4.747   2.859   3.295
 6499SOL    HW120396   4.774   2.935   3.354
 6499SOL    HW220397   4.768   2.882   3.200
 6500SOL     OW20398   1.580   4.676   3.201
 6500SOL    HW120399   1.516   4.691   3.276
 6500SOL    HW220400   1.638   4.597   3.222
 6501SOL     OW20401   5.955   1.875   2.522
 6501SOL    HW120402   6.030   1.838   2.577
 6501SOL    HW220403   5.870   1.866   2.572
 6502SOL     OW20404   0.001   3.970   2.131
 6502SOL    HW120405   6.977   3.893   2.170
 6502SOL    HW220406   6.963   4.036   2.092
 6503SOL     OW20407   6.760   3.436   5.820
 6503SOL    HW120408   6.844   3.413   5.870
 6503SOL    HW220409   6.682   3.391   5.863
 6504SOL     OW20410   3.990   6.453   6.282
 6504SOL    HW120411   4.087   6.464   6.302
 6504SOL    HW220412   3.968   6.356   6.277
 6505SOL     OW20413   7.003   5.520   0.989
 6505SOL    HW120414   0.062   5.472   1.006
 6505SOL    HW220415   7.013   5.617   1.013
 6506SOL     OW20416   0.857   3.765   2.401
 6506SOL    HW120417   0.872   3.829   2.326
 6506SOL    HW220418   0.860   3.672   2.367
 6507SOL     OW20419   4.062   5.054   0.147
 6507SOL    HW120420   4.018   5.107   0.074
 6507SOL    HW220421   4.041   5.095   0.236
 6508SOL     OW20422   0.598   0.207   3.183
 6508SOL    HW120423   0.566   0.156   3.104
 6508SOL    HW220424   0.697   0.195   3.193
 6509SOL     OW20425   2.681   1.699   6.761
 6509SOL    HW120426   2.658   1.602   6.751
 6509SOL    HW220427   2.775   1.707   6.796
 6510SOL     OW20428   3.186   6.470   5.448
 6510SOL    HW120429   3.092   6.442   5.466
 6510SOL    HW220430   3.236   6.394   5.407
 6511SOL     OW20431   3.484   1.875   0.605
 6511SOL    HW120432   3.459   1.952   0.664
 6511SOL    HW220433   3.415   1.803   0.614
 6512SOL     OW20434   4.146   1.454   0.468
 6512SOL    HW120435   4.124   1.435   0.563
 6512SOL    HW220436   4.073   1.419   0.409
 6513SOL     OW20437   2.814   4.761   2.978
 6513SOL    HW120438   2.892   4.763   3.041
 6513SOL    HW220439   2.848   4.760   2.884
 6514SOL     OW20440   5.198   6.784   5.125
 6514SOL    HW120441   5.133   6.859   5.130
 6514SOL    HW220442   5.161   6.704   5.172
 6515SOL     OW20443   1.146   4.800   2.670
 6515SOL    HW120444   1.063   4.746   2.685
 6515SOL    HW220445   1.129   4.867   2.599
 6516SOL     OW20446   6.367   3.201   1.923
 6516SOL    HW120447   6.443   3.137   1.915
 6516SOL    HW220448   6.326   3.216   1.833
 6517SOL     OW20449   0.058   3.546   0.964
 6517SOL    HW120450   7.002   3.491   0.958
 6517SOL    HW220451   0.108   3.540   0.877
 6518SOL     OW20452   0.714   1.407   2.028
 6518SOL    HW120453   0.789   1.350   2.062
 6518SOL    HW220454   0.693   1.382   1.933
 6519SOL     OW20455   1.210   1.681   3.054
 6519SOL    HW120456   1.163   1.622   3.119
 6519SOL    HW220457   1.299   1.642   3.031
 6520SOL     OW20458   0.191   5.383   0.625
 6520SOL    HW120459   0.128   5.447   0.669
 6520SOL    HW220460   0.168   5.375   0.528
 6521SOL     OW20461   1.555   3.673   4.100
 6521SOL    HW120462   1.495   3.753   4.105
 6521SOL    HW220463   1.575   3.640   4.192
 6522SOL     OW20464   2.711   2.878   5.350
 6522SOL    HW120465   2.625   2.912   5.311
 6522SOL    HW220466   2.762   2.954   5.389
 6523SOL     OW20467   6.114   6.913   0.401
 6523SOL    HW120468   6.017   6.917   0.377
 6523SOL    HW220469   6.124   6.917   0.500
 6524SOL     OW20470   2.968   2.753   0.584
 6524SOL    HW120471   2.899   2.725   0.651
 6524SOL    HW220472   3.033   2.815   0.627
 6525SOL     OW20473   1.119   4.719   3.616
 6525SOL    HW120474   1.173   4.740   3.534
 6525SOL    HW220475   1.063   4.799   3.640
 6526SOL     OW20476   0.580   5.782   0.611
 6526SOL    HW120477   0.531   5.762   0.527
 6526SOL    HW220478   0.662   5.834   0.591
 6527SOL     OW20479   6.331   1.965   0.536
 6527SOL    HW120480   6.282   1.887   0.576
 6527SOL    HW220481   6.428   1.959   0.559
 6528SOL     OW20482   4.220   0.000   6.676
 6528SOL    HW120483   4.320   0.005   6.676
 6528SOL    HW220484   4.183   0.081   6.630
 6529SOL     OW20485   5.634   0.204   2.134
 6529SOL    HW120486   5.550   0.195   2.187
 6529SOL    HW220487   5.712   0.174   2.190
 6530SOL     OW20488   0.027   2.423   2.982
 6530SOL    HW120489   0.092   2.379   3.045
 6530SOL    HW220490   7.024   2.510   3.022
 6531SOL     OW20491   3.520   4.197   4.945
 6531SOL    HW120492   3.490   4.233   4.857
 6531SOL    HW220493   3.499   4.099   4.950
 6532SOL     OW20494   1.239   0.030   0.331
 6532SOL    HW120495   1.300   0.084   0.272
 6532SOL    HW220496   1.210   6.975   0.282
 6533SOL     OW20497   4.876   4.770   1.465
 6533SOL    HW120498   4.949   4.826   1.425
 6533SOL    HW220499   4.916   4.692   1.512
 6534SOL     OW20500   6.973   4.009   3.217
 6534SOL    HW120501   6.942   3.914   3.215
 6534SOL    HW220502   6.894   4.070   3.228
 6535SOL     OW20503   4.830   2.936   4.869
 6535SOL    HW120504   4.739   2.897   4.881
 6535SOL    HW220505   4.851   2.995   4.947
 6536SOL     OW20506   0.785   4.508   5.104
 6536SOL    HW120507   0.811   4.491   5.009
 6536SOL    HW220508   0.839   4.583   5.141
 6537SOL     OW20509   6.352   5.770   3.777
 6537SOL    HW120510   6.357   5.835   3.853
 6537SOL    HW220511   6.402   5.807   3.698
 6538SOL     OW20512   1.536   2.634   5.471
 6538SOL    HW120513   1.464   2.668   5.411
 6538SOL    HW220514   1.625   2.662   5.435
 6539SOL     OW20515   5.220   0.369   6.132
 6539SOL    HW120516   5.302   0.425   6.132
 6539SOL    HW220517   5.241   0.278   6.167
 6540SOL     OW20518   6.447   2.643   5.730
 6540SOL    HW120519   6.370   2.660   5.669
 6540SOL    HW220520   6.518   2.712   5.715
 6541SOL     OW20521   5.888   1.586   5.550
 6541SOL    HW120522   5.919   1.490   5.548
 6541SOL    HW220523   5.967   1.646   5.564
 6542SOL     OW20524   1.447   4.244   3.120
 6542SOL    HW120525   1.527   4.206   3.166
 6542SOL    HW220526   1.475   4.285   3.033
 6543SOL     OW20527   3.533   1.437   4.476
 6543SOL    HW120528   3.537   1.478   4.385
 6543SOL    HW220529   3.476   1.493   4.535
 6544SOL     OW20530   0.932   6.470   1.091
 6544SOL    HW120531   0.875   6.435   1.165
 6544SOL    HW220532   0.875   6.489   1.011
 6545SOL     OW20533   4.667   6.684   0.997
 6545SOL    HW120534   4.651   6.648   1.089
 6545SOL    HW220535   4.583   6.678   0.943
 6546SOL     OW20536   4.608   4.085   6.303
 6546SOL    HW120537   4.672   4.088   6.380
 6546SOL    HW220538   4.527   4.140   6.325
 6547SOL     OW20539   0.539   5.829   6.199
 6547SOL    HW120540   0.549   5.923   6.168
 6547SOL    HW220541   0.566   5.766   6.126
 6548SOL     OW20542   6.879   1.598   5.920
 6548SOL    HW120543   6.970   1.617   5.884
 6548SOL    HW220544   6.822   1.679   5.911
 6549SOL     OW20545   4.122   1.523   2.460
 6549SOL    HW120546   4.088   1.503   2.368
 6549SOL    HW220547   4.170   1.610   2.460
 6550SOL     OW20548   6.380   6.211   3.139
 6550SOL    HW120549   6.458   6.161   3.176
 6550SOL    HW220550   6.405   6.307   3.124
 6551SOL     OW20551   3.160   4.126   0.779
 6551SOL    HW120552   3.106   4.152   0.699
 6551SOL    HW220553   3.101   4.123   0.860
 6552SOL     OW20554   1.822   5.266   0.455
 6552SOL    HW120555   1.754   5.292   0.386
 6552SOL    HW220556   1.778   5.210   0.525
 6553SOL     OW20557   0.936   1.209   3.317
 6553SOL    HW120558   0.890   1.194   3.405
 6553SOL    HW220559   0.869   1.203   3.243
 6554SOL     OW20560   1.185   2.033   4.069
 6554SOL    HW120561   1.252   1.969   4.030
 6554SOL    HW220562   1.233   2.105   4.119
 6555SOL     OW20563   6.548   3.949   3.744
 6555SOL    HW120564   6.469   3.963   3.804
 6555SOL    HW220565   6.632   3.953   3.799
 6556SOL     OW20566   4.868   3.094   2.502
 6556SOL    HW120567   4.835   3.181   2.538
 6556SOL    HW220568   4.968   3.093   2.503
 6557SOL     OW20569   1.904   0.759   2.143
 6557SOL    HW120570   1.973   0.764   2.215
 6557SOL    HW220571   1.836   0.689   2.167
 6558SOL     OW20572   5.441   6.185   6.203
 6558SOL    HW120573   5.536   6.184   6.173
 6558SOL    HW220574   5.401   6.274   6.181
 6559SOL     OW20575   6.831   2.902   6.448
 6559SOL    HW120576   6.800   2.816   6.408
 6559SOL    HW220577   6.855   2.888   6.544
 6560SOL     OW20578   5.401   4.450   0.410
 6560SOL    HW120579   5.386   4.352   0.424
 6560SOL    HW220580   5.499   4.469   0.411
 6561SOL     OW20581   3.695   4.478   6.890
 6561SOL    HW120582   3.666   4.484   6.985
 6561SOL    HW220583   3.739   4.564   6.863
 6562SOL     OW20584   5.428   2.250   1.452
 6562SOL    HW120585   5.377   2.277   1.534
 6562SOL    HW220586   5.484   2.326   1.421
 6563SOL     OW20587   6.165   5.173   5.253
 6563SOL    HW120588   6.135   5.264   5.227
 6563SOL    HW220589   6.113   5.141   5.331
 6564SOL     OW20590   6.355   3.410   3.245
 6564SOL    HW120591   6.436   3.437   3.295
 6564SOL    HW220592   6.297   3.490   3.229
 6565SOL     OW20593   5.296   0.191   3.121
 6565SOL    HW120594   5.379   0.169   3.070
 6565SOL    HW220595   5.220   0.135   3.088
 6566SOL     OW20596   4.792   5.627   3.120
 6566SOL    HW120597   4.737   5.564   3.176
 6566SOL    HW220598   4.741   5.712   3.107
 6567SOL     OW20599   4.243   0.466   1.381
 6567SOL    HW120600   4.156   0.514   1.395
 6567SOL    HW220601   4.260   0.456   1.283
 6568SOL     OW20602   4.255   2.124   0.716
 6568SOL    HW120603   4.324   2.101   0.784
 6568SOL    HW220604   4.298   2.130   0.626
 6569SOL     OW20605   0.786   4.924   4.530
 6569SOL    HW120606   0.803   5.022   4.534
 6569SOL    HW220607   0.838   4.877   4.602
 6570SOL     OW20608   4.419   0.200   1.898
 6570SOL    HW120609   4.450   0.106   1.885
 6570SOL    HW220610   4.413   0.245   1.809
 6571SOL     OW20611   3.497   5.242   2.900
 6571SOL    HW120612   3.426   5.311   2.884
 6571SOL    HW220613   3.471   5.184   2.977
 6572SOL     OW20614   1.311   5.850   4.037
 6572SOL    HW120615   1.249   5.828   3.962
 6572SOL    HW220616   1.268   5.826   4.124
 6573SOL     OW20617   1.618   1.970   2.760
 6573SOL    HW120618   1.528   2.000   2.729
 6573SOL    HW220619   1.637   1.879   2.723
 6574SOL     OW20620   1.723   5.389   2.422
 6574SOL    HW120621   1.689   5.295   2.416
 6574SOL    HW220622   1.701   5.426   2.512
 6575SOL     OW20623   0.101   1.235   3.183
 6575SOL    HW120624   0.096   1.148   3.232
 6575SOL    HW220625   0.028   1.240   3.115
 6576SOL     OW20626   5.024   5.767   0.970
 6576SOL    HW120627   5.115   5.781   0.931
 6576SOL    HW220628   4.956   5.813   0.914
 6577SOL     OW20629   3.272   1.166   4.063
 6577SOL    HW120630   3.307   1.208   3.979
 6577SOL    HW220631   3.204   1.225   4.105
 6578SOL     OW20632   1.257   4.776   1.200
 6578SOL    HW120633   1.321   4.734   1.264
 6578SOL    HW220634   1.184   4.711   1.179
 6579SOL     OW20635   6.614   0.837   4.211
 6579SOL    HW120636   6.598   0.902   4.137
 6579SOL    HW220637   6.691   0.869   4.266
 6580SOL     OW20638   2.402   2.096   0.130
 6580SOL    HW120639   2.376   2.117   0.224
 6580SOL    HW220640   2.323   2.056   0.082
 6581SOL     OW20641   0.711   1.901   1.151
 6581SOL    HW120642   0.676   1.840   1.080
 6581SOL    HW220643   0.671   1.992   1.140
 6582SOL     OW20644   6.338   1.370   2.927
 6582SOL    HW120645   6.247   1.404   2.903
 6582SOL    HW220646   6.357   1.287   2.874
 6583SOL     OW20647   3.711   5.163   6.650
 6583SOL    HW120648   3.786   5.124   6.597
 6583SOL    HW220649   3.738   5.253   6.685
 6584SOL     OW20650   4.481   2.389   6.842
 6584SOL    HW120651   4.421   2.468   6.858
 6584SOL    HW220652   4.425   2.306   6.838
 6585SOL     OW20653   5.624   6.599   1.548
 6585SOL    HW120654   5.581   6.539   1.615
 6585SOL    HW220655   5.655   6.546   1.469
 6586SOL     OW20656   0.199   1.238   6.971
 6586SOL    HW120657   0.151   1.264   0.028
 6586SOL    HW220658   0.214   1.320   6.915
 6587SOL     OW20659   1.935   4.230   5.494
 6587SOL    HW120660   2.001   4.217   5.420
 6587SOL    HW220661   1.979   4.275   5.572
 6588SOL     OW20662   6.897   2.570   0.900
 6588SOL    HW120663   6.806   2.541   0.931
 6588SOL    HW220664   6.927   2.649   0.953
 6589SOL     OW20665   6.491   0.298   2.640
 6589SOL    HW120666   6.393   0.294   2.659
 6589SOL    HW220667   6.528   0.206   2.634
 6590SOL     OW20668   1.343   6.360   3.950
 6590SOL    HW120669   1.320   6.431   4.016
 6590SOL    HW220670   1.358   6.274   3.997
 6591SOL     OW20671   6.069   4.337   3.583
 6591SOL    HW120672   6.018   4.355   3.667
 6591SOL    HW220673   6.167   4.346   3.601
 6592SOL     OW20674   6.145   6.908   3.389
 6592SOL    HW120675   6.121   6.919   3.486
 6592SOL    HW220676   6.139   6.812   3.364
 6593SOL     OW20677   2.076   1.543   1.951
 6593SOL    HW120678   1.997   1.504   1.906
 6593SOL    HW220679   2.151   1.552   1.886
 6594SOL     OW20680   5.352   0.228   6.546
 6594SOL    HW120681   5.282   0.246   6.477
 6594SOL    HW220682   5.431   0.185   6.503
 6595SOL     OW20683   0.913   2.189   5.291
 6595SOL    HW120684   0.831   2.153   5.334
 6595SOL    HW220685   0.887   2.253   5.218
 6596SOL     OW20686   5.271   0.134   2.774
 6596SOL    HW120687   5.347   0.117   2.837
 6596SOL    HW220688   5.231   0.047   2.746
 6597SOL     OW20689   1.156   4.319   1.963
 6597SOL    HW120690   1.101   4.288   2.041
 6597SOL    HW220691   1.238   4.262   1.955
 6598SOL     OW20692   1.581   4.594   4.141
 6598SOL    HW120693   1.514   4.541   4.089
 6598SOL    HW220694   1.646   4.637   4.079
 6599SOL     OW20695   6.647   5.301   6.210
 6599SOL    HW120696   6.693   5.349   6.136
 6599SOL    HW220697   6.630   5.206   6.183
 6600SOL     OW20698   4.319   0.501   5.218
 6600SOL    HW120699   4.329   0.525   5.121
 6600SOL    HW220700   4.400   0.532   5.268
 6601SOL     OW20701   1.705   2.316   1.313
 6601SOL    HW120702   1.784   2.342   1.369
 6601SOL    HW220703   1.678   2.393   1.256
 6602SOL     OW20704   1.194   5.536   1.817
 6602SOL    HW120705   1.150   5.460   1.770
 6602SOL    HW220706   1.267   5.574   1.759
 6603SOL     OW20707   0.518   3.562   2.593
 6603SOL    HW120708   0.593   3.629   2.593
 6603SOL    HW220709   0.498   3.534   2.686
 6604SOL     OW20710   1.827   6.236   3.344
 6604SOL    HW120711   1.857   6.181   3.422
 6604SOL    HW220712   1.740   6.279   3.365
 6605SOL     OW20713   0.187   5.772   0.766
 6605SOL    HW120714   0.143   5.841   0.709
 6605SOL    HW220715   0.117   5.722   0.818
 6606SOL     OW20716   1.759   2.924   2.997
 6606SOL    HW120717   1.691   2.883   3.057
 6606SOL    HW220718   1.809   2.852   2.949
 6607SOL     OW20719   6.039   3.826   3.483
 6607SOL    HW120720   5.941   3.841   3.492
 6607SOL    HW220721   6.063   3.737   3.523
 6608SOL     OW20722   1.157   5.812   5.874
 6608SOL    HW120723   1.157   5.856   5.964
 6608SOL    HW220724   1.064   5.810   5.837
 6609SOL     OW20725   4.721   1.297   6.415
 6609SOL    HW120726   4.691   1.365   6.349
 6609SOL    HW220727   4.821   1.293   6.416
 6610SOL     OW20728   2.992   5.467   0.673
 6610SOL    HW120729   2.930   5.509   0.740
 6610SOL    HW220730   2.953   5.479   0.582
 6611SOL     OW20731   3.650   1.809   4.525
 6611SOL    HW120732   3.633   1.741   4.597
 6611SOL    HW220733   3.646   1.764   4.435
 6612SOL     OW20734   0.887   0.374   6.218
 6612SOL    HW120735   0.794   0.409   6.229
 6612SOL    HW220736   0.940   0.438   6.163
 6613SOL     OW20737   4.741   0.167   0.662
 6613SOL    HW120738   4.786   0.080   0.680
 6613SOL    HW220739   4.705   0.205   0.747
 6614SOL     OW20740   4.440   5.553   0.982
 6614SOL    HW120741   4.397   5.465   1.001
 6614SOL    HW220742   4.380   5.627   1.013
 6615SOL     OW20743   3.689   5.178   5.836
 6615SOL    HW120744   3.733   5.246   5.777
 6615SOL    HW220745   3.620   5.223   5.893
 6616SOL     OW20746   3.812   1.543   6.212
 6616SOL    HW120747   3.833   1.448   6.234
 6616SOL    HW220748   3.734   1.546   6.150
 6617SOL     OW20749   3.653   0.262   4.270
 6617SOL    HW120750   3.681   0.292   4.178
 6617SOL    HW220751   3.554   0.269   4.278
 6618SOL     OW20752   6.073   2.661   4.130
 6618SOL    HW120753   6.072   2.590   4.059
 6618SOL    HW220754   6.043   2.622   4.216
 6619SOL     OW20755   4.630   5.988   4.226
 6619SOL    HW120756   4.719   5.943   4.226
 6619SOL    HW220757   4.630   6.063   4.159
 6620SOL     OW20758   0.753   3.081   3.416
 6620SOL    HW120759   0.813   3.012   3.377
 6620SOL    HW220760   0.695   3.040   3.486
 6621SOL     OW20761   3.843   3.183   4.584
 6621SOL    HW120762   3.794   3.258   4.539
 6621SOL    HW220763   3.938   3.210   4.601
 6622SOL     OW20764   0.781   5.569   0.928
 6622SOL    HW120765   0.747   5.657   0.960
 6622SOL    HW220766   0.747   5.552   0.835
 6623SOL     OW20767   3.030   4.060   5.169
 6623SOL    HW120768   3.113   4.007   5.151
 6623SOL    HW220769   2.958   4.032   5.105
 6624SOL     OW20770   2.345   1.590   3.310
 6624SOL    HW120771   2.366   1.674   3.360
 6624SOL    HW220772   2.297   1.526   3.371
 6625SOL     OW20773   5.848   4.005   5.636
 6625SOL    HW120774   5.758   4.034   5.604
 6625SOL    HW220775   5.898   3.962   5.561
 6626SOL     OW20776   3.067   5.980   5.239
 6626SOL    HW120777   3.044   6.024   5.326
 6626SOL    HW220778   3.017   6.025   5.165
 6627SOL     OW20779   2.141   6.298   4.744
 6627SOL    HW120780   2.114   6.230   4.812
 6627SOL    HW220781   2.183   6.252   4.665
 6628SOL     OW20782   3.625   6.061   4.654
 6628SOL    HW120783   3.699   6.104   4.601
 6628SOL    HW220784   3.657   5.974   4.691
 6629SOL     OW20785   4.761   5.938   6.186
 6629SOL    HW120786   4.770   5.988   6.272
 6629SOL    HW220787   4.773   6.001   6.109
 6630SOL     OW20788   1.900   0.919   0.369
 6630SOL    HW120789   1.832   0.992   0.369
 6630SOL    HW220790   1.859   0.835   0.405
 6631SOL     OW20791   1.708   3.749   5.996
 6631SOL    HW120792   1.636   3.689   6.031
 6631SOL    HW220793   1.797   3.717   6.030
 6632SOL     OW20794   1.857   0.205   0.611
 6632SOL    HW120795   1.891   0.205   0.517
 6632SOL    HW220796   1.791   0.131   0.622
 6633SOL     OW20797   3.746   5.806   5.735
 6633SOL    HW120798   3.832   5.768   5.703
 6633SOL    HW220799   3.675   5.736   5.733
 6634SOL     OW20800   3.843   1.742   3.660
 6634SOL    HW120801   3.791   1.825   3.643
 6634SOL    HW220802   3.783   1.672   3.700
 6635SOL     OW20803   5.053   4.853   4.379
 6635SOL    HW120804   5.063   4.939   4.329
 6635SOL    HW220805   4.985   4.796   4.333
 6636SOL     OW20806   4.162   1.070   6.951
 6636SOL    HW120807   4.208   0.983   6.966
 6636SOL    HW220808   4.082   1.057   6.893
 6637SOL     OW20809   0.959   1.801   0.969
 6637SOL    HW120810   1.034   1.848   1.016
 6637SOL    HW220811   0.879   1.799   1.028
 6638SOL     OW20812   3.004   3.509   4.327
 6638SOL    HW120813   2.949   3.587   4.356
 6638SOL    HW220814   3.100   3.534   4.325
 6639SOL     OW20815   4.935   2.963   0.914
 6639SOL    HW120816   4.862   2.950   0.980
 6639SOL    HW220817   4.931   3.056   0.878
 6640SOL     OW20818   1.928   3.670   4.871
 6640SOL    HW120819   1.862   3.618   4.818
 6640SOL    HW220820   1.994   3.715   4.810
 6641SOL     OW20821   5.025   1.912   1.309
 6641SOL    HW120822   4.948   1.857   1.344
 6641SOL    HW220823   5.104   1.853   1.297
 6642SOL     OW20824   1.553   5.595   0.137
 6642SOL    HW120825   1.492   5.592   0.057
 6642SOL    HW220826   1.510   5.648   0.210
 6643SOL     OW20827   3.855   5.743   6.303
 6643SOL    HW120828   3.920   5.723   6.376
 6643SOL    HW220829   3.903   5.780   6.224
 6644SOL     OW20830   2.091   6.860   3.595
 6644SOL    HW120831   2.024   6.821   3.658
 6644SOL    HW220832   2.063   6.954   3.571
 6645SOL     OW20833   5.907   2.163   0.188
 6645SOL    HW120834   5.936   2.139   0.095
 6645SOL    HW220835   5.933   2.090   0.251
 6646SOL     OW20836   4.395   6.813   5.739
 6646SOL    HW120837   4.396   6.755   5.821
 6646SOL    HW220838   4.311   6.868   5.739
 6647SOL     OW20839   4.317   5.314   0.914
 6647SOL    HW120840   4.230   5.315   0.963
 6647SOL    HW220841   4.300   5.294   0.817
 6648SOL     OW20842   3.313   6.425   5.799
 6648SOL    HW120843   3.411   6.444   5.796
 6648SOL    HW220844   3.264   6.489   5.740
 6649SOL     OW20845   5.519   3.019   6.745
 6649SOL    HW120846   5.589   3.090   6.750
 6649SOL    HW220847   5.454   3.042   6.673
 6650SOL     OW20848   2.170   1.564   5.059
 6650SOL    HW120849   2.184   1.519   5.147
 6650SOL    HW220850   2.080   1.607   5.057
 6651SOL     OW20851   6.372   1.888   6.408
 6651SOL    HW120852   6.279   1.905   6.374
 6651SOL    HW220853   6.397   1.793   6.388
 6652SOL     OW20854   6.868   4.347   0.605
 6652SOL    HW120855   6.893   4.254   0.577
 6652SOL    HW220856   6.939   4.384   0.665
 6653SOL     OW20857   5.543   4.831   0.135
 6653SOL    HW120858   5.558   4.800   0.229
 6653SOL    HW220859   5.580   4.764   0.072
 6654SOL     OW20860   6.728   4.159   3.145
 6654SOL    HW120861   6.804   4.191   3.090
 6654SOL    HW220862   6.656   4.123   3.086
 6655SOL     OW20863   0.118   5.200   1.982
 6655SOL    HW120864   0.080   5.179   2.072
 6655SOL    HW220865   0.154   5.293   1.981
 6656SOL     OW20866   4.183   1.651   3.053
 6656SOL    HW120867   4.241   1.669   2.974
 6656SOL    HW220868   4.237   1.661   3.137
 6657SOL     OW20869   5.605   2.310   3.454
 6657SOL    HW120870   5.685   2.301   3.513
 6657SOL    HW220871   5.622   2.259   3.369
 6658SOL     OW20872   6.578   5.985   5.281
 6658SOL    HW120873   6.610   6.058   5.221
 6658SOL    HW220874   6.643   5.909   5.278
 6659SOL     OW20875   0.715   5.102   1.942
 6659SOL    HW120876   0.662   5.070   2.021
 6659SOL    HW220877   0.704   5.037   1.866
 6660SOL     OW20878   6.520   6.248   4.299
 6660SOL    HW120879   6.488   6.163   4.257
 6660SOL    HW220880   6.466   6.324   4.264
 6661SOL     OW20881   3.769   5.642   4.087
 6661SOL    HW120882   3.868   5.647   4.069
 6661SOL    HW220883   3.741   5.722   4.139
 6662SOL     OW20884   4.131   6.467   2.097
 6662SOL    HW120885   4.063   6.537   2.117
 6662SOL    HW220886   4.084   6.380   2.080
 6663SOL     OW20887   1.021   3.785   5.934
 6663SOL    HW120888   1.079   3.867   5.934
 6663SOL    HW220889   0.987   3.768   5.842
 6664SOL     OW20890   2.776   6.971   0.796
 6664SOL    HW120891   2.858   6.994   0.849
 6664SOL    HW220892   2.791   6.990   0.699
 6665SOL     OW20893   2.456   0.767   6.170
 6665SOL    HW120894   2.407   0.706   6.107
 6665SOL    HW220895   2.448   0.732   6.263
 6666SOL     OW20896   3.813   6.527   5.517
 6666SOL    HW120897   3.763   6.448   5.480
 6666SOL    HW220898   3.838   6.510   5.612
 6667SOL     OW20899   0.942   6.242   6.506
 6667SOL    HW120900   1.020   6.180   6.502
 6667SOL    HW220901   0.947   6.307   6.430
 6668SOL     OW20902   6.857   4.682   0.608
 6668SOL    HW120903   6.942   4.711   0.564
 6668SOL    HW220904   6.782   4.686   0.543
 6669SOL     OW20905   1.444   1.570   2.984
 6669SOL    HW120906   1.459   1.481   2.941
 6669SOL    HW220907   1.529   1.600   3.027
 6670SOL     OW20908   4.236   2.364   0.861
 6670SOL    HW120909   4.246   2.286   0.800
 6670SOL    HW220910   4.147   2.360   0.907
 6671SOL     OW20911   4.700   5.487   0.410
 6671SOL    HW120912   4.795   5.483   0.444
 6671SOL    HW220913   4.701   5.502   0.312
 6672SOL     OW20914   1.746   2.946   1.382
 6672SOL    HW120915   1.737   2.953   1.481
 6672SOL    HW220916   1.729   3.035   1.340
 6673SOL     OW20917   6.138   3.574   3.603
 6673SOL    HW120918   6.063   3.518   3.567
 6673SOL    HW220919   6.218   3.517   3.617
 6674SOL     OW20920   0.510   1.261   0.236
 6674SOL    HW120921   0.483   1.320   0.313
 6674SOL    HW220922   0.464   1.173   0.244
 6675SOL     OW20923   4.996   1.224   6.460
 6675SOL    HW120924   5.060   1.285   6.415
 6675SOL    HW220925   5.015   1.222   6.558
 6676SOL     OW20926   1.356   3.903   4.181
 6676SOL    HW120927   1.298   3.936   4.107
 6676SOL    HW220928   1.313   3.922   4.269
 6677SOL     OW20929   0.819   1.362   6.945
 6677SOL    HW120930   0.918   1.356   6.955
 6677SOL    HW220931   0.780   1.400   0.002
 6678SOL     OW20932   2.245   4.315   6.502
 6678SOL    HW120933   2.243   4.220   6.533
 6678SOL    HW220934   2.234   4.318   6.402
 6679SOL     OW20935   1.681   1.064   3.744
 6679SOL    HW120936   1.636   1.084   3.657
 6679SOL    HW220937   1.622   1.003   3.798
 6680SOL     OW20938   5.949   6.648   1.379
 6680SOL    HW120939   5.987   6.623   1.469
 6680SOL    HW220940   5.870   6.591   1.360
 6681SOL     OW20941   3.298   5.955   1.879
 6681SOL    HW120942   3.276   6.052   1.880
 6681SOL    HW220943   3.397   5.943   1.885
 6682SOL     OW20944   3.481   5.361   5.650
 6682SOL    HW120945   3.398   5.358   5.595
 6682SOL    HW220946   3.457   5.360   5.747
 6683SOL     OW20947   6.824   4.226   6.182
 6683SOL    HW120948   6.765   4.291   6.230
 6683SOL    HW220949   6.914   4.224   6.226
 6684SOL     OW20950   3.174   5.537   0.019
 6684SOL    HW120951   3.238   5.463   0.001
 6684SOL    HW220952   3.142   5.532   0.114
 6685SOL     OW20953   5.325   2.926   0.008
 6685SOL    HW120954   5.416   2.909   6.996
 6685SOL    HW220955   5.273   2.841   0.010
 6686SOL     OW20956   5.176   5.243   4.540
 6686SOL    HW120957   5.219   5.178   4.477
 6686SOL    HW220958   5.083   5.214   4.560
 6687SOL     OW20959   6.383   1.872   2.070
 6687SOL    HW120960   6.416   1.862   2.164
 6687SOL    HW220961   6.424   1.954   2.030
 6688SOL     OW20962   4.661   4.990   0.509
 6688SOL    HW120963   4.644   5.083   0.540
 6688SOL    HW220964   4.700   4.937   0.584
 6689SOL     OW20965   2.111   4.628   5.771
 6689SOL    HW120966   2.172   4.641   5.692
 6689SOL    HW220967   2.164   4.638   5.855
 6690SOL     OW20968   0.604   6.783   5.709
 6690SOL    HW120969   0.647   6.732   5.634
 6690SOL    HW220970   0.667   6.790   5.786
 6691SOL     OW20971   2.847   2.278   2.687
 6691SOL    HW120972   2.881   2.335   2.612
 6691SOL    HW220973   2.923   2.230   2.731
 6692SOL     OW20974   4.559   5.233   2.206
 6692SOL    HW120975   4.653   5.203   2.186
 6692SOL    HW220976   4.507   5.155   2.241
 6693SOL     OW20977   4.028   1.829   4.806
 6693SOL    HW120978   4.015   1.823   4.707
 6693SOL    HW220979   3.949   1.874   4.848
 6694SOL     OW20980   3.384   4.192   1.806
 6694SOL    HW120981   3.312   4.244   1.759
 6694SOL    HW220982   3.434   4.252   1.867
 6695SOL     OW20983   2.262   2.194   6.802
 6695SOL    HW120984   2.276   2.271   6.864
 6695SOL    HW220985   2.241   2.229   6.710
 6696SOL     OW20986   4.088   3.251   4.652
 6696SOL    HW120987   4.111   3.242   4.749
 6696SOL    HW220988   4.123   3.338   4.617
 6697SOL     OW20989   3.908   2.206   2.865
 6697SOL    HW120990   3.919   2.163   2.776
 6697SOL    HW220991   3.992   2.256   2.889
 6698SOL     OW20992   3.214   3.918   1.548
 6698SOL    HW120993   3.305   3.877   1.550
 6698SOL    HW220994   3.221   4.012   1.514
 6699SOL     OW20995   1.223   4.432   5.645
 6699SOL    HW120996   1.157   4.379   5.592
 6699SOL    HW220997   1.260   4.506   5.588
 6700SOL     OW20998   5.760   6.984   6.885
 6700SOL    HW120999   5.841   6.926   6.892
 6700SOL    HW221000   5.679   6.931   6.913
 6701SOL     OW21001   6.093   0.429   1.190
 6701SOL    HW121002   6.021   0.413   1.123
 6701SOL    HW221003   6.139   0.515   1.170
 6702SOL     OW21004   3.070   2.629   1.493
 6702SOL    HW121005   2.992   2.612   1.433
 6702SOL    HW221006   3.142   2.562   1.476
 6703SOL     OW21007   0.330   1.100   0.354
 6703SOL    HW121008   0.338   1.126   0.451
 6703SOL    HW221009   0.414   1.054   0.325
 6704SOL     OW21010   2.905   0.298   6.356
 6704SOL    HW121011   2.880   0.237   6.431
 6704SOL    HW221012   2.932   0.244   6.277
 6705SOL     OW21013   6.749   4.177   2.366
 6705SOL    HW121014   6.783   4.165   2.273
 6705SOL    HW221015   6.826   4.184   2.429
 6706SOL     OW21016   0.294   6.660   1.421
 6706SOL    HW121017   0.319   6.608   1.503
 6706SOL    HW221018   0.250   6.600   1.355
 6707SOL     OW21019   5.203   0.793   2.351
 6707SOL    HW121020   5.116   0.801   2.400
 6707SOL    HW221021   5.224   0.696   2.337
 6708SOL     OW21022   0.661   3.978   1.221
 6708SOL    HW121023   0.669   3.911   1.147
 6708SOL    HW221024   0.672   4.070   1.182
 6709SOL     OW21025   1.903   4.351   2.198
 6709SOL    HW121026   1.891   4.266   2.248
 6709SOL    HW221027   1.991   4.392   2.221
 6710SOL     OW21028   5.060   1.601   0.654
 6710SOL    HW121029   4.992   1.554   0.709
 6710SOL    HW221030   5.052   1.700   0.668
 6711SOL     OW21031   3.550   5.868   6.593
 6711SOL    HW121032   3.572   5.962   6.568
 6711SOL    HW221033   3.451   5.854   6.589
 6712SOL     OW21034   5.934   3.730   2.221
 6712SOL    HW121035   5.965   3.730   2.127
 6712SOL    HW221036   5.968   3.649   2.268
 6713SOL     OW21037   1.821   5.372   4.989
 6713SOL    HW121038   1.859   5.464   4.997
 6713SOL    HW221039   1.740   5.374   4.931
 6714SOL     OW21040   4.823   1.616   1.171
 6714SOL    HW121041   4.744   1.555   1.180
 6714SOL    HW221042   4.892   1.573   1.113
 6715SOL     OW21043   0.957   0.419   0.074
 6715SOL    HW121044   0.986   0.384   0.162
 6715SOL    HW221045   1.033   0.470   0.032
 6716SOL     OW21046   0.051   5.825   2.862
 6716SOL    HW121047   0.085   5.888   2.793
 6716SOL    HW221048   0.069   5.731   2.833
 6717SOL     OW21049   5.623   2.212   5.142
 6717SOL    HW121050   5.693   2.223   5.071
 6717SOL    HW221051   5.635   2.282   5.212
 6718SOL     OW21052   3.893   1.117   1.211
 6718SOL    HW121053   3.957   1.104   1.288
 6718SOL    HW221054   3.859   1.028   1.181
 6719SOL     OW21055   2.254   1.275   0.283
 6719SOL    HW121056   2.317   1.213   0.236
 6719SOL    HW221057   2.162   1.264   0.246
 6720SOL     OW21058   2.099   0.407   6.088
 6720SOL    HW121059   2.068   0.312   6.075
 6720SOL    HW221060   2.140   0.416   6.178
 6721SOL     OW21061   6.271   1.232   0.363
 6721SOL    HW121062   6.207   1.248   0.288
 6721SOL    HW221063   6.220   1.207   0.446
 6722SOL     OW21064   5.992   3.526   6.961
 6722SOL    HW121065   6.079   3.509   7.006
 6722SOL    HW221066   5.929   3.449   6.978
 6723SOL     OW21067   0.992   2.355   5.848
 6723SOL    HW121068   1.051   2.435   5.860
 6723SOL    HW221069   1.037   2.289   5.788
 6724SOL     OW21070   1.969   3.699   5.346
 6724SOL    HW121071   1.898   3.715   5.277
 6724SOL    HW221072   2.056   3.733   5.311
 6725SOL     OW21073   5.070   2.931   3.470
 6725SOL    HW121074   5.066   2.847   3.416
 6725SOL    HW221075   4.985   2.983   3.457
 6726SOL     OW21076   0.427   1.054   5.617
 6726SOL    HW121077   0.379   0.990   5.558
 6726SOL    HW221078   0.430   1.144   5.573
 6727SOL     OW21079   0.939   4.685   5.248
 6727SOL    HW121080   0.885   4.761   5.285
 6727SOL    HW221081   0.953   4.617   5.320
 6728SOL     OW21082   3.095   2.077   3.339
 6728SOL    HW121083   3.055   2.149   3.396
 6728SOL    HW221084   3.024   2.010   3.316
 6729SOL     OW21085   4.281   1.245   2.274
 6729SOL    HW121086   4.247   1.160   2.234
 6729SOL    HW221087   4.219   1.320   2.249
 6730SOL     OW21088   0.551   1.065   1.509
 6730SOL    HW121089   0.501   0.991   1.463
 6730SOL    HW221090   0.594   1.029   1.592
 6731SOL     OW21091   3.724   6.974   6.271
 6731SOL    HW121092   3.773   6.924   6.198
 6731SOL    HW221093   3.649   7.025   6.231
 6732SOL     OW21094   0.103   5.669   4.504
 6732SOL    HW121095   0.166   5.625   4.568
 6732SOL    HW221096   0.055   5.743   4.550
 6733SOL     OW21097   4.885   4.966   6.273
 6733SOL    HW121098   4.891   5.053   6.223
 6733SOL    HW221099   4.883   4.890   6.208
 6734SOL     OW21100   6.467   1.408   4.143
 6734SOL    HW121101   6.542   1.347   4.169
 6734SOL    HW221102   6.496   1.464   4.064
 6735SOL     OW21103   6.372   2.999   3.354
 6735SOL    HW121104   6.285   2.959   3.384
 6735SOL    HW221105   6.389   2.975   3.259
 6736SOL     OW21106   3.497   3.595   0.677
 6736SOL    HW121107   3.462   3.512   0.720
 6736SOL    HW221108   3.528   3.573   0.584
 6737SOL     OW21109   0.169   3.426   0.433
 6737SOL    HW121110   0.248   3.451   0.377
 6737SOL    HW221111   0.085   3.452   0.386
 6738SOL     OW21112   0.949   5.573   3.570
 6738SOL    HW121113   0.999   5.646   3.524
 6738SOL    HW221114   0.979   5.484   3.533
 6739SOL     OW21115   6.327   0.073   4.796
 6739SOL    HW121116   6.391   0.058   4.721
 6739SOL    HW221117   6.233   0.070   4.762
 6740SOL     OW21118   0.482   6.927   3.437
 6740SOL    HW121119   0.385   6.925   3.463
 6740SOL    HW221120   0.518   7.020   3.447
 6741SOL     OW21121   4.294   1.929   6.581
 6741SOL    HW121122   4.356   1.898   6.653
 6741SOL    HW221123   4.225   1.859   6.564
 6742SOL     OW21124   5.736   4.928   3.469
 6742SOL    HW121125   5.776   5.020   3.466
 6742SOL    HW221126   5.647   4.929   3.424
 6743SOL     OW21127   4.424   4.299   0.627
 6743SOL    HW121128   4.364   4.232   0.671
 6743SOL    HW221129   4.388   4.391   0.643
 6744SOL     OW21130   0.278   6.259   6.428
 6744SOL    HW121131   0.225   6.174   6.425
 6744SOL    HW221132   0.218   6.336   6.408
 6745SOL     OW21133   0.051   4.847   5.218
 6745SOL    HW121134   0.099   4.934   5.235
 6745SOL    HW221135   0.118   4.773   5.210
 6746SOL     OW21136   1.079   2.351   2.100
 6746SOL    HW121137   1.021   2.269   2.101
 6746SOL    HW221138   1.163   2.333   2.151
 6747SOL     OW21139   1.747   6.202   5.828
 6747SOL    HW121140   1.692   6.131   5.785
 6747SOL    HW221141   1.844   6.188   5.805
 6748SOL     OW21142   1.919   1.159   4.951
 6748SOL    HW121143   1.919   1.083   5.017
 6748SOL    HW221144   1.829   1.165   4.908
 6749SOL     OW21145   3.680   5.057   1.466
 6749SOL    HW121146   3.583   5.061   1.490
 6749SOL    HW221147   3.717   4.968   1.492
 6750SOL     OW21148   3.349   1.302   5.035
 6750SOL    HW121149   3.413   1.250   4.978
 6750SOL    HW221150   3.330   1.251   5.119
 6751SOL     OW21151   4.409   0.258   4.091
 6751SOL    HW121152   4.491   0.314   4.075
 6751SOL    HW221153   4.415   0.175   4.035
 6752SOL     OW21154   2.354   5.503   2.445
 6752SOL    HW121155   2.304   5.564   2.384
 6752SOL    HW221156   2.309   5.414   2.449
 6753SOL     OW21157   3.803   3.035   5.951
 6753SOL    HW121158   3.795   2.957   6.014
 6753SOL    HW221159   3.756   3.013   5.866
 6754SOL     OW21160   6.226   2.152   1.153
 6754SOL    HW121161   6.215   2.222   1.223
 6754SOL    HW221162   6.306   2.174   1.097
 6755SOL     OW21163   2.648   5.697   6.322
 6755SOL    HW121164   2.702   5.662   6.399
 6755SOL    HW221165   2.675   5.650   6.238
 6756SOL     OW21166   2.527   2.065   5.575
 6756SOL    HW121167   2.614   2.020   5.595
 6756SOL    HW221168   2.521   2.084   5.477
 6757SOL     OW21169   3.840   6.839   0.402
 6757SOL    HW121170   3.808   6.806   0.313
 6757SOL    HW221171   3.938   6.857   0.397
 6758SOL     OW21172   5.923   2.050   2.763
 6758SOL    HW121173   5.864   1.970   2.769
 6758SOL    HW221174   5.979   2.056   2.846
 6759SOL     OW21175   0.901   2.599   2.842
 6759SOL    HW121176   0.860   2.538   2.775
 6759SOL    HW221177   0.836   2.616   2.916
 6760SOL     OW21178   5.239   2.476   3.143
 6760SOL    HW121179   5.207   2.524   3.061
 6760SOL    HW221180   5.174   2.403   3.166
 6761SOL     OW21181   4.085   2.169   4.599
 6761SOL    HW121182   4.033   2.158   4.684
 6761SOL    HW221183   4.097   2.080   4.555
 6762SOL     OW21184   0.012   6.086   4.063
 6762SOL    HW121185   0.104   6.051   4.078
 6762SOL    HW221186   6.973   6.012   4.071
 6763SOL     OW21187   5.136   5.314   5.254
 6763SOL    HW121188   5.089   5.278   5.334
 6763SOL    HW221189   5.204   5.248   5.222
 6764SOL     OW21190   1.794   5.306   1.059
 6764SOL    HW121191   1.706   5.353   1.057
 6764SOL    HW221192   1.785   5.215   1.019
 6765SOL     OW21193   6.584   5.244   2.670
 6765SOL    HW121194   6.567   5.162   2.616
 6765SOL    HW221195   6.524   5.245   2.749
 6766SOL     OW21196   5.924   0.545   0.624
 6766SOL    HW121197   5.959   0.616   0.563
 6766SOL    HW221198   5.918   0.459   0.574
 6767SOL     OW21199   3.009   0.451   0.411
 6767SOL    HW121200   3.107   0.453   0.431
 6767SOL    HW221201   2.963   0.523   0.463
 6768SOL     OW21202   1.571   0.908   0.770
 6768SOL    HW121203   1.594   0.890   0.674
 6768SOL    HW221204   1.553   0.821   0.816
 6769SOL     OW21205   4.511   2.765   1.335
 6769SOL    HW121206   4.553   2.678   1.357
 6769SOL    HW221207   4.411   2.756   1.341
 6770SOL     OW21208   0.187   0.351   1.667
 6770SOL    HW121209   0.275   0.367   1.621
 6770SOL    HW221210   0.188   0.261   1.710
 6771SOL     OW21211   4.081   2.161   3.400
 6771SOL    HW121212   4.135   2.229   3.450
 6771SOL    HW221213   4.117   2.152   3.307
 6772SOL     OW21214   2.761   1.716   2.384
 6772SOL    HW121215   2.744   1.776   2.462
 6772SOL    HW221216   2.760   1.770   2.300
 6773SOL     OW21217   0.391   4.054   2.527
 6773SOL    HW121218   0.317   4.097   2.476
 6773SOL    HW221219   0.458   4.124   2.552
 6774SOL     OW21220   0.723   1.852   0.059
 6774SOL    HW121221   0.687   1.925   0.002
 6774SOL    HW221222   0.796   1.804   0.010
 6775SOL     OW21223   2.512   4.645   0.783
 6775SOL    HW121224   2.601   4.631   0.827
 6775SOL    HW221225   2.464   4.721   0.828
 6776SOL     OW21226   6.303   5.332   6.918
 6776SOL    HW121227   6.271   5.340   7.012
 6776SOL    HW221228   6.351   5.245   6.906
 6777SOL     OW21229   4.423   4.705   6.314
 6777SOL    HW121230   4.383   4.674   6.400
 6777SOL    HW221231   4.460   4.797   6.326
 6778SOL     OW21232   0.908   5.514   2.922
 6778SOL    HW121233   0.955   5.470   2.999
 6778SOL    HW221234   0.974   5.536   2.850
 6779SOL     OW21235   0.099   5.035   0.721
 6779SOL    HW121236   0.123   5.060   0.627
 6779SOL    HW221237   0.172   4.977   0.759
 6780SOL     OW21238   0.318   2.198   1.859
 6780SOL    HW121239   0.406   2.246   1.867
 6780SOL    HW221240   0.244   2.259   1.888
 6781SOL     OW21241   5.438   5.572   5.792
 6781SOL    HW121242   5.392   5.590   5.705
 6781SOL    HW221243   5.456   5.658   5.839
 6782SOL     OW21244   6.474   1.564   2.799
 6782SOL    HW121245   6.453   1.646   2.852
 6782SOL    HW221246   6.418   1.488   2.832
 6783SOL     OW21247   0.254   6.345   6.849
 6783SOL    HW121248   0.206   6.279   6.791
 6783SOL    HW221249   0.192   6.379   6.919
 6784SOL     OW21250   3.329   3.393   0.448
 6784SOL    HW121251   3.330   3.388   0.548
 6784SOL    HW221252   3.353   3.486   0.420
 6785SOL     OW21253   5.554   6.013   2.193
 6785SOL    HW121254   5.584   5.923   2.163
 6785SOL    HW221255   5.565   6.021   2.292
 6786SOL     OW21256   1.889   2.730   5.801
 6786SOL    HW121257   1.922   2.680   5.881
 6786SOL    HW221258   1.936   2.696   5.719
 6787SOL     OW21259   1.575   3.547   2.247
 6787SOL    HW121260   1.670   3.576   2.232
 6787SOL    HW221261   1.571   3.484   2.325
 6788SOL     OW21262   3.381   3.687   0.931
 6788SOL    HW121263   3.384   3.693   0.832
 6788SOL    HW221264   3.288   3.664   0.961
 6789SOL     OW21265   0.562   6.592   2.579
 6789SOL    HW121266   0.624   6.517   2.601
 6789SOL    HW221267   0.491   6.559   2.517
 6790SOL     OW21268   2.124   2.985   0.099
 6790SOL    HW121269   2.094   3.044   0.174
 6790SOL    HW221270   2.048   2.970   0.035
 6791SOL     OW21271   4.308   3.075   6.034
 6791SOL    HW121272   4.374   3.028   6.094
 6791SOL    HW221273   4.307   3.031   5.945
 6792SOL     OW21274   6.188   6.112   0.471
 6792SOL    HW121275   6.219   6.108   0.376
 6792SOL    HW221276   6.249   6.058   0.528
 6793SOL     OW21277   0.775   2.941   1.594
 6793SOL    HW121278   0.724   2.858   1.618
 6793SOL    HW221279   0.826   2.926   1.510
 6794SOL     OW21280   5.301   1.283   5.321
 6794SOL    HW121281   5.206   1.253   5.324
 6794SOL    HW221282   5.357   1.212   5.277
 6795SOL     OW21283   3.104   6.017   0.479
 6795SOL    HW121284   3.113   6.002   0.380
 6795SOL    HW221285   3.038   5.951   0.517
 6796SOL     OW21286   4.456   1.645   2.909
 6796SOL    HW121287   4.497   1.600   2.988
 6796SOL    HW221288   4.523   1.648   2.834
 6797SOL     OW21289   5.474   3.284   2.360
 6797SOL    HW121290   5.482   3.362   2.422
 6797SOL    HW221291   5.516   3.307   2.272
 6798SOL     OW21292   5.313   5.892   2.535
 6798SOL    HW121293   5.266   5.857   2.616
 6798SOL    HW221294   5.360   5.817   2.489
 6799SOL     OW21295   5.272   6.086   0.260
 6799SOL    HW121296   5.186   6.121   0.298
 6799SOL    HW221297   5.349   6.136   0.298
 6800SOL     OW21298   1.961   4.944   0.227
 6800SOL    HW121299   2.004   5.029   0.257
 6800SOL    HW221300   1.946   4.884   0.305
 6801SOL     OW21301   1.354   2.372   2.231
 6801SOL    HW121302   1.361   2.471   2.221
 6801SOL    HW221303   1.367   2.347   2.327
 6802SOL     OW21304   2.420   6.242   1.728
 6802SOL    HW121305   2.367   6.199   1.655
 6802SOL    HW221306   2.518   6.228   1.711
 6803SOL     OW21307   5.070   1.739   7.006
 6803SOL    HW121308   4.978   1.761   0.013
 6803SOL    HW221309   5.134   1.810   0.007
 6804SOL     OW21310   1.655   6.123   3.640
 6804SOL    HW121311   1.719   6.105   3.715
 6804SOL    HW221312   1.655   6.046   3.577
 6805SOL     OW21313   6.000   0.376   4.759
 6805SOL    HW121314   6.058   0.337   4.688
 6805SOL    HW221315   5.920   0.420   4.717
 6806SOL     OW21316   4.367   0.899   5.282
 6806SOL    HW121317   4.428   0.853   5.348
 6806SOL    HW221318   4.381   0.998   5.288
 6807SOL     OW21319   3.079   2.999   0.089
 6807SOL    HW121320   3.042   2.925   0.145
 6807SOL    HW221321   3.013   3.025   0.019
 6808SOL     OW21322   0.874   2.556   6.010
 6808SOL    HW121323   0.879   2.500   5.928
 6808SOL    HW221324   0.948   2.532   6.072
 6809SOL     OW21325   2.522   3.749   6.880
 6809SOL    HW121326   2.499   3.741   6.783
 6809SOL    HW221327   2.585   3.825   6.893
 6810SOL     OW21328   6.461   0.969   2.547
 6810SOL    HW121329   6.407   0.960   2.463
 6810SOL    HW221330   6.474   1.066   2.569
 6811SOL     OW21331   5.950   4.775   1.469
 6811SOL    HW121332   6.035   4.805   1.426
 6811SOL    HW221333   5.961   4.681   1.502
 6812SOL     OW21334   3.472   3.303   3.188
 6812SOL    HW121335   3.437   3.261   3.104
 6812SOL    HW221336   3.456   3.241   3.265
 6813SOL     OW21337   4.494   2.826   0.737
 6813SOL    HW121338   4.589   2.795   0.731
 6813SOL    HW221339   4.481   2.876   0.823
 6814SOL     OW21340   2.655   3.606   0.884
 6814SOL    HW121341   2.654   3.689   0.940
 6814SOL    HW221342   2.569   3.600   0.833
 6815SOL     OW21343   2.339   0.515   1.566
 6815SOL    HW121344   2.307   0.514   1.661
 6815SOL    HW221345   2.261   0.506   1.504
 6816SOL     OW21346   6.720   4.797   0.089
 6816SOL    HW121347   6.635   4.745   0.086
 6816SOL    HW221348   6.785   4.758   0.023
 6817SOL     OW21349   6.994   1.942   5.966
 6817SOL    HW121350   6.969   1.976   6.057
 6817SOL    HW221351   0.060   1.905   5.970
 6818SOL     OW21352   3.849   6.131   2.922
 6818SOL    HW121353   3.872   6.040   2.955
 6818SOL    HW221354   3.930   6.190   2.927
 6819SOL     OW21355   3.744   1.056   3.859
 6819SOL    HW121356   3.831   1.064   3.907
 6819SOL    HW221357   3.704   0.966   3.877
 6820SOL     OW21358   1.177   4.183   3.017
 6820SOL    HW121359   1.139   4.193   3.109
 6820SOL    HW221360   1.276   4.170   3.022
 6821SOL     OW21361   2.389   2.650   4.495
 6821SOL    HW121362   2.312   2.587   4.479
 6821SOL    HW221363   2.474   2.606   4.467
 6822SOL     OW21364   5.732   2.168   5.845
 6822SOL    HW121365   5.817   2.162   5.792
 6822SOL    HW221366   5.665   2.222   5.795
 6823SOL     OW21367   3.161   2.993   3.098
 6823SOL    HW121368   3.207   2.959   3.017
 6823SOL    HW221369   3.082   3.048   3.071
 6824SOL     OW21370   0.881   4.370   6.871
 6824SOL    HW121371   0.828   4.455   6.877
 6824SOL    HW221372   0.819   4.295   6.850
 6825SOL     OW21373   5.142   6.822   2.197
 6825SOL    HW121374   5.125   6.891   2.268
 6825SOL    HW221375   5.240   6.809   2.185
 6826SOL     OW21376   1.706   3.521   2.858
 6826SOL    HW121377   1.720   3.569   2.945
 6826SOL    HW221378   1.766   3.561   2.788
 6827SOL     OW21379   5.716   5.802   6.121
 6827SOL    HW121380   5.751   5.711   6.145
 6827SOL    HW221381   5.686   5.849   6.204
 6828SOL     OW21382   1.396   2.433   1.185
 6828SOL    HW121383   1.472   2.412   1.124
 6828SOL    HW221384   1.428   2.489   1.261
 6829SOL     OW21385   5.255   6.010   3.501
 6829SOL    HW121386   5.186   5.946   3.467
 6829SOL    HW221387   5.272   6.080   3.432
 6830SOL     OW21388   5.361   2.005   3.369
 6830SOL    HW121389   5.364   2.104   3.378
 6830SOL    HW221390   5.416   1.963   3.441
 6831SOL     OW21391   0.612   0.388   5.552
 6831SOL    HW121392   0.556   0.306   5.570
 6831SOL    HW221393   0.689   0.390   5.615
 6832SOL     OW21394   3.507   5.150   2.155
 6832SOL    HW121395   3.449   5.085   2.105
 6832SOL    HW221396   3.462   5.239   2.156
 6833SOL     OW21397   4.119   4.850   0.494
 6833SOL    HW121398   4.064   4.780   0.538
 6833SOL    HW221399   4.214   4.843   0.524
 6834SOL     OW21400   3.918   6.271   1.935
 6834SOL    HW121401   3.966   6.197   1.980
 6834SOL    HW221402   3.819   6.257   1.942
 6835SOL     OW21403   4.031   6.929   4.943
 6835SOL    HW121404   3.938   6.946   4.974
 6835SOL    HW221405   4.054   6.992   4.869
 6836SOL     OW21406   3.712   6.779   6.967
 6836SOL    HW121407   3.752   6.710   6.907
 6836SOL    HW221408   3.726   6.870   6.928
 6837SOL     OW21409   1.678   3.311   1.968
 6837SOL    HW121410   1.697   3.297   2.065
 6837SOL    HW221411   1.596   3.369   1.958
 6838SOL     OW21412   2.587   1.454   0.039
 6838SOL    HW121413   2.510   1.502   7.023
 6838SOL    HW221414   2.626   1.510   0.111
 6839SOL     OW21415   4.356   1.205   0.693
 6839SOL    HW121416   4.386   1.181   0.601
 6839SOL    HW221417   4.303   1.290   0.691
 6840SOL     OW21418   1.713   1.385   6.055
 6840SOL    HW121419   1.762   1.309   6.098
 6840SOL    HW221420   1.651   1.427   6.122
 6841SOL     OW21421   6.403   2.857   6.298
 6841SOL    HW121422   6.444   2.926   6.358
 6841SOL    HW221423   6.461   2.844   6.218
 6842SOL     OW21424   2.372   4.940   2.758
 6842SOL    HW121425   2.373   4.869   2.829
 6842SOL    HW221426   2.296   5.002   2.774
 6843SOL     OW21427   4.800   6.538   6.622
 6843SOL    HW121428   4.802   6.439   6.641
 6843SOL    HW221429   4.763   6.586   6.701
 6844SOL     OW21430   5.275   0.830   5.503
 6844SOL    HW121431   5.360   0.829   5.556
 6844SOL    HW221432   5.197   0.817   5.565
 6845SOL     OW21433   5.168   1.944   2.284
 6845SOL    HW121434   5.146   1.931   2.381
 6845SOL    HW221435   5.084   1.952   2.232
 6846SOL     OW21436   2.378   3.599   0.197
 6846SOL    HW121437   2.474   3.628   0.196
 6846SOL    HW221438   2.343   3.596   0.104
 6847SOL     OW21439   6.019   3.726   4.180
 6847SOL    HW121440   5.960   3.698   4.256
 6847SOL    HW221441   6.086   3.655   4.162
 6848SOL     OW21442   6.050   4.924   3.285
 6848SOL    HW121443   5.981   4.855   3.302
 6848SOL    HW221444   6.026   5.008   3.333
 6849SOL     OW21445   3.904   4.325   6.692
 6849SOL    HW121446   3.873   4.313   6.786
 6849SOL    HW221447   3.911   4.422   6.670
 6850SOL     OW21448   4.045   1.579   3.550
 6850SOL    HW121449   4.073   1.546   3.641
 6850SOL    HW221450   4.006   1.671   3.559
 6851SOL     OW21451   1.717   2.970   3.726
 6851SOL    HW121452   1.738   3.066   3.743
 6851SOL    HW221453   1.747   2.945   3.634
 6852SOL     OW21454   2.639   5.317   0.478
 6852SOL    HW121455   2.690   5.274   0.403
 6852SOL    HW221456   2.659   5.268   0.563
 6853SOL     OW21457   5.155   3.147   0.101
 6853SOL    HW121458   5.231   3.085   0.084
 6853SOL    HW221459   5.074   3.114   0.053
 6854SOL     OW21460   5.222   6.544   5.853
 6854SOL    HW121461   5.243   6.495   5.938
 6854SOL    HW221462   5.306   6.579   5.813
 6855SOL     OW21463   3.818   5.359   3.803
 6855SOL    HW121464   3.908   5.315   3.810
 6855SOL    HW221465   3.826   5.442   3.747
 6856SOL     OW21466   1.025   1.888   6.949
 6856SOL    HW121467   1.070   1.802   6.976
 6856SOL    HW221468   0.977   1.875   6.862
 6857SOL     OW21469   0.823   3.745   5.431
 6857SOL    HW121470   0.736   3.749   5.382
 6857SOL    HW221471   0.878   3.825   5.410
 6858SOL     OW21472   2.854   4.156   1.613
 6858SOL    HW121473   2.867   4.252   1.637
 6858SOL    HW221474   2.923   4.100   1.659
 6859SOL     OW21475   0.908   1.140   2.635
 6859SOL    HW121476   0.987   1.082   2.617
 6859SOL    HW221477   0.891   1.199   2.556
 6860SOL     OW21478   0.719   6.553   2.217
 6860SOL    HW121479   0.788   6.616   2.254
 6860SOL    HW221480   0.765   6.474   2.176
 6861SOL     OW21481   5.195   2.465   5.000
 6861SOL    HW121482   5.115   2.413   5.029
 6861SOL    HW221483   5.167   2.554   4.965
 6862SOL     OW21484   0.567   4.535   5.297
 6862SOL    HW121485   0.618   4.542   5.212
 6862SOL    HW221486   0.551   4.627   5.333
 6863SOL     OW21487   6.559   6.844   5.813
 6863SOL    HW121488   6.484   6.814   5.755
 6863SOL    HW221489   6.626   6.895   5.759
 6864SOL     OW21490   1.342   3.824   6.218
 6864SOL    HW121491   1.369   3.888   6.146
 6864SOL    HW221492   1.296   3.745   6.177
 6865SOL     OW21493   2.376   6.914   4.288
 6865SOL    HW121494   2.400   6.862   4.206
 6865SOL    HW221495   2.363   7.010   4.264
 6866SOL     OW21496   0.550   4.218   1.591
 6866SOL    HW121497   0.647   4.218   1.613
 6866SOL    HW221498   0.498   4.180   1.668
 6867SOL     OW21499   2.177   3.650   6.856
 6867SOL    HW121500   2.202   3.746   6.859
 6867SOL    HW221501   2.101   3.633   6.920
 6868SOL     OW21502   2.561   5.128   4.364
 6868SOL    HW121503   2.536   5.041   4.321
 6868SOL    HW221504   2.647   5.116   4.415
 6869SOL     OW21505   4.008   0.945   5.733
 6869SOL    HW121506   4.031   0.860   5.685
 6869SOL    HW221507   3.912   0.942   5.763
 6870SOL     OW21508   6.907   2.814   1.050
 6870SOL    HW121509   6.896   2.906   1.011
 6870SOL    HW221510   6.822   2.785   1.094
 6871SOL     OW21511   0.722   3.752   2.636
 6871SOL    HW121512   0.797   3.721   2.694
 6871SOL    HW221513   0.754   3.759   2.541
 6872SOL     OW21514   2.431   3.520   0.726
 6872SOL    HW121515   2.372   3.448   0.761
 6872SOL    HW221516   2.394   3.555   0.640
 6873SOL     OW21517   1.082   4.205   4.374
 6873SOL    HW121518   1.003   4.187   4.433
 6873SOL    HW221519   1.120   4.119   4.342
 6874SOL     OW21520   5.417   6.588   3.688
 6874SOL    HW121521   5.504   6.561   3.645
 6874SOL    HW221522   5.341   6.554   3.633
 6875SOL     OW21523   1.231   2.560   0.660
 6875SOL    HW121524   1.141   2.528   0.688
 6875SOL    HW221525   1.299   2.528   0.726
 6876SOL     OW21526   4.558   5.655   3.689
 6876SOL    HW121527   4.574   5.741   3.738
 6876SOL    HW221528   4.496   5.598   3.742
 6877SOL     OW21529   1.701   3.729   2.478
 6877SOL    HW121530   1.667   3.777   2.397
 6877SOL    HW221531   1.651   3.760   2.558
 6878SOL     OW21532   1.999   0.165   4.650
 6878SOL    HW121533   2.010   0.103   4.727
 6878SOL    HW221534   1.911   0.213   4.658
 6879SOL     OW21535   1.874   1.975   0.280
 6879SOL    HW121536   1.826   2.049   0.233
 6879SOL    HW221537   1.834   1.963   0.371
 6880SOL     OW21538   1.397   5.597   6.713
 6880SOL    HW121539   1.383   5.691   6.683
 6880SOL    HW221540   1.355   5.535   6.647
 6881SOL     OW21541   1.293   3.049   0.460
 6881SOL    HW121542   1.370   3.106   0.432
 6881SOL    HW221543   1.306   3.020   0.555
 6882SOL     OW21544   2.980   6.521   6.313
 6882SOL    HW121545   2.944   6.610   6.282
 6882SOL    HW221546   3.014   6.530   6.406
 6883SOL     OW21547   5.170   0.194   6.887
 6883SOL    HW121548   5.083   0.145   6.888
 6883SOL    HW221549   5.231   0.153   6.819
 6884SOL     OW21550   1.873   3.939   2.931
 6884SOL    HW121551   1.868   3.972   2.837
 6884SOL    HW221552   1.965   3.904   2.950
 6885SOL     OW21553   5.754   5.761   4.877
 6885SOL    HW121554   5.741   5.850   4.833
 6885SOL    HW221555   5.666   5.728   4.911
 6886SOL     OW21556   4.896   1.843   6.583
 6886SOL    HW121557   4.988   1.878   6.565
 6886SOL    HW221558   4.853   1.898   6.655
 6887SOL     OW21559   5.345   5.906   6.226
 6887SOL    HW121560   5.395   5.971   6.168
 6887SOL    HW221561   5.267   5.951   6.268
 6888SOL     OW21562   5.934   4.869   6.511
 6888SOL    HW121563   5.932   4.870   6.611
 6888SOL    HW221564   5.891   4.785   6.478
 6889SOL     OW21565   0.618   2.029   6.925
 6889SOL    HW121566   0.588   2.004   6.833
 6889SOL    HW221567   0.657   2.121   6.923
 6890SOL     OW21568   4.461   4.988   2.931
 6890SOL    HW121569   4.368   5.022   2.947
 6890SOL    HW221570   4.462   4.934   2.846
 6891SOL     OW21571   1.813   1.201   1.023
 6891SOL    HW121572   1.846   1.278   1.076
 6891SOL    HW221573   1.730   1.227   0.974
 6892SOL     OW21574   2.897   0.997   4.407
 6892SOL    HW121575   2.839   0.919   4.431
 6892SOL    HW221576   2.994   0.970   4.412
 6893SOL     OW21577   6.542   3.197   0.317
 6893SOL    HW121578   6.570   3.123   0.256
 6893SOL    HW221579   6.572   3.177   0.410
 6894SOL     OW21580   5.803   5.313   0.621
 6894SOL    HW121581   5.741   5.382   0.659
 6894SOL    HW221582   5.751   5.234   0.591
 6895SOL     OW21583   0.791   6.627   1.345
 6895SOL    HW121584   0.723   6.596   1.279
 6895SOL    HW221585   0.755   6.704   1.398
 6896SOL     OW21586   4.213   2.305   4.429
 6896SOL    HW121587   4.151   2.264   4.496
 6896SOL    HW221588   4.210   2.254   4.343
 6897SOL     OW21589   4.887   3.541   5.327
 6897SOL    HW121590   4.977   3.528   5.287
 6897SOL    HW221591   4.824   3.576   5.257
 6898SOL     OW21592   2.528   1.213   1.389
 6898SOL    HW121593   2.467   1.253   1.458
 6898SOL    HW221594   2.618   1.257   1.395
 6899SOL     OW21595   6.152   6.182   2.853
 6899SOL    HW121596   6.161   6.242   2.773
 6899SOL    HW221597   6.192   6.092   2.831
 6900SOL     OW21598   6.591   3.905   5.340
 6900SOL    HW121599   6.635   3.853   5.266
 6900SOL    HW221600   6.659   3.926   5.410
 6901SOL     OW21601   4.807   4.537   6.488
 6901SOL    HW121602   4.791   4.503   6.581
 6901SOL    HW221603   4.776   4.631   6.481
 6902SOL     OW21604   0.668   5.662   6.028
 6902SOL    HW121605   0.660   5.587   5.962
 6902SOL    HW221606   0.762   5.668   6.061
 6903SOL     OW21607   1.857   5.626   4.537
 6903SOL    HW121608   1.770   5.634   4.488
 6903SOL    HW221609   1.909   5.549   4.500
 6904SOL     OW21610   6.500   6.626   5.264
 6904SOL    HW121611   6.442   6.649   5.186
 6904SOL    HW221612   6.460   6.550   5.314
 6905SOL     OW21613   4.554   5.757   6.217
 6905SOL    HW121614   4.636   5.814   6.210
 6905SOL    HW221615   4.581   5.661   6.218
 6906SOL     OW21616   3.520   1.742   3.508
 6906SOL    HW121617   3.583   1.808   3.549
 6906SOL    HW221618   3.439   1.733   3.567
 6907SOL     OW21619   5.930   2.056   0.499
 6907SOL    HW121620   5.971   2.001   0.426
 6907SOL    HW221621   5.833   2.032   0.507
 6908SOL     OW21622   2.753   4.549   0.008
 6908SOL    HW121623   2.655   4.562   0.019
 6908SOL    HW221624   2.774   4.451   0.007
 6909SOL     OW21625   6.021   6.125   2.459
 6909SOL    HW121626   5.938   6.070   2.465
 6909SOL    HW221627   6.099   6.067   2.438
 6910SOL     OW21628   1.430   2.661   3.428
 6910SOL    HW121629   1.490   2.607   3.369
 6910SOL    HW221630   1.454   2.758   3.420
 6911SOL     OW21631   2.537   6.935   5.712
 6911SOL    HW121632   2.565   7.025   5.744
 6911SOL    HW221633   2.469   6.945   5.639
 6912SOL     OW21634   2.814   3.855   0.057
 6912SOL    HW121635   2.776   3.942   0.025
 6912SOL    HW221636   2.904   3.840   0.016
 6913SOL     OW21637   4.887   6.450   5.881
 6913SOL    HW121638   4.953   6.477   5.812
 6913SOL    HW221639   4.930   6.453   5.972
 6914SOL     OW21640   6.677   2.947   2.410
 6914SOL    HW121641   6.634   3.037   2.403
 6914SOL    HW221642   6.677   2.903   2.320
 6915SOL     OW21643   0.874   2.941   2.919
 6915SOL    HW121644   0.791   2.928   2.865
 6915SOL    HW221645   0.947   2.883   2.882
 6916SOL     OW21646   4.750   5.857   7.019
 6916SOL    HW121647   4.830   5.842   6.961
 6916SOL    HW221648   4.772   5.924   0.063
 6917SOL     OW21649   5.371   5.407   1.235
 6917SOL    HW121650   5.369   5.499   1.196
 6917SOL    HW221651   5.379   5.339   1.162
 6918SOL     OW21652   2.086   3.547   1.602
 6918SOL    HW121653   2.158   3.616   1.598
 6918SOL    HW221654   2.102   3.487   1.681
 6919SOL     OW21655   6.301   6.064   3.479
 6919SOL    HW121656   6.295   6.118   3.562
 6919SOL    HW221657   6.245   6.106   3.408
 6920SOL     OW21658   5.978   0.459   5.708
 6920SOL    HW121659   5.907   0.499   5.768
 6920SOL    HW221660   5.937   0.389   5.651
 6921SOL     OW21661   4.024   0.437   4.221
 6921SOL    HW121662   4.004   0.399   4.131
 6921SOL    HW221663   4.121   0.426   4.241
 6922SOL     OW21664   1.510   4.900   5.912
 6922SOL    HW121665   1.443   4.828   5.927
 6922SOL    HW221666   1.463   4.986   5.894
 6923SOL     OW21667   6.192   0.032   2.866
 6923SOL    HW121668   6.261   6.988   2.848
 6923SOL    HW221669   6.171   0.035   2.964
 6924SOL     OW21670   3.356   6.100   0.925
 6924SOL    HW121671   3.372   6.079   1.022
 6924SOL    HW221672   3.365   6.017   0.871
 6925SOL     OW21673   5.695   6.181   6.077
 6925SOL    HW121674   5.660   6.099   6.030
 6925SOL    HW221675   5.787   6.163   6.112
 6926SOL     OW21676   2.929   2.599   0.046
 6926SOL    HW121677   2.965   2.535   7.005
 6926SOL    HW221678   2.850   2.558   0.092
 6927SOL     OW21679   4.851   0.467   0.666
 6927SOL    HW121680   4.927   0.448   0.603
 6927SOL    HW221681   4.788   0.389   0.668
 6928SOL     OW21682   4.531   5.129   0.959
 6928SOL    HW121683   4.622   5.167   0.978
 6928SOL    HW221684   4.467   5.203   0.940
 6929SOL     OW21685   6.345   5.334   1.247
 6929SOL    HW121686   6.431   5.294   1.277
 6929SOL    HW221687   6.294   5.267   1.194
 6930SOL     OW21688   1.393   0.215   0.892
 6930SOL    HW121689   1.296   0.219   0.866
 6930SOL    HW221690   1.439   0.298   0.862
 6931SOL     OW21691   3.046   2.969   0.744
 6931SOL    HW121692   3.021   3.058   0.706
 6931SOL    HW221693   2.995   2.952   0.828
 6932SOL     OW21694   4.899   5.598   0.154
 6932SOL    HW121695   4.884   5.554   0.065
 6932SOL    HW221696   4.991   5.577   0.186
 6933SOL     OW21697   3.466   5.445   6.415
 6933SOL    HW121698   3.485   5.352   6.384
 6933SOL    HW221699   3.551   5.487   6.448
 6934SOL     OW21700   5.065   3.787   0.197
 6934SOL    HW121701   5.048   3.876   0.238
 6934SOL    HW221702   5.070   3.718   0.269
 6935SOL     OW21703   5.073   5.704   1.640
 6935SOL    HW121704   5.081   5.801   1.617
 6935SOL    HW221705   5.039   5.653   1.561
 6936SOL     OW21706   0.937   2.346   5.070
 6936SOL    HW121707   1.013   2.312   5.016
 6936SOL    HW221708   0.967   2.427   5.121
 6937SOL     OW21709   5.268   5.725   6.997
 6937SOL    HW121710   5.227   5.664   0.037
 6937SOL    HW221711   5.205   5.738   6.920
 6938SOL     OW21712   1.446   0.486   4.998
 6938SOL    HW121713   1.380   0.425   4.956
 6938SOL    HW221714   1.458   0.462   5.094
 6939SOL     OW21715   6.146   4.068   3.384
 6939SOL    HW121716   6.129   4.159   3.423
 6939SOL    HW221717   6.130   3.998   3.453
 6940SOL     OW21718   3.345   5.970   0.628
 6940SOL    HW121719   3.374   6.042   0.690
 6940SOL    HW221720   3.253   5.990   0.593
 6941SOL     OW21721   3.366   3.722   2.720
 6941SOL    HW121722   3.461   3.751   2.717
 6941SOL    HW221723   3.306   3.801   2.704
 6942SOL     OW21724   6.236   6.868   1.745
 6942SOL    HW121725   6.269   6.877   1.838
 6942SOL    HW221726   6.279   6.937   1.687
 6943SOL     OW21727   4.753   4.820   6.477
 6943SOL    HW121728   4.655   4.838   6.484
 6943SOL    HW221729   4.791   4.875   6.403
 6944SOL     OW21730   1.069   4.465   5.389
 6944SOL    HW121731   1.167   4.483   5.383
 6944SOL    HW221732   1.055   4.367   5.405
 6945SOL     OW21733   5.911   2.411   0.865
 6945SOL    HW121734   5.886   2.346   0.937
 6945SOL    HW221735   5.962   2.363   0.793
 6946SOL     OW21736   4.297   5.512   3.132
 6946SOL    HW121737   4.382   5.513   3.081
 6946SOL    HW221738   4.232   5.449   3.089
 6947SOL     OW21739   5.247   4.813   5.016
 6947SOL    HW121740   5.318   4.753   4.981
 6947SOL    HW221741   5.258   4.904   4.978
 6948SOL     OW21742   0.082   4.777   0.483
 6948SOL    HW121743   0.143   4.854   0.500
 6948SOL    HW221744   0.135   4.696   0.461
 6949SOL     OW21745   2.379   1.373   3.906
 6949SOL    HW121746   2.283   1.366   3.878
 6949SOL    HW221747   2.427   1.435   3.845
 6950SOL     OW21748   0.449   0.391   4.338
 6950SOL    HW121749   0.420   0.458   4.406
 6950SOL    HW221750   0.526   0.338   4.373
 6951SOL     OW21751   0.348   5.148   6.402
 6951SOL    HW121752   0.295   5.204   6.466
 6951SOL    HW221753   0.297   5.137   6.317
 6952SOL     OW21754   4.138   5.586   3.342
 6952SOL    HW121755   4.205   5.550   3.278
 6952SOL    HW221756   4.091   5.510   3.388
 6953SOL     OW21757   5.419   1.317   1.384
 6953SOL    HW121758   5.455   1.387   1.446
 6953SOL    HW221759   5.399   1.360   1.295
 6954SOL     OW21760   6.061   3.952   0.344
 6954SOL    HW121761   6.139   4.010   0.367
 6954SOL    HW221762   6.069   3.865   0.393
 6955SOL     OW21763   4.879   6.669   2.185
 6955SOL    HW121764   4.965   6.706   2.220
 6955SOL    HW221765   4.823   6.744   2.148
 6956SOL     OW21766   5.423   5.633   2.524
 6956SOL    HW121767   5.506   5.664   2.571
 6956SOL    HW221768   5.367   5.578   2.587
 6957SOL     OW21769   5.492   5.785   5.957
 6957SOL    HW121770   5.495   5.870   5.905
 6957SOL    HW221771   5.562   5.787   6.028
 6958SOL     OW21772   2.973   3.872   3.718
 6958SOL    HW121773   2.875   3.852   3.720
 6958SOL    HW221774   3.017   3.818   3.647
 6959SOL     OW21775   0.616   3.997   3.033
 6959SOL    HW121776   0.630   4.083   3.082
 6959SOL    HW221777   0.624   3.921   3.098
 6960SOL     OW21778   3.076   4.085   0.486
 6960SOL    HW121779   3.098   4.182   0.479
 6960SOL    HW221780   3.033   4.054   0.401
 6961SOL     OW21781   4.799   1.947   4.809
 6961SOL    HW121782   4.874   1.992   4.857
 6961SOL    HW221783   4.718   2.006   4.809
 6962SOL     OW21784   2.212   6.579   6.453
 6962SOL    HW121785   2.236   6.482   6.450
 6962SOL    HW221786   2.244   6.625   6.370
 6963SOL     OW21787   5.342   6.488   1.229
 6963SOL    HW121788   5.316   6.519   1.137
 6963SOL    HW221789   5.302   6.549   1.297
 6964SOL     OW21790   1.346   0.165   5.399
 6964SOL    HW121791   1.283   0.162   5.322
 6964SOL    HW221792   1.413   0.092   5.390
 6965SOL     OW21793   0.504   1.727   0.153
 6965SOL    HW121794   0.477   1.650   0.096
 6965SOL    HW221795   0.600   1.749   0.134
 6966SOL     OW21796   1.348   6.720   1.428
 6966SOL    HW121797   1.409   6.651   1.388
 6966SOL    HW221798   1.403   6.790   1.474
 6967SOL     OW21799   4.467   1.645   6.358
 6967SOL    HW121800   4.545   1.635   6.420
 6967SOL    HW221801   4.489   1.713   6.288
 6968SOL     OW21802   3.828   6.389   2.672
 6968SOL    HW121803   3.797   6.438   2.591
 6968SOL    HW221804   3.750   6.368   2.730
 6969SOL     OW21805   2.131   1.938   1.838
 6969SOL    HW121806   2.039   1.974   1.824
 6969SOL    HW221807   2.160   1.956   1.932
 6970SOL     OW21808   3.594   5.019   5.611
 6970SOL    HW121809   3.505   5.049   5.577
 6970SOL    HW221810   3.601   5.038   5.708
 6971SOL     OW21811   6.777   4.476   0.380
 6971SOL    HW121812   6.801   4.464   0.476
 6971SOL    HW221813   6.712   4.552   0.372
 6972SOL     OW21814   5.360   3.806   2.028
 6972SOL    HW121815   5.368   3.887   2.086
 6972SOL    HW221816   5.398   3.727   2.076
 6973SOL     OW21817   1.610   3.282   3.147
 6973SOL    HW121818   1.573   3.373   3.126
 6973SOL    HW221819   1.708   3.290   3.164
 6974SOL     OW21820   3.678   3.740   3.055
 6974SOL    HW121821   3.700   3.752   3.152
 6974SOL    HW221822   3.587   3.698   3.047
 6975SOL     OW21823   3.108   5.362   4.344
 6975SOL    HW121824   3.038   5.420   4.385
 6975SOL    HW221825   3.198   5.391   4.377
 6976SOL     OW21826   4.469   4.014   6.064
 6976SOL    HW121827   4.545   4.017   6.129
 6976SOL    HW221828   4.483   3.940   5.999
 6977SOL     OW21829   4.369   4.901   0.997
 6977SOL    HW121830   4.297   4.910   0.928
 6977SOL    HW221831   4.425   4.984   0.996
 6978SOL     OW21832   6.409   3.409   1.579
 6978SOL    HW121833   6.412   3.430   1.677
 6978SOL    HW221834   6.437   3.314   1.565
 6979SOL     OW21835   1.547   3.239   1.496
 6979SOL    HW121836   1.591   3.263   1.582
 6979SOL    HW221837   1.590   3.290   1.421
 6980SOL     OW21838   1.782   5.831   2.839
 6980SOL    HW121839   1.716   5.899   2.806
 6980SOL    HW221840   1.823   5.783   2.762
 6981SOL     OW21841   4.071   3.135   6.953
 6981SOL    HW121842   4.045   3.175   6.865
 6981SOL    HW221843   4.169   3.114   6.952
 6982SOL     OW21844   1.488   0.961   3.225
 6982SOL    HW121845   1.457   1.051   3.196
 6982SOL    HW221846   1.419   0.893   3.201
 6983SOL     OW21847   4.822   0.722   4.078
 6983SOL    HW121848   4.725   0.728   4.101
 6983SOL    HW221849   4.864   0.645   4.126
 6984SOL     OW21850   0.941   2.229   3.271
 6984SOL    HW121851   0.999   2.248   3.192
 6984SOL    HW221852   0.989   2.257   3.355
 6985SOL     OW21853   6.040   3.718   0.461
 6985SOL    HW121854   6.017   3.656   0.387
 6985SOL    HW221855   5.997   3.686   0.546
 6986SOL     OW21856   4.917   4.915   5.235
 6986SOL    HW121857   4.992   4.853   5.211
 6986SOL    HW221858   4.865   4.877   5.311
 6987SOL     OW21859   0.474   1.452   6.361
 6987SOL    HW121860   0.449   1.441   6.457
 6987SOL    HW221861   0.392   1.471   6.307
 6988SOL     OW21862   3.475   1.582   6.107
 6988SOL    HW121863   3.471   1.533   6.020
 6988SOL    HW221864   3.470   1.680   6.089
 6989SOL     OW21865   0.545   5.282   2.488
 6989SOL    HW121866   0.609   5.211   2.518
 6989SOL    HW221867   0.592   5.370   2.484
 6990SOL     OW21868   3.654   2.898   0.941
 6990SOL    HW121869   3.684   2.848   0.859
 6990SOL    HW221870   3.594   2.973   0.914
 6991SOL     OW21871   6.716   3.404   2.593
 6991SOL    HW121872   6.707   3.320   2.646
 6991SOL    HW221873   6.806   3.406   2.549
 6992SOL     OW21874   0.947   6.116   0.099
 6992SOL    HW121875   0.996   6.035   0.067
 6992SOL    HW221876   0.849   6.097   0.101
 6993SOL     OW21877   4.399   1.688   1.250
 6993SOL    HW121878   4.461   1.612   1.233
 6993SOL    HW221879   4.424   1.764   1.190
 6994SOL     OW21880   2.392   0.481   3.362
 6994SOL    HW121881   2.327   0.477   3.286
 6994SOL    HW221882   2.387   0.571   3.405
 6995SOL     OW21883   0.395   3.908   1.188
 6995SOL    HW121884   0.350   3.995   1.170
 6995SOL    HW221885   0.485   3.925   1.228
 6996SOL     OW21886   1.303   0.812   0.192
 6996SOL    HW121887   1.344   0.903   0.200
 6996SOL    HW221888   1.361   0.754   0.136
 6997SOL     OW21889   5.613   5.385   6.154
 6997SOL    HW121890   5.515   5.399   6.142
 6997SOL    HW221891   5.654   5.361   6.066
 6998SOL     OW21892   6.213   1.180   6.906
 6998SOL    HW121893   6.311   1.170   6.924
 6998SOL    HW221894   6.199   1.231   6.822
 6999SOL     OW21895   0.263   3.167   0.114
 6999SOL    HW121896   0.234   3.211   0.029
 6999SOL    HW221897   0.218   3.078   0.123
 7000SOL     OW21898   6.831   6.625   3.776
 7000SOL    HW121899   6.924   6.647   3.749
 7000SOL    HW221900   6.829   6.532   3.815
 7001SOL     OW21901   0.507   1.920   4.502
 7001SOL    HW121902   0.467   1.980   4.572
 7001SOL    HW221903   0.606   1.915   4.516
 7002SOL     OW21904   0.551   4.937   2.916
 7002SOL    HW121905   0.622   4.868   2.931
 7002SOL    HW221906   0.502   4.915   2.832
 7003SOL     OW21907   6.955   4.179   0.913
 7003SOL    HW121908   7.026   4.197   0.844
 7003SOL    HW221909   6.909   4.265   0.937
 7004SOL     OW21910   2.006   6.785   0.657
 7004SOL    HW121911   2.076   6.729   0.699
 7004SOL    HW221912   1.927   6.728   0.634
 7005SOL     OW21913   0.465   5.981   0.732
 7005SOL    HW121914   0.518   5.898   0.715
 7005SOL    HW221915   0.369   5.965   0.708
 7006SOL     OW21916   1.429   0.066   4.392
 7006SOL    HW121917   1.370   7.012   4.393
 7006SOL    HW221918   1.525   0.037   4.394
 7007SOL     OW21919   2.425   0.133   5.992
 7007SOL    HW121920   2.426   0.233   5.998
 7007SOL    HW221921   2.505   0.101   5.941
 7008SOL     OW21922   5.652   3.762   3.152
 7008SOL    HW121923   5.648   3.746   3.251
 7008SOL    HW221924   5.742   3.735   3.117
 7009SOL     OW21925   4.489   5.462   1.878
 7009SOL    HW121926   4.409   5.418   1.918
 7009SOL    HW221927   4.509   5.421   1.789
 7010SOL     OW21928   5.143   3.652   1.911
 7010SOL    HW121929   5.138   3.590   1.833
 7010SOL    HW221930   5.205   3.727   1.889
 7011SOL     OW21931   3.411   6.069   0.220
 7011SOL    HW121932   3.456   5.980   0.214
 7011SOL    HW221933   3.473   6.135   0.262
 7012SOL     OW21934   6.303   2.489   0.394
 7012SOL    HW121935   6.234   2.422   0.421
 7012SOL    HW221936   6.367   2.502   0.469
 7013SOL     OW21937   2.819   1.623   0.159
 7013SOL    HW121938   2.900   1.667   0.196
 7013SOL    HW221939   2.813   1.529   0.193
 7014SOL     OW21940   6.127   2.897   1.520
 7014SOL    HW121941   6.173   2.808   1.519
 7014SOL    HW221942   6.095   2.919   1.428
 7015SOL     OW21943   5.123   6.112   0.829
 7015SOL    HW121944   5.215   6.120   0.867
 7015SOL    HW221945   5.105   6.016   0.805
 7016SOL     OW21946   3.015   4.996   0.938
 7016SOL    HW121947   3.004   5.010   0.840
 7016SOL    HW221948   3.110   5.015   0.964
 7017SOL     OW21949   5.505   5.237   4.793
 7017SOL    HW121950   5.513   5.250   4.694
 7017SOL    HW221951   5.527   5.322   4.840
 7018SOL     OW21952   4.981   3.376   4.360
 7018SOL    HW121953   4.967   3.322   4.443
 7018SOL    HW221954   4.959   3.472   4.379
 7019SOL     OW21955   4.489   5.603   2.162
 7019SOL    HW121956   4.489   5.576   2.066
 7019SOL    HW221957   4.395   5.616   2.193
 7020SOL     OW21958   0.912   2.911   6.422
 7020SOL    HW121959   0.967   2.994   6.433
 7020SOL    HW221960   0.963   2.843   6.370
 7021SOL     OW21961   1.151   2.299   5.441
 7021SOL    HW121962   1.079   2.276   5.375
 7021SOL    HW221963   1.234   2.324   5.392
 7022SOL     OW21964   3.278   2.108   0.612
 7022SOL    HW121965   3.229   2.035   0.660
 7022SOL    HW221966   3.357   2.135   0.666
 7023SOL     OW21967   0.619   1.885   0.778
 7023SOL    HW121968   0.595   1.981   0.790
 7023SOL    HW221969   0.546   1.839   0.727
 7024SOL     OW21970   3.904   3.164   4.077
 7024SOL    HW121971   3.840   3.100   4.035
 7024SOL    HW221972   3.949   3.218   4.006
 7025SOL     OW21973   3.948   6.594   0.698
 7025SOL    HW121974   3.995   6.552   0.775
 7025SOL    HW221975   4.014   6.641   0.639
 7026SOL     OW21976   3.413   2.604   1.219
 7026SOL    HW121977   3.334   2.568   1.268
 7026SOL    HW221978   3.496   2.584   1.271
 7027SOL     OW21979   2.268   5.443   3.077
 7027SOL    HW121980   2.280   5.353   3.036
 7027SOL    HW221981   2.306   5.443   3.170
 7028SOL     OW21982   2.893   0.118   3.474
 7028SOL    HW121983   2.796   0.133   3.454
 7028SOL    HW221984   2.945   0.120   3.388
 7029SOL     OW21985   3.103   3.646   4.654
 7029SOL    HW121986   3.176   3.627   4.588
 7029SOL    HW221987   3.072   3.561   4.696
 7030SOL     OW21988   6.510   1.558   5.236
 7030SOL    HW121989   6.557   1.482   5.281
 7030SOL    HW221990   6.431   1.524   5.185
 7031SOL     OW21991   4.166   6.720   0.553
 7031SOL    HW121992   4.242   6.762   0.604
 7031SOL    HW221993   4.168   6.752   0.458
 7032SOL     OW21994   4.096   5.961   4.283
 7032SOL    HW121995   4.159   6.008   4.345
 7032SOL    HW221996   4.030   6.026   4.245
 7033SOL     OW21997   1.902   2.011   4.864
 7033SOL    HW121998   1.900   2.069   4.946
 7033SOL    HW221999   1.883   2.067   4.783
 7034SOL     OW22000   6.741   0.861   3.661
 7034SOL    HW122001   6.703   0.818   3.743
 7034SOL    HW222002   6.742   0.960   3.673
 7035SOL     OW22003   1.687   0.577   0.248
 7035SOL    HW122004   1.623   0.515   0.294
 7035SOL    HW222005   1.719   0.646   0.312
 7036SOL     OW22006   6.596   1.144   2.307
 7036SOL    HW122007   6.677   1.197   2.332
 7036SOL    HW222008   6.619   1.046   2.310
 7037SOL     OW22009   1.252   0.853   6.177
 7037SOL    HW122010   1.233   0.803   6.093
 7037SOL    HW222011   1.313   0.800   6.235
 7038SOL     OW22012   1.325   3.598   6.725
 7038SOL    HW122013   1.228   3.622   6.733
 7038SOL    HW222014   1.356   3.615   6.632
 7039SOL     OW22015   0.846   6.271   2.370
 7039SOL    HW122016   0.814   6.177   2.362
 7039SOL    HW222017   0.785   6.323   2.429
 7040SOL     OW22018   4.902   3.167   4.714
 7040SOL    HW122019   4.884   3.078   4.755
 7040SOL    HW222020   4.910   3.237   4.785
 7041SOL     OW22021   1.628   0.048   3.957
 7041SOL    HW122022   1.655   0.138   3.991
 7041SOL    HW222023   1.638   7.007   4.030
 7042SOL     OW22024   4.725   6.066   5.152
 7042SOL    HW122025   4.750   6.013   5.232
 7042SOL    HW222026   4.772   6.030   5.071
 7043SOL     OW22027   2.179   5.164   1.332
 7043SOL    HW122028   2.242   5.162   1.410
 7043SOL    HW222029   2.091   5.126   1.359
 7044SOL     OW22030   5.102   6.234   4.526
 7044SOL    HW122031   5.042   6.158   4.549
 7044SOL    HW222032   5.179   6.236   4.589
 7045SOL     OW22033   6.450   6.225   2.504
 7045SOL    HW122034   6.502   6.180   2.576
 7045SOL    HW222035   6.362   6.255   2.541
 7046SOL     OW22036   2.938   2.230   4.342
 7046SOL    HW122037   3.037   2.243   4.337
 7046SOL    HW222038   2.911   2.219   4.437
 7047SOL     OW22039   1.164   6.133   0.902
 7047SOL    HW122040   1.218   6.203   0.856
 7047SOL    HW222041   1.225   6.064   0.941
 7048SOL     OW22042   6.859   6.246   4.924
 7048SOL    HW122043   6.785   6.220   4.862
 7048SOL    HW222044   6.827   6.320   4.984
 7049SOL     OW22045   3.613   0.887   2.886
 7049SOL    HW122046   3.660   0.836   2.958
 7049SOL    HW222047   3.515   0.871   2.893
 7050SOL     OW22048   4.076   3.944   1.091
 7050SOL    HW122049   4.095   3.862   1.146
 7050SOL    HW222050   3.983   3.976   1.108
 7051SOL     OW22051   0.592   0.869   1.882
 7051SOL    HW122052   0.621   0.964   1.895
 7051SOL    HW222053   0.496   0.861   1.907
 7052SOL     OW22054   4.967   0.062   2.604
 7052SOL    HW122055   4.902   0.027   2.671
 7052SOL    HW222056   4.973   0.161   2.612
 7053SOL     OW22057   2.068   3.413   3.117
 7053SOL    HW122058   2.094   3.507   3.140
 7053SOL    HW222059   2.109   3.388   3.029
 7054SOL     OW22060   6.567   0.683   0.328
 7054SOL    HW122061   6.550   0.781   0.330
 7054SOL    HW222062   6.543   0.647   0.238
 7055SOL     OW22063   2.450   1.221   7.016
 7055SOL    HW122064   2.493   1.311   7.016
 7055SOL    HW222065   2.458   1.179   0.079
 7056SOL     OW22066   0.182   5.386   1.148
 7056SOL    HW122067   0.269   5.397   1.196
 7056SOL    HW222068   0.109   5.426   1.203
 7057SOL     OW22069   2.999   4.891   4.466
 7057SOL    HW122070   2.995   4.792   4.452
 7057SOL    HW222071   3.032   4.911   4.558
 7058SOL     OW22072   5.511   2.962   5.640
 7058SOL    HW122073   5.557   2.894   5.584
 7058SOL    HW222074   5.565   2.979   5.723
 7059SOL     OW22075   1.934   0.321   5.239
 7059SOL    HW122076   1.954   0.326   5.337
 7059SOL    HW222077   1.884   0.236   5.220
 7060SOL     OW22078   3.753   0.881   1.454
 7060SOL    HW122079   3.676   0.851   1.510
 7060SOL    HW222080   3.838   0.869   1.505
 7061SOL     OW22081   0.777   1.671   1.686
 7061SOL    HW122082   0.807   1.716   1.602
 7061SOL    HW222083   0.848   1.681   1.756
 7062SOL     OW22084   3.409   0.945   3.265
 7062SOL    HW122085   3.341   0.969   3.195
 7062SOL    HW222086   3.439   1.028   3.312
 7063SOL     OW22087   0.853   0.807   1.956
 7063SOL    HW122088   0.755   0.816   1.971
 7063SOL    HW222089   0.896   0.897   1.958
 7064SOL     OW22090   4.360   1.651   5.131
 7064SOL    HW122091   4.431   1.720   5.119
 7064SOL    HW222092   4.271   1.690   5.110
 7065SOL     OW22093   3.905   5.119   5.605
 7065SOL    HW122094   3.838   5.193   5.618
 7065SOL    HW222095   3.865   5.049   5.546
 7066SOL     OW22096   3.815   0.213   7.020
 7066SOL    HW122097   3.877   0.277   6.976
 7066SOL    HW222098   3.730   0.260   0.017
 7067SOL     OW22099   1.837   3.572   6.771
 7067SOL    HW122100   1.832   3.662   6.727
 7067SOL    HW222101   1.876   3.582   6.862
 7068SOL     OW22102   5.208   3.335   4.201
 7068SOL    HW122103   5.202   3.423   4.154
 7068SOL    HW222104   5.129   3.324   4.261
 7069SOL     OW22105   6.016   0.275   6.609
 7069SOL    HW122106   6.093   0.287   6.546
 7069SOL    HW222107   5.942   0.226   6.563
 7070SOL     OW22108   0.015   6.864   5.030
 7070SOL    HW122109   0.102   6.846   4.985
 7070SOL    HW222110   0.025   6.849   5.128
 7071SOL     OW22111   4.980   6.151   0.013
 7071SOL    HW122112   4.958   6.082   6.971
 7071SOL    HW222113   4.955   6.117   0.104
 7072SOL     OW22114   0.325   3.496   6.208
 7072SOL    HW122115   0.232   3.460   6.210
 7072SOL    HW222116   0.339   3.560   6.284
 7073SOL     OW22117   5.270   1.542   3.243
 7073SOL    HW122118   5.275   1.521   3.145
 7073SOL    HW222119   5.197   1.609   3.258
 7074SOL     OW22120   5.792   4.581   2.897
 7074SOL    HW122121   5.876   4.556   2.945
 7074SOL    HW222122   5.733   4.500   2.890
 7075SOL     OW22123   3.053   4.894   3.641
 7075SOL    HW122124   3.054   4.871   3.738
 7075SOL    HW222125   3.144   4.926   3.613
 7076SOL     OW22126   5.582   2.232   2.216
 7076SOL    HW122127   5.613   2.296   2.287
 7076SOL    HW222128   5.484   2.215   2.227
 7077SOL     OW22129   3.368   5.420   1.457
 7077SOL    HW122130   3.412   5.397   1.371
 7077SOL    HW222131   3.269   5.412   1.447
 7078SOL     OW22132   5.583   0.617   6.985
 7078SOL    HW122133   5.499   0.652   6.943
 7078SOL    HW222134   5.615   0.537   6.934
 7079SOL     OW22135   1.109   6.457   4.986
 7079SOL    HW122136   1.035   6.392   4.973
 7079SOL    HW222137   1.075   6.538   5.032
 7080SOL     OW22138   4.392   2.053   5.710
 7080SOL    HW122139   4.400   2.142   5.666
 7080SOL    HW222140   4.455   1.989   5.667
 7081SOL     OW22141   1.671   0.015   0.669
 7081SOL    HW122142   1.631   6.951   0.660
 7081SOL    HW222143   1.660   0.046   0.763
 7082SOL     OW22144   6.606   4.367   2.924
 7082SOL    HW122145   6.655   4.306   2.861
 7082SOL    HW222146   6.656   4.452   2.934
 7083SOL     OW22147   6.038   2.745   2.976
 7083SOL    HW122148   6.098   2.690   2.918
 7083SOL    HW222149   5.942   2.722   2.957
 7084SOL     OW22150   0.636   6.103   6.851
 7084SOL    HW122151   0.651   6.005   6.864
 7084SOL    HW222152   0.632   6.125   6.754
 7085SOL     OW22153   0.803   3.494   2.006
 7085SOL    HW122154   0.711   3.519   1.975
 7085SOL    HW222155   0.826   3.403   1.969
 7086SOL     OW22156   5.427   1.110   4.068
 7086SOL    HW122157   5.398   1.022   4.033
 7086SOL    HW222158   5.514   1.136   4.024
 7087SOL     OW22159   5.178   3.584   2.992
 7087SOL    HW122160   5.166   3.648   2.916
 7087SOL    HW222161   5.093   3.576   3.044
 7088SOL     OW22162   6.384   1.694   4.793
 7088SOL    HW122163   6.296   1.648   4.802
 7088SOL    HW222164   6.456   1.637   4.831
 7089SOL     OW22165   2.906   5.783   2.090
 7089SOL    HW122166   2.856   5.852   2.141
 7089SOL    HW222167   2.863   5.693   2.102
 7090SOL     OW22168   4.435   2.662   1.029
 7090SOL    HW122169   4.429   2.761   1.034
 7090SOL    HW222170   4.360   2.621   1.081
 7091SOL     OW22171   7.000   6.133   0.094
 7091SOL    HW122172   6.928   6.085   0.044
 7091SOL    HW222173   7.017   6.086   0.181
 7092SOL     OW22174   4.367   1.493   6.156
 7092SOL    HW122175   4.350   1.573   6.099
 7092SOL    HW222176   4.394   1.522   6.247
 7093SOL     OW22177   3.098   3.178   1.381
 7093SOL    HW122178   3.052   3.234   1.311
 7093SOL    HW222179   3.029   3.137   1.441
 7094SOL     OW22180   3.094   7.015   5.717
 7094SOL    HW122181   3.161   0.014   5.647
 7094SOL    HW222182   3.117   0.032   5.804
 7095SOL     OW22183   2.575   4.601   4.938
 7095SOL    HW122184   2.510   4.572   5.008
 7095SOL    HW222185   2.667   4.606   4.978
 7096SOL     OW22186   0.093   0.943   1.457
 7096SOL    HW122187   0.019   0.889   1.416
 7096SOL    HW222188   0.128   1.008   1.390
 7097SOL     OW22189   4.169   0.917   1.718
 7097SOL    HW122190   4.154   0.998   1.660
 7097SOL    HW222191   4.267   0.902   1.730
 7098SOL     OW22192   1.447   6.759   4.078
 7098SOL    HW122193   1.541   6.793   4.088
 7098SOL    HW222194   1.421   6.762   3.982
 7099SOL     OW22195   2.805   2.239   3.533
 7099SOL    HW122196   2.859   2.282   3.605
 7099SOL    HW222197   2.797   2.141   3.551
 7100SOL     OW22198   6.267   3.869   1.348
 7100SOL    HW122199   6.292   3.956   1.389
 7100SOL    HW222200   6.335   3.799   1.371
 7101SOL     OW22201   2.824   6.294   5.802
 7101SOL    HW122202   2.874   6.209   5.823
 7101SOL    HW222203   2.879   6.373   5.829
 7102SOL     OW22204   5.493   0.636   1.699
 7102SOL    HW122205   5.542   0.553   1.725
 7102SOL    HW222206   5.482   0.695   1.779
 7103SOL     OW22207   4.934   3.863   3.013
 7103SOL    HW122208   4.898   3.898   2.927
 7103SOL    HW222209   5.019   3.911   3.036
 7104SOL     OW22210   5.274   3.762   3.291
 7104SOL    HW122211   5.267   3.679   3.236
 7104SOL    HW222212   5.360   3.762   3.341
 7105SOL     OW22213   3.141   4.049   3.975
 7105SOL    HW122214   3.077   3.994   4.029
 7105SOL    HW222215   3.231   4.050   4.020
 7106SOL     OW22216   2.901   2.630   1.056
 7106SOL    HW122217   2.990   2.665   1.088
 7106SOL    HW222218   2.895   2.533   1.079
 7107SOL     OW22219   3.543   0.933   6.247
 7107SOL    HW122220   3.566   1.028   6.267
 7107SOL    HW222221   3.450   0.913   6.280
 7108SOL     OW22222   4.899   0.680   1.931
 7108SOL    HW122223   4.843   0.598   1.921
 7108SOL    HW222224   4.989   0.664   1.891
 7109SOL     OW22225   2.757   5.541   6.534
 7109SOL    HW122226   2.742   5.448   6.499
 7109SOL    HW222227   2.685   5.563   6.600
 7110SOL     OW22228   3.468   6.517   4.206
 7110SOL    HW122229   3.544   6.578   4.185
 7110SOL    HW222230   3.498   6.449   4.274
 7111SOL     OW22231   6.617   0.575   5.239
 7111SOL    HW122232   6.573   0.501   5.290
 7111SOL    HW222233   6.647   0.541   5.150
 7112SOL     OW22234   1.658   4.979   5.089
 7112SOL    HW122235   1.744   5.026   5.068
 7112SOL    HW222236   1.673   4.880   5.081
 7113SOL     OW22237   3.658   6.316   5.420
 7113SOL    HW122238   3.665   6.218   5.400
 7113SOL    HW222239   3.581   6.355   5.369
 7114SOL     OW22240   5.071   4.478   0.374
 7114SOL    HW122241   5.042   4.466   0.469
 7114SOL    HW222242   5.116   4.395   0.341
 7115SOL     OW22243   5.936   3.808   6.270
 7115SOL    HW122244   5.908   3.791   6.175
 7115SOL    HW222245   6.036   3.814   6.275
 7116SOL     OW22246   6.340   3.967   3.923
 7116SOL    HW122247   6.386   3.942   4.008
 7116SOL    HW222248   6.284   3.890   3.891
 7117SOL     OW22249   5.746   0.318   2.905
 7117SOL    HW122250   5.694   0.254   2.848
 7117SOL    HW222251   5.742   0.289   3.000
 7118SOL     OW22252   4.219   4.474   5.688
 7118SOL    HW122253   4.312   4.445   5.662
 7118SOL    HW222254   4.157   4.459   5.611
 7119SOL     OW22255   3.430   6.761   4.863
 7119SOL    HW122256   3.477   6.844   4.894
 7119SOL    HW222257   3.446   6.688   4.929
 7120SOL     OW22258   4.719   0.423   0.281
 7120SOL    HW122259   4.751   0.328   0.288
 7120SOL    HW222260   4.796   0.485   0.297
 7121SOL     OW22261   1.779   5.912   2.146
 7121SOL    HW122262   1.758   5.817   2.169
 7121SOL    HW222263   1.840   5.950   2.215
 7122SOL     OW22264   2.887   1.584   6.913
 7122SOL    HW122265   2.829   1.599   6.993
 7122SOL    HW222266   2.970   1.639   6.921
 7123SOL     OW22267   5.086   5.470   5.980
 7123SOL    HW122268   4.999   5.511   6.006
 7123SOL    HW222269   5.119   5.511   5.895
 7124SOL     OW22270   1.185   2.327   1.419
 7124SOL    HW122271   1.222   2.395   1.356
 7124SOL    HW222272   1.126   2.263   1.369
 7125SOL     OW22273   0.669   6.646   1.712
 7125SOL    HW122274   0.604   6.715   1.680
 7125SOL    HW222275   0.735   6.626   1.639
 7126SOL     OW22276   3.289   5.103   0.854
 7126SOL    HW122277   3.269   5.196   0.883
 7126SOL    HW222278   3.387   5.085   0.865
 7127SOL     OW22279   2.267   6.583   5.915
 7127SOL    HW122280   2.179   6.538   5.926
 7127SOL    HW222281   2.258   6.681   5.934
 7128SOL     OW22282   4.114   4.157   6.602
 7128SOL    HW122283   4.022   4.183   6.630
 7128SOL    HW222284   4.135   4.199   6.514
 7129SOL     OW22285   0.618   6.946   0.478
 7129SOL    HW122286   0.603   0.018   0.481
 7129SOL    HW222287   0.641   6.914   0.570
 7130SOL     OW22288   3.416   6.511   3.935
 7130SOL    HW122289   3.480   6.437   3.912
 7130SOL    HW222290   3.404   6.515   4.034
 7131SOL     OW22291   3.169   1.400   2.573
 7131SOL    HW122292   3.118   1.440   2.497
 7131SOL    HW222293   3.168   1.301   2.565
 7132SOL     OW22294   5.325   4.620   0.605
 7132SOL    HW122295   5.360   4.711   0.585
 7132SOL    HW222296   5.320   4.567   0.520
 7133SOL     OW22297   5.042   5.533   3.125
 7133SOL    HW122298   5.013   5.444   3.161
 7133SOL    HW222299   4.964   5.596   3.126
 7134SOL     OW22300   5.125   5.053   0.569
 7134SOL    HW122301   5.091   4.962   0.595
 7134SOL    HW222302   5.110   5.117   0.644
 7135SOL     OW22303   1.685   2.971   0.790
 7135SOL    HW122304   1.673   2.919   0.875
 7135SOL    HW222305   1.619   3.047   0.789
 7136SOL     OW22306   2.207   1.738   1.677
 7136SOL    HW122307   2.209   1.772   1.583
 7136SOL    HW222308   2.174   1.810   1.738
 7137SOL     OW22309   2.980   2.018   1.564
 7137SOL    HW122310   3.008   2.099   1.615
 7137SOL    HW222311   3.034   1.939   1.593
 7138SOL     OW22312   0.900   2.913   0.599
 7138SOL    HW122313   0.942   2.971   0.529
 7138SOL    HW222314   0.840   2.847   0.554
 7139SOL     OW22315   6.079   6.395   0.993
 7139SOL    HW122316   6.071   6.450   0.910
 7139SOL    HW222317   5.992   6.349   1.012
 7140SOL     OW22318   6.377   3.628   0.132
 7140SOL    HW122319   6.378   3.695   0.058
 7140SOL    HW222320   6.308   3.558   0.112
 7141SOL     OW22321   3.411   0.628   0.674
 7141SOL    HW122322   3.333   0.637   0.735
 7141SOL    HW222323   3.436   0.531   0.666
 7142SOL     OW22324   3.181   0.181   4.824
 7142SOL    HW122325   3.111   0.194   4.894
 7142SOL    HW222326   3.265   0.226   4.852
 7143SOL     OW22327   2.742   4.472   6.430
 7143SOL    HW122328   2.726   4.560   6.475
 7143SOL    HW222329   2.823   4.429   6.469
 7144SOL     OW22330   6.881   0.625   6.048
 7144SOL    HW122331   6.912   0.710   6.003
 7144SOL    HW222332   6.952   0.555   6.038
 7145SOL     OW22333   5.257   2.344   6.711
 7145SOL    HW122334   5.291   2.280   6.642
 7145SOL    HW222335   5.160   2.325   6.728
 7146SOL     OW22336   1.835   2.314   5.343
 7146SOL    HW122337   1.933   2.293   5.336
 7146SOL    HW222338   1.817   2.365   5.427
 7147SOL     OW22339   6.275   6.953   2.022
 7147SOL    HW122340   6.334   0.001   2.053
 7147SOL    HW222341   6.179   6.982   2.028
 7148SOL     OW22342   6.469   0.178   1.022
 7148SOL    HW122343   6.522   0.101   0.986
 7148SOL    HW222344   6.393   0.144   1.076
 7149SOL     OW22345   5.690   4.755   5.799
 7149SOL    HW122346   5.739   4.803   5.871
 7149SOL    HW222347   5.743   4.675   5.769
 7150SOL     OW22348   3.491   3.243   6.568
 7150SOL    HW122349   3.470   3.189   6.649
 7150SOL    HW222350   3.584   3.280   6.575
 7151SOL     OW22351   3.316   1.219   0.756
 7151SOL    HW122352   3.328   1.318   0.758
 7151SOL    HW222353   3.227   1.196   0.798
 7152SOL     OW22354   6.506   1.244   6.357
 7152SOL    HW122355   6.446   1.239   6.437
 7152SOL    HW222356   6.533   1.339   6.342
 7153SOL     OW22357   3.677   5.534   0.519
 7153SOL    HW122358   3.707   5.487   0.603
 7153SOL    HW222359   3.578   5.548   0.522
 7154SOL     OW22360   3.973   2.197   1.819
 7154SOL    HW122361   3.951   2.223   1.725
 7154SOL    HW222362   3.906   2.236   1.882
 7155SOL     OW22363   2.046   1.236   2.022
 7155SOL    HW122364   1.976   1.167   2.005
 7155SOL    HW222365   2.029   1.316   1.964
 7156SOL     OW22366   5.996   3.446   5.913
 7156SOL    HW122367   5.996   3.427   6.011
 7156SOL    HW222368   5.903   3.471   5.884
 7157SOL     OW22369   6.540   4.366   5.942
 7157SOL    HW122370   6.517   4.290   6.004
 7157SOL    HW222371   6.611   4.336   5.879
 7158SOL     OW22372   4.173   6.891   3.842
 7158SOL    HW122373   4.138   6.837   3.766
 7158SOL    HW222374   4.101   6.953   3.875
 7159SOL     OW22375   0.673   6.024   3.078
 7159SOL    HW122376   0.690   6.112   3.034
 7159SOL    HW222377   0.604   6.036   3.150
 7160SOL     OW22378   6.819   0.246   3.397
 7160SOL    HW122379   6.726   0.272   3.371
 7160SOL    HW222380   6.845   0.295   3.480
 7161SOL     OW22381   4.016   3.106   3.306
 7161SOL    HW122382   4.079   3.125   3.231
 7161SOL    HW222383   4.066   3.096   3.392
 7162SOL     OW22384   0.333   5.994   1.725
 7162SOL    HW122385   0.386   5.936   1.787
 7162SOL    HW222386   0.390   6.018   1.646
 7163SOL     OW22387   6.926   1.416   1.495
 7163SOL    HW122388   6.998   1.433   1.562
 7163SOL    HW222389   6.856   1.487   1.502
 7164SOL     OW22390   2.078   1.188   6.673
 7164SOL    HW122391   2.055   1.138   6.590
 7164SOL    HW222392   2.139   1.133   6.729
 7165SOL     OW22393   5.701   1.369   0.749
 7165SOL    HW122394   5.750   1.418   0.821
 7165SOL    HW222395   5.604   1.394   0.752
 7166SOL     OW22396   6.599   5.704   6.196
 7166SOL    HW122397   6.517   5.673   6.244
 7166SOL    HW222398   6.614   5.645   6.116
 7167SOL     OW22399   5.890   2.647   4.671
 7167SOL    HW122400   5.924   2.594   4.593
 7167SOL    HW222401   5.916   2.602   4.756
 7168SOL     OW22402   2.627   0.798   2.038
 7168SOL    HW122403   2.620   0.896   2.019
 7168SOL    HW222404   2.667   0.751   1.959
 7169SOL     OW22405   1.949   3.977   6.265
 7169SOL    HW122406   2.042   3.958   6.296
 7169SOL    HW222407   1.945   4.069   6.225
 7170SOL     OW22408   3.895   1.152   0.445
 7170SOL    HW122409   3.969   1.186   0.388
 7170SOL    HW222410   3.807   1.175   0.403
 7171SOL     OW22411   6.926   3.923   0.830
 7171SOL    HW122412   6.928   4.020   0.855
 7171SOL    HW222413   6.918   3.867   0.913
 7172SOL     OW22414   1.246   2.408   4.052
 7172SOL    HW122415   1.269   2.371   4.143
 7172SOL    HW222416   1.315   2.476   4.026
 7173SOL     OW22417   4.840   5.565   6.067
 7173SOL    HW122418   4.777   5.533   6.138
 7173SOL    HW222419   4.802   5.546   5.977
 7174SOL     OW22420   6.356   4.446   1.973
 7174SOL    HW122421   6.312   4.445   1.883
 7174SOL    HW222422   6.415   4.526   1.981
 7175SOL     OW22423   6.496   3.592   6.090
 7175SOL    HW122424   6.587   3.551   6.090
 7175SOL    HW222425   6.427   3.520   6.086
 7176SOL     OW22426   0.730   0.263   5.323
 7176SOL    HW122427   0.698   0.344   5.373
 7176SOL    HW222428   0.715   0.276   5.225
 7177SOL     OW22429   1.165   5.727   3.836
 7177SOL    HW122430   1.187   5.810   3.784
 7177SOL    HW222431   1.079   5.689   3.803
 7178SOL     OW22432   2.274   6.955   5.029
 7178SOL    HW122433   2.244   6.924   5.120
 7178SOL    HW222434   2.371   6.978   5.032
 7179SOL     OW22435   3.199   5.225   5.890
 7179SOL    HW122436   3.108   5.207   5.926
 7179SOL    HW222437   3.206   5.191   5.796
 7180SOL     OW22438   1.998   3.144   1.025
 7180SOL    HW122439   1.903   3.129   1.054
 7180SOL    HW222440   2.009   3.114   0.930
 7181SOL     OW22441   2.629   1.486   5.436
 7181SOL    HW122442   2.658   1.567   5.487
 7181SOL    HW222443   2.536   1.499   5.402
 7182SOL     OW22444   1.628   1.775   3.853
 7182SOL    HW122445   1.612   1.820   3.765
 7182SOL    HW222446   1.721   1.793   3.884
 7183SOL     OW22447   0.694   6.946   1.739
 7183SOL    HW122448   0.728   6.902   1.822
 7183SOL    HW222449   0.749   0.001   1.720
 7184SOL     OW22450   6.611   0.345   4.100
 7184SOL    HW122451   6.641   0.286   4.025
 7184SOL    HW222452   6.525   0.311   4.137
 7185SOL     OW22453   4.375   1.073   4.708
 7185SOL    HW122454   4.358   1.165   4.743
 7185SOL    HW222455   4.290   1.034   4.673
 7186SOL     OW22456   0.172   0.652   6.612
 7186SOL    HW122457   0.116   0.576   6.579
 7186SOL    HW222458   0.134   0.738   6.577
 7187SOL     OW22459   3.257   3.058   4.003
 7187SOL    HW122460   3.247   3.028   3.908
 7187SOL    HW222461   3.336   3.012   4.044
 7188SOL     OW22462   4.226   4.375   0.221
 7188SOL    HW122463   4.226   4.474   0.207
 7188SOL    HW222464   4.308   4.348   0.271
 7189SOL     OW22465   6.455   2.589   6.026
 7189SOL    HW122466   6.425   2.574   5.932
 7189SOL    HW222467   6.525   2.660   6.028
 7190SOL     OW22468   5.621   5.010   0.885
 7190SOL    HW122469   5.670   5.037   0.968
 7190SOL    HW222470   5.685   4.998   0.810
 7191SOL     OW22471   6.925   5.232   4.205
 7191SOL    HW122472   6.838   5.258   4.248
 7191SOL    HW222473   7.000   5.273   4.256
 7192SOL     OW22474   2.773   4.963   6.677
 7192SOL    HW122475   2.823   5.049   6.671
 7192SOL    HW222476   2.768   4.933   6.772
 7193SOL     OW22477   2.622   2.118   2.669
 7193SOL    HW122478   2.533   2.131   2.713
 7193SOL    HW222479   2.691   2.171   2.716
 7194SOL     OW22480   3.409   2.665   6.046
 7194SOL    HW122481   3.358   2.737   6.000
 7194SOL    HW222482   3.409   2.681   6.145
 7195SOL     OW22483   0.643   5.017   5.059
 7195SOL    HW122484   0.585   5.028   5.140
 7195SOL    HW222485   0.636   4.923   5.026
 7196SOL     OW22486   3.350   4.048   2.048
 7196SOL    HW122487   3.349   4.086   1.956
 7196SOL    HW222488   3.257   4.047   2.085
 7197SOL     OW22489   3.351   4.369   6.074
 7197SOL    HW122490   3.260   4.407   6.059
 7197SOL    HW222491   3.347   4.304   6.151
 7198SOL     OW22492   0.514   0.400   2.204
 7198SOL    HW122493   0.474   0.374   2.293
 7198SOL    HW222494   0.592   0.342   2.184
 7199SOL     OW22495   6.555   0.834   2.155
 7199SOL    HW122496   6.497   0.897   2.104
 7199SOL    HW222497   6.620   0.790   2.092
 7200SOL     OW22498   0.965   2.441   0.652
 7200SOL    HW122499   0.993   2.452   0.557
 7200SOL    HW222500   0.870   2.408   0.655
 7201SOL     OW22501   5.408   5.405   3.849
 7201SOL    HW122502   5.321   5.453   3.846
 7201SOL    HW222503   5.400   5.319   3.798
 7202SOL     OW22504   5.076   0.846   5.915
 7202SOL    HW122505   5.092   0.847   5.816
 7202SOL    HW222506   5.133   0.916   5.959
 7203SOL     OW22507   0.121   1.130   1.189
 7203SOL    HW122508   0.030   1.150   1.225
 7203SOL    HW222509   0.142   1.194   1.115
 7204SOL     OW22510   6.005   6.974   2.018
 7204SOL    HW122511   5.946   6.967   1.937
 7204SOL    HW222512   5.975   6.909   2.087
 7205SOL     OW22513   2.915   1.804   3.935
 7205SOL    HW122514   2.866   1.719   3.956
 7205SOL    HW222515   2.995   1.812   3.994
 7206SOL     OW22516   2.290   3.619   0.480
 7206SOL    HW122517   2.203   3.664   0.496
 7206SOL    HW222518   2.315   3.628   0.383
 7207SOL     OW22519   1.922   1.482   3.990
 7207SOL    HW122520   1.899   1.535   4.072
 7207SOL    HW222521   1.847   1.419   3.969
 7208SOL     OW22522   2.646   0.404   4.662
 7208SOL    HW122523   2.611   0.403   4.568
 7208SOL    HW222524   2.707   0.326   4.675
 7209SOL     OW22525   3.475   1.491   2.017
 7209SOL    HW122526   3.554   1.431   2.026
 7209SOL    HW222527   3.493   1.578   2.063
 7210SOL     OW22528   2.741   1.836   2.967
 7210SOL    HW122529   2.740   1.737   2.986
 7210SOL    HW222530   2.823   1.858   2.913
 7211SOL     OW22531   4.380   5.957   4.617
 7211SOL    HW122532   4.316   5.992   4.686
 7211SOL    HW222533   4.359   6.000   4.528
 7212SOL     OW22534   6.729   4.286   5.741
 7212SOL    HW122535   6.748   4.218   5.812
 7212SOL    HW222536   6.812   4.338   5.721
 7213SOL     OW22537   3.698   1.978   6.901
 7213SOL    HW122538   3.723   2.071   6.925
 7213SOL    HW222539   3.707   1.919   6.982
 7214SOL     OW22540   6.944   0.737   6.374
 7214SOL    HW122541   6.947   0.691   6.463
 7214SOL    HW222542   6.850   0.764   6.354
 7215SOL     OW22543   6.388   2.469   2.600
 7215SOL    HW122544   6.399   2.380   2.554
 7215SOL    HW222545   6.307   2.467   2.658
 7216SOL     OW22546   3.175   6.354   3.262
 7216SOL    HW122547   3.123   6.406   3.329
 7216SOL    HW222548   3.215   6.273   3.306
 7217SOL     OW22549   1.790   2.889   3.492
 7217SOL    HW122550   1.875   2.931   3.460
 7217SOL    HW222551   1.797   2.790   3.485
 7218SOL     OW22552   6.237   3.553   4.204
 7218SOL    HW122553   6.284   3.530   4.289
 7218SOL    HW222554   6.241   3.475   4.141
 7219SOL     OW22555   3.589   5.699   2.636
 7219SOL    HW122556   3.598   5.785   2.586
 7219SOL    HW222557   3.532   5.636   2.583
 7220SOL     OW22558   6.608   4.894   4.726
 7220SOL    HW122559   6.567   4.892   4.634
 7220SOL    HW222560   6.636   4.802   4.752
 7221SOL     OW22561   3.585   5.599   3.864
 7221SOL    HW122562   3.506   5.546   3.834
 7221SOL    HW222563   3.619   5.562   3.951
 7222SOL     OW22564   0.292   6.289   4.487
 7222SOL    HW122565   0.239   6.227   4.544
 7222SOL    HW222566   0.238   6.317   4.408
 7223SOL     OW22567   6.900   3.736   1.748
 7223SOL    HW122568   6.882   3.744   1.650
 7223SOL    HW222569   6.975   3.797   1.773
 7224SOL     OW22570   3.784   1.789   3.302
 7224SOL    HW122571   3.717   1.741   3.357
 7224SOL    HW222572   3.783   1.886   3.325
 7225SOL     OW22573   1.805   6.171   0.819
 7225SOL    HW122574   1.815   6.270   0.825
 7225SOL    HW222575   1.715   6.149   0.783
 7226SOL     OW22576   5.998   6.525   0.497
 7226SOL    HW122577   5.912   6.515   0.547
 7226SOL    HW222578   6.022   6.439   0.453
 7227SOL     OW22579   2.255   0.528   1.816
 7227SOL    HW122580   2.258   0.620   1.857
 7227SOL    HW222581   2.164   0.511   1.781
 7228SOL     OW22582   7.008   2.859   2.348
 7228SOL    HW122583   6.981   2.823   2.258
 7228SOL    HW222584   6.950   2.936   2.372
 7229SOL     OW22585   6.837   1.162   5.500
 7229SOL    HW122586   6.854   1.077   5.450
 7229SOL    HW222587   6.923   1.197   5.537
 7230SOL     OW22588   1.823   4.819   4.330
 7230SOL    HW122589   1.883   4.899   4.329
 7230SOL    HW222590   1.738   4.843   4.377
 7231SOL     OW22591   4.197   1.637   6.397
 7231SOL    HW122592   4.146   1.718   6.367
 7231SOL    HW222593   4.293   1.661   6.408
 7232SOL     OW22594   5.105   6.872   3.454
 7232SOL    HW122595   5.126   6.843   3.548
 7232SOL    HW222596   5.191   6.886   3.404
 7233SOL     OW22597   6.912   1.153   4.403
 7233SOL    HW122598   6.979   1.211   4.448
 7233SOL    HW222599   6.827   1.152   4.456
 7234SOL     OW22600   5.431   3.918   3.102
 7234SOL    HW122601   5.521   3.881   3.125
 7234SOL    HW222602   5.377   3.925   3.185
 7235SOL     OW22603   6.977   5.615   1.352
 7235SOL    HW122604   6.926   5.687   1.304
 7235SOL    HW222605   6.950   5.525   1.316
 7236SOL     OW22606   1.643   3.090   2.585
 7236SOL    HW122607   1.559   3.117   2.632
 7236SOL    HW222608   1.660   2.993   2.600
 7237SOL     OW22609   5.475   0.933   0.230
 7237SOL    HW122610   5.413   1.007   0.256
 7237SOL    HW222611   5.437   0.845   0.259
 7238SOL     OW22612   3.734   3.370   0.619
 7238SOL    HW122613   3.730   3.314   0.702
 7238SOL    HW222614   3.779   3.457   0.639
 7239SOL     OW22615   0.183   2.405   2.439
 7239SOL    HW122616   0.158   2.399   2.342
 7239SOL    HW222617   0.103   2.386   2.496
 7240SOL     OW22618   6.792   1.917   6.459
 7240SOL    HW122619   6.789   1.998   6.400
 7240SOL    HW222620   6.725   1.928   6.533
 7241SOL     OW22621   2.462   1.565   1.419
 7241SOL    HW122622   2.488   1.597   1.328
 7241SOL    HW222623   2.487   1.633   1.487
 7242SOL     OW22624   6.408   5.524   4.708
 7242SOL    HW122625   6.422   5.602   4.647
 7242SOL    HW222626   6.457   5.445   4.673
 7243SOL     OW22627   6.321   4.366   6.598
 7243SOL    HW122628   6.248   4.302   6.574
 7243SOL    HW222629   6.372   4.391   6.515
 7244SOL     OW22630   0.567   6.136   0.075
 7244SOL    HW122631   0.574   6.111   7.005
 7244SOL    HW222632   0.500   6.077   0.120
 7245SOL     OW22633   0.819   3.238   6.860
 7245SOL    HW122634   0.770   3.209   6.942
 7245SOL    HW222635   0.835   3.336   6.863
 7246SOL     OW22636   3.671   6.756   3.889
 7246SOL    HW122637   3.581   6.795   3.870
 7246SOL    HW222638   3.743   6.817   3.855
 7247SOL     OW22639   3.187   3.535   5.614
 7247SOL    HW122640   3.119   3.604   5.588
 7247SOL    HW222641   3.255   3.526   5.540
 7248SOL     OW22642   3.462   0.955   4.705
 7248SOL    HW122643   3.498   1.011   4.631
 7248SOL    HW222644   3.363   0.944   4.693
 7249SOL     OW22645   4.317   5.296   2.077
 7249SOL    HW122646   4.254   5.340   2.142
 7249SOL    HW222647   4.406   5.284   2.120
 7250SOL     OW22648   5.064   5.581   5.698
 7250SOL    HW122649   4.982   5.541   5.655
 7250SOL    HW222650   5.045   5.676   5.721
 7251SOL     OW22651   6.794   5.734   5.393
 7251SOL    HW122652   6.889   5.737   5.425
 7251SOL    HW222653   6.743   5.808   5.437
 7252SOL     OW22654   3.499   4.134   2.267
 7252SOL    HW122655   3.453   4.097   2.185
 7252SOL    HW222656   3.594   4.156   2.245
 7253SOL     OW22657   1.341   5.888   5.180
 7253SOL    HW122658   1.398   5.818   5.223
 7253SOL    HW222659   1.355   5.975   5.227
 7254SOL     OW22660   5.159   3.976   4.016
 7254SOL    HW122661   5.222   4.036   4.067
 7254SOL    HW222662   5.116   3.911   4.079
 7255SOL     OW22663   5.692   3.352   6.302
 7255SOL    HW122664   5.610   3.398   6.267
 7255SOL    HW222665   5.717   3.392   6.390
 7256SOL     OW22666   3.293   6.823   5.887
 7256SOL    HW122667   3.224   6.828   5.816
 7256SOL    HW222668   3.262   6.762   5.960
 7257SOL     OW22669   0.777   1.615   4.713
 7257SOL    HW122670   0.859   1.671   4.726
 7257SOL    HW222671   0.775   1.580   4.619
 7258SOL     OW22672   6.575   1.794   3.425
 7258SOL    HW122673   6.552   1.889   3.403
 7258SOL    HW222674   6.671   1.776   3.402
 7259SOL     OW22675   1.055   4.458   3.165
 7259SOL    HW122676   0.967   4.415   3.185
 7259SOL    HW222677   1.122   4.432   3.235
 7260SOL     OW22678   5.680   3.314   1.507
 7260SOL    HW122679   5.614   3.383   1.536
 7260SOL    HW222680   5.772   3.342   1.535
 7261SOL     OW22681   6.993   4.216   6.709
 7261SOL    HW122682   0.059   4.183   6.724
 7261SOL    HW222683   6.953   4.242   6.797
 7262SOL     OW22684   6.708   1.980   5.532
 7262SOL    HW122685   6.634   1.997   5.467
 7262SOL    HW222686   6.695   1.891   5.576
 7263SOL     OW22687   0.412   5.410   0.172
 7263SOL    HW122688   0.369   5.351   0.104
 7263SOL    HW222689   0.342   5.452   0.230
 7264SOL     OW22690   5.797   1.479   0.993
 7264SOL    HW122691   5.821   1.576   0.997
 7264SOL    HW222692   5.881   1.425   0.987
 7265SOL     OW22693   4.080   5.437   5.424
 7265SOL    HW122694   3.983   5.439   5.398
 7265SOL    HW222695   4.100   5.351   5.471
 7266SOL     OW22696   0.107   0.607   3.994
 7266SOL    HW122697   0.192   0.607   3.940
 7266SOL    HW222698   0.113   0.536   4.064
 7267SOL     OW22699   6.179   5.577   4.446
 7267SOL    HW122700   6.154   5.484   4.473
 7267SOL    HW222701   6.244   5.573   4.370
 7268SOL     OW22702   6.274   6.130   4.193
 7268SOL    HW122703   6.210   6.102   4.121
 7268SOL    HW222704   6.238   6.102   4.282
 7269SOL     OW22705   2.402   4.850   4.960
 7269SOL    HW122706   2.474   4.781   4.964
 7269SOL    HW222707   2.393   4.883   4.866
 7270SOL     OW22708   0.811   1.577   4.446
 7270SOL    HW122709   0.900   1.541   4.418
 7270SOL    HW222710   0.747   1.569   4.369
 7271SOL     OW22711   0.664   4.176   3.577
 7271SOL    HW122712   0.566   4.198   3.571
 7271SOL    HW222713   0.715   4.259   3.599
 7272SOL     OW22714   5.809   5.607   2.873
 7272SOL    HW122715   5.818   5.701   2.906
 7272SOL    HW222716   5.888   5.554   2.904
 7273SOL     OW22717   0.307   2.674   5.561
 7273SOL    HW122718   0.240   2.606   5.531
 7273SOL    HW222719   0.382   2.677   5.495
 7274SOL     OW22720   0.725   4.603   6.918
 7274SOL    HW122721   0.740   4.695   6.883
 7274SOL    HW222722   0.628   4.579   6.907
 7275SOL     OW22723   6.344   0.322   3.157
 7275SOL    HW122724   6.322   0.367   3.244
 7275SOL    HW222725   6.305   0.374   3.081
 7276SOL     OW22726   4.524   6.840   3.808
 7276SOL    HW122727   4.546   6.882   3.720
 7276SOL    HW222728   4.448   6.890   3.850
 7277SOL     OW22729   4.437   0.453   5.643
 7277SOL    HW122730   4.420   0.441   5.741
 7277SOL    HW222731   4.435   0.364   5.598
 7278SOL     OW22732   2.913   3.604   2.840
 7278SOL    HW122733   2.979   3.541   2.881
 7278SOL    HW222734   2.906   3.587   2.742
 7279SOL     OW22735   3.604   5.880   6.271
 7279SOL    HW122736   3.692   5.834   6.256
 7279SOL    HW222737   3.533   5.812   6.291
 7280SOL     OW22738   4.382   0.746   5.558
 7280SOL    HW122739   4.366   0.648   5.547
 7280SOL    HW222740   4.309   0.786   5.612
 7281SOL     OW22741   4.352   1.250   6.765
 7281SOL    HW122742   4.410   1.236   6.684
 7281SOL    HW222743   4.374   1.337   6.807
 7282SOL     OW22744   6.148   5.359   1.742
 7282SOL    HW122745   6.141   5.337   1.839
 7282SOL    HW222746   6.091   5.439   1.722
 7283SOL     OW22747   2.422   0.826   3.454
 7283SOL    HW122748   2.448   0.910   3.501
 7283SOL    HW222749   2.350   0.846   3.387
 7284SOL     OW22750   6.955   3.889   5.423
 7284SOL    HW122751   6.876   3.941   5.456
 7284SOL    HW222752   7.015   3.867   5.499
 7285SOL     OW22753   5.353   5.740   2.090
 7285SOL    HW122754   5.383   5.650   2.122
 7285SOL    HW222755   5.262   5.760   2.127
 7286SOL     OW22756   2.703   3.043   1.057
 7286SOL    HW122757   2.631   3.095   1.102
 7286SOL    HW222758   2.662   2.970   1.002
 7287SOL     OW22759   6.442   0.798   6.315
 7287SOL    HW122760   6.360   0.777   6.368
 7287SOL    HW222761   6.523   0.777   6.369
 7288SOL     OW22762   4.014   0.420   6.600
 7288SOL    HW122763   3.974   0.498   6.552
 7288SOL    HW222764   3.976   0.335   6.563
 7289SOL     OW22765   5.552   2.183   2.788
 7289SOL    HW122766   5.573   2.126   2.868
 7289SOL    HW222767   5.615   2.160   2.713
 7290SOL     OW22768   2.272   5.113   4.669
 7290SOL    HW122769   2.347   5.054   4.699
 7290SOL    HW222770   2.212   5.063   4.607
 7291SOL     OW22771   2.724   5.989   1.328
 7291SOL    HW122772   2.706   5.920   1.398
 7291SOL    HW222773   2.639   6.039   1.308
 7292SOL     OW22774   2.640   6.693   3.851
 7292SOL    HW122775   2.738   6.677   3.860
 7292SOL    HW222776   2.624   6.782   3.808
 7293SOL     OW22777   2.222   1.994   5.254
 7293SOL    HW122778   2.201   2.086   5.289
 7293SOL    HW222779   2.302   1.999   5.195
 7294SOL     OW22780   2.976   4.893   0.415
 7294SOL    HW122781   3.016   4.983   0.430
 7294SOL    HW222782   3.003   4.832   0.489
 7295SOL     OW22783   0.033   1.200   0.897
 7295SOL    HW122784   6.987   1.239   0.953
 7295SOL    HW222785   0.121   1.235   0.929
 7296SOL     OW22786   3.308   4.667   0.707
 7296SOL    HW122787   3.269   4.659   0.799
 7296SOL    HW222788   3.370   4.745   0.704
 7297SOL     OW22789   4.872   6.486   1.298
 7297SOL    HW122790   4.842   6.561   1.357
 7297SOL    HW222791   4.898   6.522   1.208
 7298SOL     OW22792   5.954   3.898   4.599
 7298SOL    HW122793   5.883   3.919   4.532
 7298SOL    HW222794   5.932   3.814   4.647
 7299SOL     OW22795   6.550   3.316   0.047
 7299SOL    HW122796   6.520   3.316   0.142
 7299SOL    HW222797   6.502   3.245   7.024
 7300SOL     OW22798   5.265   5.457   0.899
 7300SOL    HW122799   5.287   5.482   0.805
 7300SOL    HW222800   5.166   5.467   0.914
 7301SOL     OW22801   6.943   6.943   6.059
 7301SOL    HW122802   6.988   6.862   6.021
 7301SOL    HW222803   6.907   6.999   5.984
 7302SOL     OW22804   6.505   0.654   0.056
 7302SOL    HW122805   6.572   0.670   7.011
 7302SOL    HW222806   6.430   0.720   0.047
 7303SOL     OW22807   3.213   0.652   0.067
 7303SOL    HW122808   3.128   0.626   0.112
 7303SOL    HW222809   3.239   0.582   0.000
 7304SOL     OW22810   4.254   3.781   5.870
 7304SOL    HW122811   4.222   3.724   5.794
 7304SOL    HW222812   4.352   3.766   5.884
 7305SOL     OW22813   4.705   1.287   0.334
 7305SOL    HW122814   4.691   1.335   0.420
 7305SOL    HW222815   4.725   1.354   0.262
 7306SOL     OW22816   4.851   5.038   1.460
 7306SOL    HW122817   4.835   4.944   1.493
 7306SOL    HW222818   4.948   5.051   1.442
 7307SOL     OW22819   3.585   6.763   1.711
 7307SOL    HW122820   3.633   6.846   1.680
 7307SOL    HW222821   3.586   6.695   1.637
 7308SOL     OW22822   6.492   3.038   4.395
 7308SOL    HW122823   6.473   2.985   4.478
 7308SOL    HW222824   6.445   2.996   4.317
 7309SOL     OW22825   4.897   6.498   0.777
 7309SOL    HW122826   4.973   6.458   0.727
 7309SOL    HW222827   4.926   6.520   0.870
 7310SOL     OW22828   2.781   5.644   1.214
 7310SOL    HW122829   2.880   5.636   1.212
 7310SOL    HW222830   2.741   5.555   1.237
 7311SOL     OW22831   2.650   2.189   1.982
 7311SOL    HW122832   2.716   2.260   2.007
 7311SOL    HW222833   2.558   2.227   1.987
 7312SOL     OW22834   6.945   2.044   5.393
 7312SOL    HW122835   6.984   2.116   5.451
 7312SOL    HW222836   6.858   2.014   5.433
 7313SOL     OW22837   4.174   2.395   6.615
 7313SOL    HW122838   4.100   2.440   6.664
 7313SOL    HW222839   4.144   2.304   6.584
 7314SOL     OW22840   0.051   3.572   5.097
 7314SOL    HW122841   0.099   3.561   5.183
 7314SOL    HW222842   7.012   3.646   5.104
 7315SOL     OW22843   6.947   0.091   3.808
 7315SOL    HW122844   6.991   0.074   3.896
 7315SOL    HW222845   6.979   0.178   3.771
 7316SOL     OW22846   3.682   3.442   5.666
 7316SOL    HW122847   3.645   3.357   5.704
 7316SOL    HW222848   3.765   3.468   5.716
 7317SOL     OW22849   3.258   1.008   3.051
 7317SOL    HW122850   3.273   0.950   2.971
 7317SOL    HW222851   3.188   1.076   3.030
 7318SOL     OW22852   1.424   2.271   1.549
 7318SOL    HW122853   1.486   2.336   1.505
 7318SOL    HW222854   1.336   2.271   1.501
 7319SOL     OW22855   6.382   4.633   6.606
 7319SOL    HW122856   6.333   4.690   6.539
 7319SOL    HW222857   6.323   4.558   6.635
 7320SOL     OW22858   0.549   3.366   2.179
 7320SOL    HW122859   0.526   3.423   2.100
 7320SOL    HW222860   0.479   3.377   2.250
 7321SOL     OW22861   2.197   1.901   4.594
 7321SOL    HW122862   2.240   1.888   4.505
 7321SOL    HW222863   2.109   1.854   4.597
 7322SOL     OW22864   0.861   3.986   3.240
 7322SOL    HW122865   0.865   3.898   3.286
 7322SOL    HW222866   0.931   4.047   3.277
 7323SOL     OW22867   1.748   2.291   3.165
 7323SOL    HW122868   1.805   2.243   3.231
 7323SOL    HW222869   1.700   2.225   3.107
 7324SOL     OW22870   6.243   0.973   3.791
 7324SOL    HW122871   6.167   1.026   3.828
 7324SOL    HW222872   6.309   1.035   3.749
 7325SOL     OW22873   3.450   6.802   6.273
 7325SOL    HW122874   3.398   6.793   6.358
 7325SOL    HW222875   3.442   6.896   6.239
 7326SOL     OW22876   3.015   6.778   6.193
 7326SOL    HW122877   3.089   6.734   6.142
 7326SOL    HW222878   2.932   6.780   6.137
 7327SOL     OW22879   1.764   2.608   6.352
 7327SOL    HW122880   1.781   2.511   6.339
 7327SOL    HW222881   1.673   2.621   6.392
 7328SOL     OW22882   2.740   6.602   6.516
 7328SOL    HW122883   2.840   6.599   6.515
 7328SOL    HW222884   2.704   6.509   6.521
 7329SOL     OW22885   4.405   3.460   0.869
 7329SOL    HW122886   4.332   3.469   0.937
 7329SOL    HW222887   4.465   3.540   0.873
 7330SOL     OW22888   3.332   1.341   6.541
 7330SOL    HW122889   3.315   1.250   6.577
 7330SOL    HW222890   3.407   1.384   6.593
 7331SOL     OW22891   4.968   0.569   2.177
 7331SOL    HW122892   4.971   0.635   2.252
 7331SOL    HW222893   4.942   0.615   2.092
 7332SOL     OW22894   3.016   5.722   0.307
 7332SOL    HW122895   2.954   5.791   0.268
 7332SOL    HW222896   2.967   5.636   0.317
 7333SOL     OW22897   0.935   4.642   2.731
 7333SOL    HW122898   0.860   4.693   2.772
 7333SOL    HW222899   0.966   4.571   2.794
 7334SOL     OW22900   3.861   6.082   5.093
 7334SOL    HW122901   3.763   6.064   5.099
 7334SOL    HW222902   3.910   5.997   5.075
 7335SOL     OW22903   1.904   2.259   2.433
 7335SOL    HW122904   1.856   2.187   2.383
 7335SOL    HW222905   1.857   2.276   2.520
 7336SOL     OW22906   1.947   5.618   4.227
 7336SOL    HW122907   1.864   5.645   4.275
 7336SOL    HW222908   2.027   5.655   4.275
 7337SOL     OW22909   0.254   2.944   2.330
 7337SOL    HW122910   0.154   2.936   2.338
 7337SOL    HW222911   0.297   2.908   2.413
 7338SOL     OW22912   6.963   2.177   1.428
 7338SOL    HW122913   6.984   2.095   1.375
 7338SOL    HW222914   6.903   2.153   1.504
 7339SOL     OW22915   6.884   5.852   4.049
 7339SOL    HW122916   6.792   5.871   4.016
 7339SOL    HW222917   6.881   5.776   4.113
 7340SOL     OW22918   2.320   0.135   0.041
 7340SOL    HW122919   2.383   0.211   0.056
 7340SOL    HW222920   2.243   0.166   7.012
 7341SOL     OW22921   6.061   2.197   6.969
 7341SOL    HW122922   6.008   2.279   6.947
 7341SOL    HW222923   6.157   2.213   6.947
 7342SOL     OW22924   0.074   6.790   2.733
 7342SOL    HW122925   0.010   6.739   2.790
 7342SOL    HW222926   0.067   6.888   2.754
 7343SOL     OW22927   5.500   3.452   0.861
 7343SOL    HW122928   5.560   3.373   0.850
 7343SOL    HW222929   5.545   3.520   0.919
 7344SOL     OW22930   1.373   5.867   6.659
 7344SOL    HW122931   1.392   5.923   6.579
 7344SOL    HW222932   1.378   5.923   6.742
 7345SOL     OW22933   3.862   4.391   5.724
 7345SOL    HW122934   3.860   4.491   5.726
 7345SOL    HW222935   3.779   4.357   5.679
 7346SOL     OW22936   4.071   5.628   2.630
 7346SOL    HW122937   3.973   5.627   2.649
 7346SOL    HW222938   4.121   5.603   2.713
 7347SOL     OW22939   6.248   2.109   6.714
 7347SOL    HW122940   6.320   2.145   6.773
 7347SOL    HW222941   6.216   2.182   6.653
 7348SOL     OW22942   1.428   4.143   2.233
 7348SOL    HW122943   1.332   4.118   2.227
 7348SOL    HW222944   1.445   4.192   2.318
 7349SOL     OW22945   3.707   1.240   1.055
 7349SOL    HW122946   3.774   1.194   1.113
 7349SOL    HW222947   3.644   1.173   1.017
 7350SOL     OW22948   2.975   0.370   5.742
 7350SOL    HW122949   2.915   0.447   5.761
 7350SOL    HW222950   2.927   0.303   5.685
 7351SOL     OW22951   4.200   5.177   4.114
 7351SOL    HW122952   4.173   5.095   4.165
 7351SOL    HW222953   4.118   5.227   4.086
 7352SOL     OW22954   0.289   2.443   3.346
 7352SOL    HW122955   0.256   2.385   3.271
 7352SOL    HW222956   0.389   2.447   3.343
 7353SOL     OW22957   6.400   0.073   6.924
 7353SOL    HW122958   6.336   0.124   6.983
 7353SOL    HW222959   6.363   0.069   6.831
 7354SOL     OW22960   1.427   1.462   2.535
 7354SOL    HW122961   1.455   1.402   2.610
 7354SOL    HW222962   1.478   1.438   2.453
 7355SOL     OW22963   0.400   2.076   6.304
 7355SOL    HW122964   0.417   2.172   6.281
 7355SOL    HW222965   0.486   2.033   6.332
 7356SOL     OW22966   4.283   3.619   6.087
 7356SOL    HW122967   4.320   3.536   6.044
 7356SOL    HW222968   4.245   3.679   6.016
 7357SOL     OW22969   5.337   6.090   2.021
 7357SOL    HW122970   5.264   6.116   2.085
 7357SOL    HW222971   5.418   6.062   2.073
 7358SOL     OW22972   5.945   1.917   3.065
 7358SOL    HW122973   5.896   1.886   3.147
 7358SOL    HW222974   6.008   1.846   3.036
 7359SOL     OW22975   4.640   0.465   6.793
 7359SOL    HW122976   4.601   0.456   6.885
 7359SOL    HW222977   4.585   0.529   6.740
 7360SOL     OW22978   2.877   3.286   5.246
 7360SOL    HW122979   2.969   3.251   5.229
 7360SOL    HW222980   2.830   3.225   5.310
 7361SOL     OW22981   4.990   0.273   2.271
 7361SOL    HW122982   4.985   0.364   2.231
 7361SOL    HW222983   4.953   0.275   2.364
 7362SOL     OW22984   3.690   5.583   6.505
 7362SOL    HW122985   3.697   5.603   6.603
 7362SOL    HW222986   3.671   5.668   6.456
 7363SOL     OW22987   3.808   0.326   1.204
 7363SOL    HW122988   3.809   0.344   1.303
 7363SOL    HW222989   3.777   0.233   1.187
 7364SOL     OW22990   5.102   6.965   1.494
 7364SOL    HW122991   5.101   0.038   1.496
 7364SOL    HW222992   5.192   6.932   1.519
 7365SOL     OW22993   5.718   4.856   2.135
 7365SOL    HW122994   5.768   4.813   2.210
 7365SOL    HW222995   5.626   4.882   2.166
 7366SOL     OW22996   2.261   1.362   4.168
 7366SOL    HW122997   2.295   1.345   4.075
 7366SOL    HW222998   2.314   1.436   4.209
 7367SOL     OW22999   4.558   0.884   6.398
 7367SOL    HW123000   4.491   0.956   6.416
 7367SOL    HW223001   4.633   0.920   6.343
 7368SOL     OW23002   3.958   3.454   3.201
 7368SOL    HW123003   3.886   3.393   3.234
 7368SOL    HW223004   3.930   3.494   3.113
 7369SOL     OW23005   5.798   2.262   1.071
 7369SOL    HW123006   5.711   2.311   1.073
 7369SOL    HW223007   5.820   2.228   1.163
 7370SOL     OW23008   2.264   1.962   4.339
 7370SOL    HW123009   2.214   2.045   4.311
 7370SOL    HW223010   2.361   1.974   4.318
 7371SOL     OW23011   4.009   0.344   3.814
 7371SOL    HW123012   4.107   0.355   3.826
 7371SOL    HW223013   3.972   0.422   3.763
 7372SOL     OW23014   4.638   7.017   4.868
 7372SOL    HW123015   4.579   6.953   4.819
 7372SOL    HW223016   4.714   0.018   4.810
 7373SOL     OW23017   5.288   2.909   4.281
 7373SOL    HW123018   5.375   2.876   4.318
 7373SOL    HW223019   5.217   2.901   4.352
 7374SOL     OW23020   0.278   1.934   5.511
 7374SOL    HW123021   0.236   2.000   5.574
 7374SOL    HW223022   0.280   1.972   5.419
 7375SOL     OW23023   2.061   3.308   2.152
 7375SOL    HW123024   1.994   3.269   2.088
 7375SOL    HW223025   2.134   3.353   2.100
 7376SOL     OW23026   0.328   4.303   0.537
 7376SOL    HW123027   0.423   4.272   0.539
 7376SOL    HW223028   0.278   4.255   0.465
 7377SOL     OW23029   3.285   5.737   0.393
 7377SOL    HW123030   3.313   5.827   0.359
 7377SOL    HW223031   3.192   5.717   0.362
 7378SOL     OW23032   1.404   6.123   4.049
 7378SOL    HW123033   1.470   6.127   4.124
 7378SOL    HW223034   1.381   6.028   4.030
 7379SOL     OW23035   4.450   0.814   0.641
 7379SOL    HW123036   4.461   0.722   0.602
 7379SOL    HW223037   4.537   0.844   0.679
 7380SOL     OW23038   5.581   3.693   2.881
 7380SOL    HW123039   5.650   3.726   2.817
 7380SOL    HW223040   5.594   3.737   2.970
 7381SOL     OW23041   4.061   0.774   0.702
 7381SOL    HW123042   3.974   0.808   0.666
 7381SOL    HW223043   4.121   0.851   0.724
 7382SOL     OW23044   6.708   1.052   6.336
 7382SOL    HW123045   6.664   0.986   6.397
 7382SOL    HW223046   6.663   1.141   6.346
 7383SOL     OW23047   2.251   6.588   1.540
 7383SOL    HW123048   2.182   6.536   1.490
 7383SOL    HW223049   2.230   6.686   1.533
 7384SOL     OW23050   0.354   6.917   1.086
 7384SOL    HW123051   0.308   6.977   1.151
 7384SOL    HW223052   0.286   6.861   1.038
 7385SOL     OW23053   5.172   4.460   2.651
 7385SOL    HW123054   5.218   4.525   2.713
 7385SOL    HW223055   5.093   4.421   2.698
 7386SOL     OW23056   6.328   3.370   0.354
 7386SOL    HW123057   6.413   3.318   0.349
 7386SOL    HW223058   6.331   3.430   0.434
 7387SOL     OW23059   6.605   5.442   5.788
 7387SOL    HW123060   6.640   5.478   5.702
 7387SOL    HW223061   6.579   5.346   5.776
 7388SOL     OW23062   2.008   5.976   2.595
 7388SOL    HW123063   2.044   6.039   2.665
 7388SOL    HW223064   2.084   5.940   2.541
 7389SOL     OW23065   6.067   3.352   0.458
 7389SOL    HW123066   6.030   3.263   0.487
 7389SOL    HW223067   6.167   3.345   0.449
 7390SOL     OW23068   2.299   1.783   2.661
 7390SOL    HW123069   2.252   1.871   2.657
 7390SOL    HW223070   2.252   1.717   2.602
 7391SOL     OW23071   3.750   3.078   3.267
 7391SOL    HW123072   3.846   3.056   3.280
 7391SOL    HW223073   3.738   3.177   3.271
 7392SOL     OW23074   3.257   5.816   6.569
 7392SOL    HW123075   3.220   5.755   6.639
 7392SOL    HW223076   3.238   5.911   6.595
 7393SOL     OW23077   5.685   5.784   4.503
 7393SOL    HW123078   5.715   5.694   4.470
 7393SOL    HW223079   5.635   5.831   4.430
 7394SOL     OW23080   2.364   1.989   5.920
 7394SOL    HW123081   2.458   1.956   5.929
 7394SOL    HW223082   2.336   2.032   6.006
 7395SOL     OW23083   2.897   5.388   1.028
 7395SOL    HW123084   2.865   5.294   1.037
 7395SOL    HW223085   2.843   5.435   0.959
 7396SOL     OW23086   2.491   5.238   2.144
 7396SOL    HW123087   2.454   5.280   2.227
 7396SOL    HW223088   2.458   5.144   2.137
 7397SOL     OW23089   5.567   4.041   3.802
 7397SOL    HW123090   5.609   4.011   3.888
 7397SOL    HW223091   5.634   4.033   3.728
 7398SOL     OW23092   2.094   4.438   2.513
 7398SOL    HW123093   2.130   4.347   2.530
 7398SOL    HW223094   2.104   4.460   2.416
 7399SOL     OW23095   5.044   2.118   4.852
 7399SOL    HW123096   5.078   2.128   4.945
 7399SOL    HW223097   5.025   2.208   4.813
 7400SOL     OW23098   5.266   2.956   5.384
 7400SOL    HW123099   5.219   3.043   5.369
 7400SOL    HW223100   5.207   2.896   5.438
 7401SOL     OW23101   1.273   2.846   3.797
 7401SOL    HW123102   1.255   2.788   3.717
 7401SOL    HW223103   1.250   2.796   3.880
 7402SOL     OW23104   3.289   6.400   5.156
 7402SOL    HW123105   3.310   6.337   5.231
 7402SOL    HW223106   3.290   6.349   5.070
 7403SOL     OW23107   1.433   3.563   5.047
 7403SOL    HW123108   1.469   3.511   5.125
 7403SOL    HW223109   1.507   3.612   5.002
 7404SOL     OW23110   3.393   3.908   0.754
 7404SOL    HW123111   3.389   3.910   0.854
 7404SOL    HW223112   3.300   3.913   0.717
 7405SOL     OW23113   3.304   6.227   4.951
 7405SOL    HW123114   3.350   6.168   4.885
 7405SOL    HW223115   3.209   6.242   4.922
 7406SOL     OW23116   1.026   1.292   5.038
 7406SOL    HW123117   1.097   1.362   5.037
 7406SOL    HW223118   0.947   1.324   4.985
 7407SOL     OW23119   1.073   5.931   5.450
 7407SOL    HW123120   1.024   5.844   5.456
 7407SOL    HW223121   1.125   5.935   5.365
 7408SOL     OW23122   3.798   4.052   5.290
 7408SOL    HW123123   3.722   4.082   5.348
 7408SOL    HW223124   3.795   4.102   5.203
 7409SOL     OW23125   6.368   4.143   0.770
 7409SOL    HW123126   6.436   4.175   0.837
 7409SOL    HW223127   6.413   4.087   0.701
 7410SOL     OW23128   0.007   0.207   1.306
 7410SOL    HW123129   6.935   0.197   1.317
 7410SOL    HW223130   0.037   0.293   1.349
 7411SOL     OW23131   1.378   2.372   4.807
 7411SOL    HW123132   1.475   2.348   4.801
 7411SOL    HW223133   1.329   2.333   4.729
 7412SOL     OW23134   4.454   6.414   6.709
 7412SOL    HW123135   4.399   6.491   6.677
 7412SOL    HW223136   4.504   6.440   6.792
 7413SOL     OW23137   4.076   6.793   2.962
 7413SOL    HW123138   4.061   6.854   3.040
 7413SOL    HW223139   4.139   6.719   2.989
 7414SOL     OW23140   2.654   2.098   3.909
 7414SOL    HW123141   2.663   2.007   3.950
 7414SOL    HW223142   2.562   2.108   3.871
 7415SOL     OW23143   3.873   6.676   6.344
 7415SOL    HW123144   3.861   6.691   6.442
 7415SOL    HW223145   3.931   6.596   6.330
 7416SOL     OW23146   1.111   1.446   2.008
 7416SOL    HW123147   1.027   1.439   2.061
 7416SOL    HW223148   1.112   1.532   1.957
 7417SOL     OW23149   0.662   1.437   3.249
 7417SOL    HW123150   0.658   1.345   3.210
 7417SOL    HW223151   0.689   1.431   3.345
 7418SOL     OW23152   1.869   4.250   6.153
 7418SOL    HW123153   1.808   4.204   6.217
 7418SOL    HW223154   1.864   4.205   6.064
 7419SOL     OW23155   0.030   3.687   4.200
 7419SOL    HW123156   0.079   3.600   4.191
 7419SOL    HW223157   6.993   3.680   4.276
 7420SOL     OW23158   6.419   0.015   1.357
 7420SOL    HW123159   6.388   6.952   1.328
 7420SOL    HW223160   6.516   0.025   1.336
 7421SOL     OW23161   4.863   4.240   1.639
 7421SOL    HW123162   4.822   4.267   1.552
 7421SOL    HW223163   4.806   4.170   1.683
 7422SOL     OW23164   5.624   2.435   2.461
 7422SOL    HW123165   5.620   2.523   2.508
 7422SOL    HW223166   5.630   2.361   2.529
 7423SOL     OW23167   5.839   2.200   6.091
 7423SOL    HW123168   5.938   2.196   6.080
 7423SOL    HW223169   5.795   2.159   6.011
 7424SOL     OW23170   0.951   1.665   3.718
 7424SOL    HW123171   0.899   1.580   3.722
 7424SOL    HW223172   0.892   1.739   3.684
 7425SOL     OW23173   6.036   0.805   0.076
 7425SOL    HW123174   6.075   0.819   7.012
 7425SOL    HW223175   6.019   0.894   0.119
 7426SOL     OW23176   3.655   2.967   5.727
 7426SOL    HW123177   3.703   2.901   5.670
 7426SOL    HW223178   3.561   2.935   5.742
 7427SOL     OW23179   3.399   1.310   3.842
 7427SOL    HW123180   3.309   1.292   3.804
 7427SOL    HW223181   3.470   1.286   3.775
 7428SOL     OW23182   4.109   5.851   5.321
 7428SOL    HW123183   4.040   5.902   5.372
 7428SOL    HW223184   4.163   5.796   5.385
 7429SOL     OW23185   1.560   6.769   2.697
 7429SOL    HW123186   1.645   6.809   2.663
 7429SOL    HW223187   1.518   6.714   2.625
 7430SOL     OW23188   6.860   5.335   2.521
 7430SOL    HW123189   6.863   5.402   2.595
 7430SOL    HW223190   6.800   5.259   2.548
 7431SOL     OW23191   1.832   1.661   4.187
 7431SOL    HW123192   1.772   1.741   4.185
 7431SOL    HW223193   1.870   1.650   4.279
 7432SOL     OW23194   1.610   0.150   3.088
 7432SOL    HW123195   1.640   0.190   3.174
 7432SOL    HW223196   1.630   0.051   3.089
 7433SOL     OW23197   2.652   0.288   0.287
 7433SOL    HW123198   2.739   0.247   0.260
 7433SOL    HW223199   2.598   0.309   0.205
 7434SOL     OW23200   3.905   6.200   5.802
 7434SOL    HW123201   3.898   6.292   5.764
 7434SOL    HW223202   3.997   6.164   5.784
 7435SOL     OW23203   4.584   5.202   3.087
 7435SOL    HW123204   4.590   5.181   3.185
 7435SOL    HW223205   4.542   5.125   3.039
 7436SOL     OW23206   5.163   3.110   6.250
 7436SOL    HW123207   5.157   3.136   6.154
 7436SOL    HW223208   5.246   3.056   6.265
 7437SOL     OW23209   3.758   6.245   0.873
 7437SOL    HW123210   3.812   6.164   0.853
 7437SOL    HW223211   3.704   6.270   0.792
 7438SOL     OW23212   2.365   0.752   0.259
 7438SOL    HW123213   2.448   0.759   0.315
 7438SOL    HW223214   2.305   0.829   0.279
 7439SOL     OW23215   1.106   4.564   5.964
 7439SOL    HW123216   1.164   4.497   6.009
 7439SOL    HW223217   1.011   4.531   5.961
 7440SOL     OW23218   5.275   3.417   4.531
 7440SOL    HW123219   5.263   3.329   4.485
 7440SOL    HW223220   5.226   3.416   4.618
 7441SOL     OW23221   5.811   5.919   1.545
 7441SOL    HW123222   5.853   5.975   1.474
 7441SOL    HW223223   5.882   5.885   1.607
 7442SOL     OW23224   5.050   1.188   5.272
 7442SOL    HW123225   5.024   1.276   5.232
 7442SOL    HW223226   4.978   1.156   5.333
 7443SOL     OW23227   6.893   0.569   2.196
 7443SOL    HW123228   6.820   0.575   2.128
 7443SOL    HW223229   6.963   0.505   2.166
 7444SOL     OW23230   1.413   6.200   6.703
 7444SOL    HW123231   1.495   6.153   6.671
 7444SOL    HW223232   1.392   6.276   6.641
 7445SOL     OW23233   3.856   6.153   1.197
 7445SOL    HW123234   3.815   6.189   1.114
 7445SOL    HW223235   3.841   6.218   1.272
 7446SOL     OW23236   5.467   4.002   0.358
 7446SOL    HW123237   5.505   3.910   0.365
 7446SOL    HW223238   5.520   4.054   0.291
 7447SOL     OW23239   0.745   4.824   1.261
 7447SOL    HW123240   0.719   4.733   1.229
 7447SOL    HW223241   0.724   4.832   1.358
 7448SOL     OW23242   4.480   4.918   6.464
 7448SOL    HW123243   4.441   4.997   6.417
 7448SOL    HW223244   4.432   4.904   6.550
 7449SOL     OW23245   0.723   4.412   6.472
 7449SOL    HW123246   0.766   4.483   6.417
 7449SOL    HW223247   0.754   4.322   6.441
 7450SOL     OW23248   5.377   1.868   5.046
 7450SOL    HW123249   5.441   1.806   5.091
 7450SOL    HW223250   5.427   1.931   4.988
 7451SOL     OW23251   5.621   5.028   3.191
 7451SOL    HW123252   5.578   4.945   3.227
 7451SOL    HW223253   5.621   5.026   3.091
 7452SOL     OW23254   6.460   5.342   5.306
 7452SOL    HW123255   6.377   5.365   5.358
 7452SOL    HW223256   6.441   5.347   5.208
 7453SOL     OW23257   3.683   5.692   6.762
 7453SOL    HW123258   3.760   5.738   6.806
 7453SOL    HW223259   3.626   5.760   6.715
 7454SOL     OW23260   3.620   2.270   0.610
 7454SOL    HW123261   3.704   2.321   0.627
 7454SOL    HW223262   3.543   2.318   0.653
 7455SOL     OW23263   6.564   3.016   3.573
 7455SOL    HW123264   6.501   3.022   3.495
 7455SOL    HW223265   6.625   2.938   3.560
 7456SOL     OW23266   3.311   2.057   5.524
 7456SOL    HW123267   3.343   2.002   5.446
 7456SOL    HW223268   3.217   2.085   5.507
 7457SOL     OW23269   2.696   0.333   3.093
 7457SOL    HW123270   2.754   0.284   3.027
 7457SOL    HW223271   2.709   0.295   3.184
 7458SOL     OW23272   1.119   5.360   5.166
 7458SOL    HW123273   1.180   5.281   5.157
 7458SOL    HW223274   1.029   5.330   5.196
 7459SOL     OW23275   5.746   0.563   2.781
 7459SOL    HW123276   5.721   0.484   2.837
 7459SOL    HW223277   5.825   0.539   2.724
 7460SOL     OW23278   1.554   6.542   0.854
 7460SOL    HW123279   1.469   6.491   0.851
 7460SOL    HW223280   1.623   6.496   0.798
 7461SOL     OW23281   1.265   5.040   6.211
 7461SOL    HW123282   1.364   5.027   6.213
 7461SOL    HW223283   1.219   4.951   6.211
 7462SOL     OW23284   1.167   4.785   0.644
 7462SOL    HW123285   1.221   4.753   0.722
 7462SOL    HW223286   1.179   4.884   0.633
 7463SOL     OW23287   3.424   4.820   1.152
 7463SOL    HW123288   3.513   4.824   1.106
 7463SOL    HW223289   3.360   4.768   1.095
 7464SOL     OW23290   6.269   5.959   5.355
 7464SOL    HW123291   6.316   6.033   5.306
 7464SOL    HW223292   6.278   5.973   5.454
 7465SOL     OW23293   1.457   5.014   0.393
 7465SOL    HW123294   1.448   5.044   0.298
 7465SOL    HW223295   1.381   5.048   0.447
 7466SOL     OW23296   0.389   6.541   4.995
 7466SOL    HW123297   0.366   6.492   5.079
 7466SOL    HW223298   0.309   6.548   4.936
 7467SOL     OW23299   0.126   2.791   5.979
 7467SOL    HW123300   0.161   2.852   6.050
 7467SOL    HW223301   0.161   2.820   5.890
 7468SOL     OW23302   6.131   3.668   5.864
 7468SOL    HW123303   6.098   3.575   5.879
 7468SOL    HW223304   6.158   3.679   5.768
 7469SOL     OW23305   6.249   2.370   1.331
 7469SOL    HW123306   6.291   2.447   1.283
 7469SOL    HW223307   6.251   2.388   1.430
 7470SOL     OW23308   5.507   3.068   3.968
 7470SOL    HW123309   5.561   3.062   3.885
 7470SOL    HW223310   5.568   3.076   4.047
 7471SOL     OW23311   5.107   6.129   5.620
 7471SOL    HW123312   5.142   6.048   5.573
 7471SOL    HW223313   5.011   6.113   5.646
 7472SOL     OW23314   6.072   6.229   5.262
 7472SOL    HW123315   6.083   6.212   5.360
 7472SOL    HW223316   6.011   6.159   5.223
 7473SOL     OW23317   4.175   5.951   3.688
 7473SOL    HW123318   4.225   6.037   3.685
 7473SOL    HW223319   4.190   5.900   3.603
 7474SOL     OW23320   6.564   2.079   5.205
 7474SOL    HW123321   6.593   2.139   5.279
 7474SOL    HW223322   6.558   1.985   5.239
 7475SOL     OW23323   4.923   2.947   0.605
 7475SOL    HW123324   4.828   2.927   0.578
 7475SOL    HW223325   4.922   3.013   0.680
 7476SOL     OW23326   1.425   0.866   2.806
 7476SOL    HW123327   1.491   0.859   2.881
 7476SOL    HW223328   1.366   0.785   2.807
 7477SOL     OW23329   0.441   4.526   4.702
 7477SOL    HW123330   0.539   4.528   4.721
 7477SOL    HW223331   0.424   4.557   4.608
 7478SOL     OW23332   0.679   1.479   5.926
 7478SOL    HW123333   0.755   1.435   5.878
 7478SOL    HW223334   0.647   1.558   5.873
 7479SOL     OW23335   6.183   3.383   0.084
 7479SOL    HW123336   6.171   3.301   0.028
 7479SOL    HW223337   6.223   3.357   0.172
 7480SOL     OW23338   3.936   4.946   2.731
 7480SOL    HW123339   3.865   4.954   2.661
 7480SOL    HW223340   3.995   4.868   2.710
 7481SOL     OW23341   0.195   4.049   6.260
 7481SOL    HW123342   0.166   3.963   6.302
 7481SOL    HW223343   0.231   4.032   6.169
 7482SOL     OW23344   3.906   1.774   2.596
 7482SOL    HW123345   3.945   1.730   2.677
 7482SOL    HW223346   3.885   1.869   2.616
 7483SOL     OW23347   5.106   2.379   5.802
 7483SOL    HW123348   5.110   2.464   5.750
 7483SOL    HW223349   5.032   2.322   5.767
 7484SOL     OW23350   3.334   6.893   4.098
 7484SOL    HW123351   3.251   6.848   4.131
 7484SOL    HW223352   3.409   6.877   4.163
 7485SOL     OW23353   2.928   0.112   4.990
 7485SOL    HW123354   2.860   0.145   5.056
 7485SOL    HW223355   2.903   0.020   4.960
 7486SOL     OW23356   2.570   6.428   1.207
 7486SOL    HW123357   2.472   6.434   1.225
 7486SOL    HW223358   2.620   6.481   1.276
 7487SOL     OW23359   4.498   6.649   4.106
 7487SOL    HW123360   4.524   6.556   4.076
 7487SOL    HW223361   4.406   6.669   4.074
 7488SOL     OW23362   1.129   5.157   3.690
 7488SOL    HW123363   1.108   5.183   3.784
 7488SOL    HW223364   1.210   5.100   3.689
 7489SOL     OW23365   6.134   3.266   6.350
 7489SOL    HW123366   6.142   3.331   6.425
 7489SOL    HW223367   6.203   3.195   6.359
 7490SOL     OW23368   1.229   2.436   1.892
 7490SOL    HW123369   1.295   2.501   1.929
 7490SOL    HW223370   1.169   2.403   1.964
 7491SOL     OW23371   4.254   2.956   0.229
 7491SOL    HW123372   4.173   3.015   0.223
 7491SOL    HW223373   4.226   2.861   0.226
 7492SOL     OW23374   1.578   0.412   4.296
 7492SOL    HW123375   1.612   0.436   4.387
 7492SOL    HW223376   1.542   0.495   4.252
 7493SOL     OW23377   6.773   4.190   5.025
 7493SOL    HW123378   6.686   4.144   5.009
 7493SOL    HW223379   6.849   4.130   5.001
 7494SOL     OW23380   5.957   0.617   2.606
 7494SOL    HW123381   5.995   0.555   2.537
 7494SOL    HW223382   6.011   0.610   2.690
 7495SOL     OW23383   1.510   3.769   5.407
 7495SOL    HW123384   1.411   3.756   5.411
 7495SOL    HW223385   1.539   3.827   5.483
 7496SOL     OW23386   5.912   4.428   2.588
 7496SOL    HW123387   5.858   4.511   2.602
 7496SOL    HW223388   5.978   4.443   2.515
 7497SOL     OW23389   0.358   6.732   0.236
 7497SOL    HW123390   0.395   6.642   0.261
 7497SOL    HW223391   0.294   6.721   0.160
 7498SOL     OW23392   3.020   6.980   2.794
 7498SOL    HW123393   3.065   6.902   2.838
 7498SOL    HW223394   2.989   0.017   2.865
 7499SOL     OW23395   4.120   2.000   3.644
 7499SOL    HW123396   4.083   2.043   3.562
 7499SOL    HW223397   4.118   1.901   3.634
 7500SOL     OW23398   3.923   6.892   2.736
 7500SOL    HW123399   3.983   6.832   2.788
 7500SOL    HW223400   3.863   6.942   2.798
 7501SOL     OW23401   5.836   2.272   4.945
 7501SOL    HW123402   5.935   2.273   4.962
 7501SOL    HW223403   5.816   2.213   4.867
 7502SOL     OW23404   4.128   0.716   4.606
 7502SOL    HW123405   4.198   0.730   4.536
 7502SOL    HW223406   4.129   0.794   4.669
 7503SOL     OW23407   1.877   6.468   1.649
 7503SOL    HW123408   1.805   6.532   1.676
 7503SOL    HW223409   1.844   6.374   1.661
 7504SOL     OW23410   6.334   6.687   3.742
 7504SOL    HW123411   6.413   6.723   3.790
 7504SOL    HW223412   6.255   6.688   3.802
 7505SOL     OW23413   1.052   6.698   5.351
 7505SOL    HW123414   1.117   6.769   5.323
 7505SOL    HW223415   0.981   6.739   5.408
 7506SOL     OW23416   2.470   1.634   2.814
 7506SOL    HW123417   2.412   1.671   2.742
 7506SOL    HW223418   2.525   1.559   2.778
 7507SOL     OW23419   6.338   4.262   4.982
 7507SOL    HW123420   6.371   4.180   5.029
 7507SOL    HW223421   6.370   4.344   5.030
 7508SOL     OW23422   2.049   5.909   6.895
 7508SOL    HW123423   2.117   5.982   6.887
 7508SOL    HW223424   1.960   5.943   6.865
 7509SOL     OW23425   5.812   4.263   0.504
 7509SOL    HW123426   5.775   4.178   0.466
 7509SOL    HW223427   5.859   4.314   0.432
 7510SOL     OW23428   3.792   3.668   3.933
 7510SOL    HW123429   3.886   3.702   3.921
 7510SOL    HW223430   3.786   3.618   4.019
 7511SOL     OW23431   3.654   6.268   3.407
 7511SOL    HW123432   3.744   6.263   3.449
 7511SOL    HW223433   3.662   6.305   3.315
 7512SOL     OW23434   3.804   0.274   6.275
 7512SOL    HW123435   3.828   0.218   6.196
 7512SOL    HW223436   3.807   0.218   6.358
 7513SOL     OW23437   1.020   2.088   2.191
 7513SOL    HW123438   0.940   2.033   2.216
 7513SOL    HW223439   1.077   2.037   2.126
 7514SOL     OW23440   1.385   4.152   1.939
 7514SOL    HW123441   1.457   4.213   1.907
 7514SOL    HW223442   1.410   4.113   2.027
 7515SOL     OW23443   0.079   4.779   4.418
 7515SOL    HW123444   0.058   4.873   4.391
 7515SOL    HW223445   7.021   4.726   4.423
 7516SOL     OW23446   1.370   6.425   5.033
 7516SOL    HW123447   1.402   6.331   5.046
 7516SOL    HW223448   1.270   6.428   5.037
 7517SOL     OW23449   0.733   1.417   6.692
 7517SOL    HW123450   0.748   1.373   6.781
 7517SOL    HW223451   0.637   1.409   6.666
 7518SOL     OW23452   4.654   2.632   3.182
 7518SOL    HW123453   4.705   2.610   3.099
 7518SOL    HW223454   4.688   2.718   3.220
 7519SOL     OW23455   4.180   6.393   4.403
 7519SOL    HW123456   4.121   6.472   4.385
 7519SOL    HW223457   4.202   6.389   4.500
 7520SOL     OW23458   1.399   2.410   0.813
 7520SOL    HW123459   1.494   2.390   0.786
 7520SOL    HW223460   1.353   2.324   0.835
 7521SOL     OW23461   3.904   1.617   5.312
 7521SOL    HW123462   3.988   1.607   5.365
 7521SOL    HW223463   3.876   1.527   5.277
 7522SOL     OW23464   2.014   0.167   3.328
 7522SOL    HW123465   2.009   0.155   3.427
 7522SOL    HW223466   2.015   0.264   3.306
 7523SOL     OW23467   5.536   0.859   6.637
 7523SOL    HW123468   5.482   0.859   6.722
 7523SOL    HW223469   5.613   0.922   6.648
 7524SOL     OW23470   0.196   3.343   4.812
 7524SOL    HW123471   0.117   3.302   4.767
 7524SOL    HW223472   0.189   3.330   4.911
 7525SOL     OW23473   4.708   5.913   6.635
 7525SOL    HW123474   4.633   5.952   6.582
 7525SOL    HW223475   4.679   5.826   6.674
 7526SOL     OW23476   2.464   3.376   1.596
 7526SOL    HW123477   2.443   3.418   1.684
 7526SOL    HW223478   2.435   3.436   1.522
 7527SOL     OW23479   4.153   5.021   3.854
 7527SOL    HW123480   4.147   5.005   3.952
 7527SOL    HW223481   4.104   4.949   3.805
 7528SOL     OW23482   6.543   3.428   6.808
 7528SOL    HW123483   6.625   3.482   6.823
 7528SOL    HW223484   6.512   3.390   6.895
 7529SOL     OW23485   6.776   2.765   4.474
 7529SOL    HW123486   6.790   2.721   4.386
 7529SOL    HW223487   6.845   2.733   4.539
 7530SOL     OW23488   6.828   2.069   1.698
 7530SOL    HW123489   6.765   2.118   1.637
 7530SOL    HW223490   6.775   2.017   1.765
 7531SOL     OW23491   4.391   2.010   3.644
 7531SOL    HW123492   4.433   2.086   3.595
 7531SOL    HW223493   4.292   2.026   3.651
 7532SOL     OW23494   4.640   5.499   6.270
 7532SOL    HW123495   4.599   5.427   6.214
 7532SOL    HW223496   4.612   5.487   6.365
 7533SOL     OW23497   4.448   3.957   1.396
 7533SOL    HW123498   4.544   3.981   1.380
 7533SOL    HW223499   4.389   4.013   1.338
 7534SOL     OW23500   4.352   0.090   4.426
 7534SOL    HW123501   4.348   0.043   4.338
 7534SOL    HW223502   4.271   0.065   4.480
 7535SOL     OW23503   0.359   5.808   3.608
 7535SOL    HW123504   0.360   5.764   3.698
 7535SOL    HW223505   0.390   5.903   3.618
 7536SOL     OW23506   4.860   6.006   4.865
 7536SOL    HW123507   4.853   6.092   4.815
 7536SOL    HW223508   4.807   5.935   4.818
 7537SOL     OW23509   3.185   6.558   3.491
 7537SOL    HW123510   3.188   6.630   3.560
 7537SOL    HW223511   3.278   6.528   3.470
 7538SOL     OW23512   0.565   4.158   0.498
 7538SOL    HW123513   0.577   4.186   0.403
 7538SOL    HW223514   0.652   4.164   0.546
 7539SOL     OW23515   0.531   6.758   3.826
 7539SOL    HW123516   0.507   6.664   3.801
 7539SOL    HW223517   0.449   6.814   3.826
 7540SOL     OW23518   6.427   5.321   2.911
 7540SOL    HW123519   6.444   5.373   2.994
 7540SOL    HW223520   6.408   5.383   2.835
 7541SOL     OW23521   1.649   4.074   6.753
 7541SOL    HW123522   1.571   4.129   6.722
 7541SOL    HW223523   1.670   4.096   6.848
 7542SOL     OW23524   5.830   5.779   5.229
 7542SOL    HW123525   5.742   5.767   5.275
 7542SOL    HW223526   5.849   5.700   5.171
 7543SOL     OW23527   2.461   0.900   6.558
 7543SOL    HW123528   2.489   0.918   6.463
 7543SOL    HW223529   2.468   0.985   6.611
 7544SOL     OW23530   6.770   2.607   4.224
 7544SOL    HW123531   6.828   2.584   4.146
 7544SOL    HW223532   6.744   2.523   4.272
 7545SOL     OW23533   1.033   4.906   6.739
 7545SOL    HW123534   0.988   4.854   6.811
 7545SOL    HW223535   1.054   4.845   6.662
 7546SOL     OW23536   2.953   2.882   1.766
 7546SOL    HW123537   2.993   2.909   1.854
 7546SOL    HW223538   2.965   2.784   1.753
 7547SOL     OW23539   4.766   0.452   1.964
 7547SOL    HW123540   4.723   0.457   2.054
 7547SOL    HW223541   4.781   0.356   1.939
 7548SOL     OW23542   4.100   2.152   6.500
 7548SOL    HW123543   4.037   2.145   6.422
 7548SOL    HW223544   4.136   2.061   6.522
 7549SOL     OW23545   5.058   2.360   4.296
 7549SOL    HW123546   4.963   2.376   4.323
 7549SOL    HW223547   5.118   2.379   4.374
 7550SOL     OW23548   2.494   4.650   4.672
 7550SOL    HW123549   2.529   4.647   4.765
 7550SOL    HW223550   2.397   4.626   4.671
 7551SOL     OW23551   5.871   2.424   5.657
 7551SOL    HW123552   5.950   2.456   5.709
 7551SOL    HW223553   5.815   2.365   5.715
 7552SOL     OW23554   2.686   6.065   5.326
 7552SOL    HW123555   2.738   6.061   5.241
 7552SOL    HW223556   2.604   6.008   5.318
 7553SOL     OW23557   5.537   6.406   5.911
 7553SOL    HW123558   5.445   6.400   5.949
 7553SOL    HW223559   5.596   6.339   5.956
 7554SOL     OW23560   5.158   0.765   1.190
 7554SOL    HW123561   5.119   0.816   1.114
 7554SOL    HW223562   5.097   0.690   1.216
 7555SOL     OW23563   3.427   5.046   5.343
 7555SOL    HW123564   3.427   4.960   5.293
 7555SOL    HW223565   3.365   5.039   5.421
 7556SOL     OW23566   0.185   6.764   0.947
 7556SOL    HW123567   0.118   6.827   0.987
 7556SOL    HW223568   0.140   6.678   0.925
 7557SOL     OW23569   4.824   0.136   0.266
 7557SOL    HW123570   4.894   0.065   0.272
 7557SOL    HW223571   4.754   0.120   0.335
 7558SOL     OW23572   1.537   2.000   4.453
 7558SOL    HW123573   1.462   1.938   4.433
 7558SOL    HW223574   1.577   1.977   4.542
 7559SOL     OW23575   3.354   1.631   4.585
 7559SOL    HW123576   3.432   1.648   4.645
 7559SOL    HW223577   3.283   1.700   4.602
 7560SOL     OW23578   0.623   0.939   5.816
 7560SOL    HW123579   0.716   0.964   5.788
 7560SOL    HW223580   0.561   0.946   5.738
 7561SOL     OW23581   5.546   2.050   4.884
 7561SOL    HW123582   5.499   2.138   4.885
 7561SOL    HW223583   5.643   2.064   4.865
 7562SOL     OW23584   1.397   4.432   3.995
 7562SOL    HW123585   1.350   4.357   4.043
 7562SOL    HW223586   1.383   4.421   3.896
 7563SOL     OW23587   3.220   5.408   2.546
 7563SOL    HW123588   3.216   5.428   2.644
 7563SOL    HW223589   3.143   5.452   2.500
 7564SOL     OW23590   4.209   1.972   5.168
 7564SOL    HW123591   4.227   1.939   5.260
 7564SOL    HW223592   4.148   1.908   5.121
 7565SOL     OW23593   5.965   4.298   6.292
 7565SOL    HW123594   5.940   4.206   6.264
 7565SOL    HW223595   5.989   4.353   6.212
 7566SOL     OW23596   4.456   4.244   1.250
 7566SOL    HW123597   4.544   4.197   1.254
 7566SOL    HW223598   4.393   4.191   1.193
 7567SOL     OW23599   1.742   0.874   4.795
 7567SOL    HW123600   1.784   0.818   4.866
 7567SOL    HW223601   1.791   0.863   4.709
 7568SOL     OW23602   6.054   5.096   1.673
 7568SOL    HW123603   6.105   5.180   1.695
 7568SOL    HW223604   6.006   5.107   1.587
 7569SOL     OW23605   4.442   3.763   0.074
 7569SOL    HW123606   4.375   3.822   0.120
 7569SOL    HW223607   4.467   3.804   7.013
 7570SOL     OW23608   6.725   2.829   3.014
 7570SOL    HW123609   6.728   2.924   2.984
 7570SOL    HW223610   6.641   2.813   3.066
 7571SOL     OW23611   4.668   2.313   3.081
 7571SOL    HW123612   4.735   2.372   3.035
 7571SOL    HW223613   4.578   2.357   3.078
 7572SOL     OW23614   4.345   6.633   2.176
 7572SOL    HW123615   4.294   6.558   2.134
 7572SOL    HW223616   4.281   6.700   2.213
 7573SOL     OW23617   5.040   6.577   5.262
 7573SOL    HW123618   5.063   6.499   5.320
 7573SOL    HW223619   4.941   6.581   5.248
 7574SOL     OW23620   0.682   1.586   3.767
 7574SOL    HW123621   0.590   1.627   3.768
 7574SOL    HW223622   0.688   1.517   3.838
 7575SOL     OW23623   0.039   0.012   2.859
 7575SOL    HW123624   0.040   0.034   2.956
 7575SOL    HW223625   7.000   0.071   2.812
 7576SOL     OW23626   5.673   3.208   0.835
 7576SOL    HW123627   5.745   3.202   0.905
 7576SOL    HW223628   5.584   3.196   0.878
 7577SOL     OW23629   1.321   6.845   0.891
 7577SOL    HW123630   1.355   6.799   0.973
 7577SOL    HW223631   1.255   6.916   0.916
 7578SOL     OW23632   6.932   5.509   3.295
 7578SOL    HW123633   0.001   5.503   3.269
 7578SOL    HW223634   6.921   5.574   3.370
 7579SOL     OW23635   0.088   1.245   0.240
 7579SOL    HW123636   0.151   1.182   0.286
 7579SOL    HW223637   0.052   1.311   0.306
 7580SOL     OW23638   2.368   4.786   3.588
 7580SOL    HW123639   2.367   4.686   3.587
 7580SOL    HW223640   2.286   4.819   3.635
 7581SOL     OW23641   6.662   1.115   2.753
 7581SOL    HW123642   6.703   1.202   2.781
 7581SOL    HW223643   6.563   1.118   2.769
 7582SOL     OW23644   3.223   1.426   5.362
 7582SOL    HW123645   3.125   1.444   5.366
 7582SOL    HW223646   3.240   1.343   5.309
 7583SOL     OW23647   5.128   3.099   2.509
 7583SOL    HW123648   5.179   3.032   2.456
 7583SOL    HW223649   5.161   3.191   2.488
 7584SOL     OW23650   0.204   0.877   3.209
 7584SOL    HW123651   0.106   0.895   3.215
 7584SOL    HW223652   0.242   0.929   3.133
 7585SOL     OW23653   1.393   1.299   6.885
 7585SOL    HW123654   1.424   1.299   6.980
 7585SOL    HW223655   1.469   1.325   6.826
 7586SOL     OW23656   1.141   1.524   2.577
 7586SOL    HW123657   1.139   1.538   2.676
 7586SOL    HW223658   1.229   1.485   2.551
 7587SOL     OW23659   3.699   0.722   1.010
 7587SOL    HW123660   3.679   0.626   0.992
 7587SOL    HW223661   3.651   0.751   1.093
 7588SOL     OW23662   1.851   2.483   4.112
 7588SOL    HW123663   1.911   2.461   4.034
 7588SOL    HW223664   1.871   2.575   4.143
 7589SOL     OW23665   0.646   0.913   2.955
 7589SOL    HW123666   0.700   0.946   2.878
 7589SOL    HW223667   0.549   0.918   2.933
 7590SOL     OW23668   0.285   1.496   6.860
 7590SOL    HW123669   0.364   1.551   6.832
 7590SOL    HW223670   0.204   1.554   6.864
 7591SOL     OW23671   4.211   3.164   5.264
 7591SOL    HW123672   4.252   3.240   5.314
 7591SOL    HW223673   4.145   3.199   5.197
 7592SOL     OW23674   0.070   6.448   5.273
 7592SOL    HW123675   7.019   6.406   5.319
 7592SOL    HW223676   0.039   6.495   5.191
 7593SOL     OW23677   1.152   1.337   6.107
 7593SOL    HW123678   1.203   1.258   6.142
 7593SOL    HW223679   1.069   1.349   6.162
 7594SOL     OW23680   0.130   4.637   0.163
 7594SOL    HW123681   0.035   4.611   0.153
 7594SOL    HW223682   0.167   4.597   0.247
 7595SOL     OW23683   0.219   3.096   6.228
 7595SOL    HW123684   0.130   3.051   6.229
 7595SOL    HW223685   0.245   3.123   6.320
 7596SOL     OW23686   3.061   1.054   5.404
 7596SOL    HW123687   3.062   1.096   5.494
 7596SOL    HW223688   2.996   0.978   5.403
 7597SOL     OW23689   1.685   4.856   2.174
 7597SOL    HW123690   1.693   4.827   2.079
 7597SOL    HW223691   1.698   4.777   2.234
 7598SOL     OW23692   6.502   1.260   3.429
 7598SOL    HW123693   6.458   1.324   3.365
 7598SOL    HW223694   6.601   1.267   3.420
 7599SOL     OW23695   3.911   3.530   0.766
 7599SOL    HW123696   3.947   3.442   0.799
 7599SOL    HW223697   3.968   3.604   0.801
 7600SOL     OW23698   1.758   6.767   4.533
 7600SOL    HW123699   1.781   6.768   4.630
 7600SOL    HW223700   1.829   6.718   4.482
 7601SOL     OW23701   3.338   6.355   2.749
 7601SOL    HW123702   3.311   6.445   2.716
 7601SOL    HW223703   3.328   6.352   2.848
 7602SOL     OW23704   6.881   1.498   0.339
 7602SOL    HW123705   6.958   1.464   0.393
 7602SOL    HW223706   6.797   1.493   0.393
 7603SOL     OW23707   3.114   0.422   5.356
 7603SOL    HW123708   3.134   0.519   5.347
 7603SOL    HW223709   3.190   0.377   5.403
 7604SOL     OW23710   0.800   2.495   4.660
 7604SOL    HW123711   0.783   2.549   4.578
 7604SOL    HW223712   0.748   2.410   4.655
 7605SOL     OW23713   2.053   6.562   0.334
 7605SOL    HW123714   1.979   6.534   0.273
 7605SOL    HW223715   2.075   6.658   0.316
 7606SOL     OW23716   6.417   1.605   3.569
 7606SOL    HW123717   6.460   1.673   3.510
 7606SOL    HW223718   6.481   1.531   3.587
 7607SOL     OW23719   2.633   5.944   6.008
 7607SOL    HW123720   2.709   6.002   6.037
 7607SOL    HW223721   2.569   5.931   6.084
 7608SOL     OW23722   6.031   2.485   6.135
 7608SOL    HW123723   6.123   2.467   6.170
 7608SOL    HW223724   5.993   2.565   6.181
 7609SOL     OW23725   0.844   2.089   4.763
 7609SOL    HW123726   0.837   2.026   4.685
 7609SOL    HW223727   0.757   2.137   4.775
 7610SOL     OW23728   3.786   5.168   5.213
 7610SOL    HW123729   3.865   5.184   5.154
 7610SOL    HW223730   3.792   5.076   5.252
 7611SOL     OW23731   5.035   3.566   1.049
 7611SOL    HW123732   4.967   3.633   1.078
 7611SOL    HW223733   5.057   3.580   0.952
 7612SOL     OW23734   3.001   1.637   3.381
 7612SOL    HW123735   3.015   1.717   3.323
 7612SOL    HW223736   3.018   1.662   3.476
 7613SOL     OW23737   0.186   1.327   2.405
 7613SOL    HW123738   0.240   1.392   2.351
 7613SOL    HW223739   0.148   1.374   2.485
 7614SOL     OW23740   5.039   4.079   0.646
 7614SOL    HW123741   5.138   4.067   0.636
 7614SOL    HW223742   4.992   4.011   0.590
 7615SOL     OW23743   5.787   3.605   4.997
 7615SOL    HW123744   5.732   3.688   5.003
 7615SOL    HW223745   5.770   3.561   4.909
 7616SOL     OW23746   6.154   0.182   3.507
 7616SOL    HW123747   6.089   0.129   3.452
 7616SOL    HW223748   6.194   0.254   3.450
 7617SOL     OW23749   5.380   5.120   3.766
 7617SOL    HW123750   5.442   5.159   3.698
 7617SOL    HW223751   5.288   5.116   3.729
 7618SOL     OW23752   2.366   2.757   0.069
 7618SOL    HW123753   2.270   2.737   0.048
 7618SOL    HW223754   2.399   2.691   0.136
 7619SOL     OW23755   0.835   1.855   4.554
 7619SOL    HW123756   0.799   1.908   4.476
 7619SOL    HW223757   0.851   1.761   4.525
 7620SOL     OW23758   4.054   4.018   1.480
 7620SOL    HW123759   4.122   3.975   1.538
 7620SOL    HW223760   3.972   4.038   1.534
 7621SOL     OW23761   6.416   4.343   0.392
 7621SOL    HW123762   6.458   4.368   0.480
 7621SOL    HW223763   6.484   4.300   0.334
 7622SOL     OW23764   3.158   3.539   1.353
 7622SOL    HW123765   3.106   3.589   1.423
 7622SOL    HW223766   3.220   3.602   1.306
 7623SOL     OW23767   4.823   4.615   0.858
 7623SOL    HW123768   4.915   4.590   0.828
 7623SOL    HW223769   4.757   4.546   0.826
 7624SOL     OW23770   0.680   2.870   2.277
 7624SOL    HW123771   0.636   2.867   2.187
 7624SOL    HW223772   0.766   2.819   2.274
 7625SOL     OW23773   5.541   1.073   1.425
 7625SOL    HW123774   5.502   1.165   1.413
 7625SOL    HW223775   5.483   1.007   1.378
 7626SOL     OW23776   4.982   1.436   5.571
 7626SOL    HW123777   4.917   1.470   5.504
 7626SOL    HW223778   5.059   1.499   5.578
 7627SOL     OW23779   3.528   2.531   6.819
 7627SOL    HW123780   3.501   2.439   6.847
 7627SOL    HW223781   3.585   2.572   6.891
 7628SOL     OW23782   3.263   2.452   0.229
 7628SOL    HW123783   3.346   2.507   0.234
 7628SOL    HW223784   3.198   2.482   0.299
 7629SOL     OW23785   6.060   3.079   3.997
 7629SOL    HW123786   6.111   3.011   4.051
 7629SOL    HW223787   6.106   3.092   3.909
 7630SOL     OW23788   1.269   6.807   5.231
 7630SOL    HW123789   1.317   6.721   5.249
 7630SOL    HW223790   1.335   6.882   5.230
 7631SOL     OW23791   1.427   0.123   5.857
 7631SOL    HW123792   1.427   0.174   5.943
 7631SOL    HW223793   1.364   0.166   5.793
 7632SOL     OW23794   5.283   5.264   0.231
 7632SOL    HW123795   5.313   5.257   0.326
 7632SOL    HW223796   5.304   5.178   0.184
 7633SOL     OW23797   6.572   1.364   1.169
 7633SOL    HW123798   6.530   1.358   1.259
 7633SOL    HW223799   6.582   1.272   1.131
 7634SOL     OW23800   6.590   2.366   0.512
 7634SOL    HW123801   6.516   2.301   0.493
 7634SOL    HW223802   6.643   2.381   0.429
 7635SOL     OW23803   2.390   4.211   5.806
 7635SOL    HW123804   2.338   4.155   5.870
 7635SOL    HW223805   2.454   4.154   5.755
 7636SOL     OW23806   0.502   3.685   4.307
 7636SOL    HW123807   0.407   3.704   4.285
 7636SOL    HW223808   0.555   3.674   4.223
 7637SOL     OW23809   0.166   6.541   4.818
 7637SOL    HW123810   0.104   6.557   4.741
 7637SOL    HW223811   0.253   6.504   4.784
 7638SOL     OW23812   0.383   6.276   1.673
 7638SOL    HW123813   0.382   6.217   1.592
 7638SOL    HW223814   0.460   6.250   1.731
 7639SOL     OW23815   1.729   0.589   7.003
 7639SOL    HW123816   1.729   0.578   0.075
 7639SOL    HW223817   1.765   0.679   6.979
 7640SOL     OW23818   3.095   1.019   0.482
 7640SOL    HW123819   3.181   1.022   0.431
 7640SOL    HW223820   3.085   0.930   0.526
 7641SOL     OW23821   0.243   4.226   3.454
 7641SOL    HW123822   0.336   4.251   3.479
 7641SOL    HW223823   0.245   4.149   3.389
 7642SOL     OW23824   6.044   1.015   3.098
 7642SOL    HW123825   5.961   1.070   3.106
 7642SOL    HW223826   6.090   1.012   3.187
 7643SOL     OW23827   5.396   4.283   3.084
 7643SOL    HW123828   5.479   4.285   3.140
 7643SOL    HW223829   5.361   4.189   3.080
 7644SOL     OW23830   5.637   3.335   1.217
 7644SOL    HW123831   5.715   3.282   1.182
 7644SOL    HW223832   5.643   3.343   1.316
 7645SOL     OW23833   3.291   4.738   6.188
 7645SOL    HW123834   3.201   4.774   6.163
 7645SOL    HW223835   3.327   4.684   6.112
 7646SOL     OW23836   0.344   2.238   1.519
 7646SOL    HW123837   0.412   2.262   1.589
 7646SOL    HW223838   0.254   2.272   1.547
 7647SOL     OW23839   6.749   2.802   5.209
 7647SOL    HW123840   6.723   2.886   5.161
 7647SOL    HW223841   6.679   2.780   5.277
 7648SOL     OW23842   3.050   1.727   1.661
 7648SOL    HW123843   2.995   1.786   1.721
 7648SOL    HW223844   3.146   1.735   1.685
 7649SOL     OW23845   5.040   1.161   5.641
 7649SOL    HW123846   5.012   1.250   5.606
 7649SOL    HW223847   5.034   1.161   5.741
 7650SOL     OW23848   4.106   1.860   0.746
 7650SOL    HW123849   4.060   1.788   0.695
 7650SOL    HW223850   4.129   1.935   0.684
 7651SOL     OW23851   2.794   4.751   5.847
 7651SOL    HW123852   2.888   4.778   5.822
 7651SOL    HW223853   2.734   4.830   5.838
 7652SOL     OW23854   0.442   1.078   3.973
 7652SOL    HW123855   0.403   1.016   3.906
 7652SOL    HW223856   0.524   1.037   4.013
 7653SOL     OW23857   0.918   1.389   6.470
 7653SOL    HW123858   1.011   1.372   6.500
 7653SOL    HW223859   0.861   1.415   6.549
 7654SOL     OW23860   5.355   2.148   6.502
 7654SOL    HW123861   5.425   2.079   6.523
 7654SOL    HW223862   5.274   2.104   6.465
 7655SOL     OW23863   2.773   1.314   2.886
 7655SOL    HW123864   2.757   1.342   2.791
 7655SOL    HW223865   2.863   1.345   2.915
 7656SOL     OW23866   6.983   3.259   6.612
 7656SOL    HW123867   6.907   3.212   6.565
 7656SOL    HW223868   6.958   3.273   6.708
 7657SOL     OW23869   1.224   3.952   4.425
 7657SOL    HW123870   1.149   3.887   4.438
 7657SOL    HW223871   1.242   4.000   4.511
 7658SOL     OW23872   2.096   1.431   0.890
 7658SOL    HW123873   2.180   1.453   0.938
 7658SOL    HW223874   2.037   1.376   0.949
 7659SOL     OW23875   4.561   3.877   5.640
 7659SOL    HW123876   4.485   3.848   5.581
 7659SOL    HW223877   4.638   3.905   5.583
 7660SOL     OW23878   0.379   5.381   4.731
 7660SOL    HW123879   0.424   5.301   4.773
 7660SOL    HW223880   0.383   5.458   4.795
 7661SOL     OW23881   4.789   2.057   5.506
 7661SOL    HW123882   4.838   1.972   5.524
 7661SOL    HW223883   4.690   2.039   5.503
 7662SOL     OW23884   0.044   0.834   1.080
 7662SOL    HW123885   0.116   0.898   1.104
 7662SOL    HW223886   0.076   0.772   1.008
 7663SOL     OW23887   6.759   5.516   5.572
 7663SOL    HW123888   6.766   5.599   5.518
 7663SOL    HW223889   6.778   5.437   5.513
 7664SOL     OW23890   4.140   2.068   2.424
 7664SOL    HW123891   4.236   2.050   2.403
 7664SOL    HW223892   4.134   2.145   2.488
 7665SOL     OW23893   4.382   0.718   5.036
 7665SOL    HW123894   4.404   0.773   5.117
 7665SOL    HW223895   4.296   0.750   4.996
 7666SOL     OW23896   5.373   4.621   4.375
 7666SOL    HW123897   5.442   4.601   4.306
 7666SOL    HW223898   5.284   4.589   4.344
 7667SOL     OW23899   4.302   5.716   1.147
 7667SOL    HW123900   4.244   5.789   1.109
 7667SOL    HW223901   4.367   5.756   1.211
 7668SOL     OW23902   2.123   5.857   0.571
 7668SOL    HW123903   2.216   5.884   0.595
 7668SOL    HW223904   2.086   5.924   0.506
 7669SOL     OW23905   2.662   0.104   5.846
 7669SOL    HW123906   2.737   0.100   5.780
 7669SOL    HW223907   2.675   0.182   5.907
 7670SOL     OW23908   0.879   6.550   0.134
 7670SOL    HW123909   0.802   6.497   0.097
 7670SOL    HW223910   0.844   6.629   0.185
 7671SOL     OW23911   4.056   6.531   0.965
 7671SOL    HW123912   3.970   6.501   1.006
 7671SOL    HW223913   4.113   6.574   1.035
 7672SOL     OW23914   4.729   4.931   2.935
 7672SOL    HW123915   4.634   4.963   2.935
 7672SOL    HW223916   4.733   4.835   2.964
 7673SOL     OW23917   1.332   5.812   4.644
 7673SOL    HW123918   1.410   5.865   4.611
 7673SOL    HW223919   1.334   5.808   4.744
 7674SOL     OW23920   4.060   5.745   4.064
 7674SOL    HW123921   4.075   5.809   4.139
 7674SOL    HW223922   4.141   5.687   4.052
 7675SOL     OW23923   4.862   6.544   3.413
 7675SOL    HW123924   4.861   6.544   3.513
 7675SOL    HW223925   4.956   6.557   3.380
 7676SOL     OW23926   3.341   2.493   5.386
 7676SOL    HW123927   3.287   2.448   5.314
 7676SOL    HW223928   3.430   2.518   5.350
 7677SOL     OW23929   5.475   4.426   0.754
 7677SOL    HW123930   5.544   4.458   0.819
 7677SOL    HW223931   5.412   4.501   0.733
 7678SOL     OW23932   1.617   0.663   5.251
 7678SOL    HW123933   1.527   0.705   5.236
 7678SOL    HW223934   1.614   0.568   5.220
 7679SOL     OW23935   2.480   5.707   5.309
 7679SOL    HW123936   2.421   5.638   5.352
 7679SOL    HW223937   2.574   5.693   5.340
 7680SOL     OW23938   2.093   7.016   5.432
 7680SOL    HW123939   2.046   0.054   5.373
 7680SOL    HW223940   2.077   6.923   5.399
 7681SOL     OW23941   2.991   3.495   6.501
 7681SOL    HW123942   2.997   3.482   6.402
 7681SOL    HW223943   3.064   3.442   6.546
 7682SOL     OW23944   2.916   1.221   2.390
 7682SOL    HW123945   2.847   1.201   2.460
 7682SOL    HW223946   2.942   1.317   2.394
 7683SOL     OW23947   1.038   0.281   4.476
 7683SOL    HW123948   1.028   0.205   4.540
 7683SOL    HW223949   0.976   0.269   4.399
 7684SOL     OW23950   4.200   2.447   1.434
 7684SOL    HW123951   4.173   2.352   1.418
 7684SOL    HW223952   4.278   2.450   1.497
 7685SOL     OW23953   2.608   0.469   0.467
 7685SOL    HW123954   2.513   0.448   0.491
 7685SOL    HW223955   2.633   0.417   0.385
 7686SOL     OW23956   6.131   0.113   4.502
 7686SOL    HW123957   6.144   0.208   4.531
 7686SOL    HW223958   6.079   0.112   4.417
 7687SOL     OW23959   5.902   4.583   4.979
 7687SOL    HW123960   5.923   4.655   4.913
 7687SOL    HW223961   5.846   4.513   4.934
 7688SOL     OW23962   0.228   4.651   6.497
 7688SOL    HW123963   0.170   4.571   6.513
 7688SOL    HW223964   0.264   4.684   6.585
 7689SOL     OW23965   4.623   0.255   1.545
 7689SOL    HW123966   4.554   0.293   1.606
 7689SOL    HW223967   4.634   0.157   1.564
 7690SOL     OW23968   5.951   5.589   1.225
 7690SOL    HW123969   6.033   5.580   1.168
 7690SOL    HW223970   5.958   5.672   1.280
 7691SOL     OW23971   4.295   4.653   3.096
 7691SOL    HW123972   4.206   4.644   3.050
 7691SOL    HW223973   4.368   4.624   3.034
 7692SOL     OW23974   2.394   6.973   2.378
 7692SOL    HW123975   2.373   7.025   2.295
 7692SOL    HW223976   2.340   7.009   2.454
 7693SOL     OW23977   1.657   1.744   0.874
 7693SOL    HW123978   1.558   1.741   0.883
 7693SOL    HW223979   1.686   1.837   0.852
 7694SOL     OW23980   5.611   1.558   5.516
 7694SOL    HW123981   5.710   1.546   5.523
 7694SOL    HW223982   5.577   1.602   5.599
 7695SOL     OW23983   4.512   0.147   3.769
 7695SOL    HW123984   4.609   0.124   3.779
 7695SOL    HW223985   4.493   0.171   3.674
 7696SOL     OW23986   1.222   2.685   6.296
 7696SOL    HW123987   1.188   2.776   6.274
 7696SOL    HW223988   1.316   2.676   6.265
 7697SOL     OW23989   4.598   7.002   2.437
 7697SOL    HW123990   4.603   0.075   2.443
 7697SOL    HW223991   4.528   6.977   2.371
 7698SOL     OW23992   6.417   2.548   0.638
 7698SOL    HW123993   6.442   2.613   0.710
 7698SOL    HW223994   6.499   2.502   0.605
 7699SOL     OW23995   4.420   5.817   5.997
 7699SOL    HW123996   4.476   5.801   6.078
 7699SOL    HW223997   4.323   5.814   6.023
 7700SOL     OW23998   5.390   5.856   2.825
 7700SOL    HW123999   5.327   5.794   2.872
 7700SOL    HW224000   5.423   5.812   2.741
 7701SOL     OW24001   0.719   2.378   6.199
 7701SOL    HW124002   0.741   2.459   6.145
 7701SOL    HW224003   0.630   2.389   6.242
 7702SOL     OW24004   4.387   0.363   4.587
 7702SOL    HW124005   4.412   0.274   4.625
 7702SOL    HW224006   4.293   0.384   4.611
 7703SOL     OW24007   6.144   6.576   5.131
 7703SOL    HW124008   6.096   6.628   5.202
 7703SOL    HW224009   6.083   6.507   5.094
 7704SOL     OW24010   6.966   1.448   4.414
 7704SOL    HW124011   7.000   1.423   4.505
 7704SOL    HW224012   0.016   1.479   4.358
 7705SOL     OW24013   0.890   4.819   6.953
 7705SOL    HW124014   0.833   4.857   7.026
 7705SOL    HW224015   0.945   4.744   6.990
 7706SOL     OW24016   4.031   3.069   2.470
 7706SOL    HW124017   4.081   3.118   2.398
 7706SOL    HW224018   3.988   2.988   2.430
 7707SOL     OW24019   6.328   4.429   6.321
 7707SOL    HW124020   6.263   4.361   6.289
 7707SOL    HW224021   6.328   4.507   6.259
 7708SOL     OW24022   2.527   0.083   4.592
 7708SOL    HW124023   2.578   0.037   4.519
 7708SOL    HW224024   2.429   0.082   4.570
 7709SOL     OW24025   6.892   5.139   1.355
 7709SOL    HW124026   6.912   5.188   1.440
 7709SOL    HW224027   6.977   5.103   1.317
 7710SOL     OW24028   0.064   3.258   1.100
 7710SOL    HW124029   0.021   3.262   1.190
 7710SOL    HW224030   0.000   3.290   1.030
 7711SOL     OW24031   0.255   4.683   5.144
 7711SOL    HW124032   0.268   4.685   5.045
 7711SOL    HW224033   0.240   4.588   5.173
 7712SOL     OW24034   0.195   4.895   5.714
 7712SOL    HW124035   0.204   4.994   5.725
 7712SOL    HW224036   0.127   4.861   5.779
 7713SOL     OW24037   1.858   4.642   0.020
 7713SOL    HW124038   1.890   4.655   6.954
 7713SOL    HW224039   1.809   4.555   0.026
 7714SOL     OW24040   6.108   0.899   5.417
 7714SOL    HW124041   6.154   0.979   5.378
 7714SOL    HW224042   6.040   0.930   5.484
 7715SOL     OW24043   3.356   3.189   5.951
 7715SOL    HW124044   3.269   3.222   5.987
 7715SOL    HW224045   3.402   3.133   6.020
 7716SOL     OW24046   1.356   5.893   5.558
 7716SOL    HW124047   1.349   5.798   5.528
 7716SOL    HW224048   1.267   5.925   5.589
 7717SOL     OW24049   0.782   1.676   6.870
 7717SOL    HW124050   0.819   1.689   6.778
 7717SOL    HW224051   0.774   1.579   6.890
 7718SOL     OW24052   1.201   3.824   3.118
 7718SOL    HW124053   1.125   3.872   3.076
 7718SOL    HW224054   1.230   3.748   3.059
 7719SOL     OW24055   2.070   4.349   4.748
 7719SOL    HW124056   2.119   4.288   4.686
 7719SOL    HW224057   2.092   4.325   4.843
 7720SOL     OW24058   5.243   1.167   0.160
 7720SOL    HW124059   5.222   1.117   0.244
 7720SOL    HW224060   5.213   1.262   0.168
 7721SOL     OW24061   0.661   0.982   2.569
 7721SOL    HW124062   0.748   1.008   2.610
 7721SOL    HW224063   0.660   1.009   2.473
 7722SOL     OW24064   1.632   6.350   3.478
 7722SOL    HW124065   1.670   6.432   3.521
 7722SOL    HW224066   1.632   6.275   3.544
 7723SOL     OW24067   4.837   3.995   0.368
 7723SOL    HW124068   4.902   3.924   0.397
 7723SOL    HW224069   4.750   3.952   0.343
 7724SOL     OW24070   1.840   3.905   1.337
 7724SOL    HW124071   1.846   3.962   1.419
 7724SOL    HW224072   1.774   3.831   1.353
 7725SOL     OW24073   5.194   3.228   3.266
 7725SOL    HW124074   5.289   3.197   3.261
 7725SOL    HW224075   5.171   3.249   3.361
 7726SOL     OW24076   0.940   3.151   6.233
 7726SOL    HW124077   1.004   3.145   6.310
 7726SOL    HW224078   0.848   3.171   6.268
 7727SOL     OW24079   4.574   1.116   2.455
 7727SOL    HW124080   4.518   1.069   2.387
 7727SOL    HW224081   4.596   1.208   2.423
 7728SOL     OW24082   2.079   3.437   4.551
 7728SOL    HW124083   2.114   3.521   4.591
 7728SOL    HW224084   2.078   3.365   4.620
 7729SOL     OW24085   6.882   2.234   4.062
 7729SOL    HW124086   6.953   2.170   4.034
 7729SOL    HW224087   6.831   2.265   3.982
 7730SOL     OW24088   6.068   4.089   5.162
 7730SOL    HW124089   6.149   4.148   5.167
 7730SOL    HW224090   6.096   3.993   5.169
 7731SOL     OW24091   6.839   6.658   6.727
 7731SOL    HW124092   6.740   6.664   6.741
 7731SOL    HW224093   6.862   6.691   6.636
 7732SOL     OW24094   4.282   0.443   6.625
 7732SOL    HW124095   4.182   0.444   6.621
 7732SOL    HW224096   4.311   0.446   6.721
 7733SOL     OW24097   6.349   6.038   2.111
 7733SOL    HW124098   6.418   6.051   2.182
 7733SOL    HW224099   6.390   6.050   2.021
 7734SOL     OW24100   2.992   3.885   4.719
 7734SOL    HW124101   3.065   3.948   4.693
 7734SOL    HW224102   3.028   3.792   4.724
 7735SOL     OW24103   6.629   6.014   0.476
 7735SOL    HW124104   6.543   5.963   0.479
 7735SOL    HW224105   6.693   5.977   0.544
 7736SOL     OW24106   2.411   2.667   0.537
 7736SOL    HW124107   2.460   2.753   0.552
 7736SOL    HW224108   2.322   2.671   0.583
 7737SOL     OW24109   4.062   5.053   0.941
 7737SOL    HW124110   4.086   5.109   1.020
 7737SOL    HW224111   4.030   5.112   0.866
 7738SOL     OW24112   2.169   0.153   5.766
 7738SOL    HW124113   2.232   0.095   5.819
 7738SOL    HW224114   2.212   0.242   5.749
 7739SOL     OW24115   1.358   2.190   0.457
 7739SOL    HW124116   1.440   2.135   0.474
 7739SOL    HW224117   1.382   2.287   0.457
 7740SOL     OW24118   1.652   0.957   5.161
 7740SOL    HW124119   1.657   0.863   5.194
 7740SOL    HW224120   1.744   0.992   5.147
 7741SOL     OW24121   1.417   4.621   6.141
 7741SOL    HW124122   1.379   4.627   6.049
 7741SOL    HW224123   1.435   4.526   6.164
 7742SOL     OW24124   3.951   1.790   4.139
 7742SOL    HW124125   3.927   1.845   4.058
 7742SOL    HW224126   4.047   1.765   4.135
 7743SOL     OW24127   5.276   1.960   5.706
 7743SOL    HW124128   5.371   1.978   5.732
 7743SOL    HW224129   5.250   2.021   5.632
 7744SOL     OW24130   0.465   6.128   5.164
 7744SOL    HW124131   0.482   6.196   5.236
 7744SOL    HW224132   0.440   6.175   5.080
 7745SOL     OW24133   2.252   0.002   0.894
 7745SOL    HW124134   2.301   0.090   0.894
 7745SOL    HW224135   2.210   7.015   0.984
 7746SOL     OW24136   1.018   5.961   1.082
 7746SOL    HW124137   0.971   5.928   1.000
 7746SOL    HW224138   1.069   6.044   1.061
 7747SOL     OW24139   1.224   6.137   0.163
 7747SOL    HW124140   1.207   6.077   0.084
 7747SOL    HW224141   1.139   6.183   0.188
 7748SOL     OW24142   4.750   1.922   5.787
 7748SOL    HW124143   4.818   1.849   5.784
 7748SOL    HW224144   4.796   2.011   5.788
 7749SOL     OW24145   3.912   3.975   4.266
 7749SOL    HW124146   3.878   3.889   4.302
 7749SOL    HW224147   3.989   4.007   4.322
 7750SOL     OW24148   5.784   4.334   5.490
 7750SOL    HW124149   5.827   4.326   5.400
 7750SOL    HW224150   5.716   4.262   5.501
 7751SOL     OW24151   0.083   1.384   5.353
 7751SOL    HW124152   0.180   1.367   5.365
 7751SOL    HW224153   0.051   1.449   5.422
 7752SOL     OW24154   6.558   5.759   5.670
 7752SOL    HW124155   6.581   5.661   5.664
 7752SOL    HW224156   6.503   5.775   5.752
 7753SOL     OW24157   2.324   1.335   4.672
 7753SOL    HW124158   2.299   1.323   4.768
 7753SOL    HW224159   2.242   1.329   4.615
 7754SOL     OW24160   5.777   0.700   1.629
 7754SOL    HW124161   5.731   0.789   1.624
 7754SOL    HW224162   5.708   0.628   1.639
 7755SOL     OW24163   0.878   5.856   5.823
 7755SOL    HW124164   0.843   5.860   5.730
 7755SOL    HW224165   0.801   5.850   5.887
 7756SOL     OW24166   3.987   5.512   2.143
 7756SOL    HW124167   3.907   5.568   2.123
 7756SOL    HW224168   3.971   5.419   2.109
 7757SOL     OW24169   4.658   6.576   5.732
 7757SOL    HW124170   4.724   6.523   5.785
 7757SOL    HW224171   4.630   6.656   5.786
 7758SOL     OW24172   2.451   2.156   5.336
 7758SOL    HW124173   2.455   2.112   5.246
 7758SOL    HW224174   2.364   2.205   5.345
 7759SOL     OW24175   1.892   0.874   4.553
 7759SOL    HW124176   1.889   0.789   4.501
 7759SOL    HW224177   1.981   0.918   4.540
 7760SOL     OW24178   4.915   2.963   2.233
 7760SOL    HW124179   4.869   2.989   2.148
 7760SOL    HW224180   4.891   3.026   2.306
 7761SOL     OW24181   3.315   6.996   6.623
 7761SOL    HW124182   3.366   0.052   6.601
 7761SOL    HW224183   3.219   7.008   6.598
 7762SOL     OW24184   3.647   1.680   0.378
 7762SOL    HW124185   3.682   1.663   0.470
 7762SOL    HW224186   3.642   1.778   0.361
 7763SOL     OW24187   1.532   2.064   0.593
 7763SOL    HW124188   1.625   2.045   0.561
 7763SOL    HW224189   1.481   1.978   0.600
 7764SOL     OW24190   3.558   2.932   2.601
 7764SOL    HW124191   3.459   2.941   2.588
 7764SOL    HW224192   3.595   2.870   2.532
 7765SOL     OW24193   6.635   1.994   2.896
 7765SOL    HW124194   6.570   2.067   2.874
 7765SOL    HW224195   6.716   2.034   2.939
 7766SOL     OW24196   0.195   2.934   6.632
 7766SOL    HW124197   0.236   2.889   6.711
 7766SOL    HW224198   0.230   2.892   6.548
 7767SOL     OW24199   4.893   5.496   4.583
 7767SOL    HW124200   4.875   5.519   4.487
 7767SOL    HW224201   4.925   5.578   4.631
 7768SOL     OW24202   3.923   4.857   2.383
 7768SOL    HW124203   3.880   4.841   2.294
 7768SOL    HW224204   3.853   4.880   2.451
 7769SOL     OW24205   5.339   1.944   1.771
 7769SOL    HW124206   5.361   1.922   1.676
 7769SOL    HW224207   5.392   2.024   1.799
 7770SOL     OW24208   3.558   5.145   1.189
 7770SOL    HW124209   3.507   5.059   1.195
 7770SOL    HW224210   3.622   5.152   1.265
 7771SOL     OW24211   2.123   1.848   5.466
 7771SOL    HW124212   2.157   1.892   5.383
 7771SOL    HW224213   2.055   1.907   5.509
 7772SOL     OW24214   5.127   1.464   4.504
 7772SOL    HW124215   5.171   1.378   4.532
 7772SOL    HW224216   5.102   1.516   4.586
 7773SOL     OW24217   4.128   4.257   5.893
 7773SOL    HW124218   4.114   4.315   5.813
 7773SOL    HW224219   4.082   4.170   5.880
 7774SOL     OW24220   5.143   1.505   6.554
 7774SOL    HW124221   5.093   1.550   6.480
 7774SOL    HW224222   5.146   1.566   6.634
 7775SOL     OW24223   3.328   6.390   2.377
 7775SOL    HW124224   3.360   6.305   2.418
 7775SOL    HW224225   3.231   6.383   2.354
 7776SOL     OW24226   3.703   3.822   6.739
 7776SOL    HW124227   3.730   3.881   6.815
 7776SOL    HW224228   3.717   3.870   6.653
 7777SOL     OW24229   2.185   1.456   6.712
 7777SOL    HW124230   2.134   1.540   6.734
 7777SOL    HW224231   2.122   1.379   6.708
 7778SOL     OW24232   5.672   0.863   0.008
 7778SOL    HW124233   5.623   0.881   0.094
 7778SOL    HW224234   5.649   0.772   7.003
 7779SOL     OW24235   4.045   3.118   0.208
 7779SOL    HW124236   3.962   3.132   0.262
 7779SOL    HW224237   4.028   3.145   0.113
 7780SOL     OW24238   1.936   6.507   4.675
 7780SOL    HW124239   2.009   6.450   4.712
 7780SOL    HW224240   1.847   6.470   4.702
 7781SOL     OW24241   1.248   4.503   4.736
 7781SOL    HW124242   1.320   4.450   4.782
 7781SOL    HW224243   1.224   4.459   4.650
 7782SOL     OW24244   3.017   4.647   6.741
 7782SOL    HW124245   3.031   4.582   6.666
 7782SOL    HW224246   2.920   4.670   6.748
 7783SOL     OW24247   2.841   5.203   6.405
 7783SOL    HW124248   2.891   5.127   6.445
 7783SOL    HW224249   2.756   5.218   6.456
 7784SOL     OW24250   0.483   2.856   0.143
 7784SOL    HW124251   0.453   2.946   0.175
 7784SOL    HW224252   0.521   2.805   0.220
 7785SOL     OW24253   2.247   6.109   4.151
 7785SOL    HW124254   2.259   6.079   4.056
 7785SOL    HW224255   2.290   6.198   4.164
 7786SOL     OW24256   2.987   4.302   5.299
 7786SOL    HW124257   3.014   4.244   5.222
 7786SOL    HW224258   2.942   4.385   5.264
 7787SOL     OW24259   2.376   2.763   5.230
 7787SOL    HW124260   2.432   2.843   5.208
 7787SOL    HW224261   2.359   2.760   5.329
 7788SOL     OW24262   1.298   1.696   0.317
 7788SOL    HW124263   1.395   1.720   0.311
 7788SOL    HW224264   1.287   1.619   0.380
 7789SOL     OW24265   1.848   0.714   1.027
 7789SOL    HW124266   1.890   0.641   0.972
 7789SOL    HW224267   1.892   0.801   1.006
 7790SOL     OW24268   5.458   3.129   2.581
 7790SOL    HW124269   5.473   3.177   2.495
 7790SOL    HW224270   5.421   3.038   2.561
 7791SOL     OW24271   1.656   4.663   5.050
 7791SOL    HW124272   1.739   4.696   5.004
 7791SOL    HW224273   1.678   4.635   5.143
 7792SOL     OW24274   2.408   5.593   6.303
 7792SOL    HW124275   2.424   5.494   6.307
 7792SOL    HW224276   2.494   5.642   6.315
 7793SOL     OW24277   1.297   1.129   6.199
 7793SOL    HW124278   1.294   1.029   6.205
 7793SOL    HW224279   1.323   1.167   6.287
 7794SOL     OW24280   5.294   5.755   4.137
 7794SOL    HW124281   5.207   5.760   4.186
 7794SOL    HW224282   5.277   5.745   4.039
 7795SOL     OW24283   2.440   4.388   5.230
 7795SOL    HW124284   2.512   4.447   5.268
 7795SOL    HW224285   2.426   4.309   5.291
 7796SOL     OW24286   3.867   4.054   3.668
 7796SOL    HW124287   3.799   4.127   3.671
 7796SOL    HW224288   3.905   4.039   3.759
 7797SOL     OW24289   0.286   0.074   3.080
 7797SOL    HW124290   0.352   0.119   3.141
 7797SOL    HW224291   0.241   0.143   3.023
 7798SOL     OW24292   3.513   5.365   0.339
 7798SOL    HW124293   3.605   5.342   0.308
 7798SOL    HW224294   3.517   5.398   0.434
 7799SOL     OW24295   0.000   5.280   1.616
 7799SOL    HW124296   7.009   5.211   1.686
 7799SOL    HW224297   6.960   5.354   1.623
 7800SOL     OW24298   1.087   5.658   2.215
 7800SOL    HW124299   1.009   5.598   2.197
 7800SOL    HW224300   1.055   5.753   2.219
 7801SOL     OW24301   3.423   2.297   6.890
 7801SOL    HW124302   3.363   2.223   6.859
 7801SOL    HW224303   3.466   2.272   6.976
 7802SOL     OW24304   5.743   2.038   1.872
 7802SOL    HW124305   5.660   2.083   1.838
 7802SOL    HW224306   5.720   1.948   1.909
 7803SOL     OW24307   4.207   4.209   5.286
 7803SOL    HW124308   4.158   4.235   5.369
 7803SOL    HW224309   4.242   4.292   5.241
 7804SOL     OW24310   5.049   1.945   5.854
 7804SOL    HW124311   5.129   1.958   5.796
 7804SOL    HW224312   4.994   2.028   5.855
 7805SOL     OW24313   5.115   3.474   2.126
 7805SOL    HW124314   5.129   3.547   2.060
 7805SOL    HW224315   5.018   3.447   2.126
 7806SOL     OW24316   5.336   2.790   6.030
 7806SOL    HW124317   5.287   2.820   5.948
 7806SOL    HW224318   5.401   2.718   6.005
 7807SOL     OW24319   0.298   4.315   6.605
 7807SOL    HW124320   0.328   4.270   6.521
 7807SOL    HW224321   0.350   4.400   6.617
 7808SOL     OW24322   0.550   1.615   4.879
 7808SOL    HW124323   0.635   1.618   4.826
 7808SOL    HW224324   0.565   1.565   4.964
 7809SOL     OW24325   2.533   5.415   4.681
 7809SOL    HW124326   2.474   5.374   4.611
 7809SOL    HW224327   2.519   5.369   4.768
 7810SOL     OW24328   2.824   1.173   6.620
 7810SOL    HW124329   2.768   1.239   6.569
 7810SOL    HW224330   2.764   1.105   6.662
 7811SOL     OW24331   6.255   4.440   4.040
 7811SOL    HW124332   6.312   4.475   3.966
 7811SOL    HW224333   6.169   4.491   4.042
 7812SOL     OW24334   1.558   1.814   3.292
 7812SOL    HW124335   1.594   1.764   3.214
 7812SOL    HW224336   1.532   1.749   3.364
 7813SOL     OW24337   6.931   3.112   0.215
 7813SOL    HW124338   6.950   3.057   0.134
 7813SOL    HW224339   6.999   3.094   0.285
 7814SOL     OW24340   0.504   3.181   2.468
 7814SOL    HW124341   0.577   3.152   2.407
 7814SOL    HW224342   0.463   3.100   2.512
 7815SOL     OW24343   6.551   1.928   6.170
 7815SOL    HW124344   6.563   1.839   6.214
 7815SOL    HW224345   6.610   1.933   6.089
 7816SOL     OW24346   1.193   3.820   4.747
 7816SOL    HW124347   1.174   3.722   4.752
 7816SOL    HW224348   1.275   3.841   4.800
 7817SOL     OW24349   5.569   4.069   4.759
 7817SOL    HW124350   5.613   4.139   4.703
 7817SOL    HW224351   5.534   4.111   4.843
 7818SOL     OW24352   5.253   6.060   1.765
 7818SOL    HW124353   5.255   6.063   1.864
 7818SOL    HW224354   5.314   6.131   1.728
 7819SOL     OW24355   6.640   1.857   1.497
 7819SOL    HW124356   6.665   1.949   1.527
 7819SOL    HW224357   6.546   1.857   1.464
 7820SOL     OW24358   1.442   0.667   7.011
 7820SOL    HW124359   1.455   0.709   6.921
 7820SOL    HW224360   1.528   0.625   0.013
 7821SOL     OW24361   3.119   5.233   2.190
 7821SOL    HW124362   3.061   5.269   2.116
 7821SOL    HW224363   3.078   5.151   2.228
 7822SOL     OW24364   1.679   6.000   5.133
 7822SOL    HW124365   1.754   6.067   5.141
 7822SOL    HW224366   1.691   5.929   5.201
 7823SOL     OW24367   1.484   4.414   4.954
 7823SOL    HW124368   1.543   4.370   5.021
 7823SOL    HW224369   1.524   4.502   4.928
 7824SOL     OW24370   0.307   2.844   5.768
 7824SOL    HW124371   0.403   2.852   5.792
 7824SOL    HW224372   0.297   2.785   5.688
 7825SOL     OW24373   3.134   1.466   6.400
 7825SOL    HW124374   3.042   1.438   6.425
 7825SOL    HW224375   3.201   1.420   6.459
 7826SOL     OW24376   0.291   2.870   6.908
 7826SOL    HW124377   0.236   2.877   6.991
 7826SOL    HW224378   0.356   2.947   6.904
 7827SOL     OW24379   6.991   6.693   4.665
 7827SOL    HW124380   6.988   6.705   4.566
 7827SOL    HW224381   6.943   6.768   4.710
 7828SOL     OW24382   0.511   4.500   6.659
 7828SOL    HW124383   0.564   4.461   6.584
 7828SOL    HW224384   0.523   4.445   6.741
 7829SOL     OW24385   4.255   2.870   0.633
 7829SOL    HW124386   4.231   2.966   0.620
 7829SOL    HW224387   4.348   2.864   0.670
 7830SOL     OW24388   2.719   4.714   4.556
 7830SOL    HW124389   2.634   4.693   4.604
 7830SOL    HW224390   2.714   4.677   4.463
 7831SOL     OW24391   1.544   1.467   0.440
 7831SOL    HW124392   1.617   1.531   0.414
 7831SOL    HW224393   1.583   1.393   0.494
 7832SOL     OW24394   6.480   0.761   4.573
 7832SOL    HW124395   6.383   0.777   4.588
 7832SOL    HW224396   6.516   0.701   4.645
 7833SOL     OW24397   1.876   0.796   4.167
 7833SOL    HW124398   1.936   0.861   4.121
 7833SOL    HW224399   1.803   0.768   4.105
 7834SOL     OW24400   6.028   2.991   4.800
 7834SOL    HW124401   6.120   2.959   4.824
 7834SOL    HW224402   5.960   2.934   4.848
 7835SOL     OW24403   4.252   2.348   5.354
 7835SOL    HW124404   4.209   2.419   5.298
 7835SOL    HW224405   4.286   2.275   5.295
 7836SOL     OW24406   3.761   3.815   5.012
 7836SOL    HW124407   3.783   3.738   5.072
 7836SOL    HW224408   3.840   3.876   5.006
 7837SOL     OW24409   6.670   5.688   6.676
 7837SOL    HW124410   6.752   5.680   6.619
 7837SOL    HW224411   6.597   5.630   6.638
 7838SOL     OW24412   5.100   5.285   1.257
 7838SOL    HW124413   5.066   5.356   1.319
 7838SOL    HW224414   5.194   5.306   1.229
 7839SOL     OW24415   5.586   3.329   4.371
 7839SOL    HW124416   5.539   3.246   4.341
 7839SOL    HW224417   5.566   3.345   4.468
 7840SOL     OW24418   1.971   3.285   3.935
 7840SOL    HW124419   1.916   3.271   3.853
 7840SOL    HW224420   1.913   3.320   4.008
 7841SOL     OW24421   5.215   2.391   6.047
 7841SOL    HW124422   5.164   2.383   5.961
 7841SOL    HW224423   5.313   2.393   6.029
 7842SOL     OW24424   1.882   1.005   1.981
 7842SOL    HW124425   1.955   0.978   1.919
 7842SOL    HW224426   1.879   0.943   2.059
 7843SOL     OW24427   0.120   6.676   3.251
 7843SOL    HW124428   0.083   6.665   3.158
 7843SOL    HW224429   0.131   6.586   3.293
 7844SOL     OW24430   3.402   1.472   2.967
 7844SOL    HW124431   3.303   1.457   2.976
 7844SOL    HW224432   3.440   1.402   2.906
 7845SOL     OW24433   6.232   3.219   1.345
 7845SOL    HW124434   6.314   3.168   1.319
 7845SOL    HW224435   6.256   3.315   1.361
 7846SOL     OW24436   0.799   2.177   0.286
 7846SOL    HW124437   0.770   2.094   0.335
 7846SOL    HW224438   0.876   2.155   0.226
 7847SOL     OW24439   5.691   3.231   5.009
 7847SOL    HW124440   5.653   3.167   5.074
 7847SOL    HW224441   5.618   3.271   4.953
 7848SOL     OW24442   3.241   4.650   1.012
 7848SOL    HW124443   3.264   4.554   1.032
 7848SOL    HW224444   3.143   4.657   0.993
 7849SOL     OW24445   4.863   4.358   6.736
 7849SOL    HW124446   4.836   4.263   6.745
 7849SOL    HW224447   4.814   4.414   6.803
 7850SOL     OW24448   0.162   0.943   3.836
 7850SOL    HW124449   0.114   0.884   3.901
 7850SOL    HW224450   0.099   0.970   3.764
 7851SOL     OW24451   0.428   4.148   2.131
 7851SOL    HW124452   0.399   4.234   2.088
 7851SOL    HW224453   0.506   4.111   2.081
 7852SOL     OW24454   0.978   2.329   6.458
 7852SOL    HW124455   0.993   2.308   6.361
 7852SOL    HW224456   0.929   2.416   6.465
 7853SOL     OW24457   4.156   2.966   1.712
 7853SOL    HW124458   4.102   2.964   1.796
 7853SOL    HW224459   4.235   3.025   1.725
 7854SOL     OW24460   4.882   2.662   6.427
 7854SOL    HW124461   4.970   2.642   6.384
 7854SOL    HW224462   4.842   2.577   6.461
 7855SOL     OW24463   4.624   0.196   4.384
 7855SOL    HW124464   4.648   0.213   4.480
 7855SOL    HW224465   4.538   0.146   4.379
 7856SOL     OW24466   2.129   6.603   5.008
 7856SOL    HW124467   2.042   6.555   4.997
 7856SOL    HW224468   2.120   6.696   4.972
 7857SOL     OW24469   5.993   4.478   1.276
 7857SOL    HW124470   5.971   4.419   1.354
 7857SOL    HW224471   6.092   4.480   1.264
 7858SOL     OW24472   0.537   4.521   5.962
 7858SOL    HW124473   0.544   4.474   5.875
 7858SOL    HW224474   0.463   4.589   5.958
 7859SOL     OW24475   5.218   2.666   0.037
 7859SOL    HW124476   5.298   2.626   0.081
 7859SOL    HW224477   5.181   2.602   6.997
 7860SOL     OW24478   2.361   0.871   4.537
 7860SOL    HW124479   2.432   0.940   4.552
 7860SOL    HW224480   2.385   0.815   4.458
 7861SOL     OW24481   2.668   6.223   1.043
 7861SOL    HW124482   2.619   6.281   1.108
 7861SOL    HW224483   2.606   6.157   1.002
 7862SOL     OW24484   2.699   5.832   0.702
 7862SOL    HW124485   2.688   5.836   0.801
 7862SOL    HW224486   2.621   5.876   0.658
 7863SOL     OW24487   6.860   4.352   3.371
 7863SOL    HW124488   6.771   4.323   3.337
 7863SOL    HW224489   6.887   4.293   3.447
 7864SOL     OW24490   1.881   6.471   5.429
 7864SOL    HW124491   1.968   6.444   5.387
 7864SOL    HW224492   1.898   6.513   5.517
 7865SOL     OW24493   5.983   5.179   3.398
 7865SOL    HW124494   6.075   5.216   3.387
 7865SOL    HW224495   5.920   5.227   3.338
 7866SOL     OW24496   1.022   6.821   5.817
 7866SOL    HW124497   1.040   6.919   5.823
 7866SOL    HW224498   1.090   6.778   5.758
 7867SOL     OW24499   5.953   6.299   3.752
 7867SOL    HW124500   5.965   6.388   3.709
 7867SOL    HW224501   5.865   6.260   3.725
 7868SOL     OW24502   3.114   6.155   1.460
 7868SOL    HW124503   3.138   6.218   1.534
 7868SOL    HW224504   3.021   6.175   1.429
 7869SOL     OW24505   5.396   5.048   5.805
 7869SOL    HW124506   5.474   5.027   5.746
 7869SOL    HW224507   5.408   5.005   5.894
 7870SOL     OW24508   5.479   6.141   4.855
 7870SOL    HW124509   5.558   6.091   4.819
 7870SOL    HW224510   5.506   6.235   4.876
 7871SOL     OW24511   5.365   1.371   1.729
 7871SOL    HW124512   5.294   1.387   1.659
 7871SOL    HW224513   5.359   1.276   1.760
 7872SOL     OW24514   1.902   5.729   2.624
 7872SOL    HW124515   1.972   5.660   2.642
 7872SOL    HW224516   1.946   5.817   2.604
 7873SOL     OW24517   6.203   1.351   6.685
 7873SOL    HW124518   6.121   1.321   6.636
 7873SOL    HW224519   6.184   1.438   6.732
 7874SOL     OW24520   5.513   2.279   0.835
 7874SOL    HW124521   5.557   2.366   0.817
 7874SOL    HW224522   5.484   2.274   0.930
 7875SOL     OW24523   5.486   4.361   6.503
 7875SOL    HW124524   5.464   4.435   6.440
 7875SOL    HW224525   5.575   4.322   6.479
 7876SOL     OW24526   0.735   0.073   2.667
 7876SOL    HW124527   0.776   0.099   2.754
 7876SOL    HW224528   0.721   7.001   2.666
 7877SOL     OW24529   6.940   1.935   3.125
 7877SOL    HW124530   6.900   2.000   3.060
 7877SOL    HW224531   7.020   1.892   3.084
 7878SOL     OW24532   3.953   4.920   3.104
 7878SOL    HW124533   3.927   5.006   3.148
 7878SOL    HW224534   3.875   4.857   3.106
 7879SOL     OW24535   2.608   4.596   2.979
 7879SOL    HW124536   2.694   4.646   2.981
 7879SOL    HW224537   2.614   4.521   2.913
 7880SOL     OW24538   1.584   3.888   2.008
 7880SOL    HW124539   1.676   3.872   2.045
 7880SOL    HW224540   1.592   3.928   1.917
 7881SOL     OW24541   5.234   4.310   3.912
 7881SOL    HW124542   5.176   4.236   3.878
 7881SOL    HW224543   5.305   4.272   3.972
 7882SOL     OW24544   1.306   3.621   0.645
 7882SOL    HW124545   1.402   3.644   0.627
 7882SOL    HW224546   1.271   3.563   0.572
 7883SOL     OW24547   0.851   1.076   5.412
 7883SOL    HW124548   0.794   1.004   5.372
 7883SOL    HW224549   0.939   1.078   5.365
 7884SOL     OW24550   0.853   2.790   4.488
 7884SOL    HW124551   0.834   2.887   4.476
 7884SOL    HW224552   0.777   2.736   4.450
 7885SOL     OW24553   6.090   5.697   6.755
 7885SOL    HW124554   6.024   5.645   6.701
 7885SOL    HW224555   6.101   5.655   6.845
 7886SOL     OW24556   4.965   5.176   6.808
 7886SOL    HW124557   5.039   5.205   6.747
 7886SOL    HW224558   4.887   5.145   6.754
 7887SOL     OW24559   4.704   2.025   6.676
 7887SOL    HW124560   4.649   1.948   6.709
 7887SOL    HW224561   4.712   2.094   6.748
 7888SOL     OW24562   5.156   1.025   4.578
 7888SOL    HW124563   5.097   0.977   4.642
 7888SOL    HW224564   5.196   1.105   4.622
 7889SOL     OW24565   1.317   6.342   2.266
 7889SOL    HW124566   1.280   6.308   2.179
 7889SOL    HW224567   1.242   6.355   2.331
 7890SOL     OW24568   1.869   3.244   2.869
 7890SOL    HW124569   1.813   3.182   2.923
 7890SOL    HW224570   1.812   3.319   2.834
 7891SOL     OW24571   1.634   4.575   2.600
 7891SOL    HW124572   1.688   4.490   2.602
 7891SOL    HW224573   1.593   4.590   2.689
 7892SOL     OW24574   1.921   2.022   5.548
 7892SOL    HW124575   1.865   2.004   5.629
 7892SOL    HW224576   1.976   2.105   5.562
 7893SOL     OW24577   6.135   6.315   1.535
 7893SOL    HW124578   6.188   6.387   1.491
 7893SOL    HW224579   6.088   6.352   1.615
 7894SOL     OW24580   2.886   6.955   1.711
 7894SOL    HW124581   2.846   6.946   1.802
 7894SOL    HW224582   2.866   6.874   1.657
 7895SOL     OW24583   0.339   1.538   3.757
 7895SOL    HW124584   0.341   1.633   3.726
 7895SOL    HW224585   0.269   1.527   3.827
 7896SOL     OW24586   4.527   2.043   5.459
 7896SOL    HW124587   4.444   1.990   5.443
 7896SOL    HW224588   4.503   2.140   5.469
 7897SOL     OW24589   2.948   3.500   6.215
 7897SOL    HW124590   2.852   3.527   6.220
 7897SOL    HW224591   2.992   3.546   6.138
 7898SOL     OW24592   4.341   2.254   3.250
 7898SOL    HW124593   4.385   2.276   3.337
 7898SOL    HW224594   4.352   2.331   3.187
 7899SOL     OW24595   5.168   1.189   2.659
 7899SOL    HW124596   5.152   1.120   2.730
 7899SOL    HW224597   5.083   1.237   2.641
 7900SOL     OW24598   1.349   5.495   0.829
 7900SOL    HW124599   1.293   5.537   0.899
 7900SOL    HW224600   1.380   5.565   0.764
 7901SOL     OW24601   6.304   6.180   0.189
 7901SOL    HW124602   6.358   6.138   0.116
 7901SOL    HW224603   6.319   6.279   0.189
 7902SOL     OW24604   4.871   3.726   0.002
 7902SOL    HW124605   4.846   3.820   7.005
 7902SOL    HW224606   4.948   3.727   0.066
 7903SOL     OW24607   0.224   2.176   6.638
 7903SOL    HW124608   0.157   2.111   6.675
 7903SOL    HW224609   0.176   2.249   6.590
 7904SOL     OW24610   6.208   0.753   2.855
 7904SOL    HW124611   6.257   0.738   2.941
 7904SOL    HW224612   6.273   0.746   2.779
 7905SOL     OW24613   3.744   1.454   0.572
 7905SOL    HW124614   3.817   1.521   0.574
 7905SOL    HW224615   3.728   1.418   0.664
 7906SOL     OW24616   6.532   6.121   0.011
 7906SOL    HW124617   6.542   6.061   6.959
 7906SOL    HW224618   6.570   6.075   0.092
 7907SOL     OW24619   6.909   2.798   2.119
 7907SOL    HW124620   6.810   2.806   2.112
 7907SOL    HW224621   6.937   2.705   2.094
 7908SOL     OW24622   6.262   1.989   3.653
 7908SOL    HW124623   6.326   2.022   3.722
 7908SOL    HW224624   6.208   2.066   3.618
 7909SOL     OW24625   4.640   4.654   5.037
 7909SOL    HW124626   4.735   4.625   5.024
 7909SOL    HW224627   4.624   4.739   4.985
 7910SOL     OW24628   5.762   3.240   5.708
 7910SOL    HW124629   5.810   3.328   5.698
 7910SOL    HW224630   5.686   3.236   5.643
 7911SOL     OW24631   5.831   4.816   7.022
 7911SOL    HW124632   5.800   4.727   0.028
 7911SOL    HW224633   5.775   4.845   6.945
 7912SOL     OW24634   6.651   5.167   5.760
 7912SOL    HW124635   6.599   5.153   5.844
 7912SOL    HW224636   6.749   5.167   5.782
 7913SOL     OW24637   0.414   5.740   6.506
 7913SOL    HW124638   0.500   5.751   6.456
 7913SOL    HW224639   0.337   5.759   6.446
 7914SOL     OW24640   6.801   3.698   2.305
 7914SOL    HW124641   6.738   3.773   2.329
 7914SOL    HW224642   6.883   3.704   2.362
 7915SOL     OW24643   4.236   1.910   2.696
 7915SOL    HW124644   4.233   1.947   2.789
 7915SOL    HW224645   4.293   1.969   2.639
 7916SOL     OW24646   5.180   3.606   5.526
 7916SOL    HW124647   5.211   3.546   5.600
 7916SOL    HW224648   5.204   3.566   5.438
 7917SOL     OW24649   2.902   3.742   4.426
 7917SOL    HW124650   2.835   3.815   4.437
 7917SOL    HW224651   2.960   3.737   4.507
 7918SOL     OW24652   6.356   1.902   2.513
 7918SOL    HW124653   6.341   1.831   2.444
 7918SOL    HW224654   6.440   1.882   2.563
 7919SOL     OW24655   5.839   5.258   1.844
 7919SOL    HW124656   5.791   5.174   1.818
 7919SOL    HW224657   5.931   5.256   1.806
 7920SOL     OW24658   0.780   5.815   1.907
 7920SOL    HW124659   0.687   5.812   1.944
 7920SOL    HW224660   0.843   5.842   1.980
 7921SOL     OW24661   3.247   6.674   1.863
 7921SOL    HW124662   3.291   6.603   1.809
 7921SOL    HW224663   3.269   6.764   1.824
 7922SOL     OW24664   0.654   4.998   6.819
 7922SOL    HW124665   0.725   4.928   6.822
 7922SOL    HW224666   0.615   5.001   6.727
 7923SOL     OW24667   1.420   1.753   2.412
 7923SOL    HW124668   1.355   1.677   2.417
 7923SOL    HW224669   1.506   1.721   2.374
 7924SOL     OW24670   2.285   0.157   4.193
 7924SOL    HW124671   2.293   0.204   4.281
 7924SOL    HW224672   2.356   0.189   4.131
 7925SOL     OW24673   0.020   0.779   6.893
 7925SOL    HW124674   0.120   0.774   6.899
 7925SOL    HW224675   7.013   0.709   6.831
 7926SOL     OW24676   3.383   0.374   1.676
 7926SOL    HW124677   3.469   0.325   1.688
 7926SOL    HW224678   3.343   0.351   1.587
 7927SOL     OW24679   4.652   4.731   4.460
 7927SOL    HW124680   4.696   4.704   4.545
 7927SOL    HW224681   4.714   4.716   4.383
 7928SOL     OW24682   1.350   5.122   1.303
 7928SOL    HW124683   1.406   5.060   1.359
 7928SOL    HW224684   1.380   5.217   1.319
 7929SOL     OW24685   3.655   4.151   4.055
 7929SOL    HW124686   3.707   4.185   3.977
 7929SOL    HW224687   3.673   4.054   4.069
 7930SOL     OW24688   5.197   6.032   4.308
 7930SOL    HW124689   5.137   6.085   4.248
 7930SOL    HW224690   5.237   6.093   4.377
 7931SOL     OW24691   1.689   2.706   0.663
 7931SOL    HW124692   1.692   2.806   0.670
 7931SOL    HW224693   1.636   2.670   0.740
 7932SOL     OW24694   2.839   6.990   1.081
 7932SOL    HW124695   2.860   6.903   1.037
 7932SOL    HW224696   2.780   6.973   1.160
 7933SOL     OW24697   1.231   0.524   0.277
 7933SOL    HW124698   1.158   0.485   0.333
 7933SOL    HW224699   1.242   0.621   0.300
 7934SOL     OW24700   3.121   3.755   6.204
 7934SOL    HW124701   3.204   3.762   6.260
 7934SOL    HW224702   3.056   3.694   6.249
 7935SOL     OW24703   4.135   6.117   1.172
 7935SOL    HW124704   4.171   6.210   1.167
 7935SOL    HW224705   4.043   6.119   1.213
 7936SOL     OW24706   4.552   5.801   3.104
 7936SOL    HW124707   4.584   5.861   3.177
 7936SOL    HW224708   4.485   5.850   3.048
 7937SOL     OW24709   5.924   6.276   5.847
 7937SOL    HW124710   5.830   6.247   5.826
 7937SOL    HW224711   5.921   6.348   5.916
 7938SOL     OW24712   5.780   4.629   4.514
 7938SOL    HW124713   5.798   4.703   4.449
 7938SOL    HW224714   5.784   4.541   4.466
 7939SOL     OW24715   0.870   0.646   4.880
 7939SOL    HW124716   0.778   0.669   4.851
 7939SOL    HW224717   0.936   0.681   4.813
 7940SOL     OW24718   1.576   5.798   0.954
 7940SOL    HW124719   1.581   5.871   0.885
 7940SOL    HW224720   1.665   5.753   0.961
 7941SOL     OW24721   0.256   0.340   0.363
 7941SOL    HW124722   0.282   0.418   0.306
 7941SOL    HW224723   0.284   0.255   0.318
 7942SOL     OW24724   0.903   0.817   1.454
 7942SOL    HW124725   0.971   0.756   1.413
 7942SOL    HW224726   0.933   0.912   1.445
 7943SOL     OW24727   5.299   2.042   1.012
 7943SOL    HW124728   5.284   2.100   1.092
 7943SOL    HW224729   5.362   1.968   1.036
 7944SOL     OW24730   0.999   4.090   1.889
 7944SOL    HW124731   1.013   4.007   1.834
 7944SOL    HW224732   1.082   4.109   1.941
 7945SOL     OW24733   5.461   6.526   1.773
 7945SOL    HW124734   5.389   6.459   1.793
 7945SOL    HW224735   5.495   6.565   1.858
 7946SOL     OW24736   1.723   1.792   5.708
 7946SOL    HW124737   1.658   1.819   5.779
 7946SOL    HW224738   1.679   1.726   5.647
 7947SOL     OW24739   3.830   3.899   6.486
 7947SOL    HW124740   3.804   3.865   6.396
 7947SOL    HW224741   3.793   3.991   6.499
 7948SOL     OW24742   0.725   6.128   0.319
 7948SOL    HW124743   0.795   6.198   0.335
 7948SOL    HW224744   0.668   6.156   0.241
 7949SOL     OW24745   5.801   4.344   4.297
 7949SOL    HW124746   5.779   4.303   4.208
 7949SOL    HW224747   5.838   4.436   4.282
 7950SOL     OW24748   3.412   5.198   4.389
 7950SOL    HW124749   3.378   5.272   4.448
 7950SOL    HW224750   3.340   5.129   4.377
 7951SOL     OW24751   2.817   2.957   1.316
 7951SOL    HW124752   2.843   2.985   1.408
 7951SOL    HW224753   2.808   3.037   1.258
 7952SOL     OW24754   5.559   3.774   0.527
 7952SOL    HW124755   5.495   3.757   0.602
 7952SOL    HW224756   5.564   3.694   0.468
 7953SOL     OW24757   2.115   3.204   2.572
 7953SOL    HW124758   2.116   3.104   2.571
 7953SOL    HW224759   2.111   3.236   2.667
 7954SOL     OW24760   4.889   5.648   5.294
 7954SOL    HW124761   4.983   5.653   5.260
 7954SOL    HW224762   4.829   5.612   5.222
 7955SOL     OW24763   0.986   6.456   5.619
 7955SOL    HW124764   0.908   6.461   5.682
 7955SOL    HW224765   1.069   6.434   5.671
 7956SOL     OW24766   5.848   0.067   3.621
 7956SOL    HW124767   5.853   0.001   3.546
 7956SOL    HW224768   5.783   0.034   3.690
 7957SOL     OW24769   1.130   2.740   0.984
 7957SOL    HW124770   1.157   2.756   1.079
 7957SOL    HW224771   1.052   2.798   0.962
 7958SOL     OW24772   2.432   5.831   2.603
 7958SOL    HW124773   2.352   5.810   2.546
 7958SOL    HW224774   2.514   5.794   2.560
 7959SOL     OW24775   5.560   4.733   0.841
 7959SOL    HW124776   5.564   4.825   0.803
 7959SOL    HW224777   5.485   4.726   0.906
 7960SOL     OW24778   2.503   2.060   0.924
 7960SOL    HW124779   2.556   2.051   0.839
 7960SOL    HW224780   2.549   2.124   0.985
 7961SOL     OW24781   1.771   5.292   6.709
 7961SOL    HW124782   1.788   5.267   6.614
 7961SOL    HW224783   1.707   5.228   6.750
 7962SOL     OW24784   1.225   0.541   2.317
 7962SOL    HW124785   1.288   0.471   2.284
 7962SOL    HW224786   1.182   0.587   2.239
 7963SOL     OW24787   0.394   0.610   5.105
 7963SOL    HW124788   0.407   0.511   5.098
 7963SOL    HW224789   0.415   0.640   5.198
 7964SOL     OW24790   6.141   5.767   3.247
 7964SOL    HW124791   6.191   5.834   3.191
 7964SOL    HW224792   6.171   5.774   3.342
 7965SOL     OW24793   5.527   2.222   0.419
 7965SOL    HW124794   5.479   2.245   0.334
 7965SOL    HW224795   5.509   2.126   0.442
 7966SOL     OW24796   0.060   4.771   3.996
 7966SOL    HW124797   0.032   4.866   4.006
 7966SOL    HW224798   0.101   4.757   3.906
 7967SOL     OW24799   2.886   5.916   2.763
 7967SOL    HW124800   2.793   5.884   2.778
 7967SOL    HW224801   2.898   6.006   2.804
 7968SOL     OW24802   1.879   1.415   1.819
 7968SOL    HW124803   1.892   1.491   1.755
 7968SOL    HW224804   1.784   1.385   1.816
 7969SOL     OW24805   3.080   2.205   3.048
 7969SOL    HW124806   3.057   2.209   3.145
 7969SOL    HW224807   3.179   2.211   3.037
 7970SOL     OW24808   0.491   4.548   3.239
 7970SOL    HW124809   0.420   4.499   3.189
 7970SOL    HW224810   0.452   4.630   3.280
 7971SOL     OW24811   2.603   1.590   1.677
 7971SOL    HW124812   2.698   1.567   1.653
 7971SOL    HW224813   2.544   1.513   1.657
 7972SOL     OW24814   0.568   4.483   2.268
 7972SOL    HW124815   0.560   4.392   2.307
 7972SOL    HW224816   0.510   4.547   2.319
 7973SOL     OW24817   4.561   2.534   2.730
 7973SOL    HW124818   4.562   2.536   2.630
 7973SOL    HW224819   4.551   2.439   2.761
 7974SOL     OW24820   5.240   0.323   4.420
 7974SOL    HW124821   5.184   0.330   4.337
 7974SOL    HW224822   5.308   0.396   4.420
 7975SOL     OW24823   2.755   1.261   4.039
 7975SOL    HW124824   2.809   1.227   3.963
 7975SOL    HW224825   2.663   1.221   4.036
 7976SOL     OW24826   0.892   5.426   6.571
 7976SOL    HW124827   0.833   5.421   6.490
 7976SOL    HW224828   0.906   5.334   6.607
 7977SOL     OW24829   5.150   6.112   1.409
 7977SOL    HW124830   5.237   6.155   1.385
 7977SOL    HW224831   5.093   6.105   1.328
 7978SOL     OW24832   4.448   2.617   5.641
 7978SOL    HW124833   4.501   2.603   5.556
 7978SOL    HW224834   4.371   2.677   5.622
 7979SOL     OW24835   4.002   6.619   4.305
 7979SOL    HW124836   3.948   6.617   4.389
 7979SOL    HW224837   4.003   6.712   4.268
 7980SOL     OW24838   3.049   6.179   1.861
 7980SOL    HW124839   3.011   6.089   1.883
 7980SOL    HW224840   3.085   6.178   1.768
 7981SOL     OW24841   1.042   5.131   3.251
 7981SOL    HW124842   1.114   5.070   3.217
 7981SOL    HW224843   0.953   5.089   3.235
 7982SOL     OW24844   6.443   3.052   0.615
 7982SOL    HW124845   6.463   3.142   0.578
 7982SOL    HW224846   6.359   3.056   0.670
 7983SOL     OW24847   4.999   2.499   2.418
 7983SOL    HW124848   4.914   2.498   2.366
 7983SOL    HW224849   5.053   2.579   2.393
 7984SOL     OW24850   0.734   0.875   1.183
 7984SOL    HW124851   0.671   0.804   1.151
 7984SOL    HW224852   0.750   0.863   1.281
 7985SOL     OW24853   0.438   1.733   1.901
 7985SOL    HW124854   0.481   1.691   1.821
 7985SOL    HW224855   0.365   1.795   1.870
 7986SOL     OW24856   3.962   1.677   0.604
 7986SOL    HW124857   3.990   1.587   0.635
 7986SOL    HW224858   3.878   1.705   0.651
 7987SOL     OW24859   0.477   3.360   4.769
 7987SOL    HW124860   0.377   3.369   4.770
 7987SOL    HW224861   0.503   3.266   4.788
 7988SOL     OW24862   2.882   1.335   5.464
 7988SOL    HW124863   2.809   1.403   5.459
 7988SOL    HW224864   2.901   1.299   5.373
 7989SOL     OW24865   2.873   2.626   5.363
 7989SOL    HW124866   2.876   2.645   5.461
 7989SOL    HW224867   2.799   2.678   5.320
 7990SOL     OW24868   1.681   2.296   4.781
 7990SOL    HW124869   1.740   2.249   4.715
 7990SOL    HW224870   1.707   2.392   4.787
 7991SOL     OW24871   0.872   2.972   5.862
 7991SOL    HW124872   0.964   3.010   5.869
 7991SOL    HW224873   0.810   3.041   5.826
 7992SOL     OW24874   2.386   1.055   0.823
 7992SOL    HW124875   2.346   1.123   0.761
 7992SOL    HW224876   2.474   1.088   0.857
 7993SOL     OW24877   2.041   6.817   6.557
 7993SOL    HW124878   2.113   6.752   6.579
 7993SOL    HW224879   1.992   6.787   6.476
 7994SOL     OW24880   5.486   0.926   3.242
 7994SOL    HW124881   5.505   0.992   3.315
 7994SOL    HW224882   5.563   0.863   3.233
 7995SOL     OW24883   3.251   5.200   3.423
 7995SOL    HW124884   3.322   5.263   3.392
 7995SOL    HW224885   3.293   5.114   3.451
 7996SOL     OW24886   3.709   0.172   5.093
 7996SOL    HW124887   3.748   0.082   5.109
 7996SOL    HW224888   3.648   0.168   5.013
 7997SOL     OW24889   5.502   2.746   1.736
 7997SOL    HW124890   5.479   2.770   1.831
 7997SOL    HW224891   5.424   2.766   1.677
 7998SOL     OW24892   6.107   4.924   6.809
 7998SOL    HW124893   6.084   4.961   6.900
 7998SOL    HW224894   6.189   4.868   6.816
 7999SOL     OW24895   1.826   0.550   5.484
 7999SOL    HW124896   1.743   0.606   5.483
 7999SOL    HW224897   1.898   0.595   5.432
 8000SOL     OW24898   6.136   6.598   5.715
 8000SOL    HW124899   6.193   6.525   5.678
 8000SOL    HW224900   6.115   6.578   5.811
 8001SOL     OW24901   2.333   0.067   1.220
 8001SOL    HW124902   2.404   0.025   1.161
 8001SOL    HW224903   2.299   0.150   1.177
 8002SOL     OW24904   5.757   2.848   5.390
 8002SOL    HW124905   5.690   2.779   5.363
 8002SOL    HW224906   5.788   2.898   5.310
 8003SOL     OW24907   3.537   5.292   3.357
 8003SOL    HW124908   3.601   5.318   3.285
 8003SOL    HW224909   3.581   5.226   3.418
 8004SOL     OW24910   1.781   3.996   2.624
 8004SOL    HW124911   1.710   3.930   2.648
 8004SOL    HW224912   1.746   4.060   2.555
 8005SOL     OW24913   2.739   1.337   1.528
 8005SOL    HW124914   2.776   1.411   1.584
 8005SOL    HW224915   2.754   1.250   1.574
 8006SOL     OW24916   3.624   5.938   0.550
 8006SOL    HW124917   3.526   5.954   0.564
 8006SOL    HW224918   3.643   5.939   0.451
 8007SOL     OW24919   0.565   0.768   4.443
 8007SOL    HW124920   0.659   0.794   4.461
 8007SOL    HW224921   0.536   0.805   4.354
 8008SOL     OW24922   6.311   6.653   0.620
 8008SOL    HW124923   6.316   6.738   0.672
 8008SOL    HW224924   6.247   6.664   0.544
 8009SOL     OW24925   6.645   6.848   3.816
 8009SOL    HW124926   6.718   6.781   3.830
 8009SOL    HW224927   6.627   6.856   3.718
 8010SOL     OW24928   2.325   3.027   6.866
 8010SOL    HW124929   2.385   2.949   6.850
 8010SOL    HW224930   2.356   3.105   6.812
 8011SOL     OW24931   2.915   2.144   0.485
 8011SOL    HW124932   2.941   2.054   0.520
 8011SOL    HW224933   2.818   2.144   0.460
 8012SOL     OW24934   3.096   6.293   2.287
 8012SOL    HW124935   3.009   6.343   2.293
 8012SOL    HW224936   3.083   6.200   2.323
 8013SOL     OW24937   6.136   4.520   5.104
 8013SOL    HW124938   6.176   4.605   5.138
 8013SOL    HW224939   6.056   4.540   5.048
 8014SOL     OW24940   2.063   6.833   0.284
 8014SOL    HW124941   1.992   6.857   0.350
 8014SOL    HW224942   2.098   6.916   0.242
 8015SOL     OW24943   2.048   2.577   0.085
 8015SOL    HW124944   1.981   2.527   0.141
 8015SOL    HW224945   2.050   2.538   7.020
 8016SOL     OW24946   3.318   6.527   1.459
 8016SOL    HW124947   3.336   6.471   1.378
 8016SOL    HW224948   3.227   6.567   1.452
 8017SOL     OW24949   6.047   4.176   4.386
 8017SOL    HW124950   5.986   4.254   4.377
 8017SOL    HW224951   6.124   4.186   4.322
 8018SOL     OW24952   5.415   2.295   4.896
 8018SOL    HW124953   5.377   2.387   4.895
 8018SOL    HW224954   5.387   2.248   4.979
 8019SOL     OW24955   2.773   5.545   0.848
 8019SOL    HW124956   2.756   5.636   0.884
 8019SOL    HW224957   2.687   5.503   0.819
 8020SOL     OW24958   5.566   5.591   6.858
 8020SOL    HW124959   5.506   5.597   6.938
 8020SOL    HW224960   5.581   5.682   6.821
 8021SOL     OW24961   0.781   0.564   1.313
 8021SOL    HW124962   0.766   0.638   1.378
 8021SOL    HW224963   0.865   0.516   1.337
 8022SOL     OW24964   4.523   6.034   2.924
 8022SOL    HW124965   4.536   6.094   2.845
 8022SOL    HW224966   4.484   5.947   2.893
 8023SOL     OW24967   6.459   6.844   3.154
 8023SOL    HW124968   6.471   6.940   3.179
 8023SOL    HW224969   6.423   6.793   3.232
 8024SOL     OW24970   4.452   5.005   5.270
 8024SOL    HW124971   4.417   4.914   5.247
 8024SOL    HW224972   4.521   5.032   5.202
 8025SOL     OW24973   3.564   5.528   6.960
 8025SOL    HW124974   3.598   5.601   6.901
 8025SOL    HW224975   3.642   5.475   6.995
 8026SOL     OW24976   0.929   2.827   0.252
 8026SOL    HW124977   0.930   2.899   0.321
 8026SOL    HW224978   0.904   2.740   0.295
 8027SOL     OW24979   5.001   2.864   5.403
 8027SOL    HW124980   4.965   2.785   5.453
 8027SOL    HW224981   5.041   2.833   5.316
 8028SOL     OW24982   5.791   4.503   6.875
 8028SOL    HW124983   5.768   4.542   6.786
 8028SOL    HW224984   5.799   4.404   6.868
 8029SOL     OW24985   3.390   4.273   0.801
 8029SOL    HW124986   3.413   4.310   0.711
 8029SOL    HW224987   3.308   4.216   0.794
 8030SOL     OW24988   5.737   4.090   6.651
 8030SOL    HW124989   5.638   4.086   6.662
 8030SOL    HW224990   5.765   4.030   6.576
 8031SOL     OW24991   3.502   5.658   1.549
 8031SOL    HW124992   3.447   5.578   1.525
 8031SOL    HW224993   3.583   5.663   1.490
 8032SOL     OW24994   5.194   3.780   5.901
 8032SOL    HW124995   5.176   3.836   5.820
 8032SOL    HW224996   5.286   3.798   5.935
 8033SOL     OW24997   5.792   2.821   0.176
 8033SOL    HW124998   5.750   2.912   0.172
 8033SOL    HW224999   5.761   2.773   0.257
 8034SOL     OW25000   5.745   0.744   5.613
 8034SOL    HW125001   5.789   0.833   5.611
 8034SOL    HW225002   5.765   0.695   5.528
 8035SOL     OW25003   5.547   6.471   6.668
 8035SOL    HW125004   5.461   6.517   6.691
 8035SOL    HW225005   5.554   6.463   6.568
 8036SOL     OW25006   2.132   4.425   1.780
 8036SOL    HW125007   2.055   4.415   1.717
 8036SOL    HW225008   2.117   4.369   1.861
 8037SOL     OW25009   1.469   2.977   1.497
 8037SOL    HW125010   1.458   3.076   1.482
 8037SOL    HW225011   1.428   2.928   1.420
 8038SOL     OW25012   0.025   2.362   4.265
 8038SOL    HW125013   7.011   2.383   4.176
 8038SOL    HW225014   7.020   2.272   4.297
 8039SOL     OW25015   2.837   6.712   3.555
 8039SOL    HW125016   2.925   6.691   3.598
 8039SOL    HW225017   2.788   6.779   3.611
 8040SOL     OW25018   0.044   5.781   1.029
 8040SOL    HW125019   0.123   5.841   1.044
 8040SOL    HW225020   7.003   5.797   1.101
 8041SOL     OW25021   4.486   1.752   0.802
 8041SOL    HW125022   4.443   1.672   0.844
 8041SOL    HW225023   4.462   1.756   0.705
 8042SOL     OW25024   3.373   3.139   1.493
 8042SOL    HW125025   3.279   3.173   1.487
 8042SOL    HW225026   3.378   3.066   1.561
 8043SOL     OW25027   2.803   6.629   2.015
 8043SOL    HW125028   2.773   6.578   1.935
 8043SOL    HW225029   2.743   6.609   2.093
 8044SOL     OW25030   3.048   3.818   1.972
 8044SOL    HW125031   3.141   3.815   2.009
 8044SOL    HW225032   3.028   3.732   1.925
 8045SOL     OW25033   5.890   2.536   3.360
 8045SOL    HW125034   5.804   2.568   3.319
 8045SOL    HW225035   5.869   2.470   3.432
 8046SOL     OW25036   6.746   5.035   6.056
 8046SOL    HW125037   6.844   5.021   6.071
 8046SOL    HW225038   6.713   4.968   5.989
 8047SOL     OW25039   3.678   6.133   4.025
 8047SOL    HW125040   3.658   6.216   3.972
 8047SOL    HW225041   3.697   6.058   3.963
 8048SOL     OW25042   6.824   0.027   5.836
 8048SOL    HW125043   6.794   0.121   5.819
 8048SOL    HW225044   6.825   7.004   5.750
 8049SOL     OW25045   1.175   5.398   0.569
 8049SOL    HW125046   1.205   5.427   0.660
 8049SOL    HW225047   1.118   5.316   0.578
 8050SOL     OW25048   1.689   2.809   1.015
 8050SOL    HW125049   1.652   2.826   1.106
 8050SOL    HW225050   1.647   2.727   0.976
 8051SOL     OW25051   4.561   1.314   3.865
 8051SOL    HW125052   4.563   1.403   3.910
 8051SOL    HW225053   4.477   1.306   3.811
 8052SOL     OW25054   2.331   1.512   3.031
 8052SOL    HW125055   2.346   1.533   3.128
 8052SOL    HW225056   2.394   1.566   2.975
 8053SOL     OW25057   3.911   3.574   2.222
 8053SOL    HW125058   3.869   3.590   2.311
 8053SOL    HW225059   3.850   3.518   2.166
 8054SOL     OW25060   4.180   6.119   4.756
 8054SOL    HW125061   4.125   6.142   4.837
 8054SOL    HW225062   4.214   6.202   4.713
 8055SOL     OW25063   1.639   6.988   5.753
 8055SOL    HW125064   1.725   0.008   5.737
 8055SOL    HW225065   1.568   0.028   5.775
 8056SOL     OW25066   4.287   2.029   2.945
 8056SOL    HW125067   4.382   1.999   2.942
 8056SOL    HW225068   4.251   2.016   3.037
 8057SOL     OW25069   3.605   6.694   3.365
 8057SOL    HW125070   3.678   6.705   3.433
 8057SOL    HW225071   3.645   6.699   3.273
 8058SOL     OW25072   2.141   1.138   3.200
 8058SOL    HW125073   2.057   1.110   3.247
 8058SOL    HW225074   2.122   1.212   3.137
 8059SOL     OW25075   3.008   1.507   3.805
 8059SOL    HW125076   2.974   1.506   3.899
 8059SOL    HW225077   3.015   1.412   3.772
 8060SOL     OW25078   0.335   1.426   4.661
 8060SOL    HW125079   0.283   1.392   4.740
 8060SOL    HW225080   0.406   1.489   4.694
 8061SOL     OW25081   0.566   5.558   2.184
 8061SOL    HW125082   0.645   5.520   2.232
 8061SOL    HW225083   0.535   5.640   2.232
 8062SOL     OW25084   1.893   3.779   3.338
 8062SOL    HW125085   1.845   3.855   3.382
 8062SOL    HW225086   1.883   3.696   3.393
 8063SOL     OW25087   3.320   2.915   0.195
 8063SOL    HW125088   3.371   2.999   0.215
 8063SOL    HW225089   3.226   2.939   0.170
 8064SOL     OW25090   6.904   3.868   6.735
 8064SOL    HW125091   6.901   3.965   6.711
 8064SOL    HW225092   6.894   3.812   6.653
 8065SOL     OW25093   4.715   0.378   5.493
 8065SOL    HW125094   4.811   0.405   5.502
 8065SOL    HW225095   4.698   0.297   5.550
 8066SOL     OW25096   1.645   0.450   1.529
 8066SOL    HW125097   1.662   0.484   1.622
 8066SOL    HW225098   1.569   0.501   1.489
 8067SOL     OW25099   5.177   2.675   1.960
 8067SOL    HW125100   5.114   2.729   1.904
 8067SOL    HW225101   5.268   2.717   1.956
 8068SOL     OW25102   0.863   4.167   4.521
 8068SOL    HW125103   0.824   4.076   4.534
 8068SOL    HW225104   0.789   4.234   4.513
 8069SOL     OW25105   1.543   6.706   1.780
 8069SOL    HW125106   1.620   6.684   1.840
 8069SOL    HW225107   1.538   6.805   1.769
 8070SOL     OW25108   3.984   0.719   1.318
 8070SOL    HW125109   3.957   0.735   1.223
 8070SOL    HW225110   3.923   0.653   1.360
 8071SOL     OW25111   3.819   6.517   6.875
 8071SOL    HW125112   3.738   6.472   6.912
 8071SOL    HW225113   3.901   6.469   6.908
 8072SOL     OW25114   5.372   0.925   1.253
 8072SOL    HW125115   5.393   0.998   1.188
 8072SOL    HW225116   5.286   0.881   1.228
 8073SOL     OW25117   4.093   6.437   6.017
 8073SOL    HW125118   4.158   6.362   6.004
 8073SOL    HW225119   4.135   6.507   6.076
 8074SOL     OW25120   3.380   3.888   6.986
 8074SOL    HW125121   3.476   3.891   6.960
 8074SOL    HW225122   3.352   3.977   7.022
 8075SOL     OW25123   6.930   1.849   2.734
 8075SOL    HW125124   6.959   1.943   2.718
 8075SOL    HW225125   6.978   1.813   2.814
 8076SOL     OW25126   5.905   3.171   5.939
 8076SOL    HW125127   5.884   3.254   5.990
 8076SOL    HW225128   5.878   3.183   5.843
 8077SOL     OW25129   1.535   0.468   0.879
 8077SOL    HW125130   1.495   0.559   0.890
 8077SOL    HW225131   1.544   0.447   0.781
 8078SOL     OW25132   6.325   3.456   0.630
 8078SOL    HW125133   6.242   3.432   0.682
 8078SOL    HW225134   6.399   3.393   0.655
 8079SOL     OW25135   6.950   1.831   2.109
 8079SOL    HW125136   6.929   1.824   2.206
 8079SOL    HW225137   0.019   1.811   2.093
 8080SOL     OW25138   3.587   4.940   6.940
 8080SOL    HW125139   3.557   4.990   6.860
 8080SOL    HW225140   3.526   4.862   6.956
 8081SOL     OW25141   6.186   0.669   5.648
 8081SOL    HW125142   6.184   0.743   5.715
 8081SOL    HW225143   6.111   0.605   5.668
 8082SOL     OW25144   6.904   3.202   3.778
 8082SOL    HW125145   6.850   3.238   3.855
 8082SOL    HW225146   6.914   3.103   3.787
 8083SOL     OW25147   4.592   2.393   3.723
 8083SOL    HW125148   4.578   2.493   3.722
 8083SOL    HW225149   4.689   2.374   3.737
 8084SOL     OW25150   6.922   0.142   0.907
 8084SOL    HW125151   7.008   0.181   0.939
 8084SOL    HW225152   6.878   0.204   0.842
 8085SOL     OW25153   5.523   1.595   1.416
 8085SOL    HW125154   5.565   1.681   1.446
 8085SOL    HW225155   5.577   1.556   1.341
 8086SOL     OW25156   3.329   0.071   5.625
 8086SOL    HW125157   3.306   0.166   5.603
 8086SOL    HW225158   3.382   0.067   5.709
 8087SOL     OW25159   3.214   2.894   1.386
 8087SOL    HW125160   3.168   2.845   1.460
 8087SOL    HW225161   3.182   2.989   1.384
 8088SOL     OW25162   3.842   1.052   3.302
 8088SOL    HW125163   3.896   1.066   3.385
 8088SOL    HW225164   3.788   1.134   3.283
 8089SOL     OW25165   5.731   2.997   0.526
 8089SOL    HW125166   5.693   2.982   0.434
 8089SOL    HW225167   5.693   2.929   0.588
 8090SOL     OW25168   4.864   2.093   5.234
 8090SOL    HW125169   4.808   2.126   5.158
 8090SOL    HW225170   4.804   2.067   5.310
 8091SOL     OW25171   3.316   4.991   6.020
 8091SOL    HW125172   3.271   4.940   6.093
 8091SOL    HW225173   3.273   5.081   6.011
 8092SOL     OW25174   1.399   1.849   3.991
 8092SOL    HW125175   1.483   1.834   3.938
 8092SOL    HW225176   1.336   1.773   3.976
 8093SOL     OW25177   5.778   5.955   1.056
 8093SOL    HW125178   5.719   5.874   1.052
 8093SOL    HW225179   5.844   5.952   0.981
 8094SOL     OW25180   0.643   3.233   5.829
 8094SOL    HW125181   0.603   3.274   5.911
 8094SOL    HW225182   0.717   3.291   5.795
 8095SOL     OW25183   5.584   3.615   4.314
 8095SOL    HW125184   5.678   3.643   4.337
 8095SOL    HW225185   5.584   3.519   4.286
 8096SOL     OW25186   3.704   5.677   1.336
 8096SOL    HW125187   3.751   5.593   1.309
 8096SOL    HW225188   3.762   5.756   1.315
 8097SOL     OW25189   4.934   1.364   4.098
 8097SOL    HW125190   4.858   1.299   4.105
 8097SOL    HW225191   5.015   1.326   4.141
 8098SOL     OW25192   2.905   6.592   3.887
 8098SOL    HW125193   2.985   6.622   3.834
 8098SOL    HW225194   2.905   6.492   3.894
 8099SOL     OW25195   4.810   6.760   4.878
 8099SOL    HW125196   4.825   6.766   4.977
 8099SOL    HW225197   4.833   6.847   4.835
 8100SOL     OW25198   0.466   6.513   0.735
 8100SOL    HW125199   0.469   6.413   0.746
 8100SOL    HW225200   0.395   6.551   0.795
 8101SOL     OW25201   1.338   6.202   3.607
 8101SOL    HW125202   1.332   6.301   3.610
 8101SOL    HW225203   1.430   6.172   3.632
 8102SOL     OW25204   0.209   5.588   6.153
 8102SOL    HW125205   0.292   5.536   6.169
 8102SOL    HW225206   0.221   5.681   6.186
 8103SOL     OW25207   2.694   1.143   2.560
 8103SOL    HW125208   2.726   1.098   2.643
 8103SOL    HW225209   2.659   1.074   2.496
 8104SOL     OW25210   2.373   6.755   6.277
 8104SOL    HW125211   2.430   6.746   6.195
 8104SOL    HW225212   2.431   6.776   6.355
 8105SOL     OW25213   2.102   2.180   2.870
 8105SOL    HW125214   2.025   2.131   2.912
 8105SOL    HW225215   2.118   2.265   2.919
 8106SOL     OW25216   0.522   3.885   4.473
 8106SOL    HW125217   0.517   3.963   4.411
 8106SOL    HW225218   0.491   3.802   4.426
 8107SOL     OW25219   1.977   6.281   6.256
 8107SOL    HW125220   2.074   6.273   6.235
 8107SOL    HW225221   1.935   6.190   6.257
 8108SOL     OW25222   1.132   3.054   4.154
 8108SOL    HW125223   1.073   3.109   4.094
 8108SOL    HW225224   1.103   3.065   4.249
 8109SOL     OW25225   1.842   5.217   5.211
 8109SOL    HW125226   1.847   5.274   5.129
 8109SOL    HW225227   1.878   5.126   5.190
 8110SOL     OW25228   2.165   4.633   1.365
 8110SOL    HW125229   2.173   4.668   1.272
 8110SOL    HW225230   2.196   4.702   1.430
 8111SOL     OW25231   2.203   5.645   4.355
 8111SOL    HW125232   2.213   5.603   4.446
 8111SOL    HW225233   2.199   5.744   4.364
 8112SOL     OW25234   3.182   0.952   4.687
 8112SOL    HW125235   3.148   0.860   4.707
 8112SOL    HW225236   3.109   1.019   4.700
 8113SOL     OW25237   4.080   2.643   5.996
 8113SOL    HW125238   3.992   2.688   5.982
 8113SOL    HW225239   4.129   2.637   5.909
 8114SOL     OW25240   2.749   3.541   1.138
 8114SOL    HW125241   2.728   3.446   1.161
 8114SOL    HW225242   2.691   3.571   1.062
 8115SOL     OW25243   3.825   1.663   1.045
 8115SOL    HW125244   3.780   1.678   1.133
 8115SOL    HW225245   3.850   1.751   1.005
 8116SOL     OW25246   6.169   0.629   5.367
 8116SOL    HW125247   6.153   0.726   5.386
 8116SOL    HW225248   6.262   0.605   5.392
 8117SOL     OW25249   2.251   1.744   5.870
 8117SOL    HW125250   2.293   1.832   5.894
 8117SOL    HW225251   2.152   1.752   5.877
 8118SOL     OW25252   0.808   3.189   4.701
 8118SOL    HW125253   0.843   3.188   4.795
 8118SOL    HW225254   0.783   3.096   4.673
 8119SOL     OW25255   1.085   6.200   2.637
 8119SOL    HW125256   1.019   6.166   2.704
 8119SOL    HW225257   1.151   6.260   2.682
 8120SOL     OW25258   4.570   3.851   1.648
 8120SOL    HW125259   4.488   3.896   1.613
 8120SOL    HW225260   4.627   3.919   1.694
 8121SOL     OW25261   6.503   0.548   2.904
 8121SOL    HW125262   6.446   0.587   2.832
 8121SOL    HW225263   6.599   0.547   2.875
 8122SOL     OW25264   6.912   6.881   2.022
 8122SOL    HW125265   6.881   6.948   1.954
 8122SOL    HW225266   7.004   6.850   1.998
 8123SOL     OW25267   0.805   5.920   0.525
 8123SOL    HW125268   0.896   5.878   0.521
 8123SOL    HW225269   0.807   6.009   0.479
 8124SOL     OW25270   0.967   5.776   2.767
 8124SOL    HW125271   1.063   5.748   2.770
 8124SOL    HW225272   0.943   5.822   2.852
 8125SOL     OW25273   5.280   5.369   2.963
 8125SOL    HW125274   5.242   5.279   2.942
 8125SOL    HW225275   5.344   5.361   3.040
 8126SOL     OW25276   5.684   5.134   2.074
 8126SOL    HW125277   5.593   5.124   2.113
 8126SOL    HW225278   5.734   5.048   2.084
 8127SOL     OW25279   3.029   4.388   0.377
 8127SOL    HW125280   3.101   4.456   0.358
 8127SOL    HW225281   2.951   4.434   0.419
 8128SOL     OW25282   3.923   2.518   5.416
 8128SOL    HW125283   3.989   2.522   5.341
 8128SOL    HW225284   3.834   2.550   5.383
 8129SOL     OW25285   4.792   6.672   6.883
 8129SOL    HW125286   4.796   6.601   6.953
 8129SOL    HW225287   4.728   6.743   6.911
 8130SOL     OW25288   1.740   6.669   0.595
 8130SOL    HW125289   1.746   6.733   0.519
 8130SOL    HW225290   1.668   6.699   0.658
 8131SOL     OW25291   1.520   1.782   0.580
 8131SOL    HW125292   1.616   1.755   0.579
 8131SOL    HW225293   1.472   1.736   0.654
 8132SOL     OW25294   6.969   4.877   3.499
 8132SOL    HW125295   0.008   4.939   3.540
 8132SOL    HW225296   6.934   4.814   3.569
 8133SOL     OW25297   1.310   5.608   2.065
 8133SOL    HW125298   1.275   5.569   1.980
 8133SOL    HW225299   1.234   5.628   2.127
 8134SOL     OW25300   2.123   2.446   2.275
 8134SOL    HW125301   2.032   2.483   2.295
 8134SOL    HW225302   2.138   2.364   2.330
 8135SOL     OW25303   4.337   5.951   1.539
 8135SOL    HW125304   4.286   5.864   1.537
 8135SOL    HW225305   4.336   5.988   1.632
 8136SOL     OW25306   3.863   5.878   1.224
 8136SOL    HW125307   3.857   5.978   1.212
 8136SOL    HW225308   3.866   5.834   1.134
 8137SOL     OW25309   2.604   3.832   5.710
 8137SOL    HW125310   2.537   3.779   5.763
 8137SOL    HW225311   2.694   3.790   5.719
 8138SOL     OW25312   4.752   1.139   3.430
 8138SOL    HW125313   4.703   1.178   3.352
 8138SOL    HW225314   4.799   1.213   3.479
 8139SOL     OW25315   1.813   2.866   3.976
 8139SOL    HW125316   1.776   2.895   3.887
 8139SOL    HW225317   1.912   2.880   3.976
 8140SOL     OW25318   4.179   0.340   0.652
 8140SOL    HW125319   4.268   0.300   0.629
 8140SOL    HW225320   4.147   0.301   0.738
 8141SOL     OW25321   5.118   0.770   5.079
 8141SOL    HW125322   5.055   0.715   5.025
 8141SOL    HW225323   5.070   0.848   5.118
 8142SOL     OW25324   2.205   6.055   1.056
 8142SOL    HW125325   2.209   6.011   1.146
 8142SOL    HW225326   2.219   6.154   1.067
 8143SOL     OW25327   6.272   5.244   0.428
 8143SOL    HW125328   6.319   5.327   0.459
 8143SOL    HW225329   6.193   5.226   0.487
 8144SOL     OW25330   0.173   4.875   0.074
 8144SOL    HW125331   0.155   4.782   0.105
 8144SOL    HW225332   0.272   4.890   0.068
 8145SOL     OW25333   5.678   5.301   0.040
 8145SOL    HW125334   5.707   5.289   6.972
 8145SOL    HW225335   5.593   5.354   0.043
 8146SOL     OW25336   5.998   0.303   4.003
 8146SOL    HW125337   6.070   0.362   4.040
 8146SOL    HW225338   5.966   0.339   3.916
 8147SOL     OW25339   1.752   0.994   6.558
 8147SOL    HW125340   1.836   1.011   6.506
 8147SOL    HW225341   1.765   1.021   6.653
 8148SOL     OW25342   4.835   4.991   0.305
 8148SOL    HW125343   4.856   5.078   0.260
 8148SOL    HW225344   4.761   5.004   0.371
 8149SOL     OW25345   0.656   5.914   5.239
 8149SOL    HW125346   0.604   5.979   5.183
 8149SOL    HW225347   0.713   5.857   5.181
 8150SOL     OW25348   0.363   3.665   1.068
 8150SOL    HW125349   0.380   3.747   1.121
 8150SOL    HW225350   0.295   3.608   1.115
 8151SOL     OW25351   6.601   5.860   2.963
 8151SOL    HW125352   6.607   5.952   3.002
 8151SOL    HW225353   6.686   5.840   2.913
 8152SOL     OW25354   4.976   1.308   3.191
 8152SOL    HW125355   4.975   1.405   3.167
 8152SOL    HW225356   5.070   1.280   3.214
 8153SOL     OW25357   0.355   1.562   2.296
 8153SOL    HW125358   0.369   1.524   2.204
 8153SOL    HW225359   0.380   1.659   2.295
 8154SOL     OW25360   1.612   0.347   2.852
 8154SOL    HW125361   1.670   0.342   2.771
 8154SOL    HW225362   1.645   0.282   2.921
 8155SOL     OW25363   1.992   5.474   3.384
 8155SOL    HW125364   2.001   5.375   3.377
 8155SOL    HW225365   1.998   5.500   3.481
 8156SOL     OW25366   0.040   5.494   1.856
 8156SOL    HW125367   0.094   5.437   1.794
 8156SOL    HW225368   0.072   5.481   1.950
 8157SOL     OW25369   0.275   3.712   4.998
 8157SOL    HW125370   0.196   3.686   5.053
 8157SOL    HW225371   0.258   3.689   4.902
 8158SOL     OW25372   5.978   5.172   6.675
 8158SOL    HW125373   6.019   5.179   6.584
 8158SOL    HW225374   6.036   5.115   6.733
 8159SOL     OW25375   3.199   6.636   5.651
 8159SOL    HW125376   3.293   6.669   5.644
 8159SOL    HW225377   3.180   6.575   5.574
 8160SOL     OW25378   5.232   1.440   2.962
 8160SOL    HW125379   5.203   1.345   2.963
 8160SOL    HW225380   5.288   1.457   2.881
 8161SOL     OW25381   5.868   3.133   1.706
 8161SOL    HW125382   5.874   3.172   1.614
 8161SOL    HW225383   5.912   3.043   1.707
 8162SOL     OW25384   0.397   5.453   5.873
 8162SOL    HW125385   0.323   5.518   5.853
 8162SOL    HW225386   0.399   5.434   5.971
 8163SOL     OW25387   4.628   4.372   5.256
 8163SOL    HW125388   4.723   4.367   5.287
 8163SOL    HW225389   4.573   4.305   5.307
 8164SOL     OW25390   5.038   1.550   1.021
 8164SOL    HW125391   5.065   1.458   0.991
 8164SOL    HW225392   5.100   1.618   0.980
 8165SOL     OW25393   0.079   1.010   0.707
 8165SOL    HW125394   0.173   0.978   0.717
 8165SOL    HW225395   0.066   1.094   0.759
 8166SOL     OW25396   1.713   1.190   5.612
 8166SOL    HW125397   1.737   1.265   5.673
 8166SOL    HW225398   1.701   1.225   5.519
 8167SOL     OW25399   1.262   2.760   4.418
 8167SOL    HW125400   1.197   2.782   4.491
 8167SOL    HW225401   1.339   2.710   4.457
 8168SOL     OW25402   2.374   0.668   2.017
 8168SOL    HW125403   2.365   0.655   2.115
 8168SOL    HW225404   2.466   0.700   1.996
 8169SOL     OW25405   5.207   2.413   0.363
 8169SOL    HW125406   5.222   2.510   0.382
 8169SOL    HW225407   5.237   2.391   0.270
 8170SOL     OW25408   6.513   5.239   2.335
 8170SOL    HW125409   6.448   5.254   2.410
 8170SOL    HW225410   6.559   5.152   2.347
 8171SOL     OW25411   1.955   0.966   0.943
 8171SOL    HW125412   1.947   0.984   0.845
 8171SOL    HW225413   1.923   1.045   0.995
 8172SOL     OW25414   0.624   2.662   0.710
 8172SOL    HW125415   0.702   2.698   0.762
 8172SOL    HW225416   0.589   2.580   0.755
 8173SOL     OW25417   6.133   1.180   1.812
 8173SOL    HW125418   6.103   1.116   1.883
 8173SOL    HW225419   6.174   1.260   1.855
 8174SOL     OW25420   2.617   4.760   3.352
 8174SOL    HW125421   2.713   4.757   3.378
 8174SOL    HW225422   2.568   4.682   3.392
 8175SOL     OW25423   0.429   1.652   5.320
 8175SOL    HW125424   0.368   1.727   5.294
 8175SOL    HW225425   0.394   1.608   5.403
 8176SOL     OW25426   2.450   4.293   0.499
 8176SOL    HW125427   2.444   4.226   0.425
 8176SOL    HW225428   2.393   4.263   0.575
 8177SOL     OW25429   3.497   1.129   3.463
 8177SOL    HW125430   3.577   1.128   3.523
 8177SOL    HW225431   3.425   1.072   3.504
 8178SOL     OW25432   2.540   6.510   1.583
 8178SOL    HW125433   2.583   6.428   1.545
 8178SOL    HW225434   2.460   6.534   1.529
 8179SOL     OW25435   5.811   1.051   3.259
 8179SOL    HW125436   5.789   0.974   3.319
 8179SOL    HW225437   5.775   1.135   3.298
 8180SOL     OW25438   5.042   6.500   0.258
 8180SOL    HW125439   5.122   6.454   0.219
 8180SOL    HW225440   5.048   6.497   0.358
 8181SOL     OW25441   0.491   0.447   0.587
 8181SOL    HW125442   0.517   0.539   0.616
 8181SOL    HW225443   0.422   0.454   0.514
 8182SOL     OW25444   2.947   3.414   4.893
 8182SOL    HW125445   2.950   3.377   4.801
 8182SOL    HW225446   2.939   3.340   4.959
 8183SOL     OW25447   0.228   0.132   4.956
 8183SOL    HW125448   0.167   0.108   4.880
 8183SOL    HW225449   0.289   0.055   4.975
 8184SOL     OW25450   0.461   6.328   6.642
 8184SOL    HW125451   0.406   6.288   6.569
 8184SOL    HW225452   0.449   6.276   6.726
 8185SOL     OW25453   0.370   6.003   6.644
 8185SOL    HW125454   0.379   5.999   6.744
 8185SOL    HW225455   0.415   5.923   6.604
 8186SOL     OW25456   1.766   5.634   6.732
 8186SOL    HW125457   1.840   5.622   6.798
 8186SOL    HW225458   1.774   5.723   6.688
 8187SOL     OW25459   0.656   0.846   5.505
 8187SOL    HW125460   0.695   0.924   5.554
 8187SOL    HW225461   0.681   0.852   5.408
 8188SOL     OW25462   2.030   2.990   3.392
 8188SOL    HW125463   2.063   3.065   3.450
 8188SOL    HW225464   2.100   2.919   3.385
 8189SOL     OW25465   5.596   5.574   3.818
 8189SOL    HW125466   5.653   5.527   3.750
 8189SOL    HW225467   5.513   5.520   3.835
 8190SOL     OW25468   6.845   3.767   3.255
 8190SOL    HW125469   6.896   3.682   3.271
 8190SOL    HW225470   6.764   3.747   3.199
 8191SOL     OW25471   3.273   5.417   0.775
 8191SOL    HW125472   3.206   5.488   0.753
 8191SOL    HW225473   3.251   5.377   0.864
 8192SOL     OW25474   0.680   4.633   3.641
 8192SOL    HW125475   0.689   4.625   3.542
 8192SOL    HW225476   0.769   4.616   3.684
 8193SOL     OW25477   0.326   4.287   4.729
 8193SOL    HW125478   0.349   4.383   4.744
 8193SOL    HW225479   0.330   4.267   4.631
 8194SOL     OW25480   4.607   6.336   1.629
 8194SOL    HW125481   4.584   6.419   1.578
 8194SOL    HW225482   4.586   6.255   1.573
 8195SOL     OW25483   5.888   6.550   2.817
 8195SOL    HW125484   5.953   6.597   2.756
 8195SOL    HW225485   5.925   6.549   2.910
 8196SOL     OW25486   4.834   0.732   0.638
 8196SOL    HW125487   4.862   0.766   0.548
 8196SOL    HW225488   4.836   0.632   0.639
 8197SOL     OW25489   3.742   1.597   2.508
 8197SOL    HW125490   3.814   1.656   2.543
 8197SOL    HW225491   3.781   1.525   2.451
 8198SOL     OW25492   1.332   0.270   2.312
 8198SOL    HW125493   1.331   0.191   2.374
 8198SOL    HW225494   1.317   0.239   2.219
 8199SOL     OW25495   5.626   2.884   6.523
 8199SOL    HW125496   5.592   2.916   6.611
 8199SOL    HW225497   5.625   2.959   6.458
 8200SOL     OW25498   4.581   3.203   0.735
 8200SOL    HW125499   4.530   3.223   0.651
 8200SOL    HW225500   4.520   3.212   0.814
 8201SOL     OW25501   6.693   6.712   5.445
 8201SOL    HW125502   6.620   6.708   5.377
 8201SOL    HW225503   6.696   6.625   5.495
 8202SOL     OW25504   0.747   6.723   1.966
 8202SOL    HW125505   0.737   6.655   2.038
 8202SOL    HW225506   0.710   6.686   1.880
 8203SOL     OW25507   1.146   3.497   1.499
 8203SOL    HW125508   1.211   3.443   1.553
 8203SOL    HW225509   1.180   3.504   1.405
 8204SOL     OW25510   2.999   2.991   1.014
 8204SOL    HW125511   2.911   2.957   1.049
 8204SOL    HW225512   3.049   3.036   1.087
 8205SOL     OW25513   1.041   3.656   0.444
 8205SOL    HW125514   1.018   3.698   0.532
 8205SOL    HW225515   1.088   3.723   0.387
 8206SOL     OW25516   3.841   0.497   0.321
 8206SOL    HW125517   3.797   0.416   0.282
 8206SOL    HW225518   3.877   0.475   0.411
 8207SOL     OW25519   3.807   2.939   4.691
 8207SOL    HW125520   3.834   2.862   4.633
 8207SOL    HW225521   3.831   3.025   4.646
 8208SOL     OW25522   2.461   0.813   0.707
 8208SOL    HW125523   2.551   0.781   0.735
 8208SOL    HW225524   2.426   0.878   0.775
 8209SOL     OW25525   6.204   1.173   5.337
 8209SOL    HW125526   6.173   1.260   5.376
 8209SOL    HW225527   6.204   1.180   5.237
 8210SOL     OW25528   1.472   2.753   6.973
 8210SOL    HW125529   1.438   2.695   0.021
 8210SOL    HW225530   1.511   2.837   7.011
 8211SOL     OW25531   3.058   4.572   1.469
 8211SOL    HW125532   2.984   4.629   1.433
 8211SOL    HW225533   3.105   4.622   1.541
 8212SOL     OW25534   1.628   2.664   3.767
 8212SOL    HW125535   1.634   2.763   3.769
 8212SOL    HW225536   1.599   2.630   3.856
 8213SOL     OW25537   6.929   5.387   1.235
 8213SOL    HW125538   6.898   5.299   1.271
 8213SOL    HW225539   6.882   5.406   1.148
 8214SOL     OW25540   5.418   4.451   3.422
 8214SOL    HW125541   5.359   4.465   3.343
 8214SOL    HW225542   5.365   4.411   3.496
 8215SOL     OW25543   3.473   5.663   4.421
 8215SOL    HW125544   3.495   5.612   4.338
 8215SOL    HW225545   3.446   5.756   4.396
 8216SOL     OW25546   5.276   4.367   3.621
 8216SOL    HW125547   5.178   4.388   3.620
 8216SOL    HW225548   5.314   4.392   3.710
 8217SOL     OW25549   2.191   5.947   0.218
 8217SOL    HW125550   2.154   5.859   0.248
 8217SOL    HW225551   2.235   5.937   0.129
 8218SOL     OW25552   0.339   1.504   0.111
 8218SOL    HW125553   0.391   1.426   0.147
 8218SOL    HW225554   0.301   1.481   0.022
 8219SOL     OW25555   6.327   2.263   6.968
 8219SOL    HW125556   6.335   2.345   7.025
 8219SOL    HW225557   6.419   2.233   6.941
 8220SOL     OW25558   3.628   3.494   2.625
 8220SOL    HW125559   3.603   3.413   2.572
 8220SOL    HW225560   3.630   3.471   2.722
 8221SOL     OW25561   5.161   5.562   3.574
 8221SOL    HW125562   5.217   5.639   3.607
 8221SOL    HW225563   5.217   5.503   3.516
 8222SOL     OW25564   5.242   1.581   1.889
 8222SOL    HW125565   5.298   1.516   1.838
 8222SOL    HW225566   5.169   1.616   1.830
 8223SOL     OW25567   0.395   4.567   6.281
 8223SOL    HW125568   0.474   4.627   6.288
 8223SOL    HW225569   0.319   4.604   6.335
 8224SOL     OW25570   1.218   2.778   4.060
 8224SOL    HW125571   1.221   2.878   4.067
 8224SOL    HW225572   1.212   2.739   4.152
 8225SOL     OW25573   4.970   1.162   0.293
 8225SOL    HW125574   4.923   1.144   0.379
 8225SOL    HW225575   4.938   1.099   0.223
 8226SOL     OW25576   5.304   0.279   0.874
 8226SOL    HW125577   5.320   0.376   0.852
 8226SOL    HW225578   5.233   0.243   0.813
 8227SOL     OW25579   6.311   3.381   3.707
 8227SOL    HW125580   6.286   3.321   3.783
 8227SOL    HW225581   6.360   3.328   3.638
 8228SOL     OW25582   6.208   2.612   5.547
 8228SOL    HW125583   6.113   2.631   5.521
 8228SOL    HW225584   6.213   2.525   5.595
 8229SOL     OW25585   3.846   4.832   0.006
 8229SOL    HW125586   3.934   4.878   0.018
 8229SOL    HW225587   3.774   4.900   7.022
 8230SOL     OW25588   5.480   0.492   4.396
 8230SOL    HW125589   5.517   0.405   4.363
 8230SOL    HW225590   5.506   0.565   4.333
 8231SOL     OW25591   5.110   6.357   0.697
 8231SOL    HW125592   5.085   6.265   0.730
 8231SOL    HW225593   5.208   6.370   0.707
 8232SOL     OW25594   3.563   2.190   6.370
 8232SOL    HW125595   3.635   2.251   6.403
 8232SOL    HW225596   3.550   2.205   6.272
 8233SOL     OW25597   0.696   5.428   6.878
 8233SOL    HW125598   0.761   5.382   6.818
 8233SOL    HW225599   0.688   5.378   6.964
 8234SOL     OW25600   2.941   2.838   6.460
 8234SOL    HW125601   2.878   2.889   6.400
 8234SOL    HW225602   3.028   2.887   6.467
 8235SOL     OW25603   4.127   3.681   1.223
 8235SOL    HW125604   4.200   3.683   1.291
 8235SOL    HW225605   4.140   3.602   1.162
 8236SOL     OW25606   5.953   3.137   0.541
 8236SOL    HW125607   5.868   3.085   0.535
 8236SOL    HW225608   6.020   3.101   0.477
 8237SOL     OW25609   4.025   6.259   5.393
 8237SOL    HW125610   4.035   6.162   5.412
 8237SOL    HW225611   3.934   6.277   5.355
 8238SOL     OW25612   1.840   1.995   6.409
 8238SOL    HW125613   1.909   1.964   6.345
 8238SOL    HW225614   1.760   2.028   6.359
 8239SOL     OW25615   0.437   1.649   6.055
 8239SOL    HW125616   0.484   1.597   5.983
 8239SOL    HW225617   0.505   1.688   6.117
 8240SOL     OW25618   3.493   4.020   3.274
 8240SOL    HW125619   3.468   4.022   3.371
 8240SOL    HW225620   3.592   4.034   3.265
 8241SOL     OW25621   3.902   6.837   0.118
 8241SOL    HW125622   3.988   6.808   0.077
 8241SOL    HW225623   3.826   6.791   0.072
 8242SOL     OW25624   0.922   4.718   5.798
 8242SOL    HW125625   0.962   4.667   5.722
 8242SOL    HW225626   0.904   4.655   5.874
 8243SOL     OW25627   0.844   3.456   5.427
 8243SOL    HW125628   0.833   3.556   5.435
 8243SOL    HW225629   0.776   3.421   5.362
 8244SOL     OW25630   0.598   6.460   4.088
 8244SOL    HW125631   0.503   6.434   4.106
 8244SOL    HW225632   0.616   6.454   3.990
 8245SOL     OW25633   3.702   2.263   1.120
 8245SOL    HW125634   3.759   2.309   1.188
 8245SOL    HW225635   3.677   2.172   1.153
 8246SOL     OW25636   5.534   3.718   6.097
 8246SOL    HW125637   5.474   3.640   6.083
 8246SOL    HW225638   5.595   3.700   6.174
 8247SOL     OW25639   0.852   0.150   1.655
 8247SOL    HW125640   0.951   0.150   1.667
 8247SOL    HW225641   0.828   0.205   1.575
 8248SOL     OW25642   5.551   4.559   3.620
 8248SOL    HW125643   5.509   4.532   3.534
 8248SOL    HW225644   5.489   4.622   3.669
 8249SOL     OW25645   2.110   4.830   3.691
 8249SOL    HW125646   2.014   4.852   3.670
 8249SOL    HW225647   2.114   4.740   3.735
 8250SOL     OW25648   4.057   3.732   2.805
 8250SOL    HW125649   4.056   3.681   2.719
 8250SOL    HW225650   4.124   3.691   2.867
 8251SOL     OW25651   5.607   1.890   4.448
 8251SOL    HW125652   5.553   1.886   4.532
 8251SOL    HW225653   5.612   1.799   4.408
 8252SOL     OW25654   2.023   2.611   5.565
 8252SOL    HW125655   2.110   2.618   5.615
 8252SOL    HW225656   2.040   2.623   5.468
 8253SOL     OW25657   3.411   2.740   5.220
 8253SOL    HW125658   3.317   2.769   5.239
 8253SOL    HW225659   3.436   2.768   5.127
 8254SOL     OW25660   3.660   5.149   3.567
 8254SOL    HW125661   3.758   5.130   3.554
 8254SOL    HW225662   3.649   5.214   3.642
 8255SOL     OW25663   4.307   5.619   4.093
 8255SOL    HW125664   4.280   5.545   4.154
 8255SOL    HW225665   4.377   5.674   4.136
 8256SOL     OW25666   6.656   1.457   4.461
 8256SOL    HW125667   6.635   1.363   4.488
 8256SOL    HW225668   6.754   1.475   4.476
 8257SOL     OW25669   6.303   4.929   3.366
 8257SOL    HW125670   6.207   4.913   3.342
 8257SOL    HW225671   6.328   5.023   3.343
 8258SOL     OW25672   3.960   1.475   6.891
 8258SOL    HW125673   4.000   1.552   6.941
 8258SOL    HW225674   3.866   1.498   6.865
 8259SOL     OW25675   3.476   2.054   2.805
 8259SOL    HW125676   3.528   2.075   2.723
 8259SOL    HW225677   3.539   2.047   2.883
 8260SOL     OW25678   3.156   6.555   0.403
 8260SOL    HW125679   3.161   6.460   0.433
 8260SOL    HW225680   3.141   6.614   0.483
 8261SOL     OW25681   5.308   1.104   1.752
 8261SOL    HW125682   5.321   1.085   1.655
 8261SOL    HW225683   5.252   1.031   1.793
 8262SOL     OW25684   1.149   2.895   1.716
 8262SOL    HW125685   1.215   2.906   1.790
 8262SOL    HW225686   1.058   2.878   1.754
 8263SOL     OW25687   6.567   1.646   1.109
 8263SOL    HW125688   6.575   1.688   1.200
 8263SOL    HW225689   6.603   1.553   1.112
 8264SOL     OW25690   1.726   5.231   2.885
 8264SOL    HW125691   1.761   5.324   2.895
 8264SOL    HW225692   1.752   5.177   2.966
 8265SOL     OW25693   1.919   0.681   1.875
 8265SOL    HW125694   1.934   0.686   1.973
 8265SOL    HW225695   1.942   0.769   1.833
 8266SOL     OW25696   3.729   6.601   2.515
 8266SOL    HW125697   3.646   6.654   2.532
 8266SOL    HW225698   3.810   6.659   2.528
 8267SOL     OW25699   1.136   3.269   0.969
 8267SOL    HW125700   1.182   3.357   0.976
 8267SOL    HW225701   1.176   3.205   1.035
 8268SOL     OW25702   2.503   6.456   5.845
 8268SOL    HW125703   2.419   6.499   5.878
 8268SOL    HW225704   2.579   6.482   5.905
 8269SOL     OW25705   5.768   1.880   1.255
 8269SOL    HW125706   5.703   1.945   1.295
 8269SOL    HW225707   5.802   1.819   1.327
 8270SOL     OW25708   3.435   6.273   3.684
 8270SOL    HW125709   3.438   6.347   3.617
 8270SOL    HW225710   3.347   6.226   3.678
 8271SOL     OW25711   6.883   1.421   3.247
 8271SOL    HW125712   6.916   1.327   3.252
 8271SOL    HW225713   6.916   1.464   3.163
 8272SOL     OW25714   3.547   0.913   2.623
 8272SOL    HW125715   3.464   0.969   2.626
 8272SOL    HW225716   3.589   0.911   2.714
 8273SOL     OW25717   2.523   6.960   1.054
 8273SOL    HW125718   2.596   6.989   0.992
 8273SOL    HW225719   2.465   6.893   1.007
 8274SOL     OW25720   4.908   5.212   3.157
 8274SOL    HW125721   4.823   5.253   3.192
 8274SOL    HW225722   4.896   5.191   3.060
 8275SOL     OW25723   5.341   1.737   5.974
 8275SOL    HW125724   5.301   1.762   6.062
 8275SOL    HW225725   5.399   1.812   5.942
 8276SOL     OW25726   1.179   1.898   3.697
 8276SOL    HW125727   1.169   1.843   3.780
 8276SOL    HW225728   1.146   1.846   3.619
 8277SOL     OW25729   0.215   0.255   6.919
 8277SOL    HW125730   0.151   0.249   6.997
 8277SOL    HW225731   0.223   0.350   6.889
 8278SOL     OW25732   2.059   2.392   0.427
 8278SOL    HW125733   2.012   2.457   0.487
 8278SOL    HW225734   2.158   2.402   0.438
 8279SOL     OW25735   0.532   6.567   4.373
 8279SOL    HW125736   0.583   6.487   4.405
 8279SOL    HW225737   0.513   6.558   4.275
 8280SOL     OW25738   3.317   2.591   5.637
 8280SOL    HW125739   3.327   2.561   5.542
 8280SOL    HW225740   3.220   2.606   5.657
 8281SOL     OW25741   6.701   6.684   1.767
 8281SOL    HW125742   6.757   6.629   1.829
 8281SOL    HW225743   6.661   6.761   1.817
 8282SOL     OW25744   5.369   2.452   5.475
 8282SOL    HW125745   5.314   2.369   5.481
 8282SOL    HW225746   5.371   2.484   5.381
 8283SOL     OW25747   1.944   3.935   5.785
 8283SOL    HW125748   1.972   3.906   5.694
 8283SOL    HW225749   1.940   3.855   5.845
 8284SOL     OW25750   6.933   4.541   2.217
 8284SOL    HW125751   6.928   4.450   2.176
 8284SOL    HW225752   6.903   4.609   2.151
 8285SOL     OW25753   3.447   3.271   5.306
 8285SOL    HW125754   3.474   3.360   5.270
 8285SOL    HW225755   3.508   3.245   5.380
 8286SOL     OW25756   6.350   2.035   5.991
 8286SOL    HW125757   6.420   2.010   6.058
 8286SOL    HW225758   6.391   2.091   5.919
 8287SOL     OW25759   1.509   5.494   5.025
 8287SOL    HW125760   1.521   5.426   4.953
 8287SOL    HW225761   1.416   5.531   5.021
 8288SOL     OW25762   2.235   2.833   3.020
 8288SOL    HW125763   2.137   2.817   3.009
 8288SOL    HW225764   2.286   2.754   2.985
 8289SOL     OW25765   0.740   6.767   0.285
 8289SOL    HW125766   0.802   6.787   0.360
 8289SOL    HW225767   0.669   6.837   0.282
 8290SOL     OW25768   5.928   1.866   0.778
 8290SOL    HW125769   5.870   1.795   0.738
 8290SOL    HW225770   5.873   1.948   0.795
 8291SOL     OW25771   4.307   0.063   6.225
 8291SOL    HW125772   4.259   0.069   6.313
 8291SOL    HW225773   4.280   0.139   6.167
 8292SOL     OW25774   3.047   6.512   6.586
 8292SOL    HW125775   3.137   6.545   6.614
 8292SOL    HW225776   2.995   6.484   6.667
 8293SOL     OW25777   4.797   6.101   5.977
 8293SOL    HW125778   4.754   6.069   5.892
 8293SOL    HW225779   4.885   6.144   5.955
 8294SOL     OW25780   5.409   2.515   6.858
 8294SOL    HW125781   5.394   2.606   6.821
 8294SOL    HW225782   5.350   2.450   6.811
 8295SOL     OW25783   5.270   4.239   1.345
 8295SOL    HW125784   5.205   4.311   1.370
 8295SOL    HW225785   5.275   4.231   1.246
 8296SOL     OW25786   1.667   5.410   6.978
 8296SOL    HW125787   1.635   5.445   0.039
 8296SOL    HW225788   1.743   5.346   6.994
 8297SOL     OW25789   6.385   2.324   3.392
 8297SOL    HW125790   6.302   2.309   3.446
 8297SOL    HW225791   6.446   2.387   3.441
 8298SOL     OW25792   5.130   0.952   1.557
 8298SOL    HW125793   5.129   1.041   1.512
 8298SOL    HW225794   5.065   0.951   1.633
 8299SOL     OW25795   6.465   2.149   2.068
 8299SOL    HW125796   6.513   2.141   2.155
 8299SOL    HW225797   6.371   2.178   2.085
 8300SOL     OW25798   0.624   4.330   4.471
 8300SOL    HW125799   0.632   4.411   4.413
 8300SOL    HW225800   0.610   4.358   4.566
 8301SOL     OW25801   4.142   3.128   0.618
 8301SOL    HW125802   4.073   3.093   0.682
 8301SOL    HW225803   4.097   3.168   0.538
 8302SOL     OW25804   5.922   6.029   6.628
 8302SOL    HW125805   5.851   6.078   6.577
 8302SOL    HW225806   5.973   6.093   6.686
 8303SOL     OW25807   0.140   0.084   4.712
 8303SOL    HW125808   0.215   0.095   4.646
 8303SOL    HW225809   0.077   0.161   4.703
 8304SOL     OW25810   0.445   3.633   6.441
 8304SOL    HW125811   0.415   3.683   6.523
 8304SOL    HW225812   0.537   3.597   6.456
 8305SOL     OW25813   3.584   5.221   3.877
 8305SOL    HW125814   3.554   5.307   3.835
 8305SOL    HW225815   3.684   5.219   3.881
 8306SOL     OW25816   0.267   3.009   4.726
 8306SOL    HW125817   0.292   2.913   4.724
 8306SOL    HW225818   0.167   3.018   4.726
 8307SOL     OW25819   3.973   5.590   0.691
 8307SOL    HW125820   4.049   5.624   0.746
 8307SOL    HW225821   3.919   5.526   0.746
 8308SOL     OW25822   3.904   6.591   2.202
 8308SOL    HW125823   3.872   6.685   2.190
 8308SOL    HW225824   3.828   6.533   2.232
 8309SOL     OW25825   5.806   5.925   2.311
 8309SOL    HW125826   5.842   5.852   2.369
 8309SOL    HW225827   5.862   5.932   2.228
 8310SOL     OW25828   6.901   5.045   0.885
 8310SOL    HW125829   6.976   5.032   0.821
 8310SOL    HW225830   6.900   4.970   0.952
 8311SOL     OW25831   6.766   1.289   6.949
 8311SOL    HW125832   6.838   1.219   6.946
 8311SOL    HW225833   6.740   1.306   0.017
 8312SOL     OW25834   5.134   6.634   1.558
 8312SOL    HW125835   5.135   6.544   1.515
 8312SOL    HW225836   5.190   6.632   1.642
 8313SOL     OW25837   3.260   1.706   2.604
 8313SOL    HW125838   3.240   1.623   2.552
 8313SOL    HW225839   3.354   1.703   2.637
 8314SOL     OW25840   6.365   0.108   1.674
 8314SOL    HW125841   6.283   0.158   1.704
 8314SOL    HW225842   6.379   0.123   1.576
 8315SOL     OW25843   4.991   3.144   0.404
 8315SOL    HW125844   4.902   3.158   0.361
 8315SOL    HW225845   4.999   3.049   0.434
 8316SOL     OW25846   1.057   4.307   0.619
 8316SOL    HW125847   1.087   4.242   0.688
 8316SOL    HW225848   1.135   4.338   0.566
 8317SOL     OW25849   2.141   4.485   2.262
 8317SOL    HW125850   2.232   4.458   2.293
 8317SOL    HW225851   2.149   4.544   2.181
 8318SOL     OW25852   4.190   1.543   4.556
 8318SOL    HW125853   4.184   1.495   4.468
 8318SOL    HW225854   4.103   1.587   4.577
 8319SOL     OW25855   3.251   1.113   5.224
 8319SOL    HW125856   3.235   1.065   5.138
 8319SOL    HW225857   3.185   1.081   5.292
 8320SOL     OW25858   2.861   4.732   1.379
 8320SOL    HW125859   2.838   4.817   1.426
 8320SOL    HW225860   2.887   4.752   1.284
 8321SOL     OW25861   1.118   0.306   0.803
 8321SOL    HW125862   1.041   0.304   0.866
 8321SOL    HW225863   1.125   0.219   0.755
 8322SOL     OW25864   0.398   0.533   6.812
 8322SOL    HW125865   0.483   0.494   6.774
 8322SOL    HW225866   0.331   0.544   6.739
 8323SOL     OW25867   0.809   1.521   2.530
 8323SOL    HW125868   0.877   1.502   2.600
 8323SOL    HW225869   0.850   1.577   2.458
 8324SOL     OW25870   5.912   0.142   2.209
 8324SOL    HW125871   5.906   0.072   2.280
 8324SOL    HW225872   5.965   0.108   2.132
 8325SOL     OW25873   3.020   3.169   4.200
 8325SOL    HW125874   2.993   3.258   4.164
 8325SOL    HW225875   3.078   3.122   4.133
 8326SOL     OW25876   4.304   2.794   5.488
 8326SOL    HW125877   4.219   2.830   5.526
 8326SOL    HW225878   4.351   2.866   5.436
 8327SOL     OW25879   5.677   2.147   6.307
 8327SOL    HW125880   5.661   2.239   6.343
 8327SOL    HW225881   5.724   2.154   6.219
 8328SOL     OW25882   2.343   2.350   5.884
 8328SOL    HW125883   2.400   2.432   5.894
 8328SOL    HW225884   2.400   2.269   5.899
 8329SOL     OW25885   6.772   2.665   5.541
 8329SOL    HW125886   6.719   2.716   5.609
 8329SOL    HW225887   6.869   2.666   5.567
 8330SOL     OW25888   1.993   6.445   0.587
 8330SOL    HW125889   2.004   6.494   0.500
 8330SOL    HW225890   2.076   6.395   0.608
 8331SOL     OW25891   2.918   0.378   1.465
 8331SOL    HW125892   2.888   0.312   1.534
 8331SOL    HW225893   2.972   0.330   1.395
 8332SOL     OW25894   4.692   5.505   2.328
 8332SOL    HW125895   4.624   5.533   2.260
 8332SOL    HW225896   4.677   5.409   2.353
 8333SOL     OW25897   0.386   5.936   0.221
 8333SOL    HW125898   0.369   5.935   0.122
 8333SOL    HW225899   0.300   5.953   0.269
 8334SOL     OW25900   6.321   1.916   4.037
 8334SOL    HW125901   6.228   1.949   4.023
 8334SOL    HW225902   6.382   1.957   3.968
 8335SOL     OW25903   6.099   6.083   5.845
 8335SOL    HW125904   6.028   6.152   5.832
 8335SOL    HW225905   6.060   5.992   5.833
 8336SOL     OW25906   0.817   1.393   1.564
 8336SOL    HW125907   0.806   1.490   1.588
 8336SOL    HW225908   0.895   1.383   1.503
 8337SOL     OW25909   0.723   6.378   2.627
 8337SOL    HW125910   0.756   6.410   2.716
 8337SOL    HW225911   0.711   6.279   2.628
 8338SOL     OW25912   1.450   4.650   1.389
 8338SOL    HW125913   1.546   4.672   1.409
 8338SOL    HW225914   1.405   4.621   1.473
 8339SOL     OW25915   5.580   1.919   2.304
 8339SOL    HW125916   5.540   1.834   2.339
 8339SOL    HW225917   5.666   1.898   2.258
 8340SOL     OW25918   4.907   3.824   0.823
 8340SOL    HW125919   4.972   3.748   0.819
 8340SOL    HW225920   4.829   3.804   0.764
 8341SOL     OW25921   2.460   6.167   1.363
 8341SOL    HW125922   2.431   6.257   1.331
 8341SOL    HW225923   2.379   6.109   1.377
 8342SOL     OW25924   4.239   0.952   0.758
 8342SOL    HW125925   4.311   0.894   0.721
 8342SOL    HW225926   4.271   1.047   0.761
 8343SOL     OW25927   1.649   5.393   6.113
 8343SOL    HW125928   1.568   5.400   6.172
 8343SOL    HW225929   1.710   5.470   6.132
 8344SOL     OW25930   4.392   6.477   6.113
 8344SOL    HW125931   4.439   6.394   6.083
 8344SOL    HW225932   4.458   6.551   6.124
 8345SOL     OW25933   6.080   1.459   2.946
 8345SOL    HW125934   6.078   1.432   3.042
 8345SOL    HW225935   5.993   1.435   2.903
 8346SOL     OW25936   2.685   5.404   1.325
 8346SOL    HW125937   2.718   5.397   1.419
 8346SOL    HW225938   2.726   5.331   1.270
 8347SOL     OW25939   3.315   7.020   5.279
 8347SOL    HW125940   3.247   0.053   5.237
 8347SOL    HW225941   3.298   7.015   5.377
 8348SOL     OW25942   0.832   1.078   1.038
 8348SOL    HW125943   0.836   1.059   0.940
 8348SOL    HW225944   0.802   0.996   1.086
 8349SOL     OW25945   5.823   3.739   1.117
 8349SOL    HW125946   5.867   3.758   1.030
 8349SOL    HW225947   5.862   3.798   1.188
 8350SOL     OW25948   6.659   1.322   5.249
 8350SOL    HW125949   6.652   1.223   5.241
 8350SOL    HW225950   6.755   1.349   5.256
 8351SOL     OW25951   3.341   6.176   3.993
 8351SOL    HW125952   3.434   6.215   3.991
 8351SOL    HW225953   3.304   6.183   4.086
 8352SOL     OW25954   6.858   6.324   2.606
 8352SOL    HW125955   6.808   6.382   2.542
 8352SOL    HW225956   6.794   6.264   2.654
 8353SOL     OW25957   6.681   3.510   2.912
 8353SOL    HW125958   6.704   3.438   2.978
 8353SOL    HW225959   6.619   3.473   2.843
 8354SOL     OW25960   2.636   1.370   6.510
 8354SOL    HW125961   2.724   1.392   6.466
 8354SOL    HW225962   2.646   1.379   6.609
 8355SOL     OW25963   3.610   0.161   6.653
 8355SOL    HW125964   3.575   0.173   6.746
 8355SOL    HW225965   3.544   0.199   6.588
 8356SOL     OW25966   1.719   5.917   0.530
 8356SOL    HW125967   1.664   5.968   0.596
 8356SOL    HW225968   1.697   5.819   0.537
 8357SOL     OW25969   4.153   5.827   5.032
 8357SOL    HW125970   4.219   5.752   5.033
 8357SOL    HW225971   4.109   5.834   5.121
 8358SOL     OW25972   2.215   2.889   5.556
 8358SOL    HW125973   2.153   2.862   5.481
 8358SOL    HW225974   2.167   2.952   5.617
 8359SOL     OW25975   4.512   5.411   4.463
 8359SOL    HW125976   4.495   5.384   4.557
 8359SOL    HW225977   4.428   5.399   4.409
 8360SOL     OW25978   5.293   6.551   3.147
 8360SOL    HW125979   5.300   6.492   3.066
 8360SOL    HW225980   5.219   6.517   3.205
 8361SOL     OW25981   1.743   0.972   2.636
 8361SOL    HW125982   1.839   0.960   2.610
 8361SOL    HW225983   1.685   0.939   2.562
 8362SOL     OW25984   2.569   2.383   0.001
 8362SOL    HW125985   2.604   2.291   7.013
 8362SOL    HW225986   2.564   2.402   0.099
 8363SOL     OW25987   0.153   2.914   0.158
 8363SOL    HW125988   0.065   2.875   0.130
 8363SOL    HW225989   0.180   2.876   0.246
 8364SOL     OW25990   6.604   3.401   3.338
 8364SOL    HW125991   6.620   3.497   3.362
 8364SOL    HW225992   6.592   3.346   3.420
 8365SOL     OW25993   1.750   2.834   6.571
 8365SOL    HW125994   1.735   2.748   6.620
 8365SOL    HW225995   1.662   2.870   6.540
 8366SOL     OW25996   3.914   6.185   2.435
 8366SOL    HW125997   3.846   6.168   2.364
 8366SOL    HW225998   3.906   6.280   2.467
 8367SOL     OW25999   5.395   6.111   4.094
 8367SOL    HW126000   5.372   6.018   4.124
 8367SOL    HW226001   5.372   6.175   4.167
 8368SOL     OW26002   2.353   5.264   5.630
 8368SOL    HW126003   2.290   5.315   5.688
 8368SOL    HW226004   2.303   5.194   5.579
 8369SOL     OW26005   2.385   1.481   0.413
 8369SOL    HW126006   2.355   1.403   0.358
 8369SOL    HW226007   2.342   1.476   0.504
 8370SOL     OW26008   1.274   1.602   6.624
 8370SOL    HW126009   1.353   1.608   6.563
 8370SOL    HW226010   1.189   1.607   6.570
 8371SOL     OW26011   1.440   3.133   0.804
 8371SOL    HW126012   1.465   3.162   0.711
 8371SOL    HW226013   1.374   3.057   0.798
 8372SOL     OW26014   6.730   0.930   3.032
 8372SOL    HW126015   6.802   0.952   2.966
 8372SOL    HW226016   6.667   1.007   3.039
 8373SOL     OW26017   1.254   5.568   5.317
 8373SOL    HW126018   1.194   5.491   5.297
 8373SOL    HW226019   1.249   5.589   5.415
 8374SOL     OW26020   6.679   0.298   6.938
 8374SOL    HW126021   6.754   0.364   6.937
 8374SOL    HW226022   6.716   0.205   6.940
 8375SOL     OW26023   3.459   0.288   6.204
 8375SOL    HW126024   3.528   0.360   6.207
 8375SOL    HW226025   3.391   0.308   6.133
 8376SOL     OW26026   2.546   0.714   4.096
 8376SOL    HW126027   2.618   0.761   4.045
 8376SOL    HW226028   2.510   0.639   4.041
 8377SOL     OW26029   5.991   4.547   1.604
 8377SOL    HW126030   5.891   4.544   1.603
 8377SOL    HW226031   6.024   4.511   1.691
 8378SOL     OW26032   4.929   3.370   2.856
 8378SOL    HW126033   4.886   3.449   2.899
 8378SOL    HW226034   4.992   3.327   2.920
 8379SOL     OW26035   6.249   3.352   2.740
 8379SOL    HW126036   6.211   3.353   2.832
 8379SOL    HW226037   6.185   3.308   2.677
 8380SOL     OW26038   4.636   1.546   3.104
 8380SOL    HW126039   4.736   1.547   3.102
 8380SOL    HW226040   4.605   1.465   3.153
 8381SOL     OW26041   1.658   5.384   5.358
 8381SOL    HW126042   1.708   5.355   5.276
 8381SOL    HW226043   1.600   5.462   5.336
 8382SOL     OW26044   1.071   2.878   2.454
 8382SOL    HW126045   1.040   2.861   2.548
 8382SOL    HW226046   1.024   2.817   2.391
 8383SOL     OW26047   2.970   2.630   6.019
 8383SOL    HW126048   2.913   2.698   5.973
 8383SOL    HW226049   3.032   2.677   6.081
 8384SOL     OW26050   6.914   6.970   2.355
 8384SOL    HW126051   6.876   6.892   2.304
 8384SOL    HW226052   6.853   6.992   2.431
 8385SOL     OW26053   5.101   2.403   2.098
 8385SOL    HW126054   5.138   2.491   2.070
 8385SOL    HW226055   5.008   2.415   2.132
 8386SOL     OW26056   0.764   4.054   2.734
 8386SOL    HW126057   0.744   4.076   2.830
 8386SOL    HW226058   0.779   3.955   2.726
 8387SOL     OW26059   0.717   2.644   1.310
 8387SOL    HW126060   0.623   2.671   1.329
 8387SOL    HW226061   0.727   2.545   1.325
 8388SOL     OW26062   2.365   0.372   2.162
 8388SOL    HW126063   2.299   0.297   2.158
 8388SOL    HW226064   2.422   0.371   2.079
 8389SOL     OW26065   5.190   2.975   2.219
 8389SOL    HW126066   5.202   3.072   2.240
 8389SOL    HW226067   5.094   2.950   2.229
 8390SOL     OW26068   5.566   1.735   5.232
 8390SOL    HW126069   5.596   1.821   5.273
 8390SOL    HW226070   5.630   1.662   5.258
 8391SOL     OW26071   6.155   1.240   1.242
 8391SOL    HW126072   6.215   1.263   1.165
 8391SOL    HW226073   6.196   1.275   1.327
 8392SOL     OW26074   5.916   3.226   4.852
 8392SOL    HW126075   5.841   3.211   4.916
 8392SOL    HW226076   5.968   3.142   4.840
 8393SOL     OW26077   5.335   0.401   1.436
 8393SOL    HW126078   5.284   0.483   1.463
 8393SOL    HW226079   5.400   0.425   1.365
 8394SOL     OW26080   5.953   3.957   1.997
 8394SOL    HW126081   5.900   4.032   1.958
 8394SOL    HW226082   6.045   3.989   2.018
 8395SOL     OW26083   2.423   0.845   5.036
 8395SOL    HW126084   2.385   0.755   5.013
 8395SOL    HW226085   2.413   0.907   4.959
 8396SOL     OW26086   4.312   5.625   4.999
 8396SOL    HW126087   4.357   5.661   4.917
 8396SOL    HW226088   4.359   5.543   5.030
 8397SOL     OW26089   6.422   1.141   3.667
 8397SOL    HW126090   6.513   1.113   3.699
 8397SOL    HW226091   6.431   1.189   3.580
 8398SOL     OW26092   5.396   2.260   5.720
 8398SOL    HW126093   5.441   2.252   5.631
 8398SOL    HW226094   5.299   2.282   5.706
 8399SOL     OW26095   7.021   5.541   0.703
 8399SOL    HW126096   6.948   5.548   0.634
 8399SOL    HW226097   6.991   5.480   0.777
 8400SOL     OW26098   1.460   2.440   4.358
 8400SOL    HW126099   1.403   2.390   4.422
 8400SOL    HW226100   1.472   2.535   4.389
 8401SOL     OW26101   3.238   0.347   5.633
 8401SOL    HW126102   3.288   0.433   5.642
 8401SOL    HW226103   3.172   0.339   5.707
 8402SOL     OW26104   3.915   0.956   6.085
 8402SOL    HW126105   3.888   1.017   6.011
 8402SOL    HW226106   3.948   0.869   6.046
 8403SOL     OW26107   6.005   5.294   4.991
 8403SOL    HW126108   6.019   5.199   4.964
 8403SOL    HW226109   6.062   5.353   4.933
 8404SOL     OW26110   2.102   1.708   6.759
 8404SOL    HW126111   2.104   1.790   6.701
 8404SOL    HW226112   2.105   1.735   6.855
 8405SOL     OW26113   4.388   1.517   5.374
 8405SOL    HW126114   4.301   1.484   5.411
 8405SOL    HW226115   4.371   1.563   5.286
 8406SOL     OW26116   4.695   1.021   6.193
 8406SOL    HW126117   4.723   0.950   6.128
 8406SOL    HW226118   4.616   1.070   6.157
 8407SOL     OW26119   3.686   6.682   4.156
 8407SOL    HW126120   3.678   6.699   4.058
 8407SOL    HW226121   3.783   6.688   4.183
 8408SOL     OW26122   4.764   0.806   1.283
 8408SOL    HW126123   4.666   0.825   1.292
 8408SOL    HW226124   4.800   0.773   1.370
 8409SOL     OW26125   4.582   2.415   1.986
 8409SOL    HW126126   4.554   2.453   2.074
 8409SOL    HW226127   4.550   2.475   1.912
 8410SOL     OW26128   6.742   1.617   1.569
 8410SOL    HW126129   6.723   1.602   1.666
 8410SOL    HW226130   6.706   1.706   1.542
 8411SOL     OW26131   1.532   5.419   0.497
 8411SOL    HW126132   1.465   5.381   0.561
 8411SOL    HW226133   1.576   5.499   0.538
 8412SOL     OW26134   3.026   2.507   6.615
 8412SOL    HW126135   2.964   2.581   6.638
 8412SOL    HW226136   3.120   2.543   6.610
 8413SOL     OW26137   4.478   5.336   5.284
 8413SOL    HW126138   4.554   5.289   5.330
 8413SOL    HW226139   4.392   5.291   5.309
 8414SOL     OW26140   1.206   1.204   2.333
 8414SOL    HW126141   1.109   1.227   2.341
 8414SOL    HW226142   1.233   1.151   2.414
 8415SOL     OW26143   2.659   0.536   5.255
 8415SOL    HW126144   2.582   0.515   5.195
 8415SOL    HW226145   2.713   0.453   5.271
 8416SOL     OW26146   6.379   1.618   5.500
 8416SOL    HW126147   6.407   1.541   5.557
 8416SOL    HW226148   6.436   1.622   5.418
 8417SOL     OW26149   1.309   4.141   5.367
 8417SOL    HW126150   1.338   4.210   5.302
 8417SOL    HW226151   1.388   4.108   5.419
 8418SOL     OW26152   1.134   6.421   2.466
 8418SOL    HW126153   1.064   6.349   2.470
 8418SOL    HW226154   1.156   6.450   2.559
 8419SOL     OW26155   5.294   1.047   3.780
 8419SOL    HW126156   5.215   0.987   3.768
 8419SOL    HW226157   5.262   1.142   3.791
 8420SOL     OW26158   3.057   0.012   2.180
 8420SOL    HW126159   3.014   0.087   2.130
 8420SOL    HW226160   3.064   6.959   2.121
 8421SOL     OW26161   4.286   6.188   5.972
 8421SOL    HW126162   4.316   6.165   6.065
 8421SOL    HW226163   4.365   6.185   5.910
 8422SOL     OW26164   4.818   2.535   2.990
 8422SOL    HW126165   4.911   2.525   3.025
 8422SOL    HW226166   4.821   2.584   2.903
 8423SOL     OW26167   5.768   4.642   6.628
 8423SOL    HW126168   5.746   4.553   6.589
 8423SOL    HW226169   5.709   4.712   6.586
 8424SOL     OW26170   2.091   0.068   4.022
 8424SOL    HW126171   2.021   0.033   4.084
 8424SOL    HW226172   2.168   0.102   4.076
 8425SOL     OW26173   3.809   3.020   2.945
 8425SOL    HW126174   3.889   3.058   2.898
 8425SOL    HW226175   3.822   3.027   3.044
 8426SOL     OW26176   3.487   2.848   2.313
 8426SOL    HW126177   3.493   2.779   2.241
 8426SOL    HW226178   3.405   2.903   2.300
 8427SOL     OW26179   3.397   4.012   3.534
 8427SOL    HW126180   3.410   3.931   3.591
 8427SOL    HW226181   3.310   4.055   3.559
 8428SOL     OW26182   0.125   0.229   1.053
 8428SOL    HW126183   0.098   0.318   1.016
 8428SOL    HW226184   0.073   0.209   1.136
 8429SOL     OW26185   1.619   5.477   6.514
 8429SOL    HW126186   1.583   5.480   6.421
 8429SOL    HW226187   1.717   5.498   6.512
 8430SOL     OW26188   4.187   6.455   4.692
 8430SOL    HW126189   4.267   6.399   4.675
 8430SOL    HW226190   4.214   6.539   4.740
 8431SOL     OW26191   3.197   4.162   5.426
 8431SOL    HW126192   3.110   4.201   5.393
 8431SOL    HW226193   3.217   4.079   5.374
 8432SOL     OW26194   6.485   5.553   6.546
 8432SOL    HW126195   6.480   5.550   6.446
 8432SOL    HW226196   6.404   5.509   6.584
 8433SOL     OW26197   5.183   2.498   0.917
 8433SOL    HW126198   5.128   2.534   0.841
 8433SOL    HW226199   5.132   2.425   0.963
 8434SOL     OW26200   2.299   5.259   5.295
 8434SOL    HW126201   2.374   5.194   5.291
 8434SOL    HW226202   2.279   5.293   5.203
 8435SOL     OW26203   4.492   1.168   2.724
 8435SOL    HW126204   4.534   1.136   2.640
 8435SOL    HW226205   4.450   1.091   2.772
 8436SOL     OW26206   2.375   6.627   2.610
 8436SOL    HW126207   2.452   6.565   2.595
 8436SOL    HW226208   2.302   6.579   2.659
 8437SOL     OW26209   2.122   3.908   2.556
 8437SOL    HW126210   2.122   3.849   2.636
 8437SOL    HW226211   2.112   3.853   2.473
 8438SOL     OW26212   1.473   3.990   2.495
 8438SOL    HW126213   1.537   4.023   2.426
 8438SOL    HW226214   1.473   4.053   2.573
 8439SOL     OW26215   5.903   5.857   3.939
 8439SOL    HW126216   5.942   5.776   3.981
 8439SOL    HW226217   5.831   5.831   3.875
 8440SOL     OW26218   1.788   1.085   2.876
 8440SOL    HW126219   1.727   1.148   2.923
 8440SOL    HW226220   1.740   1.046   2.797
 8441SOL     OW26221   6.093   1.288   5.118
 8441SOL    HW126222   6.108   1.266   5.022
 8441SOL    HW226223   6.013   1.347   5.127
 8442SOL     OW26224   3.656   1.411   5.224
 8442SOL    HW126225   3.610   1.422   5.312
 8442SOL    HW226226   3.611   1.468   5.155
 8443SOL     OW26227   1.308   4.038   2.775
 8443SOL    HW126228   1.271   4.122   2.814
 8443SOL    HW226229   1.232   3.976   2.752
 8444SOL     OW26230   5.116   5.349   4.285
 8444SOL    HW126231   5.021   5.332   4.256
 8444SOL    HW226232   5.125   5.327   4.382
 8445SOL     OW26233   4.584   6.194   6.613
 8445SOL    HW126234   4.544   6.276   6.655
 8445SOL    HW226235   4.629   6.219   6.528
 8446SOL     OW26236   0.197   6.057   4.675
 8446SOL    HW126237   0.296   6.046   4.662
 8446SOL    HW226238   0.179   6.102   4.762
 8447SOL     OW26239   3.841   2.059   3.340
 8447SOL    HW126240   3.922   2.113   3.362
 8447SOL    HW226241   3.782   2.111   3.278
 8448SOL     OW26242   4.602   6.618   2.980
 8448SOL    HW126243   4.638   6.533   3.020
 8448SOL    HW226244   4.663   6.694   3.002
 8449SOL     OW26245   1.615   2.595   2.985
 8449SOL    HW126246   1.651   2.594   2.892
 8449SOL    HW226247   1.585   2.503   3.011
 8450SOL     OW26248   6.972   0.896   0.324
 8450SOL    HW126249   6.967   0.960   0.401
 8450SOL    HW226250   6.951   0.944   0.239
 8451SOL     OW26251   4.583   2.108   1.315
 8451SOL    HW126252   4.564   2.105   1.217
 8451SOL    HW226253   4.679   2.133   1.330
 8452SOL     OW26254   5.172   1.691   5.052
 8452SOL    HW126255   5.232   1.770   5.036
 8452SOL    HW226256   5.160   1.678   5.150
 8453SOL     OW26257   0.488   6.075   0.475
 8453SOL    HW126258   0.578   6.102   0.440
 8453SOL    HW226259   0.499   6.033   0.565
 8454SOL     OW26260   0.301   4.181   0.206
 8454SOL    HW126261   0.235   4.237   0.156
 8454SOL    HW226262   0.268   4.086   0.209
 8455SOL     OW26263   0.452   0.713   2.772
 8455SOL    HW126264   0.546   0.695   2.742
 8455SOL    HW226265   0.410   0.780   2.711
 8456SOL     OW26266   6.011   1.126   3.882
 8456SOL    HW126267   5.996   1.104   3.979
 8456SOL    HW226268   5.941   1.081   3.827
 8457SOL     OW26269   6.340   6.406   5.045
 8457SOL    HW126270   6.286   6.488   5.066
 8457SOL    HW226271   6.414   6.430   4.981
 8458SOL     OW26272   0.370   0.144   6.564
 8458SOL    HW126273   0.366   0.089   6.647
 8458SOL    HW226274   0.423   0.227   6.582
 8459SOL     OW26275   1.427   5.677   3.738
 8459SOL    HW126276   1.518   5.690   3.776
 8459SOL    HW226277   1.359   5.682   3.811
 8460SOL     OW26278   3.245   3.939   5.114
 8460SOL    HW126279   3.337   3.963   5.083
 8460SOL    HW226280   3.251   3.883   5.196
 8461SOL     OW26281   6.319   4.344   3.332
 8461SOL    HW126282   6.326   4.371   3.428
 8461SOL    HW226283   6.382   4.398   3.278
 8462SOL     OW26284   2.034   2.868   1.561
 8462SOL    HW126285   1.962   2.902   1.622
 8462SOL    HW226286   2.123   2.895   1.596
 8463SOL     OW26287   5.629   1.012   2.459
 8463SOL    HW126288   5.603   1.015   2.362
 8463SOL    HW226289   5.638   0.917   2.488
 8464SOL     OW26290   6.072   2.513   4.841
 8464SOL    HW126291   6.087   2.430   4.896
 8464SOL    HW226292   6.156   2.536   4.792
 8465SOL     OW26293   1.477   3.044   0.240
 8465SOL    HW126294   1.392   3.010   0.282
 8465SOL    HW226295   1.555   3.020   0.299
 8466SOL     OW26296   0.853   6.059   3.380
 8466SOL    HW126297   0.809   6.148   3.397
 8466SOL    HW226298   0.794   6.003   3.323
 8467SOL     OW26299   2.397   5.478   0.535
 8467SOL    HW126300   2.466   5.412   0.506
 8467SOL    HW226301   2.410   5.499   0.632
 8468SOL     OW26302   4.551   2.065   6.932
 8468SOL    HW126303   4.620   2.138   6.932
 8468SOL    HW226304   4.461   2.104   6.919
 8469SOL     OW26305   3.351   2.795   6.691
 8469SOL    HW126306   3.334   2.697   6.679
 8469SOL    HW226307   3.371   2.813   6.788
 8470SOL     OW26308   2.494   2.567   5.859
 8470SOL    HW126309   2.492   2.606   5.951
 8470SOL    HW226310   2.581   2.521   5.844
 8471SOL     OW26311   3.339   0.689   3.919
 8471SOL    HW126312   3.324   0.788   3.915
 8471SOL    HW226313   3.255   0.645   3.952
 8472SOL     OW26314   1.517   6.156   4.297
 8472SOL    HW126315   1.576   6.231   4.267
 8472SOL    HW226316   1.492   6.170   4.393
 8473SOL     OW26317   6.447   5.085   0.292
 8473SOL    HW126318   6.385   5.129   0.356
 8473SOL    HW226319   6.395   5.041   0.219
 8474SOL     OW26320   3.614   4.044   1.336
 8474SOL    HW126321   3.668   4.073   1.415
 8474SOL    HW226322   3.609   3.945   1.333
 8475SOL     OW26323   5.605   1.365   2.784
 8475SOL    HW126324   5.628   1.408   2.871
 8475SOL    HW226325   5.624   1.267   2.789
 8476SOL     OW26326   4.667   0.734   2.114
 8476SOL    HW126327   4.705   0.670   2.046
 8476SOL    HW226328   4.742   0.773   2.168
 8477SOL     OW26329   3.163   1.224   1.352
 8477SOL    HW126330   3.156   1.144   1.413
 8477SOL    HW226331   3.074   1.269   1.346
 8478SOL     OW26332   1.072   0.014   5.565
 8478SOL    HW126333   1.058   0.100   5.516
 8478SOL    HW226334   1.049   0.028   5.662
 8479SOL     OW26335   5.765   0.919   1.256
 8479SOL    HW126336   5.823   0.955   1.329
 8479SOL    HW226337   5.700   0.854   1.294
 8480SOL     OW26338   2.281   1.561   1.089
 8480SOL    HW126339   2.371   1.603   1.092
 8480SOL    HW226340   2.214   1.626   1.054
 8481SOL     OW26341   3.392   0.371   4.341
 8481SOL    HW126342   3.398   0.445   4.274
 8481SOL    HW226343   3.388   0.410   4.433
 8482SOL     OW26344   1.216   6.832   2.272
 8482SOL    HW126345   1.160   6.755   2.240
 8482SOL    HW226346   1.270   6.868   2.196
 8483SOL     OW26347   4.169   5.496   1.251
 8483SOL    HW126348   4.222   5.458   1.326
 8483SOL    HW226349   4.218   5.573   1.210
 8484SOL     OW26350   0.995   4.655   4.485
 8484SOL    HW126351   0.943   4.632   4.404
 8484SOL    HW226352   0.945   4.722   4.540
 8485SOL     OW26353   2.799   3.566   6.887
 8485SOL    HW126354   2.756   3.626   6.955
 8485SOL    HW226355   2.802   3.473   6.922
 8486SOL     OW26356   4.596   0.826   2.698
 8486SOL    HW126357   4.571   0.819   2.601
 8486SOL    HW226358   4.517   0.861   2.750
 8487SOL     OW26359   4.322   6.839   0.816
 8487SOL    HW126360   4.227   6.853   0.842
 8487SOL    HW226361   4.352   6.913   0.757
 8488SOL     OW26362   4.709   2.848   3.972
 8488SOL    HW126363   4.708   2.791   4.054
 8488SOL    HW226364   4.686   2.942   3.996
 8489SOL     OW26365   4.107   4.713   1.969
 8489SOL    HW126366   4.093   4.733   1.872
 8489SOL    HW226367   4.022   4.731   2.019
 8490SOL     OW26368   4.061   5.351   2.553
 8490SOL    HW126369   3.977   5.325   2.601
 8490SOL    HW226370   4.084   5.446   2.575
 8491SOL     OW26371   2.392   0.609   2.290
 8491SOL    HW126372   2.406   0.523   2.240
 8491SOL    HW226373   2.415   0.596   2.387
 8492SOL     OW26374   6.101   3.285   5.190
 8492SOL    HW126375   6.134   3.333   5.109
 8492SOL    HW226376   6.002   3.296   5.198
 8493SOL     OW26377   3.991   1.980   0.377
 8493SOL    HW126378   3.986   2.010   0.472
 8493SOL    HW226379   4.057   2.036   0.327
 8494SOL     OW26380   4.051   5.824   6.703
 8494SOL    HW126381   4.055   5.890   6.629
 8494SOL    HW226382   4.144   5.806   6.737
 8495SOL     OW26383   0.170   2.928   1.017
 8495SOL    HW126384   0.132   2.836   1.007
 8495SOL    HW226385   0.199   2.941   1.112
 8496SOL     OW26386   0.218   2.712   3.407
 8496SOL    HW126387   0.219   2.618   3.373
 8496SOL    HW226388   0.255   2.715   3.500
 8497SOL     OW26389   5.923   5.923   3.259
 8497SOL    HW126390   5.999   5.860   3.242
 8497SOL    HW226391   5.867   5.888   3.335
 8498SOL     OW26392   0.331   0.681   0.927
 8498SOL    HW126393   0.241   0.652   0.895
 8498SOL    HW226394   0.355   0.769   0.887
 8499SOL     OW26395   3.427   4.268   6.466
 8499SOL    HW126396   3.480   4.287   6.549
 8499SOL    HW226397   3.483   4.289   6.386
 8500SOL     OW26398   3.071   0.519   6.110
 8500SOL    HW126399   3.075   0.423   6.137
 8500SOL    HW226400   3.018   0.571   6.177
 8501SOL     OW26401   1.784   3.827   6.681
 8501SOL    HW126402   1.716   3.879   6.732
 8501SOL    HW226403   1.764   3.833   6.583
 8502SOL     OW26404   6.211   0.312   2.447
 8502SOL    HW126405   6.236   0.292   2.542
 8502SOL    HW226406   6.294   0.311   2.391
 8503SOL     OW26407   2.799   5.366   3.527
 8503SOL    HW126408   2.818   5.304   3.604
 8503SOL    HW226409   2.854   5.339   3.448
 8504SOL     OW26410   1.321   5.269   3.418
 8504SOL    HW126411   1.350   5.275   3.322
 8504SOL    HW226412   1.224   5.292   3.425
 8505SOL     OW26413   4.892   3.370   3.347
 8505SOL    HW126414   4.875   3.439   3.418
 8505SOL    HW226415   4.988   3.373   3.320
 8506SOL     OW26416   1.150   6.247   0.478
 8506SOL    HW126417   1.224   6.310   0.453
 8506SOL    HW226418   1.070   6.265   0.422
 8507SOL     OW26419   1.106   1.055   5.312
 8507SOL    HW126420   1.172   0.996   5.360
 8507SOL    HW226421   1.152   1.137   5.280
 8508SOL     OW26422   0.683   1.968   6.126
 8508SOL    HW126423   0.691   1.947   6.223
 8508SOL    HW226424   0.726   1.895   6.072
 8509SOL     OW26425   6.583   1.568   4.905
 8509SOL    HW126426   6.644   1.490   4.912
 8509SOL    HW226427   6.625   1.648   4.949
 8510SOL     OW26428   5.742   6.758   2.434
 8510SOL    HW126429   5.766   6.761   2.531
 8510SOL    HW226430   5.719   6.664   2.408
 8511SOL     OW26431   6.556   4.582   1.766
 8511SOL    HW126432   6.593   4.600   1.675
 8511SOL    HW226433   6.458   4.599   1.767
 8512SOL     OW26434   4.926   2.803   6.983
 8512SOL    HW126435   4.987   2.755   6.921
 8512SOL    HW226436   4.936   2.767   0.048
 8513SOL     OW26437   0.143   4.272   1.407
 8513SOL    HW126438   0.152   4.354   1.463
 8513SOL    HW226439   0.141   4.191   1.467
 8514SOL     OW26440   2.788   1.978   5.624
 8514SOL    HW126441   2.854   1.984   5.550
 8514SOL    HW226442   2.801   2.056   5.686
 8515SOL     OW26443   1.014   0.461   1.416
 8515SOL    HW126444   1.005   0.471   1.516
 8515SOL    HW226445   1.056   0.373   1.395
 8516SOL     OW26446   5.801   2.307   2.956
 8516SOL    HW126447   5.780   2.209   2.949
 8516SOL    HW226448   5.715   2.359   2.954
 8517SOL     OW26449   1.846   2.531   4.911
 8517SOL    HW126450   1.887   2.461   4.970
 8517SOL    HW226451   1.919   2.582   4.865
 8518SOL     OW26452   5.045   4.386   7.018
 8518SOL    HW126453   5.078   4.480   7.024
 8518SOL    HW226454   5.106   4.334   6.957
 8519SOL     OW26455   1.501   3.801   0.533
 8519SOL    HW126456   1.585   3.754   0.505
 8519SOL    HW226457   1.525   3.881   0.589
 8520SOL     OW26458   4.103   3.607   5.220
 8520SOL    HW126459   4.146   3.571   5.137
 8520SOL    HW226460   4.099   3.535   5.290
 8521SOL     OW26461   2.017   6.088   5.877
 8521SOL    HW126462   2.038   6.052   5.787
 8521SOL    HW226463   1.943   6.036   5.918
 8522SOL     OW26464   1.228   5.900   0.494
 8522SOL    HW126465   1.148   5.863   0.446
 8522SOL    HW226466   1.232   5.999   0.482
 8523SOL     OW26467   2.791   0.689   0.145
 8523SOL    HW126468   2.721   0.714   0.213
 8523SOL    HW226469   2.753   0.697   0.053
 8524SOL     OW26470   1.700   5.626   4.859
 8524SOL    HW126471   1.796   5.641   4.883
 8524SOL    HW226472   1.654   5.577   4.934
 8525SOL     OW26473   0.112   4.894   1.209
 8525SOL    HW126474   0.128   4.992   1.209
 8525SOL    HW226475   0.155   4.853   1.289
 8526SOL     OW26476   2.464   6.236   0.591
 8526SOL    HW126477   2.413   6.278   0.516
 8526SOL    HW226478   2.528   6.304   0.629
 8527SOL     OW26479   3.324   0.387   5.967
 8527SOL    HW126480   3.262   0.448   6.015
 8527SOL    HW226481   3.377   0.439   5.899
 8528SOL     OW26482   4.941   2.512   6.881
 8528SOL    HW126483   4.847   2.527   6.852
 8528SOL    HW226484   5.003   2.558   6.817
 8529SOL     OW26485   1.535   6.359   6.247
 8529SOL    HW126486   1.603   6.320   6.185
 8529SOL    HW226487   1.475   6.420   6.196
 8530SOL     OW26488   3.150   4.088   4.268
 8530SOL    HW126489   3.217   4.129   4.207
 8530SOL    HW226490   3.070   4.148   4.275
 8531SOL     OW26491   6.907   5.614   3.559
 8531SOL    HW126492   6.859   5.634   3.644
 8531SOL    HW226493   6.976   5.684   3.542
 8532SOL     OW26494   2.571   5.716   4.780
 8532SOL    HW126495   2.540   5.651   4.710
 8532SOL    HW226496   2.498   5.780   4.802
 8533SOL     OW26497   1.646   6.215   5.384
 8533SOL    HW126498   1.639   6.246   5.479
 8533SOL    HW226499   1.557   6.181   5.353
 8534SOL     OW26500   3.866   2.115   3.844
 8534SOL    HW126501   3.951   2.111   3.792
 8534SOL    HW226502   3.830   2.022   3.857
 8535SOL     OW26503   5.930   0.898   2.820
 8535SOL    HW126504   5.932   0.941   2.910
 8535SOL    HW226505   6.010   0.838   2.811
 8536SOL     OW26506   0.368   0.939   4.734
 8536SOL    HW126507   0.374   0.841   4.748
 8536SOL    HW226508   0.458   0.981   4.750
 8537SOL     OW26509   6.935   1.252   2.937
 8537SOL    HW126510   6.910   1.318   2.867
 8537SOL    HW226511   6.855   1.232   2.994
 8538SOL     OW26512   1.118   2.611   6.902
 8538SOL    HW126513   1.114   2.643   6.807
 8538SOL    HW226514   1.119   2.690   6.964
 8539SOL     OW26515   6.465   2.201   2.798
 8539SOL    HW126516   6.516   2.265   2.740
 8539SOL    HW226517   6.383   2.171   2.749
 8540SOL     OW26518   4.435   6.871   0.463
 8540SOL    HW126519   4.431   6.792   0.402
 8540SOL    HW226520   4.387   6.948   0.421
 8541SOL     OW26521   2.023   2.454   3.490
 8541SOL    HW126522   2.018   2.357   3.466
 8541SOL    HW226523   2.118   2.479   3.507
 8542SOL     OW26524   4.251   3.932   6.474
 8542SOL    HW126525   4.280   3.990   6.399
 8542SOL    HW226526   4.200   3.986   6.541
 8543SOL     OW26527   2.145   2.701   6.457
 8543SOL    HW126528   2.153   2.638   6.534
 8543SOL    HW226529   2.048   2.724   6.443
 8544SOL     OW26530   5.764   2.564   4.305
 8544SOL    HW126531   5.785   2.533   4.212
 8544SOL    HW226532   5.821   2.515   4.370
 8545SOL     OW26533   5.415   6.674   4.625
 8545SOL    HW126534   5.426   6.680   4.724
 8545SOL    HW226535   5.318   6.680   4.602
 8546SOL     OW26536   4.655   1.795   4.655
 8546SOL    HW126537   4.730   1.830   4.711
 8546SOL    HW226538   4.681   1.704   4.620
 8547SOL     OW26539   1.146   4.079   3.329
 8547SOL    HW126540   1.170   3.983   3.344
 8547SOL    HW226541   1.228   4.136   3.341
 8548SOL     OW26542   5.972   1.315   5.594
 8548SOL    HW126543   6.044   1.329   5.527
 8548SOL    HW226544   6.012   1.280   5.679
 8549SOL     OW26545   6.380   3.005   4.659
 8549SOL    HW126546   6.317   3.077   4.629
 8549SOL    HW226547   6.339   2.954   4.734
 8550SOL     OW26548   0.965   4.635   6.685
 8550SOL    HW126549   0.983   4.572   6.609
 8550SOL    HW226550   1.040   4.631   6.750
 8551SOL     OW26551   3.417   4.277   0.195
 8551SOL    HW126552   3.384   4.216   0.123
 8551SOL    HW226553   3.439   4.223   0.276
 8552SOL     OW26554   2.320   6.542   4.119
 8552SOL    HW126555   2.394   6.608   4.104
 8552SOL    HW226556   2.288   6.508   4.030
 8553SOL     OW26557   5.836   6.836   0.363
 8553SOL    HW126558   5.822   6.743   0.329
 8553SOL    HW226559   5.749   6.886   0.361
 8554SOL     OW26560   6.477   4.012   6.880
 8554SOL    HW126561   6.416   4.090   6.894
 8554SOL    HW226562   6.540   4.031   6.805
 8555SOL     OW26563   1.341   6.730   3.569
 8555SOL    HW126564   1.263   6.792   3.580
 8555SOL    HW226565   1.356   6.713   3.471
 8556SOL     OW26566   6.147   0.677   3.281
 8556SOL    HW126567   6.160   0.774   3.302
 8556SOL    HW226568   6.193   0.655   3.195
 8557SOL     OW26569   0.434   0.382   1.547
 8557SOL    HW126570   0.447   0.478   1.572
 8557SOL    HW226571   0.517   0.347   1.504
 8558SOL     OW26572   1.393   5.044   1.819
 8558SOL    HW126573   1.335   4.983   1.764
 8558SOL    HW226574   1.466   5.080   1.761
 8559SOL     OW26575   1.317   0.449   0.611
 8559SOL    HW126576   1.239   0.397   0.646
 8559SOL    HW226577   1.392   0.387   0.590
 8560SOL     OW26578   6.257   1.800   0.065
 8560SOL    HW126579   6.265   1.722   0.004
 8560SOL    HW226580   6.179   1.856   0.037
 8561SOL     OW26581   4.563   6.508   3.499
 8561SOL    HW126582   4.656   6.486   3.471
 8561SOL    HW226583   4.507   6.426   3.496
 8562SOL     OW26584   3.230   6.514   4.383
 8562SOL    HW126585   3.320   6.509   4.339
 8562SOL    HW226586   3.231   6.587   4.452
 8563SOL     OW26587   2.504   3.135   6.431
 8563SOL    HW126588   2.604   3.141   6.433
 8563SOL    HW226589   2.477   3.052   6.382
 8564SOL     OW26590   1.412   0.082   3.477
 8564SOL    HW126591   1.383   0.044   3.565
 8564SOL    HW226592   1.352   0.158   3.452
 8565SOL     OW26593   3.589   6.723   2.188
 8565SOL    HW126594   3.515   6.664   2.216
 8565SOL    HW226595   3.573   6.816   2.222
 8566SOL     OW26596   1.807   2.613   3.452
 8566SOL    HW126597   1.869   2.538   3.473
 8566SOL    HW226598   1.731   2.579   3.396
 8567SOL     OW26599   5.272   0.721   1.504
 8567SOL    HW126600   5.232   0.813   1.499
 8567SOL    HW226601   5.346   0.721   1.571
 8568SOL     OW26602   5.567   1.093   0.584
 8568SOL    HW126603   5.567   1.082   0.485
 8568SOL    HW226604   5.603   1.010   0.627
 8569SOL     OW26605   3.906   1.561   4.528
 8569SOL    HW126606   3.910   1.661   4.520
 8569SOL    HW226607   3.866   1.522   4.445
 8570SOL     OW26608   6.964   4.250   0.302
 8570SOL    HW126609   0.003   4.264   0.228
 8570SOL    HW226610   6.949   4.337   0.349
 8571SOL     OW26611   6.761   4.049   5.496
 8571SOL    HW126612   6.728   4.075   5.587
 8571SOL    HW226613   6.750   4.126   5.433
 8572SOL     OW26614   2.646   4.991   5.005
 8572SOL    HW126615   2.682   4.957   4.918
 8572SOL    HW226616   2.691   4.942   5.081
 8573SOL     OW26617   3.331   6.232   5.396
 8573SOL    HW126618   3.338   6.137   5.364
 8573SOL    HW226619   3.359   6.237   5.492
 8574SOL     OW26620   0.573   4.035   5.059
 8574SOL    HW126621   0.626   3.960   5.098
 8574SOL    HW226622   0.533   4.090   5.133
 8575SOL     OW26623   3.553   3.043   7.004
 8575SOL    HW126624   3.550   3.075   0.071
 8575SOL    HW226625   3.642   3.001   6.986
 8576SOL     OW26626   1.763   6.978   1.411
 8576SOL    HW126627   1.728   6.986   1.317
 8576SOL    HW226628   1.753   0.038   1.457
 8577SOL     OW26629   6.551   6.086   3.313
 8577SOL    HW126630   6.470   6.098   3.371
 8577SOL    HW226631   6.633   6.093   3.370
 8578SOL     OW26632   4.174   6.783   3.593
 8578SOL    HW126633   4.222   6.841   3.527
 8578SOL    HW226634   4.220   6.694   3.598
 8579SOL     OW26635   1.047   4.745   3.127
 8579SOL    HW126636   1.022   4.787   3.214
 8579SOL    HW226637   1.048   4.645   3.137
 8580SOL     OW26638   2.478   4.616   6.850
 8580SOL    HW126639   2.474   4.517   6.856
 8580SOL    HW226640   2.481   4.643   6.753
 8581SOL     OW26641   3.267   1.965   1.569
 8581SOL    HW126642   3.295   2.044   1.624
 8581SOL    HW226643   3.299   1.881   1.613
 8582SOL     OW26644   4.068   3.686   1.615
 8582SOL    HW126645   4.083   3.719   1.709
 8582SOL    HW226646   4.147   3.709   1.559
 8583SOL     OW26647   6.305   7.017   6.314
 8583SOL    HW126648   6.355   6.987   6.396
 8583SOL    HW226649   6.212   6.981   6.316
 8584SOL     OW26650   6.631   5.674   0.475
 8584SOL    HW126651   6.702   5.604   0.487
 8584SOL    HW226652   6.637   5.711   0.382
 8585SOL     OW26653   0.082   1.431   0.458
 8585SOL    HW126654   0.086   1.405   0.555
 8585SOL    HW226655   0.170   1.468   0.429
 8586SOL     OW26656   3.835   5.613   3.674
 8586SOL    HW126657   3.757   5.599   3.735
 8586SOL    HW226658   3.823   5.698   3.623
 8587SOL     OW26659   0.389   1.483   1.100
 8587SOL    HW126660   0.384   1.438   1.189
 8587SOL    HW226661   0.434   1.572   1.110
 8588SOL     OW26662   4.709   2.564   6.762
 8588SOL    HW126663   4.610   2.567   6.777
 8588SOL    HW226664   4.728   2.537   6.667
 8589SOL     OW26665   3.288   2.054   4.449
 8589SOL    HW126666   3.375   2.050   4.498
 8589SOL    HW226667   3.214   2.027   4.510
 8590SOL     OW26668   6.033   4.824   5.445
 8590SOL    HW126669   5.959   4.801   5.381
 8590SOL    HW226670   6.032   4.922   5.464
 8591SOL     OW26671   0.749   3.393   6.539
 8591SOL    HW126672   0.763   3.419   6.444
 8591SOL    HW226673   0.836   3.367   6.580
 8592SOL     OW26674   6.064   4.960   0.039
 8592SOL    HW126675   5.978   4.909   0.034
 8592SOL    HW226676   6.060   5.023   0.117
 8593SOL     OW26677   1.080   0.530   2.998
 8593SOL    HW126678   1.087   0.436   3.029
 8593SOL    HW226679   1.069   0.531   2.898
 8594SOL     OW26680   3.862   3.728   4.389
 8594SOL    HW126681   3.796   3.680   4.446
 8594SOL    HW226682   3.926   3.662   4.349
 8595SOL     OW26683   1.877   1.961   2.241
 8595SOL    HW126684   1.891   1.875   2.192
 8595SOL    HW226685   1.822   2.023   2.185
 8596SOL     OW26686   6.130   5.565   2.036
 8596SOL    HW126687   6.060   5.498   2.009
 8596SOL    HW226688   6.217   5.540   1.995
 8597SOL     OW26689   2.142   1.494   1.324
 8597SOL    HW126690   2.207   1.498   1.248
 8597SOL    HW226691   2.118   1.587   1.353
 8598SOL     OW26692   5.375   5.068   0.736
 8598SOL    HW126693   5.309   5.028   0.799
 8598SOL    HW226694   5.467   5.063   0.776
 8599SOL     OW26695   1.851   3.124   2.441
 8599SOL    HW126696   1.777   3.121   2.508
 8599SOL    HW226697   1.935   3.155   2.486
 8600SOL     OW26698   6.646   4.131   6.694
 8600SOL    HW126699   6.597   4.218   6.698
 8600SOL    HW226700   6.744   4.148   6.699
 8601SOL     OW26701   0.384   0.094   4.320
 8601SOL    HW126702   0.385   0.194   4.320
 8601SOL    HW226703   0.443   0.061   4.247
 8602SOL     OW26704   3.163   5.638   2.187
 8602SOL    HW126705   3.237   5.688   2.231
 8602SOL    HW226706   3.094   5.702   2.153
 8603SOL     OW26707   3.989   3.308   0.957
 8603SOL    HW126708   3.894   3.332   0.978
 8603SOL    HW226709   3.991   3.231   0.894
 8604SOL     OW26710   5.106   2.978   2.924
 8604SOL    HW126711   5.191   2.924   2.920
 8604SOL    HW226712   5.044   2.936   2.990
 8605SOL     OW26713   2.106   6.422   1.950
 8605SOL    HW126714   2.193   6.453   1.910
 8605SOL    HW226715   2.106   6.440   2.048
 8606SOL     OW26716   3.760   4.637   5.664
 8606SOL    HW126717   3.681   4.672   5.714
 8606SOL    HW226718   3.743   4.644   5.566
 8607SOL     OW26719   4.495   5.807   1.358
 8607SOL    HW126720   4.556   5.734   1.390
 8607SOL    HW226721   4.451   5.850   1.436
 8608SOL     OW26722   4.990   5.992   2.033
 8608SOL    HW126723   4.995   5.907   2.085
 8608SOL    HW226724   4.947   5.976   1.945
 8609SOL     OW26725   3.353   0.805   5.121
 8609SOL    HW126726   3.407   0.726   5.093
 8609SOL    HW226727   3.375   0.829   5.215
 8610SOL     OW26728   0.340   6.422   4.134
 8610SOL    HW126729   0.294   6.498   4.087
 8610SOL    HW226730   0.274   6.372   4.190
 8611SOL     OW26731   1.934   1.789   3.419
 8611SOL    HW126732   1.867   1.861   3.438
 8611SOL    HW226733   1.917   1.710   3.478
 8612SOL     OW26734   4.461   3.003   5.354
 8612SOL    HW126735   4.555   3.032   5.334
 8612SOL    HW226736   4.397   3.072   5.321
 8613SOL     OW26737   1.340   1.376   1.182
 8613SOL    HW126738   1.394   1.317   1.123
 8613SOL    HW226739   1.389   1.392   1.268
 8614SOL     OW26740   0.875   1.820   3.142
 8614SOL    HW126741   0.960   1.822   3.195
 8614SOL    HW226742   0.892   1.857   3.051
 8615SOL     OW26743   4.457   2.501   4.990
 8615SOL    HW126744   4.485   2.571   5.056
 8615SOL    HW226745   4.364   2.471   5.010
 8616SOL     OW26746   1.136   4.323   0.226
 8616SOL    HW126747   1.218   4.338   0.281
 8616SOL    HW226748   1.064   4.385   0.256
 8617SOL     OW26749   5.747   3.036   1.345
 8617SOL    HW126750   5.680   3.058   1.416
 8617SOL    HW226751   5.833   3.081   1.367
 8618SOL     OW26752   4.736   0.494   3.558
 8618SOL    HW126753   4.679   0.458   3.485
 8618SOL    HW226754   4.774   0.418   3.611
 8619SOL     OW26755   4.577   5.451   0.058
 8619SOL    HW126756   4.645   5.419   7.019
 8619SOL    HW226757   4.544   5.542   0.030
 8620SOL     OW26758   6.686   6.418   3.103
 8620SOL    HW126759   6.621   6.466   3.162
 8620SOL    HW226760   6.710   6.476   3.025
 8621SOL     OW26761   5.664   0.702   3.212
 8621SOL    HW126762   5.604   0.630   3.248
 8621SOL    HW226763   5.738   0.660   3.161
 8622SOL     OW26764   5.174   4.937   0.322
 8622SOL    HW126765   5.151   4.978   0.410
 8622SOL    HW226766   5.099   4.877   0.292
 8623SOL     OW26767   6.465   3.498   2.622
 8623SOL    HW126768   6.391   3.437   2.649
 8623SOL    HW226769   6.553   3.450   2.628
 8624SOL     OW26770   0.481   4.264   2.996
 8624SOL    HW126771   0.446   4.183   2.951
 8624SOL    HW226772   0.512   4.330   2.928
 8625SOL     OW26773   3.792   0.374   4.694
 8625SOL    HW126774   3.828   0.386   4.602
 8625SOL    HW226775   3.813   0.454   4.749
 8626SOL     OW26776   2.969   3.779   3.280
 8626SOL    HW126777   3.020   3.806   3.199
 8626SOL    HW226778   2.897   3.715   3.254
 8627SOL     OW26779   2.080   0.197   6.941
 8627SOL    HW126780   2.048   0.170   0.004
 8627SOL    HW226781   2.012   0.171   6.872
 8628SOL     OW26782   5.368   0.902   6.867
 8628SOL    HW126783   5.424   0.970   6.914
 8628SOL    HW226784   5.276   0.901   6.907
 8629SOL     OW26785   1.520   4.136   4.117
 8629SOL    HW126786   1.500   4.039   4.133
 8629SOL    HW226787   1.590   4.166   4.182
 8630SOL     OW26788   5.534   4.527   3.965
 8630SOL    HW126789   5.585   4.562   4.044
 8630SOL    HW226790   5.506   4.603   3.907
 8631SOL     OW26791   3.539   5.753   5.069
 8631SOL    HW126792   3.541   5.656   5.092
 8631SOL    HW226793   3.453   5.794   5.100
 8632SOL     OW26794   4.371   0.230   3.502
 8632SOL    HW126795   4.298   0.290   3.469
 8632SOL    HW226796   4.459   0.267   3.473
 8633SOL     OW26797   6.520   0.976   3.940
 8633SOL    HW126798   6.425   1.000   3.963
 8633SOL    HW226799   6.522   0.883   3.902
 8634SOL     OW26800   6.709   5.294   1.955
 8634SOL    HW126801   6.726   5.377   2.009
 8634SOL    HW226802   6.619   5.300   1.911
 8635SOL     OW26803   5.876   3.829   5.209
 8635SOL    HW126804   5.830   3.865   5.127
 8635SOL    HW226805   5.822   3.754   5.247
 8636SOL     OW26806   6.278   5.657   0.732
 8636SOL    HW126807   6.202   5.717   0.707
 8636SOL    HW226808   6.285   5.583   0.665
 8637SOL     OW26809   2.238   0.877   1.323
 8637SOL    HW126810   2.198   0.909   1.237
 8637SOL    HW226811   2.332   0.910   1.331
 8638SOL     OW26812   3.762   4.605   0.386
 8638SOL    HW126813   3.718   4.693   0.404
 8638SOL    HW226814   3.782   4.560   0.473
 8639SOL     OW26815   6.770   2.927   2.666
 8639SOL    HW126816   6.728   2.926   2.575
 8639SOL    HW226817   6.718   2.867   2.726
 8640SOL     OW26818   5.210   5.627   0.548
 8640SOL    HW126819   5.249   5.709   0.588
 8640SOL    HW226820   5.282   5.572   0.505
 8641SOL     OW26821   6.061   4.615   3.523
 8641SOL    HW126822   5.969   4.647   3.547
 8641SOL    HW226823   6.073   4.521   3.556
 8642SOL     OW26824   4.325   1.236   1.278
 8642SOL    HW126825   4.268   1.214   1.199
 8642SOL    HW226826   4.271   1.291   1.343
 8643SOL     OW26827   4.813   0.628   5.947
 8643SOL    HW126828   4.823   0.727   5.951
 8643SOL    HW226829   4.776   0.601   5.858
 8644SOL     OW26830   6.330   3.264   4.946
 8644SOL    HW126831   6.411   3.317   4.972
 8644SOL    HW226832   6.251   3.326   4.938
 8645SOL     OW26833   6.328   4.715   1.699
 8645SOL    HW126834   6.340   4.814   1.708
 8645SOL    HW226835   6.269   4.696   1.621
 8646SOL     OW26836   5.294   0.726   0.351
 8646SOL    HW126837   5.250   0.748   0.438
 8646SOL    HW226838   5.315   0.628   0.348
 8647SOL     OW26839   4.609   5.278   0.569
 8647SOL    HW126840   4.513   5.268   0.592
 8647SOL    HW226841   4.620   5.351   0.502
 8648SOL     OW26842   5.465   1.579   4.159
 8648SOL    HW126843   5.376   1.624   4.167
 8648SOL    HW226844   5.462   1.515   4.082
 8649SOL     OW26845   6.418   4.295   5.665
 8649SOL    HW126846   6.513   4.286   5.697
 8649SOL    HW226847   6.383   4.205   5.640
 8650SOL     OW26848   2.226   5.009   3.087
 8650SOL    HW126849   2.266   4.950   3.157
 8650SOL    HW226850   2.131   5.030   3.111
 8651SOL     OW26851   3.411   1.494   0.731
 8651SOL    HW126852   3.408   1.506   0.831
 8651SOL    HW226853   3.504   1.471   0.704
 8652SOL     OW26854   1.305   3.496   4.020
 8652SOL    HW126855   1.402   3.515   4.037
 8652SOL    HW226856   1.250   3.537   4.093
 8653SOL     OW26857   6.929   3.362   6.865
 8653SOL    HW126858   6.849   3.403   6.909
 8653SOL    HW226859   6.983   3.434   6.821
 8654SOL     OW26860   0.640   0.209   3.638
 8654SOL    HW126861   0.650   0.151   3.557
 8654SOL    HW226862   0.625   0.303   3.610
 8655SOL     OW26863   6.446   5.855   4.474
 8655SOL    HW126864   6.382   5.931   4.467
 8655SOL    HW226865   6.494   5.859   4.562
 8656SOL     OW26866   5.839   1.746   0.997
 8656SOL    HW126867   5.832   1.777   1.092
 8656SOL    HW226868   5.889   1.814   0.943
 8657SOL     OW26869   3.754   4.168   6.537
 8657SOL    HW126870   3.666   4.188   6.579
 8657SOL    HW226871   3.823   4.231   6.573
 8658SOL     OW26872   6.683   5.072   0.113
 8658SOL    HW126873   6.606   5.106   0.166
 8658SOL    HW226874   6.692   4.973   0.126
 8659SOL     OW26875   5.391   0.597   4.626
 8659SOL    HW126876   5.387   0.510   4.676
 8659SOL    HW226877   5.438   0.583   4.539
 8660SOL     OW26878   5.789   4.065   1.423
 8660SOL    HW126879   5.843   4.009   1.361
 8660SOL    HW226880   5.705   4.094   1.378
 8661SOL     OW26881   0.084   3.961   1.812
 8661SOL    HW126882   7.023   4.004   1.791
 8661SOL    HW226883   0.139   3.953   1.729
 8662SOL     OW26884   0.144   0.024   0.593
 8662SOL    HW126885   0.185   0.047   0.682
 8662SOL    HW226886   0.209   6.999   0.539
 8663SOL     OW26887   2.340   5.548   0.144
 8663SOL    HW126888   2.323   5.631   0.197
 8663SOL    HW226889   2.319   5.566   0.048
 8664SOL     OW26890   4.512   5.719   7.026
 8664SOL    HW126891   4.454   5.752   0.074
 8664SOL    HW226892   4.604   5.758   0.008
 8665SOL     OW26893   5.324   5.160   5.465
 8665SOL    HW126894   5.419   5.133   5.481
 8665SOL    HW226895   5.265   5.080   5.473
 8666SOL     OW26896   4.960   2.660   4.268
 8666SOL    HW126897   4.955   2.759   4.261
 8666SOL    HW226898   4.875   2.619   4.235
 8667SOL     OW26899   4.635   1.530   4.082
 8667SOL    HW126900   4.633   1.629   4.088
 8667SOL    HW226901   4.691   1.493   4.156
 8668SOL     OW26902   3.818   1.849   3.901
 8668SOL    HW126903   3.730   1.817   3.937
 8668SOL    HW226904   3.838   1.802   3.815
 8669SOL     OW26905   4.065   0.535   5.401
 8669SOL    HW126906   3.975   0.575   5.417
 8669SOL    HW226907   4.111   0.583   5.326
 8670SOL     OW26908   3.854   5.441   4.266
 8670SOL    HW126909   3.841   5.513   4.198
 8670SOL    HW226910   3.909   5.476   4.341
 8671SOL     OW26911   5.836   6.892   3.437
 8671SOL    HW126912   5.812   6.847   3.523
 8671SOL    HW226913   5.928   6.864   3.409
 8672SOL     OW26914   3.837   4.927   4.677
 8672SOL    HW126915   3.881   4.848   4.633
 8672SOL    HW226916   3.751   4.947   4.632
 8673SOL     OW26917   5.596   1.973   0.597
 8673SOL    HW126918   5.647   2.007   0.675
 8673SOL    HW226919   5.523   1.912   0.628
 8674SOL     OW26920   0.026   6.975   3.164
 8674SOL    HW126921   0.099   6.935   3.219
 8674SOL    HW226922   0.034   0.047   3.165
 8675SOL     OW26923   2.233   0.755   2.602
 8675SOL    HW126924   2.220   0.657   2.588
 8675SOL    HW226925   2.330   0.778   2.592
 8676SOL     OW26926   4.555   0.093   2.790
 8676SOL    HW126927   4.501   0.013   2.815
 8676SOL    HW226928   4.580   0.144   2.873
 8677SOL     OW26929   2.661   4.425   5.560
 8677SOL    HW126930   2.643   4.327   5.552
 8677SOL    HW226931   2.736   4.440   5.623
 8678SOL     OW26932   0.826   6.549   6.027
 8678SOL    HW126933   0.863   6.622   6.083
 8678SOL    HW226934   0.788   6.478   6.086
 8679SOL     OW26935   6.823   2.585   5.010
 8679SOL    HW126936   6.882   2.511   5.041
 8679SOL    HW226937   6.823   2.659   5.078
 8680SOL     OW26938   1.671   3.334   6.771
 8680SOL    HW126939   1.723   3.420   6.777
 8680SOL    HW226940   1.713   3.274   6.703
 8681SOL     OW26941   3.695   4.178   0.618
 8681SOL    HW126942   3.609   4.219   0.590
 8681SOL    HW226943   3.686   4.079   0.621
 8682SOL     OW26944   2.211   6.218   3.225
 8682SOL    HW126945   2.143   6.173   3.168
 8682SOL    HW226946   2.167   6.293   3.276
 8683SOL     OW26947   0.063   3.110   0.441
 8683SOL    HW126948   0.056   3.209   0.427
 8683SOL    HW226949   0.138   3.091   0.505
 8684SOL     OW26950   6.102   3.269   4.210
 8684SOL    HW126951   6.107   3.172   4.187
 8684SOL    HW226952   6.013   3.288   4.251
 8685SOL     OW26953   0.915   2.213   6.071
 8685SOL    HW126954   0.840   2.253   6.123
 8685SOL    HW226955   0.937   2.271   5.993
 8686SOL     OW26956   6.783   2.018   3.454
 8686SOL    HW126957   6.694   2.014   3.409
 8686SOL    HW226958   6.808   1.926   3.484
 8687SOL     OW26959   3.395   0.212   3.044
 8687SOL    HW126960   3.426   0.306   3.063
 8687SOL    HW226961   3.473   0.157   3.013
 8688SOL     OW26962   2.476   0.363   1.901
 8688SOL    HW126963   2.442   0.285   1.848
 8688SOL    HW226964   2.433   0.447   1.867
 8689SOL     OW26965   4.382   5.772   0.229
 8689SOL    HW126966   4.350   5.716   0.306
 8689SOL    HW226967   4.430   5.852   0.264
 8690SOL     OW26968   0.298   1.110   2.829
 8690SOL    HW126969   0.322   1.188   2.887
 8690SOL    HW226970   0.283   1.140   2.736
 8691SOL     OW26971   5.303   2.157   0.275
 8691SOL    HW126972   5.274   2.156   0.370
 8691SOL    HW226973   5.280   2.070   0.232
 8692SOL     OW26974   2.195   1.719   4.118
 8692SOL    HW126975   2.267   1.754   4.058
 8692SOL    HW226976   2.157   1.635   4.080
 8693SOL     OW26977   5.229   2.203   0.799
 8693SOL    HW126978   5.239   2.137   0.873
 8693SOL    HW226979   5.303   2.270   0.803
 8694SOL     OW26980   5.013   0.150   6.153
 8694SOL    HW126981   4.936   0.162   6.216
 8694SOL    HW226982   5.064   0.236   6.145
 8695SOL     OW26983   4.807   4.777   5.447
 8695SOL    HW126984   4.757   4.697   5.483
 8695SOL    HW226985   4.898   4.780   5.488
 8696SOL     OW26986   2.391   5.826   1.558
 8696SOL    HW126987   2.486   5.793   1.551
 8696SOL    HW226988   2.352   5.833   1.467
 8697SOL     OW26989   6.190   4.351   0.772
 8697SOL    HW126990   6.245   4.268   0.775
 8697SOL    HW226991   6.196   4.399   0.859
 8698SOL     OW26992   5.442   6.015   4.465
 8698SOL    HW126993   5.444   5.947   4.392
 8698SOL    HW226994   5.521   6.075   4.455
 8699SOL     OW26995   1.283   1.893   5.344
 8699SOL    HW126996   1.203   1.914   5.288
 8699SOL    HW226997   1.346   1.970   5.343
 8700SOL     OW26998   3.194   1.175   5.714
 8700SOL    HW126999   3.113   1.118   5.706
 8700SOL    HW227000   3.168   1.268   5.741
 8701SOL     OW27001   0.425   1.844   4.897
 8701SOL    HW127002   0.453   1.888   4.982
 8701SOL    HW227003   0.464   1.753   4.892
 8702SOL     OW27004   5.159   5.547   0.172
 8702SOL    HW127005   5.173   5.448   0.172
 8702SOL    HW227006   5.222   5.590   0.236
 8703SOL     OW27007   2.722   5.800   1.002
 8703SOL    HW127008   2.772   5.886   1.001
 8703SOL    HW227009   2.752   5.744   1.080
 8704SOL     OW27010   0.141   4.818   2.001
 8704SOL    HW127011   0.142   4.898   2.061
 8704SOL    HW227012   0.179   4.739   2.049
 8705SOL     OW27013   4.993   0.424   5.969
 8705SOL    HW127014   4.942   0.506   5.995
 8705SOL    HW227015   5.065   0.406   6.036
 8706SOL     OW27016   5.279   1.889   0.393
 8706SOL    HW127017   5.236   1.865   0.307
 8706SOL    HW227018   5.310   1.805   0.439
 8707SOL     OW27019   5.267   2.846   5.733
 8707SOL    HW127020   5.189   2.907   5.747
 8707SOL    HW227021   5.342   2.897   5.690
 8708SOL     OW27022   4.085   1.255   1.086
 8708SOL    HW127023   3.998   1.229   1.128
 8708SOL    HW227024   4.080   1.350   1.056
 8709SOL     OW27025   6.769   3.921   1.273
 8709SOL    HW127026   6.852   3.965   1.238
 8709SOL    HW227027   6.789   3.877   1.361
 8710SOL     OW27028   1.780   3.239   3.461
 8710SOL    HW127029   1.837   3.231   3.380
 8710SOL    HW227030   1.712   3.165   3.462
 8711SOL     OW27031   6.974   0.878   3.486
 8711SOL    HW127032   6.990   0.966   3.531
 8711SOL    HW227033   6.880   0.849   3.503
 8712SOL     OW27034   3.163   1.752   4.963
 8712SOL    HW127035   3.175   1.659   4.997
 8712SOL    HW227036   3.158   1.815   5.040
 8713SOL     OW27037   6.993   4.128   3.858
 8713SOL    HW127038   6.967   4.049   3.914
 8713SOL    HW227039   0.055   4.162   3.889
 8714SOL     OW27040   1.410   0.890   5.829
 8714SOL    HW127041   1.442   0.931   5.914
 8714SOL    HW227042   1.433   0.950   5.752
 8715SOL     OW27043   6.229   1.943   1.652
 8715SOL    HW127044   6.269   1.855   1.627
 8715SOL    HW227045   6.216   1.998   1.570
 8716SOL     OW27046   1.008   1.548   0.848
 8716SOL    HW127047   0.998   1.640   0.886
 8716SOL    HW227048   1.065   1.492   0.908
 8717SOL     OW27049   3.901   3.715   1.389
 8717SOL    HW127050   3.969   3.698   1.318
 8717SOL    HW227051   3.944   3.709   1.479
 8718SOL     OW27052   6.250   2.889   5.443
 8718SOL    HW127053   6.196   2.950   5.385
 8718SOL    HW227054   6.202   2.802   5.455
 8719SOL     OW27055   0.472   0.161   5.646
 8719SOL    HW127056   0.446   0.101   5.570
 8719SOL    HW227057   0.564   0.136   5.677
 8720SOL     OW27058   5.622   4.115   5.521
 8720SOL    HW127059   5.590   4.096   5.428
 8720SOL    HW227060   5.544   4.111   5.584
 8721SOL     OW27061   0.116   2.616   4.610
 8721SOL    HW127062   0.122   2.676   4.530
 8721SOL    HW227063   0.039   2.644   4.667
 8722SOL     OW27064   3.922   2.621   0.341
 8722SOL    HW127065   3.913   2.525   0.312
 8722SOL    HW227066   3.863   2.637   0.420
 8723SOL     OW27067   6.536   5.425   1.510
 8723SOL    HW127068   6.504   5.518   1.492
 8723SOL    HW227069   6.458   5.362   1.507
 8724SOL     OW27070   5.593   0.466   5.907
 8724SOL    HW127071   5.673   0.521   5.884
 8724SOL    HW227072   5.513   0.501   5.857
 8725SOL     OW27073   2.414   6.142   0.275
 8725SOL    HW127074   2.324   6.098   0.276
 8725SOL    HW227075   2.479   6.084   0.226
 8726SOL     OW27076   6.144   0.250   1.579
 8726SOL    HW127077   6.069   0.316   1.586
 8726SOL    HW227078   6.218   0.290   1.526
 8727SOL     OW27079   6.460   6.360   1.336
 8727SOL    HW127080   6.552   6.372   1.373
 8727SOL    HW227081   6.406   6.442   1.356
 8728SOL     OW27082   2.741   6.730   5.090
 8728SOL    HW127083   2.794   6.759   5.010
 8728SOL    HW227084   2.798   6.738   5.172
 8729SOL     OW27085   5.055   5.757   3.920
 8729SOL    HW127086   5.129   5.699   3.887
 8729SOL    HW227087   5.048   5.838   3.862
 8730SOL     OW27088   0.319   5.968   2.135
 8730SOL    HW127089   0.300   5.882   2.182
 8730SOL    HW227090   0.243   5.990   2.075
 8731SOL     OW27091   1.581   1.396   2.313
 8731SOL    HW127092   1.507   1.368   2.251
 8731SOL    HW227093   1.662   1.420   2.259
 8732SOL     OW27094   5.905   3.780   1.783
 8732SOL    HW127095   5.842   3.790   1.706
 8732SOL    HW227096   5.893   3.855   1.847
 8733SOL     OW27097   1.227   6.332   1.487
 8733SOL    HW127098   1.148   6.393   1.481
 8733SOL    HW227099   1.273   6.346   1.575
 8734SOL     OW27100   6.831   5.815   1.202
 8734SOL    HW127101   6.737   5.817   1.168
 8734SOL    HW227102   6.847   5.893   1.263
 8735SOL     OW27103   0.027   1.939   6.619
 8735SOL    HW127104   6.963   1.938   6.577
 8735SOL    HW227105   0.062   1.846   6.625
 8736SOL     OW27106   0.365   4.820   6.670
 8736SOL    HW127107   0.407   4.768   6.744
 8736SOL    HW227108   0.432   4.882   6.630
 8737SOL     OW27109   3.979   5.489   6.157
 8737SOL    HW127110   3.957   5.464   6.251
 8737SOL    HW227111   3.901   5.537   6.116
 8738SOL     OW27112   1.045   3.694   4.077
 8738SOL    HW127113   1.096   3.662   4.156
 8738SOL    HW227114   0.976   3.761   4.107
 8739SOL     OW27115   0.222   3.193   5.452
 8739SOL    HW127116   0.296   3.127   5.465
 8739SOL    HW227117   0.147   3.170   5.515
 8740SOL     OW27118   2.213   6.627   0.754
 8740SOL    HW127119   2.195   6.531   0.777
 8740SOL    HW227120   2.241   6.634   0.658
 8741SOL     OW27121   1.539   3.397   2.696
 8741SOL    HW127122   1.469   3.468   2.705
 8741SOL    HW227123   1.619   3.422   2.750
 8742SOL     OW27124   4.457   7.023   1.565
 8742SOL    HW127125   4.371   6.977   1.587
 8742SOL    HW227126   4.521   7.013   1.641
 8743SOL     OW27127   2.581   5.025   2.957
 8743SOL    HW127128   2.536   5.109   2.927
 8743SOL    HW227129   2.513   4.963   2.996
 8744SOL     OW27130   4.344   2.182   6.094
 8744SOL    HW127131   4.438   2.210   6.076
 8744SOL    HW227132   4.341   2.126   6.176
 8745SOL     OW27133   6.463   2.261   6.137
 8745SOL    HW127134   6.376   2.309   6.121
 8745SOL    HW227135   6.503   2.294   6.223
 8746SOL     OW27136   5.558   4.928   5.636
 8746SOL    HW127137   5.550   4.876   5.551
 8746SOL    HW227138   5.611   4.876   5.702
 8747SOL     OW27139   1.732   2.129   3.905
 8747SOL    HW127140   1.642   2.128   3.861
 8747SOL    HW227141   1.751   2.040   3.946
 8748SOL     OW27142   1.495   7.020   6.829
 8748SOL    HW127143   1.409   6.969   6.835
 8748SOL    HW227144   1.485   0.081   6.875
 8749SOL     OW27145   3.903   0.527   3.642
 8749SOL    HW127146   3.937   0.563   3.555
 8749SOL    HW227147   3.814   0.567   3.662
 8750SOL     OW27148   1.846   1.380   5.344
 8750SOL    HW127149   1.822   1.473   5.370
 8750SOL    HW227150   1.944   1.374   5.327
 8751SOL     OW27151   1.083   6.962   2.485
 8751SOL    HW127152   1.146   6.912   2.425
 8751SOL    HW227153   1.094   6.929   2.579
 8752SOL     OW27154   1.626   2.155   6.333
 8752SOL    HW127155   1.567   2.159   6.252
 8752SOL    HW227156   1.584   2.206   6.407
 8753SOL     OW27157   4.966   1.605   4.341
 8753SOL    HW127158   5.020   1.679   4.301
 8753SOL    HW227159   5.028   1.536   4.379
 8754SOL     OW27160   1.532   1.825   5.938
 8754SOL    HW127161   1.466   1.884   5.985
 8754SOL    HW227162   1.512   1.729   5.960
 8755SOL     OW27163   1.940   1.687   0.745
 8755SOL    HW127164   1.845   1.717   0.741
 8755SOL    HW227165   1.963   1.664   0.840
 8756SOL     OW27166   2.193   3.222   4.136
 8756SOL    HW127167   2.231   3.131   4.154
 8756SOL    HW227168   2.118   3.214   4.070
 8757SOL     OW27169   4.563   6.353   5.123
 8757SOL    HW127170   4.618   6.270   5.133
 8757SOL    HW227171   4.495   6.340   5.051
 8758SOL     OW27172   6.305   6.808   1.204
 8758SOL    HW127173   6.262   6.838   1.288
 8758SOL    HW227174   6.240   6.756   1.149
 8759SOL     OW27175   4.858   0.729   5.445
 8759SOL    HW127176   4.802   0.677   5.380
 8759SOL    HW227177   4.942   0.759   5.399
 8760SOL     OW27178   1.713   1.878   3.611
 8760SOL    HW127179   1.630   1.921   3.576
 8760SOL    HW227180   1.780   1.949   3.634
 8761SOL     OW27181   4.406   6.775   0.153
 8761SOL    HW127182   4.318   6.819   0.137
 8761SOL    HW227183   4.394   6.697   0.215
 8762SOL     OW27184   1.162   4.568   0.902
 8762SOL    HW127185   1.075   4.563   0.854
 8762SOL    HW227186   1.200   4.476   0.911
 8763SOL     OW27187   0.571   6.796   6.317
 8763SOL    HW127188   0.553   6.765   6.410
 8763SOL    HW227189   0.566   6.895   6.312
 8764SOL     OW27190   4.267   1.956   4.801
 8764SOL    HW127191   4.269   2.054   4.781
 8764SOL    HW227192   4.173   1.924   4.804
 8765SOL     OW27193   5.861   0.313   4.278
 8765SOL    HW127194   5.867   0.409   4.303
 8765SOL    HW227195   5.882   0.303   4.180
 8766SOL     OW27196   2.103   4.643   2.682
 8766SOL    HW127197   2.025   4.705   2.674
 8766SOL    HW227198   2.087   4.562   2.626
 8767SOL     OW27199   4.257   1.073   3.915
 8767SOL    HW127200   4.307   1.045   3.996
 8767SOL    HW227201   4.309   1.143   3.866
 8768SOL     OW27202   1.825   3.091   6.667
 8768SOL    HW127203   1.912   3.102   6.715
 8768SOL    HW227204   1.807   2.993   6.655
 8769SOL     OW27205   1.890   0.097   5.766
 8769SOL    HW127206   1.861   0.166   5.700
 8769SOL    HW227207   1.988   0.105   5.782
 8770SOL     OW27208   5.364   3.071   1.827
 8770SOL    HW127209   5.435   3.122   1.779
 8770SOL    HW227210   5.288   3.133   1.849
 8771SOL     OW27211   0.733   1.637   6.308
 8771SOL    HW127212   0.640   1.606   6.330
 8771SOL    HW227213   0.779   1.567   6.252
 8772SOL     OW27214   5.708   1.292   6.787
 8772SOL    HW127215   5.698   1.195   6.765
 8772SOL    HW227216   5.777   1.302   6.859
 8773SOL     OW27217   2.333   2.860   2.762
 8773SOL    HW127218   2.377   2.777   2.796
 8773SOL    HW227219   2.349   2.935   2.827
 8774SOL     OW27220   1.363   1.004   1.091
 8774SOL    HW127221   1.267   1.019   1.112
 8774SOL    HW227222   1.411   0.976   1.174
 8775SOL     OW27223   6.423   0.105   3.518
 8775SOL    HW127224   6.328   0.090   3.547
 8775SOL    HW227225   6.431   0.086   3.420
 8776SOL     OW27226   3.369   2.923   4.993
 8776SOL    HW127227   3.363   2.933   4.893
 8776SOL    HW227228   3.278   2.928   5.032
 8777SOL     OW27229   6.410   6.112   1.809
 8777SOL    HW127230   6.374   6.025   1.777
 8777SOL    HW227231   6.503   6.125   1.775
 8778SOL     OW27232   0.337   2.132   3.720
 8778SOL    HW127233   0.340   2.045   3.671
 8778SOL    HW227234   0.338   2.114   3.819
 8779SOL     OW27235   0.953   5.133   0.642
 8779SOL    HW127236   1.023   5.065   0.623
 8779SOL    HW227237   0.924   5.126   0.737
 8780SOL     OW27238   1.403   5.593   4.490
 8780SOL    HW127239   1.391   5.686   4.526
 8780SOL    HW227240   1.376   5.591   4.393
 8781SOL     OW27241   0.491   2.029   2.317
 8781SOL    HW127242   0.421   2.086   2.275
 8781SOL    HW227243   0.520   1.958   2.253
 8782SOL     OW27244   4.274   1.234   3.014
 8782SOL    HW127245   4.369   1.258   2.994
 8782SOL    HW227246   4.234   1.187   2.936
 8783SOL     OW27247   5.771   3.443   4.767
 8783SOL    HW127248   5.811   3.351   4.772
 8783SOL    HW227249   5.683   3.437   4.720
 8784SOL     OW27250   5.142   4.740   5.258
 8784SOL    HW127251   5.199   4.782   5.330
 8784SOL    HW227252   5.179   4.765   5.168
 8785SOL     OW27253   6.532   4.781   6.083
 8785SOL    HW127254   6.591   4.794   6.003
 8785SOL    HW227255   6.479   4.697   6.072
 8786SOL     OW27256   1.751   6.813   0.348
 8786SOL    HW127257   1.787   6.773   0.263
 8786SOL    HW227258   1.694   6.892   0.326
 8787SOL     OW27259   1.559   3.838   1.022
 8787SOL    HW127260   1.601   3.896   0.952
 8787SOL    HW227261   1.564   3.884   1.111
 8788SOL     OW27262   1.031   1.428   5.335
 8788SOL    HW127263   1.022   1.442   5.433
 8788SOL    HW227264   1.051   1.515   5.290
 8789SOL     OW27265   6.958   0.233   6.521
 8789SOL    HW127266   7.012   0.165   6.470
 8789SOL    HW227267   6.885   0.187   6.571
 8790SOL     OW27268   5.530   1.611   7.012
 8790SOL    HW127269   5.626   1.613   6.984
 8790SOL    HW227270   5.519   1.669   0.066
 8791SOL     OW27271   5.007   6.852   5.552
 8791SOL    HW127272   4.958   6.815   5.472
 8791SOL    HW227273   4.996   6.951   5.554
 8792SOL     OW27274   4.965   0.073   3.100
 8792SOL    HW127275   4.948   0.149   3.038
 8792SOL    HW227276   4.916   7.019   3.066
 8793SOL     OW27277   1.207   5.902   4.299
 8793SOL    HW127278   1.166   5.983   4.342
 8793SOL    HW227279   1.305   5.901   4.317
 8794SOL     OW27280   1.946   6.495   2.591
 8794SOL    HW127281   2.021   6.504   2.655
 8794SOL    HW227282   1.924   6.398   2.578
 8795SOL     OW27283   2.269   6.173   5.929
 8795SOL    HW127284   2.187   6.124   5.957
 8795SOL    HW227285   2.250   6.227   5.847
 8796SOL     OW27286   5.164   2.107   5.111
 8796SOL    HW127287   5.079   2.114   5.163
 8796SOL    HW227288   5.208   2.019   5.130
 8797SOL     OW27289   0.646   6.942   6.796
 8797SOL    HW127290   0.695   6.880   6.857
 8797SOL    HW227291   0.601   7.013   6.849
 8798SOL     OW27292   4.873   3.702   5.574
 8798SOL    HW127293   4.817   3.751   5.507
 8798SOL    HW227294   4.937   3.643   5.526
 8799SOL     OW27295   2.937   5.120   3.063
 8799SOL    HW127296   2.883   5.086   2.986
 8799SOL    HW227297   3.026   5.153   3.030
 8800SOL     OW27298   4.700   4.497   6.911
 8800SOL    HW127299   4.602   4.514   6.923
 8800SOL    HW227300   4.752   4.579   6.932
 8801SOL     OW27301   2.630   1.032   4.827
 8801SOL    HW127302   2.583   1.032   4.738
 8801SOL    HW227303   2.564   1.046   4.900
 8802SOL     OW27304   2.873   6.390   2.564
 8802SOL    HW127305   2.948   6.447   2.530
 8802SOL    HW227306   2.858   6.410   2.661
 8803SOL     OW27307   3.831   5.842   0.744
 8803SOL    HW127308   3.748   5.861   0.692
 8803SOL    HW227309   3.876   5.760   0.707
 8804SOL     OW27310   4.835   0.538   0.949
 8804SOL    HW127311   4.819   0.492   0.862
 8804SOL    HW227312   4.791   0.628   0.948
 8805SOL     OW27313   0.576   0.482   3.080
 8805SOL    HW127314   0.558   0.389   3.112
 8805SOL    HW227315   0.530   0.547   3.141
 8806SOL     OW27316   1.832   4.932   6.706
 8806SOL    HW127317   1.747   4.908   6.752
 8806SOL    HW227318   1.833   5.031   6.689
 8807SOL     OW27319   1.433   5.939   6.173
 8807SOL    HW127320   1.453   6.018   6.116
 8807SOL    HW227321   1.338   5.911   6.159
 8808SOL     OW27322   5.536   1.583   0.982
 8808SOL    HW127323   5.501   1.523   0.910
 8808SOL    HW227324   5.633   1.600   0.968
 8809SOL     OW27325   5.971   4.283   1.454
 8809SOL    HW127326   6.005   4.279   1.547
 8809SOL    HW227327   5.910   4.205   1.437
 8810SOL     OW27328   3.912   1.532   4.250
 8810SOL    HW127329   3.838   1.486   4.200
 8810SOL    HW227330   3.927   1.623   4.211
 8811SOL     OW27331   1.401   1.343   2.791
 8811SOL    HW127332   1.366   1.257   2.828
 8811SOL    HW227333   1.327   1.411   2.790
 8812SOL     OW27334   2.191   0.976   1.061
 8812SOL    HW127335   2.254   1.032   1.008
 8812SOL    HW227336   2.104   0.969   1.013
 8813SOL     OW27337   1.993   6.147   1.310
 8813SOL    HW127338   1.963   6.131   1.216
 8813SOL    HW227339   1.984   6.244   1.331
 8814SOL     OW27340   6.246   0.929   6.079
 8814SOL    HW127341   6.277   0.834   6.086
 8814SOL    HW227342   6.224   0.964   6.170
 8815SOL     OW27343   0.297   6.139   2.497
 8815SOL    HW127344   0.336   6.162   2.587
 8815SOL    HW227345   0.368   6.146   2.427
 8816SOL     OW27346   1.094   5.788   1.457
 8816SOL    HW127347   1.015   5.761   1.511
 8816SOL    HW227348   1.142   5.862   1.503
 8817SOL     OW27349   1.473   5.027   5.315
 8817SOL    HW127350   1.546   5.053   5.252
 8817SOL    HW227351   1.484   5.076   5.401
 8818SOL     OW27352   0.385   5.452   3.992
 8818SOL    HW127353   0.313   5.383   4.000
 8818SOL    HW227354   0.422   5.451   3.899
 8819SOL     OW27355   4.825   6.540   4.274
 8819SOL    HW127356   4.781   6.452   4.251
 8819SOL    HW227357   4.775   6.584   4.348
 8820SOL     OW27358   1.288   2.312   3.788
 8820SOL    HW127359   1.315   2.384   3.724
 8820SOL    HW227360   1.296   2.346   3.882
 8821SOL     OW27361   2.124   0.738   6.361
 8821SOL    HW127362   2.211   0.706   6.397
 8821SOL    HW227363   2.130   0.746   6.262
 8822SOL     OW27364   0.188   2.263   3.147
 8822SOL    HW127365   0.129   2.213   3.210
 8822SOL    HW227366   0.274   2.214   3.135
 8823SOL     OW27367   2.038   6.025   1.892
 8823SOL    HW127368   2.064   6.057   1.984
 8823SOL    HW227369   2.026   5.926   1.893
 8824SOL     OW27370   3.820   4.249   0.843
 8824SOL    HW127371   3.783   4.252   0.750
 8824SOL    HW227372   3.887   4.176   0.849
 8825SOL     OW27373   0.747   1.663   2.138
 8825SOL    HW127374   0.818   1.648   2.207
 8825SOL    HW227375   0.708   1.575   2.111
 8826SOL     OW27376   5.168   1.672   6.760
 8826SOL    HW127377   5.267   1.658   6.773
 8826SOL    HW227378   5.129   1.714   6.842
 8827SOL     OW27379   1.387   1.908   3.096
 8827SOL    HW127380   1.450   1.891   3.172
 8827SOL    HW227381   1.304   1.854   3.109
 8828SOL     OW27382   2.724   6.702   2.673
 8828SOL    HW127383   2.661   6.779   2.660
 8828SOL    HW227384   2.688   6.622   2.626
 8829SOL     OW27385   0.139   1.907   0.698
 8829SOL    HW127386   0.128   1.919   0.600
 8829SOL    HW227387   0.072   1.965   0.746
 8830SOL     OW27388   0.601   2.200   0.834
 8830SOL    HW127389   0.503   2.208   0.821
 8830SOL    HW227390   0.649   2.238   0.755
 8831SOL     OW27391   6.734   0.635   3.101
 8831SOL    HW127392   6.779   0.721   3.078
 8831SOL    HW227393   6.635   0.650   3.108
 8832SOL     OW27394   6.127   1.031   2.498
 8832SOL    HW127395   6.174   1.013   2.411
 8832SOL    HW227396   6.095   0.945   2.537
 8833SOL     OW27397   2.191   4.510   3.657
 8833SOL    HW127398   2.098   4.491   3.686
 8833SOL    HW227399   2.214   4.452   3.577
 8834SOL     OW27400   5.730   3.900   4.974
 8834SOL    HW127401   5.662   3.876   4.904
 8834SOL    HW227402   5.813   3.933   4.930
 8835SOL     OW27403   0.267   6.871   6.467
 8835SOL    HW127404   0.333   6.928   6.516
 8835SOL    HW227405   0.181   6.869   6.518
 8836SOL     OW27406   4.716   1.436   0.574
 8836SOL    HW127407   4.620   1.449   0.599
 8836SOL    HW227408   4.774   1.474   0.645
 8837SOL     OW27409   0.015   1.209   2.196
 8837SOL    HW127410   0.025   1.110   2.206
 8837SOL    HW227411   0.093   1.254   2.239
 8838SOL     OW27412   2.143   5.583   3.905
 8838SOL    HW127413   2.053   5.546   3.931
 8838SOL    HW227414   2.204   5.507   3.883
 8839SOL     OW27415   6.611   6.977   4.036
 8839SOL    HW127416   6.612   6.914   3.959
 8839SOL    HW227417   6.563   6.936   4.113
 8840SOL     OW27418   5.446   2.566   2.272
 8840SOL    HW127419   5.354   2.572   2.308
 8840SOL    HW227420   5.510   2.545   2.346
 8841SOL     OW27421   1.682   1.791   5.062
 8841SOL    HW127422   1.707   1.870   5.119
 8841SOL    HW227423   1.599   1.813   5.010
 8842SOL     OW27424   2.274   2.908   1.681
 8842SOL    HW127425   2.247   3.004   1.679
 8842SOL    HW227426   2.362   2.897   1.634
 8843SOL     OW27427   0.409   3.305   5.261
 8843SOL    HW127428   0.382   3.269   5.350
 8843SOL    HW227429   0.430   3.229   5.199
 8844SOL     OW27430   6.780   1.401   6.580
 8844SOL    HW127431   6.739   1.324   6.628
 8844SOL    HW227432   6.859   1.434   6.631
 8845SOL     OW27433   5.665   4.590   0.066
 8845SOL    HW127434   5.719   4.536   0.001
 8845SOL    HW227435   5.588   4.535   0.099
 8846SOL     OW27436   1.803   4.879   3.847
 8846SOL    HW127437   1.742   4.808   3.811
 8846SOL    HW227438   1.860   4.840   3.920
 8847SOL     OW27439   3.068   0.486   2.757
 8847SOL    HW127440   3.070   0.503   2.856
 8847SOL    HW227441   3.084   0.571   2.708
 8848SOL     OW27442   1.386   0.454   3.171
 8848SOL    HW127443   1.370   0.415   3.080
 8848SOL    HW227444   1.383   0.554   3.165
 8849SOL     OW27445   3.322   0.263   0.921
 8849SOL    HW127446   3.230   0.268   0.881
 8849SOL    HW227447   3.323   0.311   1.009
 8850SOL     OW27448   3.692   2.871   6.723
 8850SOL    HW127449   3.599   2.903   6.703
 8850SOL    HW227450   3.706   2.870   6.822
 8851SOL     OW27451   1.138   3.149   3.203
 8851SOL    HW127452   1.184   3.120   3.287
 8851SOL    HW227453   1.206   3.165   3.131
 8852SOL     OW27454   0.836   1.736   6.004
 8852SOL    HW127455   0.861   1.800   5.931
 8852SOL    HW227456   0.880   1.648   5.987
 8853SOL     OW27457   4.679   0.938   0.697
 8853SOL    HW127458   4.746   0.864   0.689
 8853SOL    HW227459   4.648   0.965   0.606
 8854SOL     OW27460   0.919   3.114   4.934
 8854SOL    HW127461   1.012   3.078   4.937
 8854SOL    HW227462   0.898   3.161   5.019
 8855SOL     OW27463   5.638   5.406   1.014
 8855SOL    HW127464   5.565   5.339   1.006
 8855SOL    HW227465   5.671   5.408   1.109
 8856SOL     OW27466   0.069   6.196   5.480
 8856SOL    HW127467   0.043   6.293   5.483
 8856SOL    HW227468   7.016   6.141   5.456
 8857SOL     OW27469   6.484   1.608   5.849
 8857SOL    HW127470   6.430   1.636   5.928
 8857SOL    HW227471   6.436   1.535   5.800
 8858SOL     OW27472   6.952   5.612   4.216
 8858SOL    HW127473   6.900   5.556   4.281
 8858SOL    HW227474   0.014   5.635   4.255
 8859SOL     OW27475   1.081   6.883   3.943
 8859SOL    HW127476   0.983   6.885   3.926
 8859SOL    HW227477   1.104   6.950   4.013
 8860SOL     OW27478   0.785   3.526   2.285
 8860SOL    HW127479   0.694   3.510   2.323
 8860SOL    HW227480   0.789   3.490   2.192
 8861SOL     OW27481   4.835   2.584   1.101
 8861SOL    HW127482   4.827   2.682   1.080
 8861SOL    HW227483   4.744   2.546   1.118
 8862SOL     OW27484   4.744   4.591   4.695
 8862SOL    HW127485   4.804   4.576   4.774
 8862SOL    HW227486   4.655   4.549   4.711
 8863SOL     OW27487   2.073   4.113   3.357
 8863SOL    HW127488   2.130   4.119   3.275
 8863SOL    HW227489   2.101   4.033   3.411
 8864SOL     OW27490   6.205   1.796   5.245
 8864SOL    HW127491   6.221   1.699   5.222
 8864SOL    HW227492   6.262   1.821   5.323
 8865SOL     OW27493   2.387   1.503   6.899
 8865SOL    HW127494   2.304   1.483   6.847
 8865SOL    HW227495   2.375   1.589   6.949
 8866SOL     OW27496   5.761   6.270   1.905
 8866SOL    HW127497   5.697   6.205   1.946
 8866SOL    HW227498   5.742   6.280   1.808
 8867SOL     OW27499   6.372   4.164   2.837
 8867SOL    HW127500   6.348   4.261   2.846
 8867SOL    HW227501   6.299   4.116   2.790
 8868SOL     OW27502   0.139   3.301   3.763
 8868SOL    HW127503   0.188   3.246   3.696
 8868SOL    HW227504   0.049   3.262   3.781
 8869SOL     OW27505   3.800   6.753   3.180
 8869SOL    HW127506   3.878   6.775   3.239
 8869SOL    HW227507   3.790   6.824   3.110
 8870SOL     OW27508   1.302   0.871   3.532
 8870SOL    HW127509   1.234   0.915   3.474
 8870SOL    HW227510   1.317   0.926   3.614
 8871SOL     OW27511   6.984   0.970   2.885
 8871SOL    HW127512   6.977   1.069   2.900
 8871SOL    HW227513   0.052   0.941   2.893
 8872SOL     OW27514   6.635   5.160   4.418
 8872SOL    HW127515   6.724   5.158   4.464
 8872SOL    HW227516   6.608   5.066   4.394
 8873SOL     OW27517   2.077   1.246   2.662
 8873SOL    HW127518   2.063   1.150   2.684
 8873SOL    HW227519   2.084   1.257   2.562
 8874SOL     OW27520   3.384   6.332   0.544
 8874SOL    HW127521   3.289   6.303   0.535
 8874SOL    HW227522   3.388   6.432   0.546
 8875SOL     OW27523   6.841   3.359   4.013
 8875SOL    HW127524   6.924   3.320   4.052
 8875SOL    HW227525   6.860   3.450   3.976
 8876SOL     OW27526   4.036   0.668   6.428
 8876SOL    HW127527   4.067   0.734   6.496
 8876SOL    HW227528   3.943   0.690   6.399
 8877SOL     OW27529   1.575   4.253   1.285
 8877SOL    HW127530   1.483   4.291   1.276
 8877SOL    HW227531   1.626   4.270   1.200
 8878SOL     OW27532   5.152   3.894   0.973
 8878SOL    HW127533   5.076   3.892   0.909
 8878SOL    HW227534   5.239   3.893   0.923
 8879SOL     OW27535   5.926   4.986   2.855
 8879SOL    HW127536   5.905   5.038   2.772
 8879SOL    HW227537   6.004   5.029   2.902
 8880SOL     OW27538   4.101   1.071   4.355
 8880SOL    HW127539   4.034   1.050   4.426
 8880SOL    HW227540   4.067   1.144   4.296
 8881SOL     OW27541   4.401   5.094   4.390
 8881SOL    HW127542   4.433   5.041   4.469
 8881SOL    HW227543   4.453   5.067   4.309
 8882SOL     OW27544   4.436   0.267   0.592
 8882SOL    HW127545   4.499   0.322   0.646
 8882SOL    HW227546   4.479   0.242   0.505
 8883SOL     OW27547   6.626   6.079   4.817
 8883SOL    HW127548   6.647   5.988   4.781
 8883SOL    HW227549   6.630   6.146   4.743
 8884SOL     OW27550   5.176   3.496   5.285
 8884SOL    HW127551   5.146   3.516   5.192
 8884SOL    HW227552   5.164   3.399   5.305
 8885SOL     OW27553   6.042   6.126   0.732
 8885SOL    HW127554   6.001   6.211   0.699
 8885SOL    HW227555   6.134   6.117   0.695
 8886SOL     OW27556   4.276   6.135   6.357
 8886SOL    HW127557   4.345   6.085   6.410
 8886SOL    HW227558   4.291   6.233   6.366
 8887SOL     OW27559   4.827   0.769   1.548
 8887SOL    HW127560   4.766   0.753   1.626
 8887SOL    HW227561   4.917   0.732   1.567
 8888SOL     OW27562   2.395   1.851   3.082
 8888SOL    HW127563   2.410   1.799   3.165
 8888SOL    HW227564   2.465   1.828   3.014
 8889SOL     OW27565   1.152   5.889   6.366
 8889SOL    HW127566   1.235   5.838   6.388
 8889SOL    HW227567   1.148   5.972   6.422
 8890SOL     OW27568   0.477   6.508   0.337
 8890SOL    HW127569   0.531   6.453   0.272
 8890SOL    HW227570   0.536   6.538   0.412
 8891SOL     OW27571   6.287   3.831   6.954
 8891SOL    HW127572   6.358   3.887   6.911
 8891SOL    HW227573   6.209   3.888   6.978
 8892SOL     OW27574   3.432   5.241   4.121
 8892SOL    HW127575   3.519   5.212   4.081
 8892SOL    HW227576   3.441   5.244   4.221
 8893SOL     OW27577   1.218   5.028   4.481
 8893SOL    HW127578   1.258   5.048   4.570
 8893SOL    HW227579   1.279   4.968   4.429
 8894SOL     OW27580   4.927   1.793   0.282
 8894SOL    HW127581   4.919   1.823   0.377
 8894SOL    HW227582   4.847   1.740   0.256
 8895SOL     OW27583   6.991   3.699   0.679
 8895SOL    HW127584   6.992   3.788   0.725
 8895SOL    HW227585   0.020   3.705   0.596
 8896SOL     OW27586   0.312   2.731   4.788
 8896SOL    HW127587   0.232   2.677   4.761
 8896SOL    HW227588   0.395   2.686   4.756
 8897SOL     OW27589   1.960   4.144   3.955
 8897SOL    HW127590   1.971   4.199   3.873
 8897SOL    HW227591   1.889   4.075   3.940
 8898SOL     OW27592   4.443   4.631   2.617
 8898SOL    HW127593   4.471   4.593   2.705
 8898SOL    HW227594   4.433   4.730   2.625
 8899SOL     OW27595   1.100   3.569   4.758
 8899SOL    HW127596   1.015   3.593   4.803
 8899SOL    HW227597   1.081   3.530   4.668
 8900SOL     OW27598   4.860   2.528   3.673
 8900SOL    HW127599   4.938   2.509   3.612
 8900SOL    HW227600   4.795   2.589   3.627
 8901SOL     OW27601   1.757   3.509   4.701
 8901SOL    HW127602   1.800   3.518   4.611
 8901SOL    HW227603   1.658   3.498   4.690
 8902SOL     OW27604   0.439   4.743   0.494
 8902SOL    HW127605   0.463   4.836   0.521
 8902SOL    HW227606   0.435   4.685   0.575
 8903SOL     OW27607   1.175   6.422   5.326
 8903SOL    HW127608   1.144   6.512   5.358
 8903SOL    HW227609   1.117   6.351   5.365
 8904SOL     OW27610   0.400   0.679   3.199
 8904SOL    HW127611   0.314   0.723   3.226
 8904SOL    HW227612   0.473   0.747   3.198
 8905SOL     OW27613   1.268   3.604   2.331
 8905SOL    HW127614   1.348   3.616   2.272
 8905SOL    HW227615   1.273   3.667   2.409
 8906SOL     OW27616   6.153   0.502   0.317
 8906SOL    HW127617   6.097   0.427   0.352
 8906SOL    HW227618   6.249   0.474   0.317
 8907SOL     OW27619   2.966   3.587   5.280
 8907SOL    HW127620   2.997   3.642   5.202
 8907SOL    HW227621   3.006   3.496   5.275
 8908SOL     OW27622   1.296   5.032   6.954
 8908SOL    HW127623   1.275   5.016   6.857
 8908SOL    HW227624   1.286   5.129   6.975
 8909SOL     OW27625   2.322   6.667   0.513
 8909SOL    HW127626   2.324   6.575   0.472
 8909SOL    HW227627   2.395   6.723   0.475
 8910SOL     OW27628   2.312   0.482   3.650
 8910SOL    HW127629   2.362   0.398   3.671
 8910SOL    HW227630   2.302   0.492   3.551
 8911SOL     OW27631   4.437   2.501   3.932
 8911SOL    HW127632   4.487   2.580   3.897
 8911SOL    HW227633   4.471   2.417   3.889
 8912SOL     OW27634   3.701   3.665   4.601
 8912SOL    HW127635   3.728   3.628   4.689
 8912SOL    HW227636   3.604   3.690   4.604
 8913SOL     OW27637   5.313   6.627   6.737
 8913SOL    HW127638   5.248   6.552   6.728
 8913SOL    HW227639   5.281   6.706   6.683
 8914SOL     OW27640   4.292   5.213   6.590
 8914SOL    HW127641   4.278   5.312   6.588
 8914SOL    HW227642   4.369   5.189   6.532
 8915SOL     OW27643   1.439   1.260   3.667
 8915SOL    HW127644   1.462   1.357   3.674
 8915SOL    HW227645   1.479   1.222   3.583
 8916SOL     OW27646   4.428   1.452   0.428
 8916SOL    HW127647   4.460   1.360   0.409
 8916SOL    HW227648   4.329   1.450   0.446
 8917SOL     OW27649   5.755   1.665   0.684
 8917SOL    HW127650   5.778   1.606   0.606
 8917SOL    HW227651   5.656   1.675   0.691
 8918SOL     OW27652   1.160   3.521   2.919
 8918SOL    HW127653   1.152   3.517   3.018
 8918SOL    HW227654   1.101   3.452   2.877
 8919SOL     OW27655   6.505   3.653   1.286
 8919SOL    HW127656   6.567   3.645   1.365
 8919SOL    HW227657   6.543   3.602   1.209
 8920SOL     OW27658   6.289   1.609   6.830
 8920SOL    HW127659   6.375   1.558   6.827
 8920SOL    HW227660   6.306   1.705   6.805
 8921SOL     OW27661   2.068   2.982   2.040
 8921SOL    HW127662   2.078   3.022   2.131
 8921SOL    HW227663   2.140   2.915   2.025
 8922SOL     OW27664   3.795   6.563   3.753
 8922SOL    HW127665   3.782   6.630   3.825
 8922SOL    HW227666   3.811   6.610   3.666
 8923SOL     OW27667   2.183   2.492   4.630
 8923SOL    HW127668   2.125   2.551   4.687
 8923SOL    HW227669   2.200   2.406   4.677
 8924SOL     OW27670   5.475   5.411   5.030
 8924SOL    HW127671   5.470   5.425   5.128
 8924SOL    HW227672   5.394   5.453   4.986
 8925SOL     OW27673   1.373   6.555   3.053
 8925SOL    HW127674   1.383   6.456   3.060
 8925SOL    HW227675   1.280   6.578   3.025
 8926SOL     OW27676   5.519   2.367   6.461
 8926SOL    HW127677   5.468   2.452   6.474
 8926SOL    HW227678   5.456   2.289   6.468
 8927SOL     OW27679   1.241   1.259   5.782
 8927SOL    HW127680   1.158   1.207   5.760
 8927SOL    HW227681   1.227   1.309   5.868
 8928SOL     OW27682   1.424   6.599   5.348
 8928SOL    HW127683   1.501   6.567   5.403
 8928SOL    HW227684   1.377   6.520   5.307
 8929SOL     OW27685   6.818   3.074   4.644
 8929SOL    HW127686   6.784   2.993   4.595
 8929SOL    HW227687   6.741   3.125   4.681
 8930SOL     OW27688   2.245   4.369   3.446
 8930SOL    HW127689   2.291   4.303   3.386
 8930SOL    HW227690   2.158   4.396   3.405
 8931SOL     OW27691   3.900   2.364   1.324
 8931SOL    HW127692   3.843   2.382   1.404
 8931SOL    HW227693   3.973   2.301   1.348
 8932SOL     OW27694   0.002   3.135   3.383
 8932SOL    HW127695   0.076   3.199   3.365
 8932SOL    HW227696   6.976   3.166   3.461
 8933SOL     OW27697   3.625   1.677   5.594
 8933SOL    HW127698   3.587   1.737   5.664
 8933SOL    HW227699   3.724   1.689   5.590
 8934SOL     OW27700   3.491   5.815   3.200
 8934SOL    HW127701   3.418   5.851   3.142
 8934SOL    HW227702   3.517   5.884   3.268
 8935SOL     OW27703   0.325   4.514   1.216
 8935SOL    HW127704   0.402   4.478   1.269
 8935SOL    HW227705   0.277   4.583   1.269
 8936SOL     OW27706   1.885   2.264   0.596
 8936SOL    HW127707   1.919   2.250   0.688
 8936SOL    HW227708   1.955   2.310   0.540
 8937SOL     OW27709   0.761   5.849   5.518
 8937SOL    HW127710   0.734   5.849   5.422
 8937SOL    HW227711   0.761   5.943   5.552
 8938SOL     OW27712   5.809   5.341   1.236
 8938SOL    HW127713   5.778   5.363   1.329
 8938SOL    HW227714   5.879   5.407   1.208
 8939SOL     OW27715   5.192   2.129   4.454
 8939SOL    HW127716   5.253   2.139   4.375
 8939SOL    HW227717   5.099   2.153   4.427
 8940SOL     OW27718   5.315   0.484   3.076
 8940SOL    HW127719   5.380   0.491   3.152
 8940SOL    HW227720   5.275   0.392   3.075
 8941SOL     OW27721   5.459   2.304   5.967
 8941SOL    HW127722   5.441   2.279   5.872
 8941SOL    HW227723   5.480   2.222   6.020
 8942SOL     OW27724   0.465   2.298   5.634
 8942SOL    HW127725   0.457   2.323   5.538
 8942SOL    HW227726   0.560   2.312   5.664
 8943SOL     OW27727   5.268   4.154   1.064
 8943SOL    HW127728   5.323   4.152   0.981
 8943SOL    HW227729   5.194   4.087   1.056
 8944SOL     OW27730   4.348   5.604   0.518
 8944SOL    HW127731   4.287   5.626   0.594
 8944SOL    HW227732   4.331   5.510   0.487
 8945SOL     OW27733   2.079   1.195   4.315
 8945SOL    HW127734   2.142   1.253   4.264
 8945SOL    HW227735   2.008   1.161   4.254
 8946SOL     OW27736   3.681   1.790   4.259
 8946SOL    HW127737   3.771   1.785   4.215
 8946SOL    HW227738   3.610   1.790   4.188
 8947SOL     OW27739   4.433   4.110   5.481
 8947SOL    HW127740   4.378   4.035   5.517
 8947SOL    HW227741   4.391   4.144   5.396
 8948SOL     OW27742   6.472   5.486   3.142
 8948SOL    HW127743   6.508   5.493   3.235
 8948SOL    HW227744   6.373   5.501   3.143
 8949SOL     OW27745   1.894   6.118   0.113
 8949SOL    HW127746   1.847   6.043   0.160
 8949SOL    HW227747   1.993   6.104   0.119
 8950SOL     OW27748   4.620   2.685   4.191
 8950SOL    HW127749   4.554   2.615   4.167
 8950SOL    HW227750   4.611   2.707   4.289
 8951SOL     OW27751   1.802   2.431   5.595
 8951SOL    HW127752   1.863   2.509   5.581
 8951SOL    HW227753   1.761   2.436   5.686
 8952SOL     OW27754   6.731   0.856   2.504
 8952SOL    HW127755   6.801   0.925   2.521
 8952SOL    HW227756   6.641   0.894   2.522
 8953SOL     OW27757   1.156   3.486   6.953
 8953SOL    HW127758   1.251   3.516   6.945
 8953SOL    HW227759   1.140   3.448   0.017
 8954SOL     OW27760   1.931   5.993   6.279
 8954SOL    HW127761   1.835   5.978   6.302
 8954SOL    HW227762   1.986   5.918   6.316
 8955SOL     OW27763   6.645   4.131   3.509
 8955SOL    HW127764   6.622   4.065   3.580
 8955SOL    HW227765   6.581   4.121   3.433
 8956SOL     OW27766   1.239   0.718   5.950
 8956SOL    HW127767   1.296   0.635   5.953
 8956SOL    HW227768   1.281   0.784   5.888
 8957SOL     OW27769   3.142   4.837   2.264
 8957SOL    HW127770   3.082   4.914   2.286
 8957SOL    HW227771   3.218   4.870   2.207
 8958SOL     OW27772   1.989   6.641   4.439
 8958SOL    HW127773   1.957   6.579   4.510
 8958SOL    HW227774   2.003   6.589   4.354
 8959SOL     OW27775   1.928   4.716   0.405
 8959SOL    HW127776   1.843   4.683   0.447
 8959SOL    HW227777   1.989   4.639   0.388
 8960SOL     OW27778   3.676   5.572   1.044
 8960SOL    HW127779   3.661   5.671   1.043
 8960SOL    HW227780   3.742   5.550   1.116
 8961SOL     OW27781   0.825   1.831   3.550
 8961SOL    HW127782   0.817   1.914   3.495
 8961SOL    HW227783   0.856   1.756   3.491
 8962SOL     OW27784   5.732   0.324   3.405
 8962SOL    HW127785   5.730   0.250   3.472
 8962SOL    HW227786   5.797   0.394   3.434
 8963SOL     OW27787   5.974   1.012   4.217
 8963SOL    HW127788   6.034   0.932   4.218
 8963SOL    HW227789   5.880   0.983   4.197
 8964SOL     OW27790   5.540   5.102   2.610
 8964SOL    HW127791   5.489   5.174   2.564
 8964SOL    HW227792   5.636   5.106   2.583
 8965SOL     OW27793   1.557   5.165   1.631
 8965SOL    HW127794   1.554   5.265   1.630
 8965SOL    HW227795   1.592   5.131   1.544
 8966SOL     OW27796   2.511   2.887   5.746
 8966SOL    HW127797   2.461   2.942   5.680
 8966SOL    HW227798   2.569   2.945   5.802
 8967SOL     OW27799   4.283   0.191   0.001
 8967SOL    HW127800   4.339   0.154   0.076
 8967SOL    HW227801   4.194   0.146   0.000
 8968SOL     OW27802   4.595   5.615   1.556
 8968SOL    HW127803   4.611   5.678   1.631
 8968SOL    HW227804   4.678   5.562   1.538
 8969SOL     OW27805   6.341   0.817   4.314
 8969SOL    HW127806   6.415   0.837   4.251
 8969SOL    HW227807   6.379   0.789   4.402
 8970SOL     OW27808   3.674   1.898   1.809
 8970SOL    HW127809   3.747   1.937   1.864
 8970SOL    HW227810   3.598   1.963   1.804
 8971SOL     OW27811   4.213   5.587   2.246
 8971SOL    HW127812   4.130   5.546   2.209
 8971SOL    HW227813   4.199   5.685   2.258
 8972SOL     OW27814   5.613   0.398   5.052
 8972SOL    HW127815   5.545   0.457   5.095
 8972SOL    HW227816   5.661   0.450   4.981
 8973SOL     OW27817   1.468   5.086   0.137
 8973SOL    HW127818   1.425   5.016   0.080
 8973SOL    HW227819   1.561   5.102   0.106
 8974SOL     OW27820   0.631   3.574   4.826
 8974SOL    HW127821   0.580   3.652   4.789
 8974SOL    HW227822   0.579   3.490   4.809
 8975SOL     OW27823   2.958   0.036   0.567
 8975SOL    HW127824   2.908   0.122   0.557
 8975SOL    HW227825   2.957   7.014   0.480
 8976SOL     OW27826   1.127   5.567   4.089
 8976SOL    HW127827   1.113   5.469   4.075
 8976SOL    HW227828   1.129   5.614   4.001
 8977SOL     OW27829   6.259   1.404   6.020
 8977SOL    HW127830   6.260   1.426   5.923
 8977SOL    HW227831   6.241   1.486   6.073
 8978SOL     OW27832   6.113   6.880   0.679
 8978SOL    HW127833   6.151   6.946   0.744
 8978SOL    HW227834   6.055   6.815   0.727
 8979SOL     OW27835   1.916   4.055   4.838
 8979SOL    HW127836   1.854   4.108   4.896
 8979SOL    HW227837   1.935   4.105   4.754
 8980SOL     OW27838   3.606   2.943   4.385
 8980SOL    HW127839   3.573   2.915   4.475
 8980SOL    HW227840   3.704   2.963   4.391
 8981SOL     OW27841   3.887   1.890   5.249
 8981SOL    HW127842   3.863   1.793   5.250
 8981SOL    HW227843   3.935   1.913   5.334
 8982SOL     OW27844   2.855   4.367   0.858
 8982SOL    HW127845   2.785   4.383   0.928
 8982SOL    HW227846   2.812   4.367   0.767
 8983SOL     OW27847   4.500   5.258   0.243
 8983SOL    HW127848   4.444   5.182   0.211
 8983SOL    HW227849   4.528   5.314   0.166
 8984SOL     OW27850   1.563   5.737   3.104
 8984SOL    HW127851   1.611   5.822   3.123
 8984SOL    HW227852   1.479   5.757   3.053
 8985SOL     OW27853   4.114   3.023   6.513
 8985SOL    HW127854   4.152   2.948   6.568
 8985SOL    HW227855   4.183   3.057   6.450
 8986SOL     OW27856   3.762   5.376   2.952
 8986SOL    HW127857   3.801   5.428   2.876
 8986SOL    HW227858   3.686   5.320   2.919
 8987SOL     OW27859   5.546   6.322   2.139
 8987SOL    HW127860   5.561   6.229   2.172
 8987SOL    HW227861   5.448   6.339   2.131
 8988SOL     OW27862   0.780   5.293   4.522
 8988SOL    HW127863   0.814   5.234   4.595
 8988SOL    HW227864   0.784   5.388   4.551
 8989SOL     OW27865   3.831   2.967   6.510
 8989SOL    HW127866   3.931   2.966   6.509
 8989SOL    HW227867   3.798   2.961   6.604
 8990SOL     OW27868   6.829   5.364   3.640
 8990SOL    HW127869   6.739   5.349   3.598
 8990SOL    HW227870   6.835   5.459   3.670
 8991SOL     OW27871   1.390   2.334   5.318
 8991SOL    HW127872   1.468   2.393   5.296
 8991SOL    HW227873   1.393   2.254   5.258
 8992SOL     OW27874   6.071   1.956   6.511
 8992SOL    HW127875   5.979   1.980   6.543
 8992SOL    HW227876   6.138   2.017   6.552
 8993SOL     OW27877   4.858   2.395   6.285
 8993SOL    HW127878   4.785   2.396   6.217
 8993SOL    HW227879   4.941   2.435   6.246
 8994SOL     OW27880   1.635   5.241   4.220
 8994SOL    HW127881   1.618   5.178   4.144
 8994SOL    HW227882   1.683   5.323   4.187
 8995SOL     OW27883   6.892   1.616   1.028
 8995SOL    HW127884   6.985   1.609   0.994
 8995SOL    HW227885   6.857   1.709   1.013
 8996SOL     OW27886   4.800   4.766   6.085
 8996SOL    HW127887   4.777   4.793   5.992
 8996SOL    HW227888   4.883   4.709   6.084
 8997SOL     OW27889   4.896   1.285   4.726
 8997SOL    HW127890   4.995   1.280   4.716
 8997SOL    HW227891   4.852   1.227   4.657
 8998SOL     OW27892   6.333   3.727   4.499
 8998SOL    HW127893   6.360   3.725   4.403
 8998SOL    HW227894   6.314   3.822   4.527
 8999SOL     OW27895   4.610   6.764   5.950
 8999SOL    HW127896   4.575   6.776   6.043
 8999SOL    HW227897   4.694   6.817   5.939
 9000SOL     OW27898   1.936   4.019   1.719
 9000SOL    HW127899   1.965   4.073   1.799
 9000SOL    HW227900   1.953   4.072   1.636
 9001SOL     OW27901   0.558   4.979   2.152
 9001SOL    HW127902   0.596   4.968   2.244
 9001SOL    HW227903   0.601   4.912   2.090
 9002SOL     OW27904   1.294   4.426   6.571
 9002SOL    HW127905   1.341   4.491   6.511
 9002SOL    HW227906   1.244   4.476   6.642
 9003SOL     OW27907   5.847   1.330   1.584
 9003SOL    HW127908   5.850   1.257   1.653
 9003SOL    HW227909   5.759   1.378   1.591
 9004SOL     OW27910   4.284   4.529   0.559
 9004SOL    HW127911   4.314   4.559   0.468
 9004SOL    HW227912   4.293   4.604   0.624
 9005SOL     OW27913   5.906   0.982   5.595
 9005SOL    HW127914   5.878   1.063   5.543
 9005SOL    HW227915   5.909   1.004   5.692
 9006SOL     OW27916   3.405   6.587   0.635
 9006SOL    HW127917   3.505   6.587   0.634
 9006SOL    HW227918   3.372   6.659   0.696
 9007SOL     OW27919   2.465   1.281   2.950
 9007SOL    HW127920   2.547   1.324   2.912
 9007SOL    HW227921   2.405   1.352   2.988
 9008SOL     OW27922   0.421   5.678   2.902
 9008SOL    HW127923   0.348   5.646   2.842
 9008SOL    HW227924   0.458   5.600   2.953
 9009SOL     OW27925   4.093   5.454   0.287
 9009SOL    HW127926   4.077   5.533   0.347
 9009SOL    HW227927   4.127   5.485   0.199
 9010SOL     OW27928   1.789   6.605   4.129
 9010SOL    HW127929   1.732   6.524   4.138
 9010SOL    HW227930   1.885   6.580   4.140
 9011SOL     OW27931   3.980   0.913   2.793
 9011SOL    HW127932   3.908   0.977   2.819
 9011SOL    HW227933   4.013   0.864   2.874
 9012SOL     OW27934   1.658   5.924   7.011
 9012SOL    HW127935   1.572   5.968   6.986
 9012SOL    HW227936   1.664   5.919   0.084
 9013SOL     OW27937   1.599   6.413   4.080
 9013SOL    HW127938   1.667   6.347   4.049
 9013SOL    HW227939   1.511   6.395   4.034
 9014SOL     OW27940   5.777   2.143   2.564
 9014SOL    HW127941   5.837   2.117   2.640
 9014SOL    HW227942   5.831   2.155   2.481
 9015SOL     OW27943   5.316   1.940   0.708
 9015SOL    HW127944   5.289   1.983   0.794
 9015SOL    HW227945   5.263   1.981   0.633
 9016SOL     OW27946   5.353   5.543   6.121
 9016SOL    HW127947   5.278   5.523   6.058
 9016SOL    HW227948   5.413   5.612   6.080
 9017SOL     OW27949   3.435   0.271   4.913
 9017SOL    HW127950   3.418   0.263   5.012
 9017SOL    HW227951   3.436   0.368   4.889
 9018SOL     OW27952   4.128   3.256   6.156
 9018SOL    HW127953   4.204   3.207   6.114
 9018SOL    HW227954   4.161   3.310   6.233
 9019SOL     OW27955   0.384   2.937   3.355
 9019SOL    HW127956   0.313   2.866   3.361
 9019SOL    HW227957   0.407   2.968   3.447
 9020SOL     OW27958   6.022   6.256   2.033
 9020SOL    HW127959   5.960   6.315   1.981
 9020SOL    HW227960   6.042   6.174   1.979
 9021SOL     OW27961   6.915   0.755   3.970
 9021SOL    HW127962   7.001   0.711   3.996
 9021SOL    HW227963   6.887   0.819   4.042
 9022SOL     OW27964   4.303   2.765   6.301
 9022SOL    HW127965   4.263   2.686   6.346
 9022SOL    HW227966   4.248   2.846   6.320
 9023SOL     OW27967   5.047   3.595   0.768
 9023SOL    HW127968   5.106   3.517   0.783
 9023SOL    HW227969   4.968   3.567   0.713
 9024SOL     OW27970   1.777   5.163   6.474
 9024SOL    HW127971   1.687   5.158   6.431
 9024SOL    HW227972   1.845   5.188   6.405
 9025SOL     OW27973   0.391   5.681   0.916
 9025SOL    HW127974   0.404   5.582   0.909
 9025SOL    HW227975   0.310   5.708   0.864
 9026SOL     OW27976   4.098   1.728   0.361
 9026SOL    HW127977   4.039   1.807   0.376
 9026SOL    HW227978   4.091   1.665   0.439
 9027SOL     OW27979   7.027   3.717   3.627
 9027SOL    HW127980   6.943   3.763   3.656
 9027SOL    HW227981   0.056   3.780   3.575
 9028SOL     OW27982   3.569   4.098   5.438
 9028SOL    HW127983   3.501   4.043   5.488
 9028SOL    HW227984   3.526   4.138   5.357
 9029SOL     OW27985   4.170   6.696   4.864
 9029SOL    HW127986   4.120   6.769   4.911
 9029SOL    HW227987   4.264   6.692   4.899
 9030SOL     OW27988   2.585   1.828   3.638
 9030SOL    HW127989   2.508   1.877   3.680
 9030SOL    HW227990   2.671   1.874   3.661
 9031SOL     OW27991   4.532   0.586   4.611
 9031SOL    HW127992   4.467   0.654   4.577
 9031SOL    HW227993   4.502   0.495   4.582
 9032SOL     OW27994   4.550   3.595   1.679
 9032SOL    HW127995   4.541   3.694   1.665
 9032SOL    HW227996   4.629   3.577   1.739
 9033SOL     OW27997   1.313   5.805   3.331
 9033SOL    HW127998   1.383   5.829   3.264
 9033SOL    HW227999   1.336   5.717   3.372
 9034SOL     OW28000   3.378   6.051   4.742
 9034SOL    HW128001   3.466   6.074   4.699
 9034SOL    HW228002   3.319   6.005   4.675
 9035SOL     OW28003   1.224   5.059   0.560
 9035SOL    HW128004   1.289   5.120   0.607
 9035SOL    HW228005   1.186   5.107   0.481
 9036SOL     OW28006   1.386   3.416   5.823
 9036SOL    HW128007   1.324   3.387   5.750
 9036SOL    HW228008   1.365   3.366   5.907
 9037SOL     OW28009   0.667   2.289   2.890
 9037SOL    HW128010   0.703   2.205   2.932
 9037SOL    HW228011   0.626   2.347   2.961
 9038SOL     OW28012   4.422   2.779   6.056
 9038SOL    HW128013   4.489   2.846   6.088
 9038SOL    HW228014   4.369   2.745   6.134
 9039SOL     OW28015   3.340   5.192   0.002
 9039SOL    HW128016   3.327   5.095   7.012
 9039SOL    HW228017   3.403   5.230   6.962
 9040SOL     OW28018   1.756   1.990   0.822
 9040SOL    HW128019   1.847   2.029   0.831
 9040SOL    HW228020   1.694   2.036   0.886
 9041SOL     OW28021   0.085   2.424   0.952
 9041SOL    HW128022   0.041   2.343   0.990
 9041SOL    HW228023   0.015   2.484   0.912
 9042SOL     OW28024   4.139   5.750   5.998
 9042SOL    HW128025   4.112   5.664   6.041
 9042SOL    HW228026   4.081   5.824   6.032
 9043SOL     OW28027   3.042   1.774   0.232
 9043SOL    HW128028   3.132   1.789   0.274
 9043SOL    HW228029   3.025   1.844   0.163
 9044SOL     OW28030   0.906   0.623   6.491
 9044SOL    HW128031   0.869   0.628   6.398
 9044SOL    HW228032   0.901   0.714   6.533
 9045SOL     OW28033   4.458   0.416   3.108
 9045SOL    HW128034   4.500   0.497   3.150
 9045SOL    HW228035   4.359   0.421   3.117
 9046SOL     OW28036   3.031   3.884   2.815
 9046SOL    HW128037   2.955   3.819   2.819
 9046SOL    HW228038   3.053   3.904   2.720
 9047SOL     OW28039   1.115   4.312   6.095
 9047SOL    HW128040   1.100   4.230   6.040
 9047SOL    HW228041   1.095   4.292   6.191
 9048SOL     OW28042   6.341   1.719   6.051
 9048SOL    HW128043   6.374   1.709   6.145
 9048SOL    HW228044   6.285   1.801   6.043
 9049SOL     OW28045   3.213   6.768   6.453
 9049SOL    HW128046   3.164   6.737   6.371
 9049SOL    HW228047   3.164   6.844   6.494
 9050SOL     OW28048   0.550   4.658   1.543
 9050SOL    HW128049   0.646   4.686   1.547
 9050SOL    HW228050   0.491   4.738   1.555
 9051SOL     OW28051   2.569   2.016   0.661
 9051SOL    HW128052   2.537   2.047   0.572
 9051SOL    HW228053   2.537   1.923   0.678
 9052SOL     OW28054   1.546   3.287   5.181
 9052SOL    HW128055   1.607   3.358   5.146
 9052SOL    HW228056   1.598   3.222   5.236
 9053SOL     OW28057   1.391   1.761   0.873
 9053SOL    HW128058   1.378   1.662   0.871
 9053SOL    HW228059   1.316   1.805   0.823
 9054SOL     OW28060   2.406   5.902   3.388
 9054SOL    HW128061   2.410   5.959   3.306
 9054SOL    HW228062   2.319   5.916   3.434
 9055SOL     OW28063   0.215   4.036   4.683
 9055SOL    HW128064   0.145   4.094   4.724
 9055SOL    HW228065   0.295   4.032   4.743
 9056SOL     OW28066   6.582   1.856   2.662
 9056SOL    HW128067   6.650   1.784   2.672
 9056SOL    HW228068   6.577   1.910   2.747
 9057SOL     OW28069   4.586   1.800   4.085
 9057SOL    HW128070   4.649   1.831   4.155
 9057SOL    HW228071   4.504   1.857   4.086
 9058SOL     OW28072   1.985   0.613   6.577
 9058SOL    HW128073   1.888   0.625   6.554
 9058SOL    HW228074   2.041   0.644   6.500
 9059SOL     OW28075   1.346   1.939   2.215
 9059SOL    HW128076   1.398   1.893   2.287
 9059SOL    HW228077   1.396   2.020   2.184
 9060SOL     OW28078   5.647   2.792   4.721
 9060SOL    HW128079   5.724   2.738   4.686
 9060SOL    HW228080   5.649   2.883   4.679
 9061SOL     OW28081   4.997   5.545   2.402
 9061SOL    HW128082   4.908   5.519   2.364
 9061SOL    HW228083   5.041   5.611   2.342
 9062SOL     OW28084   1.556   5.409   1.011
 9062SOL    HW128085   1.509   5.464   1.081
 9062SOL    HW228086   1.493   5.393   0.935
 9063SOL     OW28087   3.388   1.835   2.325
 9063SOL    HW128088   3.415   1.924   2.287
 9063SOL    HW228089   3.302   1.806   2.283
 9064SOL     OW28090   6.183   3.128   6.980
 9064SOL    HW128091   6.144   3.112   6.889
 9064SOL    HW228092   6.283   3.118   6.976
 9065SOL     OW28093   2.443   1.016   0.479
 9065SOL    HW128094   2.390   1.083   0.531
 9065SOL    HW228095   2.468   0.939   0.539
 9066SOL     OW28096   4.673   6.835   0.073
 9066SOL    HW128097   4.723   6.800   0.152
 9066SOL    HW228098   4.578   6.803   0.078
 9067SOL     OW28099   1.769   6.818   3.591
 9067SOL    HW128100   1.703   6.854   3.525
 9067SOL    HW228101   1.737   6.838   3.684
 9068SOL     OW28102   1.852   5.754   0.024
 9068SOL    HW128103   1.927   5.807   7.011
 9068SOL    HW228104   1.767   5.806   0.018
 9069SOL     OW28105   1.783   2.384   6.639
 9069SOL    HW128106   1.822   2.388   6.547
 9069SOL    HW228107   1.685   2.363   6.632
 9070SOL     OW28108   1.340   4.450   3.691
 9070SOL    HW128109   1.421   4.409   3.649
 9070SOL    HW228110   1.273   4.471   3.620
 9071SOL     OW28111   6.036   6.717   6.699
 9071SOL    HW128112   5.975   6.709   6.778
 9071SOL    HW228113   6.007   6.652   6.629
 9072SOL     OW28114   5.717   4.277   6.439
 9072SOL    HW128115   5.767   4.212   6.496
 9072SOL    HW228116   5.771   4.299   6.358
 9073SOL     OW28117   1.957   0.399   1.875
 9073SOL    HW128118   1.958   0.499   1.880
 9073SOL    HW228119   1.940   0.361   1.966
 9074SOL     OW28120   1.302   6.842   2.945
 9074SOL    HW128121   1.395   6.806   2.944
 9074SOL    HW228122   1.305   6.942   2.938
 9075SOL     OW28123   6.908   1.045   2.588
 9075SOL    HW128124   6.924   1.027   2.685
 9075SOL    HW228125   6.893   1.143   2.575
 9076SOL     OW28126   6.397   1.408   5.692
 9076SOL    HW128127   6.348   1.324   5.713
 9076SOL    HW228128   6.482   1.387   5.644
 9077SOL     OW28129   6.052   6.576   2.380
 9077SOL    HW128130   6.014   6.494   2.337
 9077SOL    HW228131   6.083   6.639   2.309
 9078SOL     OW28132   3.885   2.995   4.955
 9078SOL    HW128133   3.883   2.961   4.861
 9078SOL    HW228134   3.807   2.957   5.006
 9079SOL     OW28135   3.773   0.812   5.854
 9079SOL    HW128136   3.858   0.775   5.889
 9079SOL    HW228137   3.698   0.791   5.917
 9080SOL     OW28138   4.982   1.999   0.486
 9080SOL    HW128139   5.055   2.065   0.502
 9080SOL    HW228140   4.903   2.046   0.446
 9081SOL     OW28141   5.425   6.844   2.150
 9081SOL    HW128142   5.495   6.885   2.210
 9081SOL    HW228143   5.461   6.760   2.110
 9082SOL     OW28144   3.566   1.543   3.318
 9082SOL    HW128145   3.566   1.605   3.397
 9082SOL    HW228146   3.550   1.596   3.235
 9083SOL     OW28147   4.469   4.917   4.579
 9083SOL    HW128148   4.518   4.854   4.517
 9083SOL    HW228149   4.416   4.864   4.645
 9084SOL     OW28150   2.997   3.480   3.080
 9084SOL    HW128151   2.997   3.569   3.034
 9084SOL    HW228152   3.051   3.486   3.164
 9085SOL     OW28153   0.732   2.309   0.625
 9085SOL    HW128154   0.641   2.291   0.588
 9085SOL    HW228155   0.794   2.233   0.602
 9086SOL     OW28156   0.245   4.004   0.717
 9086SOL    HW128157   0.241   3.904   0.720
 9086SOL    HW228158   0.260   4.040   0.809
 9087SOL     OW28159   4.874   3.719   1.677
 9087SOL    HW128160   4.892   3.806   1.724
 9087SOL    HW228161   4.779   3.717   1.646
 9088SOL     OW28162   4.936   6.914   0.337
 9088SOL    HW128163   5.034   6.896   0.347
 9088SOL    HW228164   4.888   6.827   0.322
 9089SOL     OW28165   4.766   0.241   5.994
 9089SOL    HW128166   4.700   0.316   5.993
 9089SOL    HW228167   4.857   0.277   5.975
 9090SOL     OW28168   6.280   1.507   4.301
 9090SOL    HW128169   6.320   1.515   4.392
 9090SOL    HW228170   6.348   1.469   4.238
 9091SOL     OW28171   3.212   3.406   6.646
 9091SOL    HW128172   3.205   3.423   6.745
 9091SOL    HW228173   3.303   3.431   6.614
 9092SOL     OW28174   6.971   2.556   0.026
 9092SOL    HW128175   0.003   2.509   0.092
 9092SOL    HW228176   6.989   2.520   6.961
 9093SOL     OW28177   1.544   6.046   5.711
 9093SOL    HW128178   1.469   5.998   5.665
 9093SOL    HW228179   1.629   5.997   5.696
 9094SOL     OW28180   0.857   3.249   1.885
 9094SOL    HW128181   0.956   3.253   1.875
 9094SOL    HW228182   0.826   3.155   1.869
 9095SOL     OW28183   6.561   6.169   5.072
 9095SOL    HW128184   6.593   6.124   4.989
 9095SOL    HW228185   6.579   6.267   5.066
 9096SOL     OW28186   6.564   5.810   3.227
 9096SOL    HW128187   6.566   5.806   3.127
 9096SOL    HW228188   6.574   5.904   3.256
 9097SOL     OW28189   1.532   2.354   5.872
 9097SOL    HW128190   1.631   2.352   5.866
 9097SOL    HW228191   1.492   2.330   5.784
 9098SOL     OW28192   1.834   3.677   4.165
 9098SOL    HW128193   1.822   3.592   4.216
 9098SOL    HW228194   1.745   3.713   4.137
 9099SOL     OW28195   2.870   2.740   6.696
 9099SOL    HW128196   2.900   2.784   6.612
 9099SOL    HW228197   2.909   2.788   6.775
 9100SOL     OW28198   0.732   4.572   3.343
 9100SOL    HW128199   0.641   4.596   3.308
 9100SOL    HW228200   0.754   4.478   3.315
 9101SOL     OW28201   0.819   2.503   1.606
 9101SOL    HW128202   0.882   2.488   1.682
 9101SOL    HW228203   0.861   2.565   1.540
 9102SOL     OW28204   4.231   6.738   3.219
 9102SOL    HW128205   4.261   6.711   3.127
 9102SOL    HW228206   4.293   6.698   3.287
 9103SOL     OW28207   6.404   1.436   0.448
 9103SOL    HW128208   6.356   1.354   0.419
 9103SOL    HW228209   6.399   1.506   0.376
 9104SOL     OW28210   5.810   1.627   6.913
 9104SOL    HW128211   5.816   1.725   6.931
 9104SOL    HW228212   5.852   1.607   6.825
 9105SOL     OW28213   2.323   0.604   5.972
 9105SOL    HW128214   2.314   0.678   5.905
 9105SOL    HW228215   2.238   0.551   5.974
 9106SOL     OW28216   1.556   4.446   0.753
 9106SOL    HW128217   1.547   4.452   0.852
 9106SOL    HW228218   1.516   4.527   0.710
 9107SOL     OW28219   2.422   1.716   0.041
 9107SOL    HW128220   2.455   1.804   0.005
 9107SOL    HW228221   2.456   1.703   0.134
 9108SOL     OW28222   5.595   5.567   6.365
 9108SOL    HW128223   5.601   5.503   6.289
 9108SOL    HW228224   5.506   5.613   6.363
 9109SOL     OW28225   4.966   3.691   2.576
 9109SOL    HW128226   4.933   3.597   2.588
 9109SOL    HW228227   4.956   3.717   2.479
 9110SOL     OW28228   1.216   6.399   4.435
 9110SOL    HW128229   1.236   6.459   4.512
 9110SOL    HW228230   1.278   6.419   4.359
 9111SOL     OW28231   4.627   2.378   6.091
 9111SOL    HW128232   4.575   2.381   6.176
 9111SOL    HW228233   4.598   2.453   6.032
 9112SOL     OW28234   0.994   5.308   1.740
 9112SOL    HW128235   1.081   5.278   1.780
 9112SOL    HW228236   0.924   5.312   1.811
 9113SOL     OW28237   5.653   1.178   3.920
 9113SOL    HW128238   5.735   1.230   3.899
 9113SOL    HW228239   5.672   1.081   3.914
 9114SOL     OW28240   1.372   6.137   5.384
 9114SOL    HW128241   1.359   6.075   5.461
 9114SOL    HW228242   1.300   6.207   5.385
 9115SOL     OW28243   5.339   3.947   3.657
 9115SOL    HW128244   5.405   3.999   3.712
 9115SOL    HW228245   5.346   3.975   3.561
 9116SOL     OW28246   1.597   6.911   3.420
 9116SOL    HW128247   1.554   6.841   3.363
 9116SOL    HW228248   1.526   6.970   3.460
 9117SOL     OW28249   3.003   6.618   0.166
 9117SOL    HW128250   2.927   6.683   0.175
 9117SOL    HW228251   3.030   6.586   0.257
 9118SOL     OW28252   6.129   4.748   1.906
 9118SOL    HW128253   6.209   4.736   1.847
 9118SOL    HW228254   6.124   4.843   1.937
 9119SOL     OW28255   3.427   0.389   0.339
 9119SOL    HW128256   3.485   0.404   0.259
 9119SOL    HW228257   3.462   0.311   0.391
 9120SOL     OW28258   5.979   3.959   4.914
 9120SOL    HW128259   6.033   4.029   4.961
 9120SOL    HW228260   5.994   3.967   4.815
 9121SOL     OW28261   3.008   0.707   5.180
 9121SOL    HW128262   2.958   0.622   5.165
 9121SOL    HW228263   2.987   0.771   5.106
 9122SOL     OW28264   1.485   3.537   1.799
 9122SOL    HW128265   1.440   3.614   1.754
 9122SOL    HW228266   1.582   3.556   1.810
 9123SOL     OW28267   0.002   0.264   4.262
 9123SOL    HW128268   6.982   0.351   4.279
 9123SOL    HW228269   6.987   0.192   4.316
 9124SOL     OW28270   2.490   5.463   0.821
 9124SOL    HW128271   2.453   5.378   0.857
 9124SOL    HW228272   2.451   5.540   0.871
 9125SOL     OW28273   5.024   6.064   1.178
 9125SOL    HW128274   4.999   5.976   1.138
 9125SOL    HW228275   4.944   6.123   1.180
 9126SOL     OW28276   4.003   4.607   0.559
 9126SOL    HW128277   3.978   4.571   0.649
 9126SOL    HW228278   4.016   4.532   0.495
 9127SOL     OW28279   6.849   4.650   4.504
 9127SOL    HW128280   6.783   4.576   4.496
 9127SOL    HW228281   6.877   4.661   4.599
 9128SOL     OW28282   5.744   4.376   5.957
 9128SOL    HW128283   5.830   4.334   5.986
 9128SOL    HW228284   5.741   4.381   5.857
 9129SOL     OW28285   0.640   3.136   0.760
 9129SOL    HW128286   0.702   3.096   0.828
 9129SOL    HW228287   0.605   3.223   0.794
 9130SOL     OW28288   2.899   3.905   4.962
 9130SOL    HW128289   2.800   3.915   4.954
 9130SOL    HW228290   2.941   3.918   4.872
 9131SOL     OW28291   4.667   2.733   0.222
 9131SOL    HW128292   4.598   2.703   0.288
 9131SOL    HW228293   4.757   2.701   0.252
 9132SOL     OW28294   0.130   3.923   3.480
 9132SOL    HW128295   0.044   3.965   3.454
 9132SOL    HW228296   0.187   3.911   3.399
 9133SOL     OW28297   5.084   0.981   1.019
 9133SOL    HW128298   5.107   1.053   1.085
 9133SOL    HW228299   4.991   0.998   0.984
 9134SOL     OW28300   4.796   4.877   0.730
 9134SOL    HW128301   4.763   4.795   0.777
 9134SOL    HW228302   4.828   4.944   0.798
 9135SOL     OW28303   6.383   6.574   2.628
 9135SOL    HW128304   6.357   6.669   2.614
 9135SOL    HW228305   6.433   6.540   2.548
 9136SOL     OW28306   6.499   4.668   0.076
 9136SOL    HW128307   6.506   4.578   0.119
 9136SOL    HW228308   6.448   4.660   7.018
 9137SOL     OW28309   5.298   6.216   5.842
 9137SOL    HW128310   5.211   6.170   5.826
 9137SOL    HW228311   5.324   6.268   5.760
 9138SOL     OW28312   2.711   3.440   0.131
 9138SOL    HW128313   2.632   3.380   0.126
 9138SOL    HW228314   2.682   3.531   0.160
 9139SOL     OW28315   6.558   0.079   0.711
 9139SOL    HW128316   6.576   7.027   0.769
 9139SOL    HW228317   6.645   0.123   0.688
 9140SOL     OW28318   1.589   3.846   3.679
 9140SOL    HW128319   1.529   3.828   3.757
 9140SOL    HW228320   1.641   3.764   3.657
 9141SOL     OW28321   6.997   5.370   4.716
 9141SOL    HW128322   0.010   5.446   4.768
 9141SOL    HW228323   6.950   5.308   4.779
 9142SOL     OW28324   1.217   4.123   4.657
 9142SOL    HW128325   1.144   4.174   4.702
 9142SOL    HW228326   1.306   4.155   4.690
 9143SOL     OW28327   6.880   4.332   2.062
 9143SOL    HW128328   6.878   4.233   2.070
 9143SOL    HW228329   6.800   4.363   2.011
 9144SOL     OW28330   2.773   4.822   5.224
 9144SOL    HW128331   2.770   4.783   5.315
 9144SOL    HW228332   2.803   4.752   5.159
 9145SOL     OW28333   1.520   6.115   6.007
 9145SOL    HW128334   1.533   6.067   5.920
 9145SOL    HW228335   1.558   6.207   6.001
 9146SOL     OW28336   5.306   2.884   3.250
 9146SOL    HW128337   5.333   2.865   3.155
 9146SOL    HW228338   5.335   2.976   3.275
 9147SOL     OW28339   4.133   7.010   5.180
 9147SOL    HW128340   4.118   0.080   5.195
 9147SOL    HW228341   4.110   6.987   5.085
 9148SOL     OW28342   5.628   5.772   1.404
 9148SOL    HW128343   5.601   5.707   1.475
 9148SOL    HW228344   5.706   5.826   1.436
 9149SOL     OW28345   0.228   4.136   1.169
 9149SOL    HW128346   0.136   4.121   1.134
 9149SOL    HW228347   0.223   4.195   1.250
 9150SOL     OW28348   2.502   3.270   0.183
 9150SOL    HW128349   2.440   3.331   0.134
 9150SOL    HW228350   2.476   3.175   0.166
 9151SOL     OW28351   1.150   3.347   3.807
 9151SOL    HW128352   1.208   3.294   3.746
 9151SOL    HW228353   1.206   3.408   3.862
 9152SOL     OW28354   1.697   4.117   2.347
 9152SOL    HW128355   1.795   4.095   2.345
 9152SOL    HW228356   1.669   4.151   2.257
 9153SOL     OW28357   0.406   3.091   6.044
 9153SOL    HW128358   0.336   3.093   6.115
 9153SOL    HW228359   0.400   3.174   5.988
 9154SOL     OW28360   5.829   5.235   2.968
 9154SOL    HW128361   5.760   5.172   2.932
 9154SOL    HW228362   5.913   5.184   2.988
 9155SOL     OW28363   1.277   6.283   2.811
 9155SOL    HW128364   1.372   6.278   2.779
 9155SOL    HW228365   1.273   6.254   2.906
 9156SOL     OW28366   6.747   3.970   6.319
 9156SOL    HW128367   6.678   3.967   6.391
 9156SOL    HW228368   6.820   4.034   6.345
 9157SOL     OW28369   1.577   4.390   6.315
 9157SOL    HW128370   1.617   4.302   6.339
 9157SOL    HW228371   1.531   4.382   6.226
 9158SOL     OW28372   6.542   3.977   4.670
 9158SOL    HW128373   6.517   3.967   4.766
 9158SOL    HW228374   6.641   3.973   4.660
 9159SOL     OW28375   2.537   1.453   4.215
 9159SOL    HW128376   2.495   1.367   4.186
 9159SOL    HW228377   2.595   1.437   4.295
 9160SOL     OW28378   1.041   4.178   1.119
 9160SOL    HW128379   1.067   4.082   1.131
 9160SOL    HW228380   1.008   4.214   1.206
 9161SOL     OW28381   6.779   4.077   2.093
 9161SOL    HW128382   6.804   3.983   2.067
 9161SOL    HW228383   6.682   4.092   2.074
 9162SOL     OW28384   4.233   2.339   1.826
 9162SOL    HW128385   4.159   2.284   1.863
 9162SOL    HW228386   4.305   2.349   1.896
 9163SOL     OW28387   2.093   2.171   3.321
 9163SOL    HW128388   2.019   2.107   3.303
 9163SOL    HW228389   2.152   2.178   3.241
 9164SOL     OW28390   2.633   6.343   6.743
 9164SOL    HW128391   2.619   6.250   6.777
 9164SOL    HW228392   2.549   6.396   6.752
 9165SOL     OW28393   5.786   2.091   5.559
 9165SOL    HW128394   5.858   2.107   5.492
 9165SOL    HW228395   5.697   2.108   5.517
 9166SOL     OW28396   4.900   6.380   1.705
 9166SOL    HW128397   4.960   6.374   1.625
 9166SOL    HW228398   4.805   6.389   1.676
 9167SOL     OW28399   1.885   1.613   5.003
 9167SOL    HW128400   1.805   1.670   5.023
 9167SOL    HW228401   1.857   1.517   4.997
 9168SOL     OW28402   6.284   6.170   4.901
 9168SOL    HW128403   6.276   6.232   4.979
 9168SOL    HW228404   6.370   6.120   4.906
 9169SOL     OW28405   7.008   6.553   1.667
 9169SOL    HW128406   0.025   6.487   1.607
 9169SOL    HW228407   0.039   6.633   1.677
 9170SOL     OW28408   1.731   0.699   6.251
 9170SOL    HW128409   1.751   0.629   6.183
 9170SOL    HW228410   1.740   0.789   6.209
 9171SOL     OW28411   3.932   5.430   6.411
 9171SOL    HW128412   3.847   5.472   6.444
 9171SOL    HW228413   3.942   5.339   6.451
 9172SOL     OW28414   4.523   1.940   4.882
 9172SOL    HW128415   4.427   1.945   4.855
 9172SOL    HW228416   4.572   1.880   4.819
 9173SOL     OW28417   5.500   3.685   4.867
 9173SOL    HW128418   5.517   3.615   4.797
 9173SOL    HW228419   5.403   3.709   4.867
 9174SOL     OW28420   6.738   4.924   1.376
 9174SOL    HW128421   6.696   4.918   1.286
 9174SOL    HW228422   6.793   5.008   1.382
 9175SOL     OW28423   2.091   0.085   0.199
 9175SOL    HW128424   2.185   0.115   0.182
 9175SOL    HW228425   2.057   0.126   0.283
 9176SOL     OW28426   1.754   2.155   2.107
 9176SOL    HW128427   1.751   2.237   2.165
 9176SOL    HW228428   1.661   2.132   2.078
 9177SOL     OW28429   0.343   5.349   3.660
 9177SOL    HW128430   0.341   5.273   3.725
 9177SOL    HW228431   0.250   5.371   3.631
 9178SOL     OW28432   1.321   4.573   1.618
 9178SOL    HW128433   1.244   4.516   1.646
 9178SOL    HW228434   1.376   4.598   1.698
 9179SOL     OW28435   2.989   5.325   4.074
 9179SOL    HW128436   3.064   5.336   4.140
 9179SOL    HW228437   2.932   5.407   4.074
 9180SOL     OW28438   0.336   1.686   5.630
 9180SOL    HW128439   0.335   1.778   5.590
 9180SOL    HW228440   0.415   1.678   5.692
 9181SOL     OW28441   2.263   2.309   3.526
 9181SOL    HW128442   2.209   2.230   3.499
 9181SOL    HW228443   2.359   2.293   3.505
 9182SOL     OW28444   0.771   1.977   2.244
 9182SOL    HW128445   0.701   1.910   2.224
 9182SOL    HW228446   0.733   2.048   2.304
 9183SOL     OW28447   2.016   1.839   6.213
 9183SOL    HW128448   2.063   1.777   6.276
 9183SOL    HW228449   1.943   1.790   6.166
 9184SOL     OW28450   4.251   3.654   0.616
 9184SOL    HW128451   4.172   3.701   0.656
 9184SOL    HW228452   4.269   3.570   0.667
 9185SOL     OW28453   1.846   0.504   6.076
 9185SOL    HW128454   1.832   0.536   5.983
 9185SOL    HW228455   1.942   0.515   6.101
 9186SOL     OW28456   4.852   1.003   6.400
 9186SOL    HW128457   4.797   1.012   6.318
 9186SOL    HW228458   4.886   1.093   6.428
 9187SOL     OW28459   5.451   2.312   1.120
 9187SOL    HW128460   5.488   2.373   1.190
 9187SOL    HW228461   5.351   2.310   1.127
 9188SOL     OW28462   1.724   0.174   1.895
 9188SOL    HW128463   1.797   0.240   1.876
 9188SOL    HW228464   1.671   0.205   1.974
 9189SOL     OW28465   4.352   1.225   5.865
 9189SOL    HW128466   4.300   1.304   5.833
 9189SOL    HW228467   4.438   1.220   5.815
 9190SOL     OW28468   5.372   1.745   5.464
 9190SOL    HW128469   5.464   1.707   5.453
 9190SOL    HW228470   5.349   1.750   5.562
 9191SOL     OW28471   5.646   0.251   1.085
 9191SOL    HW128472   5.646   0.167   1.030
 9191SOL    HW228473   5.728   0.304   1.063
 9192SOL     OW28474   4.889   3.854   4.049
 9192SOL    HW128475   4.903   3.949   4.075
 9192SOL    HW228476   4.860   3.849   3.953
 9193SOL     OW28477   3.714   3.135   3.525
 9193SOL    HW128478   3.712   3.062   3.456
 9193SOL    HW228479   3.809   3.166   3.537
 9194SOL     OW28480   4.282   5.756   2.517
 9194SOL    HW128481   4.195   5.720   2.551
 9194SOL    HW228482   4.350   5.683   2.514
 9195SOL     OW28483   0.299   2.711   2.739
 9195SOL    HW128484   0.353   2.634   2.706
 9195SOL    HW228485   0.211   2.714   2.691
 9196SOL     OW28486   5.109   6.726   3.966
 9196SOL    HW128487   5.138   6.791   3.897
 9196SOL    HW228488   5.049   6.771   4.032
 9197SOL     OW28489   4.215   2.370   5.758
 9197SOL    HW128490   4.169   2.451   5.720
 9197SOL    HW228491   4.202   2.367   5.857
 9198SOL     OW28492   5.968   2.153   5.364
 9198SOL    HW128493   5.917   2.239   5.374
 9198SOL    HW228494   6.064   2.168   5.386
 9199SOL     OW28495   2.145   2.886   6.127
 9199SOL    HW128496   2.065   2.857   6.180
 9199SOL    HW228497   2.115   2.929   6.043
 9200SOL     OW28498   5.580   6.266   0.958
 9200SOL    HW128499   5.586   6.216   1.044
 9200SOL    HW228500   5.590   6.203   0.882
 9201SOL     OW28501   1.074   3.898   2.733
 9201SOL    HW128502   1.024   3.817   2.702
 9201SOL    HW228503   1.050   3.918   2.828
 9202SOL     OW28504   3.132   5.562   3.790
 9202SOL    HW128505   3.187   5.549   3.872
 9202SOL    HW228506   3.166   5.502   3.717
 9203SOL     OW28507   4.413   0.725   6.173
 9203SOL    HW128508   4.438   0.801   6.233
 9203SOL    HW228509   4.378   0.650   6.228
 9204SOL     OW28510   5.139   4.598   2.412
 9204SOL    HW128511   5.056   4.586   2.358
 9204SOL    HW228512   5.138   4.533   2.488
 9205SOL     OW28513   4.882   3.333   2.031
 9205SOL    HW128514   4.837   3.383   2.105
 9205SOL    HW228515   4.842   3.241   2.023
 9206SOL     OW28516   0.699   5.922   3.832
 9206SOL    HW128517   0.780   5.957   3.880
 9206SOL    HW228518   0.619   5.931   3.892
 9207SOL     OW28519   4.242   6.219   6.723
 9207SOL    HW128520   4.319   6.281   6.707
 9207SOL    HW228521   4.163   6.250   6.670
 9208SOL     OW28522   4.706   4.058   1.763
 9208SOL    HW128523   4.741   4.023   1.850
 9208SOL    HW228524   4.636   4.127   1.781
 9209SOL     OW28525   4.092   0.118   2.796
 9209SOL    HW128526   4.148   0.095   2.876
 9209SOL    HW228527   4.073   0.034   2.744
 9210SOL     OW28528   1.159   6.791   0.666
 9210SOL    HW128529   1.181   6.695   0.652
 9210SOL    HW228530   1.211   6.827   0.743
 9211SOL     OW28531   4.816   1.264   6.111
 9211SOL    HW128532   4.779   1.187   6.163
 9211SOL    HW228533   4.785   1.350   6.151
 9212SOL     OW28534   5.466   3.704   5.355
 9212SOL    HW128535   5.411   3.750   5.285
 9212SOL    HW228536   5.444   3.741   5.445
 9213SOL     OW28537   6.587   6.914   2.521
 9213SOL    HW128538   6.684   6.936   2.531
 9213SOL    HW228539   6.567   6.896   2.425
 9214SOL     OW28540   2.190   2.260   5.337
 9214SOL    HW128541   2.143   2.284   5.422
 9214SOL    HW228542   2.200   2.341   5.280
 9215SOL     OW28543   0.183   2.791   2.992
 9215SOL    HW128544   0.203   2.750   2.903
 9215SOL    HW228545   0.096   2.756   3.025
 9216SOL     OW28546   2.636   5.767   3.797
 9216SOL    HW128547   2.662   5.800   3.706
 9216SOL    HW228548   2.706   5.705   3.831
 9217SOL     OW28549   3.563   1.463   6.647
 9217SOL    HW128550   3.504   1.533   6.687
 9217SOL    HW228551   3.645   1.506   6.610
 9218SOL     OW28552   5.348   5.659   6.391
 9218SOL    HW128553   5.292   5.578   6.374
 9218SOL    HW228554   5.333   5.725   6.317
 9219SOL     OW28555   3.091   2.246   5.536
 9219SOL    HW128556   3.039   2.280   5.458
 9219SOL    HW228557   3.038   2.258   5.620
 9220SOL     OW28558   0.473   6.625   3.393
 9220SOL    HW128559   0.515   6.589   3.310
 9220SOL    HW228560   0.489   6.724   3.398
 9221SOL     OW28561   2.283   1.461   0.687
 9221SOL    HW128562   2.365   1.481   0.741
 9221SOL    HW228563   2.201   1.479   0.743
 9222SOL     OW28564   1.412   3.316   4.570
 9222SOL    HW128565   1.427   3.409   4.605
 9222SOL    HW228566   1.456   3.306   4.481
 9223SOL     OW28567   0.162   3.320   5.097
 9223SOL    HW128568   0.131   3.411   5.123
 9223SOL    HW228569   0.258   3.308   5.124
 9224SOL     OW28570   2.355   4.878   3.299
 9224SOL    HW128571   2.418   4.869   3.221
 9224SOL    HW228572   2.408   4.884   3.383
 9225SOL     OW28573   5.849   5.575   6.153
 9225SOL    HW128574   5.797   5.497   6.188
 9225SOL    HW228575   5.911   5.543   6.081
 9226SOL     OW28576   1.075   0.836   0.347
 9226SOL    HW128577   1.152   0.831   0.284
 9226SOL    HW228578   1.013   0.760   0.330
 9227SOL     OW28579   3.160   3.814   0.570
 9227SOL    HW128580   3.131   3.909   0.579
 9227SOL    HW228581   3.173   3.791   0.474
 9228SOL     OW28582   3.560   3.562   5.220
 9228SOL    HW128583   3.533   3.502   5.145
 9228SOL    HW228584   3.658   3.581   5.214
 9229SOL     OW28585   6.902   5.205   0.385
 9229SOL    HW128586   6.886   5.107   0.369
 9229SOL    HW228587   6.871   5.229   0.477
 9230SOL     OW28588   4.258   1.294   5.052
 9230SOL    HW128589   4.333   1.358   5.066
 9230SOL    HW228590   4.231   1.293   4.956
 9231SOL     OW28591   0.093   6.148   2.323
 9231SOL    HW128592   0.057   6.058   2.302
 9231SOL    HW228593   0.165   6.140   2.391
 9232SOL     OW28594   1.126   4.998   2.479
 9232SOL    HW128595   1.165   4.990   2.387
 9232SOL    HW228596   1.031   5.030   2.473
 9233SOL     OW28597   1.227   6.319   5.712
 9233SOL    HW128598   1.233   6.306   5.811
 9233SOL    HW228599   1.309   6.281   5.668
 9234SOL     OW28600   2.498   3.701   6.591
 9234SOL    HW128601   2.548   3.674   6.509
 9234SOL    HW228602   2.405   3.664   6.589
 9235SOL     OW28603   1.922   1.991   3.240
 9235SOL    HW128604   1.828   2.010   3.268
 9235SOL    HW228605   1.960   1.918   3.297
 9236SOL     OW28606   1.508   2.910   6.403
 9236SOL    HW128607   1.510   2.811   6.394
 9236SOL    HW228608   1.594   2.949   6.370
 9237SOL     OW28609   6.032   5.440   2.939
 9237SOL    HW128610   5.963   5.370   2.956
 9237SOL    HW228611   6.071   5.428   2.848
 9238SOL     OW28612   1.601   3.130   4.655
 9238SOL    HW128613   1.516   3.182   4.646
 9238SOL    HW228614   1.614   3.105   4.751
 9239SOL     OW28615   1.227   4.580   6.808
 9239SOL    HW128616   1.152   4.563   6.872
 9239SOL    HW228617   1.314   4.569   6.857
 9240SOL     OW28618   4.370   1.607   3.273
 9240SOL    HW128619   4.468   1.621   3.259
 9240SOL    HW228620   4.352   1.594   3.370
 9241SOL     OW28621   5.603   6.872   0.700
 9241SOL    HW128622   5.545   6.914   0.770
 9241SOL    HW228623   5.626   6.940   0.632
 9242SOL     OW28624   1.614   2.303   0.637
 9242SOL    HW128625   1.581   2.210   0.625
 9242SOL    HW228626   1.710   2.309   0.609
 9243SOL     OW28627   1.426   0.196   0.192
 9243SOL    HW128628   1.511   0.154   0.224
 9243SOL    HW228629   1.433   0.212   0.093
 9244SOL     OW28630   3.644   6.657   6.161
 9244SOL    HW128631   3.567   6.698   6.209
 9244SOL    HW228632   3.721   6.648   6.223
 9245SOL     OW28633   1.232   4.827   2.940
 9245SOL    HW128634   1.205   4.816   2.844
 9245SOL    HW228635   1.152   4.818   2.999
 9246SOL     OW28636   4.944   0.085   6.869
 9246SOL    HW128637   4.866   0.066   6.930
 9246SOL    HW228638   4.919   0.156   6.804
 9247SOL     OW28639   4.135   5.504   2.872
 9247SOL    HW128640   4.222   5.534   2.912
 9247SOL    HW228641   4.094   5.435   2.932
 9248SOL     OW28642   2.365   0.661   6.866
 9248SOL    HW128643   2.429   0.735   6.887
 9248SOL    HW228644   2.353   0.604   6.947
 9249SOL     OW28645   2.267   6.408   0.420
 9249SOL    HW128646   2.183   6.454   0.390
 9249SOL    HW228647   2.283   6.328   0.362
 9250SOL     OW28648   0.106   2.867   3.936
 9250SOL    HW128649   0.091   2.775   3.971
 9250SOL    HW228650   0.026   2.897   3.886
 9251SOL     OW28651   2.991   1.971   0.874
 9251SOL    HW128652   2.927   1.992   0.800
 9251SOL    HW228653   3.083   1.958   0.836
 9252SOL     OW28654   5.907   1.031   5.162
 9252SOL    HW128655   5.842   1.032   5.238
 9252SOL    HW228656   5.969   1.109   5.170
 9253SOL     OW28657   1.282   5.800   4.910
 9253SOL    HW128658   1.226   5.718   4.919
 9253SOL    HW228659   1.327   5.819   4.997
 9254SOL     OW28660   0.349   4.945   2.393
 9254SOL    HW128661   0.263   4.941   2.343
 9254SOL    HW228662   0.407   5.018   2.356
 9255SOL     OW28663   7.011   4.524   0.765
 9255SOL    HW128664   6.958   4.582   0.702
 9255SOL    HW228665   0.055   4.579   0.808
 9256SOL     OW28666   2.980   6.530   1.168
 9256SOL    HW128667   3.074   6.553   1.143
 9256SOL    HW228668   2.959   6.438   1.134
 9257SOL     OW28669   5.911   5.937   4.573
 9257SOL    HW128670   5.838   5.869   4.567
 9257SOL    HW228671   6.000   5.891   4.580
 9258SOL     OW28672   3.561   5.249   0.930
 9258SOL    HW128673   3.494   5.324   0.932
 9258SOL    HW228674   3.578   5.217   1.023
 9259SOL     OW28675   0.931   2.117   0.036
 9259SOL    HW128676   0.969   2.027   0.014
 9259SOL    HW228677   0.878   2.151   6.985
 9260SOL     OW28678   5.207   4.071   4.787
 9260SOL    HW128679   5.218   4.091   4.689
 9260SOL    HW228680   5.202   3.972   4.801
 9261SOL     OW28681   2.799   2.249   1.395
 9261SOL    HW128682   2.806   2.149   1.402
 9261SOL    HW228683   2.784   2.288   1.485
 9262SOL     OW28684   6.615   6.191   5.962
 9262SOL    HW128685   6.531   6.176   6.015
 9262SOL    HW228686   6.688   6.218   6.024
 9263SOL     OW28687   1.951   4.570   3.064
 9263SOL    HW128688   1.862   4.604   3.034
 9263SOL    HW228689   2.012   4.647   3.083
 9264SOL     OW28690   5.530   3.977   6.353
 9264SOL    HW128691   5.476   3.999   6.434
 9264SOL    HW228692   5.513   4.047   6.283
 9265SOL     OW28693   5.981   1.730   1.711
 9265SOL    HW128694   6.056   1.708   1.773
 9265SOL    HW228695   5.898   1.748   1.763
 9266SOL     OW28696   1.378   4.435   1.239
 9266SOL    HW128697   1.391   4.519   1.291
 9266SOL    HW228698   1.282   4.426   1.214
 9267SOL     OW28699   6.975   0.522   4.317
 9267SOL    HW128700   6.888   0.558   4.282
 9267SOL    HW228701   0.014   0.596   4.324
 9268SOL     OW28702   0.482   6.866   1.422
 9268SOL    HW128703   0.414   6.793   1.429
 9268SOL    HW228704   0.458   6.927   1.347
 9269SOL     OW28705   3.634   0.972   0.315
 9269SOL    HW128706   3.649   0.888   0.369
 9269SOL    HW228707   3.694   0.972   0.235
 9270SOL     OW28708   2.625   0.383   6.841
 9270SOL    HW128709   2.585   0.362   6.751
 9270SOL    HW228710   2.635   0.482   6.851
 9271SOL     OW28711   1.510   5.617   5.260
 9271SOL    HW128712   1.420   5.590   5.293
 9271SOL    HW228713   1.535   5.560   5.182
 9272SOL     OW28714   0.072   6.694   6.077
 9272SOL    HW128715   0.155   6.704   6.132
 9272SOL    HW228716   0.097   6.676   5.982
 9273SOL     OW28717   5.362   4.082   3.423
 9273SOL    HW128718   5.388   4.177   3.442
 9273SOL    HW228719   5.268   4.078   3.390
 9274SOL     OW28720   0.704   3.240   0.269
 9274SOL    HW128721   0.732   3.205   0.359
 9274SOL    HW228722   0.778   3.293   0.230
 9275SOL     OW28723   5.739   0.815   0.558
 9275SOL    HW128724   5.728   0.834   0.656
 9275SOL    HW228725   5.836   0.801   0.538
 9276SOL     OW28726   2.764   5.163   0.267
 9276SOL    HW128727   2.858   5.196   0.263
 9276SOL    HW228728   2.763   5.063   0.275
 9277SOL     OW28729   4.880   5.042   2.297
 9277SOL    HW128730   4.821   4.984   2.354
 9277SOL    HW228731   4.829   5.072   2.216
 9278SOL     OW28732   0.707   6.963   5.147
 9278SOL    HW128733   0.667   6.880   5.188
 9278SOL    HW228734   0.665   0.016   5.189
 9279SOL     OW28735   3.387   5.287   1.717
 9279SOL    HW128736   3.415   5.352   1.788
 9279SOL    HW228737   3.394   5.331   1.627
 9280SOL     OW28738   2.074   6.462   3.001
 9280SOL    HW128739   2.130   6.544   3.016
 9280SOL    HW228740   2.036   6.432   3.089
 9281SOL     OW28741   2.278   5.896   0.823
 9281SOL    HW128742   2.339   5.845   0.883
 9281SOL    HW228743   2.223   5.960   0.878
 9282SOL     OW28744   3.159   6.690   4.914
 9282SOL    HW128745   3.252   6.725   4.902
 9282SOL    HW228746   3.136   6.690   5.012
 9283SOL     OW28747   4.272   6.349   1.167
 9283SOL    HW128748   4.304   6.443   1.151
 9283SOL    HW228749   4.286   6.326   1.263
 9284SOL     OW28750   4.469   4.342   5.636
 9284SOL    HW128751   4.468   4.254   5.588
 9284SOL    HW228752   4.451   4.327   5.733
 9285SOL     OW28753   0.617   5.502   3.050
 9285SOL    HW128754   0.584   5.409   3.035
 9285SOL    HW228755   0.700   5.517   2.995
 9286SOL     OW28756   4.164   0.004   1.553
 9286SOL    HW128757   4.158   0.056   1.639
 9286SOL    HW228758   4.163   0.067   1.476
 9287SOL     OW28759   4.017   3.985   5.839
 9287SOL    HW128760   4.090   3.934   5.794
 9287SOL    HW228761   3.948   4.011   5.771
 9288SOL     OW28762   3.200   1.439   1.927
 9288SOL    HW128763   3.282   1.462   1.978
 9288SOL    HW228764   3.225   1.393   1.842
 9289SOL     OW28765   4.850   6.927   0.622
 9289SOL    HW128766   4.802   6.840   0.623
 9289SOL    HW228767   4.919   6.926   0.550
 9290SOL     OW28768   5.380   1.380   4.358
 9290SOL    HW128769   5.411   1.380   4.262
 9290SOL    HW228770   5.384   1.474   4.393
 9291SOL     OW28771   0.892   3.806   6.179
 9291SOL    HW128772   0.837   3.889   6.183
 9291SOL    HW228773   0.937   3.800   6.090
 9292SOL     OW28774   0.901   0.846   6.649
 9292SOL    HW128775   0.847   0.789   6.711
 9292SOL    HW228776   0.868   0.941   6.654
 9293SOL     OW28777   5.101   2.484   4.027
 9293SOL    HW128778   5.010   2.524   4.017
 9293SOL    HW228779   5.110   2.444   4.118
 9294SOL     OW28780   4.567   7.011   6.240
 9294SOL    HW128781   4.622   0.066   6.250
 9294SOL    HW228782   4.473   0.010   6.217
 9295SOL     OW28783   6.867   1.026   4.979
 9295SOL    HW128784   6.793   0.964   4.953
 9295SOL    HW228785   6.915   1.057   4.898
 9296SOL     OW28786   2.455   5.312   6.372
 9296SOL    HW128787   2.528   5.304   6.305
 9296SOL    HW228788   2.456   5.233   6.433
 9297SOL     OW28789   6.209   5.940   2.326
 9297SOL    HW128790   6.249   5.976   2.242
 9297SOL    HW228791   6.261   5.860   2.356
 9298SOL     OW28792   1.132   4.271   6.418
 9298SOL    HW128793   1.065   4.221   6.474
 9298SOL    HW228794   1.198   4.316   6.479
 9299SOL     OW28795   2.269   2.879   4.396
 9299SOL    HW128796   2.203   2.919   4.459
 9299SOL    HW228797   2.320   2.806   4.441
 9300SOL     OW28798   1.968   5.781   5.196
 9300SOL    HW128799   1.872   5.788   5.221
 9300SOL    HW228800   2.024   5.770   5.278
 9301SOL     OW28801   0.277   3.804   4.210
 9301SOL    HW128802   0.191   3.762   4.182
 9301SOL    HW228803   0.259   3.895   4.246
 9302SOL     OW28804   2.124   3.692   4.676
 9302SOL    HW128805   2.134   3.718   4.580
 9302SOL    HW228806   2.149   3.769   4.734
 9303SOL     OW28807   2.435   4.561   0.171
 9303SOL    HW128808   2.393   4.581   0.259
 9303SOL    HW228809   2.446   4.646   0.119
 9304SOL     OW28810   5.073   5.501   6.607
 9304SOL    HW128811   5.104   5.519   6.513
 9304SOL    HW228812   5.091   5.406   6.631
 9305SOL     OW28813   1.579   2.092   1.013
 9305SOL    HW128814   1.593   2.155   1.089
 9305SOL    HW228815   1.492   2.112   0.969
 9306SOL     OW28816   0.131   6.181   4.923
 9306SOL    HW128817   0.037   6.215   4.914
 9306SOL    HW228818   0.140   6.132   5.010
 9307SOL     OW28819   1.890   3.408   1.508
 9307SOL    HW128820   1.911   3.366   1.420
 9307SOL    HW228821   1.959   3.477   1.530
 9308SOL     OW28822   2.213   3.230   1.609
 9308SOL    HW128823   2.306   3.268   1.610
 9308SOL    HW228824   2.153   3.286   1.666
 9309SOL     OW28825   5.135   5.221   6.602
 9309SOL    HW128826   5.232   5.209   6.626
 9309SOL    HW228827   5.107   5.147   6.542
 9310SOL     OW28828   5.952   5.507   6.629
 9310SOL    HW128829   5.966   5.518   6.531
 9310SOL    HW228830   5.857   5.479   6.646
 9311SOL     OW28831   5.018   3.842   0.505
 9311SOL    HW128832   4.992   3.762   0.560
 9311SOL    HW228833   5.117   3.845   0.496
 9312SOL     OW28834   0.331   2.992   3.099
 9312SOL    HW128835   0.277   2.916   3.063
 9312SOL    HW228836   0.346   2.979   3.197
 9313SOL     OW28837   0.392   0.360   2.430
 9313SOL    HW128838   0.386   0.297   2.508
 9313SOL    HW228839   0.301   0.376   2.393
 9314SOL     OW28840   5.072   4.435   1.198
 9314SOL    HW128841   5.157   4.468   1.156
 9314SOL    HW228842   5.013   4.513   1.217
 9315SOL     OW28843   4.970   6.359   6.166
 9315SOL    HW128844   4.931   6.311   6.245
 9315SOL    HW228845   4.952   6.457   6.173
 9316SOL     OW28846   5.172   1.036   6.152
 9316SOL    HW128847   5.160   1.130   6.185
 9316SOL    HW228848   5.132   0.973   6.219
 9317SOL     OW28849   3.523   6.151   2.965
 9317SOL    HW128850   3.582   6.157   2.885
 9317SOL    HW228851   3.477   6.062   2.965
 9318SOL     OW28852   3.834   6.948   1.808
 9318SOL    HW128853   3.776   6.967   1.887
 9318SOL    HW228854   3.886   6.864   1.824
 9319SOL     OW28855   4.155   2.250   0.023
 9319SOL    HW128856   4.076   2.267   0.083
 9319SOL    HW228857   4.226   2.318   0.042
 9320SOL     OW28858   6.566   6.678   6.733
 9320SOL    HW128859   6.552   6.579   6.734
 9320SOL    HW228860   6.527   6.718   6.817
 9321SOL     OW28861   0.248   2.869   5.038
 9321SOL    HW128862   0.296   2.848   4.953
 9321SOL    HW228863   0.179   2.940   5.021
 9322SOL     OW28864   5.897   2.916   6.972
 9322SOL    HW128865   5.946   2.964   0.018
 9322SOL    HW228866   5.836   2.847   7.013
 9323SOL     OW28867   0.880   1.914   5.811
 9323SOL    HW128868   0.799   1.971   5.800
 9323SOL    HW228869   0.911   1.882   5.721
 9324SOL     OW28870   0.787   4.167   1.741
 9324SOL    HW128871   0.877   4.154   1.782
 9324SOL    HW228872   0.747   4.077   1.720
 9325SOL     OW28873   0.892   4.000   3.588
 9325SOL    HW128874   0.868   3.904   3.606
 9325SOL    HW228875   0.811   4.057   3.597
 9326SOL     OW28876   4.313   4.222   1.473
 9326SOL    HW128877   4.368   4.224   1.389
 9326SOL    HW228878   4.353   4.284   1.541
 9327SOL     OW28879   2.790   0.891   3.299
 9327SOL    HW128880   2.826   0.847   3.216
 9327SOL    HW228881   2.707   0.942   3.276
 9328SOL     OW28882   2.368   0.613   3.890
 9328SOL    HW128883   2.283   0.644   3.933
 9328SOL    HW228884   2.346   0.550   3.815
 9329SOL     OW28885   0.131   5.537   7.006
 9329SOL    HW128886   0.218   5.545   6.956
 9329SOL    HW228887   0.112   5.440   7.023
 9330SOL     OW28888   6.523   6.402   0.005
 9330SOL    HW128889   6.511   6.304   0.021
 9330SOL    HW228890   6.468   6.454   0.071
 9331SOL     OW28891   2.011   3.608   3.798
 9331SOL    HW128892   2.004   3.508   3.805
 9331SOL    HW228893   2.058   3.643   3.880
 9332SOL     OW28894   5.871   5.916   0.748
 9332SOL    HW128895   5.917   5.828   0.758
 9332SOL    HW228896   5.940   5.987   0.732
 9333SOL     OW28897   3.521   3.559   1.130
 9333SOL    HW128898   3.458   3.495   1.175
 9333SOL    HW228899   3.479   3.594   1.047
 9334SOL     OW28900   5.962   5.861   5.819
 9334SOL    HW128901   5.908   5.828   5.896
 9334SOL    HW228902   5.962   5.792   5.747
 9335SOL     OW28903   0.908   2.833   1.840
 9335SOL    HW128904   0.881   2.744   1.878
 9335SOL    HW228905   0.843   2.858   1.768
 9336SOL     OW28906   5.377   0.543   5.744
 9336SOL    HW128907   5.384   0.621   5.806
 9336SOL    HW228908   5.281   0.528   5.720
 9337SOL     OW28909   2.261   0.813   5.818
 9337SOL    HW128910   2.324   0.885   5.845
 9337SOL    HW228911   2.206   0.845   5.740
 9338SOL     OW28912   5.436   6.494   0.260
 9338SOL    HW128913   5.377   6.462   0.187
 9338SOL    HW228914   5.530   6.463   0.243
 9339SOL     OW28915   6.837   3.896   5.832
 9339SOL    HW128916   6.773   3.827   5.799
 9339SOL    HW228917   6.790   3.958   5.896
 9340SOL     OW28918   3.214   4.897   1.283
 9340SOL    HW128919   3.301   4.877   1.239
 9340SOL    HW228920   3.223   4.883   1.382
 9341SOL     OW28921   5.086   4.966   6.463
 9341SOL    HW128922   5.019   4.989   6.393
 9341SOL    HW228923   5.178   4.987   6.428
 9342SOL     OW28924   3.189   0.171   4.322
 9342SOL    HW128925   3.255   0.245   4.334
 9342SOL    HW228926   3.230   0.085   4.351
 9343SOL     OW28927   4.643   3.625   1.118
 9343SOL    HW128928   4.729   3.675   1.121
 9343SOL    HW228929   4.636   3.567   1.200
 9344SOL     OW28930   5.866   0.303   5.541
 9344SOL    HW128931   5.796   0.254   5.488
 9344SOL    HW228932   5.899   0.381   5.488
 9345SOL     OW28933   0.202   5.044   0.447
 9345SOL    HW128934   0.300   5.038   0.424
 9345SOL    HW228935   0.155   5.096   0.376
 9346SOL     OW28936   5.882   6.250   1.375
 9346SOL    HW128937   5.890   6.166   1.322
 9346SOL    HW228938   5.964   6.262   1.430
 9347SOL     OW28939   3.829   5.426   0.843
 9347SOL    HW128940   3.802   5.495   0.910
 9347SOL    HW228941   3.783   5.339   0.866
 9348SOL     OW28942   2.615   5.497   2.368
 9348SOL    HW128943   2.667   5.439   2.430
 9348SOL    HW228944   2.517   5.483   2.382
 9349SOL     OW28945   0.053   6.367   1.972
 9349SOL    HW128946   0.072   6.361   2.070
 9349SOL    HW228947   0.131   6.409   1.926
 9350SOL     OW28948   6.692   0.510   6.450
 9350SOL    HW128949   6.738   0.427   6.482
 9350SOL    HW228950   6.597   0.509   6.483
 9351SOL     OW28951   4.120   2.959   5.630
 9351SOL    HW128952   4.147   3.055   5.634
 9351SOL    HW228953   4.150   2.912   5.713
 9352SOL     OW28954   3.554   3.005   6.423
 9352SOL    HW128955   3.497   3.082   6.452
 9352SOL    HW228956   3.644   3.011   6.466
 9353SOL     OW28957   0.324   3.721   0.804
 9353SOL    HW128958   0.340   3.707   0.902
 9353SOL    HW228959   0.294   3.635   0.762
 9354SOL     OW28960   4.601   1.708   1.879
 9354SOL    HW128961   4.636   1.671   1.965
 9354SOL    HW228962   4.672   1.701   1.809
 9355SOL     OW28963   6.525   1.081   3.226
 9355SOL    HW128964   6.456   1.025   3.181
 9355SOL    HW228965   6.485   1.127   3.305
 9356SOL     OW28966   4.117   4.756   2.644
 9356SOL    HW128967   4.157   4.698   2.715
 9356SOL    HW228968   4.155   4.731   2.555
 9357SOL     OW28969   3.485   2.948   0.611
 9357SOL    HW128970   3.417   2.891   0.564
 9357SOL    HW228971   3.489   3.038   0.567
 9358SOL     OW28972   5.386   4.369   2.045
 9358SOL    HW128973   5.477   4.334   2.068
 9358SOL    HW228974   5.395   4.445   1.981
 9359SOL     OW28975   5.471   4.178   6.165
 9359SOL    HW128976   5.372   4.194   6.168
 9359SOL    HW228977   5.499   4.156   6.071
 9360SOL     OW28978   1.843   0.309   5.621
 9360SOL    HW128979   1.929   0.282   5.578
 9360SOL    HW228980   1.808   0.392   5.577
 9361SOL     OW28981   2.680   0.202   2.258
 9361SOL    HW128982   2.626   0.207   2.342
 9361SOL    HW228983   2.720   0.291   2.239
 9362SOL     OW28984   2.097   1.728   3.039
 9362SOL    HW128985   2.144   1.649   2.999
 9362SOL    HW228986   2.162   1.803   3.052
 9363SOL     OW28987   2.309   6.487   1.806
 9363SOL    HW128988   2.355   6.404   1.774
 9363SOL    HW228989   2.281   6.542   1.728
 9364SOL     OW28990   5.670   5.102   0.452
 9364SOL    HW128991   5.697   5.037   0.522
 9364SOL    HW228992   5.674   5.059   0.362
 9365SOL     OW28993   2.289   1.199   5.396
 9365SOL    HW128994   2.223   1.124   5.392
 9365SOL    HW228995   2.375   1.166   5.437
 9366SOL     OW28996   3.107   2.125   1.086
 9366SOL    HW128997   3.062   2.072   1.014
 9366SOL    HW228998   3.102   2.076   1.172
 9367SOL     OW28999   6.964   5.915   3.137
 9367SOL    HW129000   6.923   5.824   3.131
 9367SOL    HW229001   0.029   5.909   3.175
 9368SOL     OW29002   3.903   2.946   1.140
 9368SOL    HW129003   3.931   3.035   1.176
 9368SOL    HW229004   3.814   2.955   1.095
 9369SOL     OW29005   0.329   2.210   5.192
 9369SOL    HW129006   0.274   2.276   5.244
 9369SOL    HW229007   0.308   2.219   5.095
 9370SOL     OW29008   6.186   0.957   3.373
 9370SOL    HW129009   6.258   0.934   3.439
 9370SOL    HW229010   6.129   1.030   3.410
 9371SOL     OW29011   0.889   6.496   0.617
 9371SOL    HW129012   0.819   6.426   0.628
 9371SOL    HW229013   0.845   6.584   0.594
 9372SOL     OW29014   6.931   6.348   6.253
 9372SOL    HW129015   7.000   6.345   6.326
 9372SOL    HW229016   6.927   6.440   6.214
 9373SOL     OW29017   4.405   1.588   3.564
 9373SOL    HW129018   4.345   1.622   3.637
 9373SOL    HW229019   4.484   1.543   3.605
 9374SOL     OW29020   5.393   3.903   0.810
 9374SOL    HW129021   5.464   3.897   0.880
 9374SOL    HW229022   5.382   3.815   0.766
 9375SOL     OW29023   0.962   1.293   4.199
 9375SOL    HW129024   1.030   1.267   4.131
 9375SOL    HW229025   1.008   1.328   4.281
 9376SOL     OW29026   1.934   3.163   1.885
 9376SOL    HW129027   1.988   3.092   1.930
 9376SOL    HW229028   1.840   3.131   1.874
 9377SOL     OW29029   5.999   5.633   4.044
 9377SOL    HW129030   5.931   5.570   4.079
 9377SOL    HW229031   6.073   5.582   4.000
 9378SOL     OW29032   3.018   6.493   0.681
 9378SOL    HW129033   3.098   6.441   0.712
 9378SOL    HW229034   2.952   6.430   0.639
 9379SOL     OW29035   5.460   4.630   4.917
 9379SOL    HW129036   5.514   4.598   4.839
 9379SOL    HW229037   5.382   4.569   4.931
 9380SOL     OW29038   5.903   6.315   6.423
 9380SOL    HW129039   5.820   6.259   6.431
 9380SOL    HW229040   5.960   6.278   6.349
 9381SOL     OW29041   2.553   1.098   6.734
 9381SOL    HW129042   2.591   1.138   6.817
 9381SOL    HW229043   2.476   1.154   6.703
 9382SOL     OW29044   4.681   2.165   2.412
 9382SOL    HW129045   4.742   2.126   2.481
 9382SOL    HW229046   4.673   2.101   2.335
 9383SOL     OW29047   4.840   5.931   5.353
 9383SOL    HW129048   4.862   5.834   5.340
 9383SOL    HW229049   4.925   5.983   5.361
 9384SOL     OW29050   5.356   5.876   1.262
 9384SOL    HW129051   5.334   5.897   1.357
 9384SOL    HW229052   5.423   5.802   1.259
 9385SOL     OW29053   3.694   1.288   3.271
 9385SOL    HW129054   3.657   1.251   3.186
 9385SOL    HW229055   3.645   1.373   3.294
 9386SOL     OW29056   3.531   6.910   4.261
 9386SOL    HW129057   3.504   6.930   4.355
 9386SOL    HW229058   3.582   6.824   4.259
 9387SOL     OW29059   4.082   0.035   6.928
 9387SOL    HW129060   4.140   0.012   6.851
 9387SOL    HW229061   3.986   0.038   6.899
 9388SOL     OW29062   6.996   0.528   2.814
 9388SOL    HW129063   6.987   0.627   2.806
 9388SOL    HW229064   0.029   0.507   2.891
 9389SOL     OW29065   2.716   0.579   6.511
 9389SOL    HW129066   2.771   0.534   6.581
 9389SOL    HW229067   2.643   0.631   6.555
 9390SOL     OW29068   3.377   5.775   2.317
 9390SOL    HW129069   3.346   5.860   2.359
 9390SOL    HW229070   3.445   5.732   2.376
 9391SOL     OW29071   0.332   1.320   5.446
 9391SOL    HW129072   0.421   1.354   5.474
 9391SOL    HW229073   0.344   1.243   5.383
 9392SOL     OW29074   1.388   6.445   4.761
 9392SOL    HW129075   1.406   6.367   4.702
 9392SOL    HW229076   1.393   6.417   4.857
 9393SOL     OW29077   3.858   2.205   5.287
 9393SOL    HW129078   3.947   2.213   5.241
 9393SOL    HW229079   3.808   2.126   5.251
 9394SOL     OW29080   5.520   2.119   2.494
 9394SOL    HW129081   5.614   2.140   2.519
 9394SOL    HW229082   5.520   2.061   2.412
 9395SOL     OW29083   1.865   2.980   6.986
 9395SOL    HW129084   1.852   3.070   0.000
 9395SOL    HW229085   1.913   2.990   6.899
 9396SOL     OW29086   6.590   0.166   6.412
 9396SOL    HW129087   6.516   0.224   6.446
 9396SOL    HW229088   6.613   0.194   6.319
 9397SOL     OW29089   3.036   0.455   0.992
 9397SOL    HW129090   2.955   0.503   1.025
 9397SOL    HW229091   3.013   0.361   0.969
 9398SOL     OW29092   2.686   1.873   6.237
 9398SOL    HW129093   2.681   1.926   6.322
 9398SOL    HW229094   2.595   1.839   6.213
 9399SOL     OW29095   6.830   0.937   5.358
 9399SOL    HW129096   6.799   0.956   5.265
 9399SOL    HW229097   6.847   0.839   5.368
 9400SOL     OW29098   5.136   2.543   2.889
 9400SOL    HW129099   5.060   2.586   2.840
 9400SOL    HW229100   5.149   2.450   2.854
 9401SOL     OW29101   3.131   0.243   3.032
 9401SOL    HW129102   3.227   0.219   3.018
 9401SOL    HW229103   3.106   0.317   2.969
 9402SOL     OW29104   2.474   5.029   6.528
 9402SOL    HW129105   2.389   4.982   6.550
 9402SOL    HW229106   2.510   4.995   6.441
 9403SOL     OW29107   5.122   0.989   4.068
 9403SOL    HW129108   5.096   1.005   4.163
 9403SOL    HW229109   5.134   1.077   4.022
 9404SOL     OW29110   0.743   4.058   6.153
 9404SOL    HW129111   0.799   4.139   6.167
 9404SOL    HW229112   0.646   4.084   6.154
 9405SOL     OW29113   5.802   6.863   1.233
 9405SOL    HW129114   5.824   6.826   1.142
 9405SOL    HW229115   5.852   6.811   1.303
 9406SOL     OW29116   7.012   1.516   5.058
 9406SOL    HW129117   6.986   1.584   5.127
 9406SOL    HW229118   0.006   1.429   5.103
 9407SOL     OW29119   3.445   6.211   2.565
 9407SOL    HW129120   3.409   6.282   2.626
 9407SOL    HW229121   3.507   6.152   2.617
 9408SOL     OW29122   4.150   1.910   6.251
 9408SOL    HW129123   4.106   1.834   6.203
 9408SOL    HW229124   4.096   1.993   6.237
 9409SOL     OW29125   5.618   4.316   3.301
 9409SOL    HW129126   5.551   4.353   3.365
 9409SOL    HW229127   5.708   4.355   3.320
 9410SOL     OW29128   4.413   6.625   2.660
 9410SOL    HW129129   4.446   6.706   2.612
 9410SOL    HW229130   4.314   6.634   2.675
 9411SOL     OW29131   4.999   5.483   0.935
 9411SOL    HW129132   4.904   5.455   0.921
 9411SOL    HW229133   5.002   5.582   0.949
 9412SOL     OW29134   6.232   2.642   1.480
 9412SOL    HW129135   6.198   2.562   1.530
 9412SOL    HW229136   6.191   2.645   1.389
 9413SOL     OW29137   4.087   5.802   5.709
 9413SOL    HW129138   4.143   5.747   5.770
 9413SOL    HW229139   4.099   5.899   5.731
 9414SOL     OW29140   2.582   2.027   1.742
 9414SOL    HW129141   2.516   1.952   1.753
 9414SOL    HW229142   2.621   2.049   1.831
 9415SOL     OW29143   2.822   0.073   1.992
 9415SOL    HW129144   2.813   0.170   1.971
 9415SOL    HW229145   2.731   0.032   2.000
 9416SOL     OW29146   0.636   2.738   1.716
 9416SOL    HW129147   0.578   2.796   1.774
 9416SOL    HW229148   0.588   2.653   1.695
 9417SOL     OW29149   2.418   5.934   4.807
 9417SOL    HW129150   2.327   5.918   4.769
 9417SOL    HW229151   2.426   6.030   4.835
 9418SOL     OW29152   3.642   4.844   0.432
 9418SOL    HW129153   3.719   4.901   0.459
 9418SOL    HW229154   3.581   4.896   0.372
 9419SOL     OW29155   3.518   6.624   5.640
 9419SOL    HW129156   3.559   6.652   5.727
 9419SOL    HW229157   3.563   6.673   5.565
 9420SOL     OW29158   0.500   1.225   4.206
 9420SOL    HW129159   0.478   1.205   4.110
 9420SOL    HW229160   0.588   1.183   4.229
 9421SOL     OW29161   1.492   4.210   5.568
 9421SOL    HW129162   1.560   4.253   5.509
 9421SOL    HW229163   1.451   4.279   5.628
 9422SOL     OW29164   3.818   1.237   2.502
 9422SOL    HW129165   3.763   1.262   2.582
 9422SOL    HW229166   3.910   1.214   2.531
 9423SOL     OW29167   4.788   1.127   4.952
 9423SOL    HW129168   4.828   1.184   4.881
 9423SOL    HW229169   4.703   1.085   4.918
 9424SOL     OW29170   2.901   6.422   4.657
 9424SOL    HW129171   2.913   6.460   4.565
 9424SOL    HW229172   2.805   6.426   4.683
 9425SOL     OW29173   1.240   3.100   4.632
 9425SOL    HW129174   1.271   3.186   4.592
 9425SOL    HW229175   1.279   3.090   4.723
 9426SOL     OW29176   3.558   0.036   0.224
 9426SOL    HW129177   3.501   0.035   0.142
 9426SOL    HW229178   3.650   0.003   0.202
 9427SOL     OW29179   2.869   5.053   4.192
 9427SOL    HW129180   2.811   5.065   4.272
 9427SOL    HW229181   2.908   5.141   4.166
 9428SOL     OW29182   5.271   6.361   2.946
 9428SOL    HW129183   5.200   6.413   2.897
 9428SOL    HW229184   5.305   6.288   2.886
 9429SOL     OW29185   0.309   3.794   2.450
 9429SOL    HW129186   0.340   3.889   2.455
 9429SOL    HW229187   0.373   3.735   2.499
 9430SOL     OW29188   6.162   6.655   1.592
 9430SOL    HW129189   6.189   6.732   1.649
 9430SOL    HW229190   6.123   6.583   1.649
 9431SOL     OW29191   6.718   4.379   1.841
 9431SOL    HW129192   6.649   4.317   1.878
 9431SOL    HW229193   6.674   4.461   1.807
 9432SOL     OW29194   6.526   6.876   4.314
 9432SOL    HW129195   6.611   6.861   4.365
 9432SOL    HW229196   6.452   6.898   4.377
 9433SOL     OW29197   3.117   4.928   4.729
 9433SOL    HW129198   3.120   5.022   4.763
 9433SOL    HW229199   3.070   4.870   4.797
 9434SOL     OW29200   4.825   4.866   2.610
 9434SOL    HW129201   4.767   4.877   2.529
 9434SOL    HW229202   4.774   4.820   2.682
 9435SOL     OW29203   1.528   0.924   4.371
 9435SOL    HW129204   1.463   0.948   4.444
 9435SOL    HW229205   1.594   0.999   4.360
 9436SOL     OW29206   2.408   2.689   6.360
 9436SOL    HW129207   2.316   2.713   6.394
 9436SOL    HW229208   2.473   2.694   6.435
 9437SOL     OW29209   1.360   4.906   4.099
 9437SOL    HW129210   1.376   4.869   4.190
 9437SOL    HW229211   1.261   4.913   4.083
 9438SOL     OW29212   1.118   6.022   2.423
 9438SOL    HW129213   1.213   5.994   2.432
 9438SOL    HW229214   1.097   6.093   2.491
 9439SOL     OW29215   0.317   2.540   1.792
 9439SOL    HW129216   0.370   2.499   1.717
 9439SOL    HW229217   0.380   2.576   1.861
 9440SOL     OW29218   5.056   6.604   5.622
 9440SOL    HW129219   5.110   6.625   5.704
 9440SOL    HW229220   5.007   6.686   5.593
 9441SOL     OW29221   1.688   4.331   5.394
 9441SOL    HW129222   1.705   4.429   5.393
 9441SOL    HW229223   1.770   4.283   5.424
 9442SOL     OW29224   0.345   3.746   1.821
 9442SOL    HW129225   0.314   3.816   1.886
 9442SOL    HW229226   0.377   3.791   1.737
 9443SOL     OW29227   1.926   3.751   1.746
 9443SOL    HW129228   1.920   3.850   1.739
 9443SOL    HW229229   1.945   3.712   1.656
 9444SOL     OW29230   0.040   3.681   6.823
 9444SOL    HW129231   6.995   3.750   6.822
 9444SOL    HW229232   0.098   3.692   6.742
 9445SOL     OW29233   6.066   3.456   1.601
 9445SOL    HW129234   5.985   3.489   1.649
 9445SOL    HW229235   6.082   3.512   1.520
 9446SOL     OW29236   6.373   5.865   1.660
 9446SOL    HW129237   6.456   5.851   1.607
 9446SOL    HW229238   6.349   5.780   1.707
 9447SOL     OW29239   5.778   3.089   2.141
 9447SOL    HW129240   5.844   3.030   2.095
 9447SOL    HW229241   5.749   3.162   2.080
 9448SOL     OW29242   6.195   6.667   0.373
 9448SOL    HW129243   6.164   6.761   0.361
 9448SOL    HW229244   6.121   6.612   0.411
 9449SOL     OW29245   6.826   5.467   5.244
 9449SOL    HW129246   6.762   5.410   5.294
 9449SOL    HW229247   6.809   5.563   5.265
 9450SOL     OW29248   3.215   5.056   4.097
 9450SOL    HW129249   3.171   5.047   4.187
 9450SOL    HW229250   3.287   5.125   4.102
 9451SOL     OW29251   4.570   4.899   6.156
 9451SOL    HW129252   4.664   4.870   6.170
 9451SOL    HW229253   4.521   4.832   6.100
 9452SOL     OW29254   2.352   4.378   1.374
 9452SOL    HW129255   2.341   4.474   1.350
 9452SOL    HW229256   2.438   4.366   1.424
 9453SOL     OW29257   3.312   5.126   2.451
 9453SOL    HW129258   3.372   5.114   2.373
 9453SOL    HW229259   3.256   5.208   2.438
 9454SOL     OW29260   2.060   2.952   5.293
 9454SOL    HW129261   2.002   3.017   5.342
 9454SOL    HW229262   2.129   3.001   5.240
 9455SOL     OW29263   3.279   1.844   1.990
 9455SOL    HW129264   3.251   1.938   2.008
 9455SOL    HW229265   3.292   1.831   1.891
 9456SOL     OW29266   1.003   3.119   1.352
 9456SOL    HW129267   0.950   3.036   1.369
 9456SOL    HW229268   1.062   3.137   1.431
 9457SOL     OW29269   0.477   3.365   0.835
 9457SOL    HW129270   0.521   3.441   0.883
 9457SOL    HW229271   0.424   3.311   0.901
 9458SOL     OW29272   6.850   5.754   5.074
 9458SOL    HW129273   6.801   5.691   5.015
 9458SOL    HW229274   6.816   5.745   5.168
 9459SOL     OW29275   5.934   5.785   2.048
 9459SOL    HW129276   5.869   5.740   1.987
 9459SOL    HW229277   6.012   5.725   2.063
 9460SOL     OW29278   0.996   2.514   5.502
 9460SOL    HW129279   0.921   2.495   5.565
 9460SOL    HW229280   1.062   2.439   5.505
 9461SOL     OW29281   1.103   1.083   4.024
 9461SOL    HW129282   1.033   1.012   4.037
 9461SOL    HW229283   1.187   1.056   4.072
 9462SOL     OW29284   0.814   3.201   2.406
 9462SOL    HW129285   0.910   3.181   2.388
 9462SOL    HW229286   0.800   3.300   2.404
 9463SOL     OW29287   5.354   1.502   0.181
 9463SOL    HW129288   5.273   1.444   0.175
 9463SOL    HW229289   5.348   1.574   0.112
 9464SOL     OW29290   5.880   0.431   5.997
 9464SOL    HW129291   5.917   0.508   5.946
 9464SOL    HW229292   5.844   0.463   6.085
 9465SOL     OW29293   6.303   1.004   4.091
 9465SOL    HW129294   6.306   0.983   4.189
 9465SOL    HW229295   6.255   1.091   4.077
 9466SOL     OW29296   3.143   2.679   6.250
 9466SOL    HW129297   3.093   2.735   6.316
 9466SOL    HW229298   3.240   2.682   6.272
 9467SOL     OW29299   2.081   3.367   1.806
 9467SOL    HW129300   2.134   3.406   1.881
 9467SOL    HW229301   2.011   3.305   1.843
 9468SOL     OW29302   6.835   2.999   6.028
 9468SOL    HW129303   6.839   3.099   6.032
 9468SOL    HW229304   6.866   2.968   5.938
 9469SOL     OW29305   6.244   4.987   1.983
 9469SOL    HW129306   6.289   5.005   1.895
 9469SOL    HW229307   6.311   4.952   2.048
 9470SOL     OW29308   5.201   3.368   0.850
 9470SOL    HW129309   5.297   3.358   0.873
 9470SOL    HW229310   5.145   3.345   0.929
 9471SOL     OW29311   0.164   2.109   5.690
 9471SOL    HW129312   0.232   2.124   5.761
 9471SOL    HW229313   0.072   2.119   5.729
 9472SOL     OW29314   6.250   4.215   3.839
 9472SOL    HW129315   6.282   4.124   3.866
 9472SOL    HW229316   6.265   4.279   3.914
 9473SOL     OW29317   2.993   5.043   5.322
 9473SOL    HW129318   3.004   5.024   5.419
 9473SOL    HW229319   3.055   4.985   5.269
 9474SOL     OW29320   4.544   5.230   2.512
 9474SOL    HW129321   4.498   5.311   2.475
 9474SOL    HW229322   4.492   5.194   2.590
 9475SOL     OW29323   2.322   3.627   1.396
 9475SOL    HW129324   2.349   3.684   1.474
 9475SOL    HW229325   2.241   3.667   1.353
 9476SOL     OW29326   3.519   3.620   5.514
 9476SOL    HW129327   3.520   3.560   5.434
 9476SOL    HW229328   3.547   3.568   5.595
 9477SOL     OW29329   1.503   2.570   1.418
 9477SOL    HW129330   1.445   2.596   1.495
 9477SOL    HW229331   1.599   2.566   1.449
 9478SOL     OW29332   5.592   4.758   5.440
 9478SOL    HW129333   5.680   4.781   5.398
 9478SOL    HW229334   5.564   4.667   5.412
 9479SOL     OW29335   6.129   5.848   6.121
 9479SOL    HW129336   6.119   5.767   6.063
 9479SOL    HW229337   6.221   5.850   6.159
 9480SOL     OW29338   5.653   4.912   6.824
 9480SOL    HW129339   5.558   4.944   6.821
 9480SOL    HW229340   5.704   4.952   6.749
 9481SOL     OW29341   0.250   3.710   2.178
 9481SOL    HW129342   0.280   3.728   2.272
 9481SOL    HW229343   0.259   3.794   2.124
 9482SOL     OW29344   4.243   0.803   2.014
 9482SOL    HW129345   4.230   0.902   2.014
 9482SOL    HW229346   4.174   0.760   2.072
 9483SOL     OW29347   1.699   1.811   0.062
 9483SOL    HW129348   1.756   1.893   0.058
 9483SOL    HW229349   1.639   1.808   7.009
 9484SOL     OW29350   6.877   1.703   3.824
 9484SOL    HW129351   6.977   1.700   3.820
 9484SOL    HW229352   6.848   1.696   3.920
 9485SOL     OW29353   0.944   0.552   2.589
 9485SOL    HW129354   0.949   0.627   2.524
 9485SOL    HW229355   1.024   0.492   2.578
 9486SOL     OW29356   3.023   5.913   1.886
 9486SOL    HW129357   3.120   5.892   1.873
 9486SOL    HW229358   2.994   5.882   1.976
 9487SOL     OW29359   2.928   3.415   4.091
 9487SOL    HW129360   2.913   3.506   4.054
 9487SOL    HW229361   2.941   3.420   4.190
 9488SOL     OW29362   1.660   6.664   1.109
 9488SOL    HW129363   1.709   6.751   1.118
 9488SOL    HW229364   1.686   6.620   1.023
 9489SOL     OW29365   3.885   5.034   0.524
 9489SOL    HW129366   3.970   4.982   0.517
 9489SOL    HW229367   3.884   5.107   0.455
 9490SOL     OW29368   4.837   1.520   1.466
 9490SOL    HW129369   4.798   1.431   1.490
 9490SOL    HW229370   4.850   1.524   1.367
 9491SOL     OW29371   5.611   4.780   6.444
 9491SOL    HW129372   5.519   4.742   6.453
 9491SOL    HW229373   5.638   4.780   6.348
 9492SOL     OW29374   3.014   3.971   1.733
 9492SOL    HW129375   3.096   3.978   1.676
 9492SOL    HW229376   3.031   3.906   1.808
 9493SOL     OW29377   4.723   6.462   3.167
 9493SOL    HW129378   4.624   6.444   3.164
 9493SOL    HW229379   4.755   6.452   3.261
 9494SOL     OW29380   4.122   3.414   5.431
 9494SOL    HW129381   4.154   3.408   5.525
 9494SOL    HW229382   4.022   3.421   5.430
 9495SOL     OW29383   6.235   2.194   5.402
 9495SOL    HW129384   6.261   2.260   5.472
 9495SOL    HW229385   6.263   2.229   5.312
 9496SOL     OW29386   5.822   4.419   0.237
 9496SOL    HW129387   5.891   4.375   0.181
 9496SOL    HW229388   5.793   4.504   0.193
 9497SOL     OW29389   5.591   5.909   6.345
 9497SOL    HW129390   5.611   5.858   6.428
 9497SOL    HW229391   5.492   5.915   6.332
 9498SOL     OW29392   3.800   0.813   6.294
 9498SOL    HW129393   3.706   0.846   6.301
 9498SOL    HW229394   3.858   0.886   6.256
 9499SOL     OW29395   3.841   4.388   5.283
 9499SOL    HW129396   3.935   4.417   5.269
 9499SOL    HW229397   3.804   4.353   5.197
 9500SOL     OW29398   5.032   5.981   1.615
 9500SOL    HW129399   5.066   6.024   1.699
 9500SOL    HW229400   5.080   6.019   1.537
 9501SOL     OW29401   3.124   1.446   4.970
 9501SOL    HW129402   3.202   1.383   4.981
 9501SOL    HW229403   3.107   1.461   4.872
 9502SOL     OW29404   6.098   2.722   5.882
 9502SOL    HW129405   6.144   2.781   5.816
 9502SOL    HW229406   6.000   2.741   5.881
 9503SOL     OW29407   1.455   6.507   1.194
 9503SOL    HW129408   1.508   6.592   1.193
 9503SOL    HW229409   1.375   6.517   1.134
 9504SOL     OW29410   0.620   3.025   6.426
 9504SOL    HW129411   0.710   2.990   6.402
 9504SOL    HW229412   0.620   3.054   6.522
 9505SOL     OW29413   5.776   2.820   3.059
 9505SOL    HW129414   5.767   2.738   3.003
 9505SOL    HW229415   5.768   2.795   3.156
 9506SOL     OW29416   6.505   3.974   0.602
 9506SOL    HW129417   6.495   3.874   0.601
 9506SOL    HW229418   6.601   3.998   0.589
 9507SOL     OW29419   0.901   1.624   3.388
 9507SOL    HW129420   0.826   1.574   3.431
 9507SOL    HW229421   0.885   1.629   3.289
 9508SOL     OW29422   6.039   2.196   0.713
 9508SOL    HW129423   6.070   2.141   0.790
 9508SOL    HW229424   5.991   2.137   0.647
 9509SOL     OW29425   2.512   6.103   5.831
 9509SOL    HW129426   2.421   6.113   5.871
 9509SOL    HW229427   2.569   6.050   5.893
 9510SOL     OW29428   6.563   4.719   3.509
 9510SOL    HW129429   6.475   4.698   3.467
 9510SOL    HW229430   6.576   4.818   3.514
 9511SOL     OW29431   0.718   1.574   0.846
 9511SOL    HW129432   0.743   1.649   0.784
 9511SOL    HW229433   0.797   1.514   0.858
 9512SOL     OW29434   1.002   2.293   4.009
 9512SOL    HW129435   1.086   2.345   4.018
 9512SOL    HW229436   1.005   2.238   3.925
 9513SOL     OW29437   2.340   4.204   4.197
 9513SOL    HW129438   2.285   4.167   4.271
 9513SOL    HW229439   2.396   4.131   4.157
 9514SOL     OW29440   2.404   2.675   6.831
 9514SOL    HW129441   2.309   2.653   6.810
 9514SOL    HW229442   2.413   2.696   6.928
 9515SOL     OW29443   2.072   5.566   6.611
 9515SOL    HW129444   2.018   5.530   6.535
 9515SOL    HW229445   2.166   5.532   6.603
 9516SOL     OW29446   4.897   3.662   4.265
 9516SOL    HW129447   4.923   3.571   4.232
 9516SOL    HW229448   4.852   3.712   4.192
 9517SOL     OW29449   0.654   5.558   2.553
 9517SOL    HW129450   0.715   5.637   2.548
 9517SOL    HW229451   0.690   5.493   2.620
 9518SOL     OW29452   1.071   2.493   6.163
 9518SOL    HW129453   1.141   2.542   6.214
 9518SOL    HW229454   1.107   2.403   6.136
 9519SOL     OW29455   3.452   3.575   3.131
 9519SOL    HW129456   3.391   3.580   3.052
 9519SOL    HW229457   3.420   3.505   3.195
 9520SOL     OW29458   6.470   0.174   5.614
 9520SOL    HW129459   6.403   0.105   5.643
 9520SOL    HW229460   6.422   0.259   5.590
 9521SOL     OW29461   3.536   0.502   1.249
 9521SOL    HW129462   3.624   0.460   1.226
 9521SOL    HW229463   3.487   0.525   1.164
 9522SOL     OW29464   3.700   6.167   2.268
 9522SOL    HW129465   3.666   6.240   2.328
 9522SOL    HW229466   3.716   6.204   2.177
 9523SOL     OW29467   2.583   5.021   3.883
 9523SOL    HW129468   2.584   5.001   3.785
 9523SOL    HW229469   2.616   4.941   3.934
 9524SOL     OW29470   1.670   4.327   1.517
 9524SOL    HW129471   1.662   4.331   1.417
 9524SOL    HW229472   1.589   4.282   1.555
 9525SOL     OW29473   2.062   3.121   5.657
 9525SOL    HW129474   2.079   3.212   5.692
 9525SOL    HW229475   2.008   3.127   5.573
 9526SOL     OW29476   5.321   4.340   6.875
 9526SOL    HW129477   5.396   4.399   6.845
 9526SOL    HW229478   5.352   4.284   6.953
 9527SOL     OW29479   4.032   6.902   3.224
 9527SOL    HW129480   4.121   6.863   3.249
 9527SOL    HW229481   4.035   7.001   3.235
 9528SOL     OW29482   5.490   1.844   1.075
 9528SOL    HW129483   5.501   1.747   1.052
 9528SOL    HW229484   5.579   1.890   1.071
 9529SOL     OW29485   6.486   1.497   1.487
 9529SOL    HW129486   6.576   1.529   1.514
 9529SOL    HW229487   6.417   1.566   1.511
 9530SOL     OW29488   0.694   5.601   3.944
 9530SOL    HW129489   0.674   5.685   3.993
 9530SOL    HW229490   0.624   5.585   3.875
 9531SOL     OW29491   3.761   5.358   2.562
 9531SOL    HW129492   3.818   5.305   2.500
 9531SOL    HW229493   3.668   5.366   2.524
 9532SOL     OW29494   6.080   5.296   2.349
 9532SOL    HW129495   6.049   5.350   2.427
 9532SOL    HW229496   6.021   5.315   2.270
 9533SOL     OW29497   2.087   4.772   3.250
 9533SOL    HW129498   2.020   4.831   3.296
 9533SOL    HW229499   2.177   4.785   3.292
 9534SOL     OW29500   5.632   4.528   4.721
 9534SOL    HW129501   5.694   4.472   4.776
 9534SOL    HW229502   5.685   4.583   4.656
 9535SOL     OW29503   0.894   1.007   5.832
 9535SOL    HW129504   0.858   1.064   5.907
 9535SOL    HW229505   0.958   1.061   5.777
 9536SOL     OW29506   4.192   3.544   4.966
 9536SOL    HW129507   4.233   3.604   4.898
 9536SOL    HW229508   4.103   3.511   4.933
 9537SOL     OW29509   1.434   1.446   3.415
 9537SOL    HW129510   1.338   1.417   3.417
 9537SOL    HW229511   1.440   1.544   3.434
 9538SOL     OW29512   3.785   0.860   4.849
 9538SOL    HW129513   3.844   0.930   4.810
 9538SOL    HW229514   3.714   0.903   4.905
 9539SOL     OW29515   4.013   3.110   2.800
 9539SOL    HW129516   4.107   3.121   2.834
 9539SOL    HW229517   4.015   3.078   2.706
 9540SOL     OW29518   4.718   4.695   3.916
 9540SOL    HW129519   4.773   4.621   3.955
 9540SOL    HW229520   4.767   4.782   3.927
 9541SOL     OW29521   1.788   5.928   5.653
 9541SOL    HW129522   1.813   5.885   5.740
 9541SOL    HW229523   1.871   5.951   5.602
 9542SOL     OW29524   6.242   4.206   4.205
 9542SOL    HW129525   6.325   4.153   4.189
 9542SOL    HW229526   6.249   4.294   4.157
 9543SOL     OW29527   2.482   0.393   5.993
 9543SOL    HW129528   2.575   0.427   5.986
 9543SOL    HW229529   2.422   0.466   6.026
 9544SOL     OW29530   5.465   3.822   4.196
 9544SOL    HW129531   5.376   3.790   4.165
 9544SOL    HW229532   5.521   3.744   4.224
 9545SOL     OW29533   1.686   4.750   1.917
 9545SOL    HW129534   1.717   4.804   1.838
 9545SOL    HW229535   1.750   4.675   1.933
 9546SOL     OW29536   3.117   2.241   6.510
 9546SOL    HW129537   3.155   2.249   6.417
 9546SOL    HW229538   3.133   2.326   6.560
 9547SOL     OW29539   3.629   6.358   3.854
 9547SOL    HW129540   3.595   6.330   3.764
 9547SOL    HW229541   3.690   6.436   3.843
 9548SOL     OW29542   1.055   4.625   0.015
 9548SOL    HW129543   1.142   4.651   0.057
 9548SOL    HW229544   0.999   4.576   0.081
 9549SOL     OW29545   4.203   2.603   1.207
 9549SOL    HW129546   4.120   2.659   1.208
 9549SOL    HW229547   4.232   2.585   1.300
 9550SOL     OW29548   5.272   2.913   1.627
 9550SOL    HW129549   5.324   2.984   1.675
 9550SOL    HW229550   5.197   2.882   1.685
 9551SOL     OW29551   6.943   2.409   6.815
 9551SOL    HW129552   6.941   2.312   6.790
 9551SOL    HW229553   6.895   2.462   6.745
 9552SOL     OW29554   3.145   1.813   6.878
 9552SOL    HW129555   3.235   1.840   6.910
 9552SOL    HW229556   3.147   1.802   6.778
 9553SOL     OW29557   5.485   1.760   6.712
 9553SOL    HW129558   5.473   1.860   6.711
 9553SOL    HW229559   5.537   1.734   6.793
 9554SOL     OW29560   2.451   6.798   4.026
 9554SOL    HW129561   2.379   6.782   3.958
 9554SOL    HW229562   2.538   6.764   3.991
 9555SOL     OW29563   6.730   0.548   3.883
 9555SOL    HW129564   6.753   0.635   3.927
 9555SOL    HW229565   6.760   0.472   3.941
 9556SOL     OW29566   2.080   4.511   0.350
 9556SOL    HW129567   2.051   4.438   0.288
 9556SOL    HW229568   2.175   4.494   0.379
 9557SOL     OW29569   4.854   0.395   1.660
 9557SOL    HW129570   4.783   0.337   1.619
 9557SOL    HW229571   4.811   0.472   1.707
 9558SOL     OW29572   5.261   6.480   6.360
 9558SOL    HW129573   5.209   6.470   6.445
 9558SOL    HW229574   5.234   6.564   6.314
 9559SOL     OW29575   1.687   4.102   7.006
 9559SOL    HW129576   1.602   4.065   0.016
 9559SOL    HW229577   1.765   4.058   0.024
 9560SOL     OW29578   3.363   6.563   2.178
 9560SOL    HW129579   3.339   6.535   2.085
 9560SOL    HW229580   3.361   6.484   2.238
 9561SOL     OW29581   1.069   1.259   0.800
 9561SOL    HW129582   1.073   1.297   0.708
 9561SOL    HW229583   0.994   1.194   0.806
 9562SOL     OW29584   3.299   5.417   3.956
 9562SOL    HW129585   3.269   5.387   3.866
 9562SOL    HW229586   3.345   5.342   4.003
 9563SOL     OW29587   0.842   5.956   1.308
 9563SOL    HW129588   0.891   5.979   1.224
 9563SOL    HW229589   0.874   5.868   1.342
 9564SOL     OW29590   1.502   6.838   0.670
 9564SOL    HW129591   1.427   6.842   0.736
 9564SOL    HW229592   1.470   6.797   0.585
 9565SOL     OW29593   3.530   1.526   4.215
 9565SOL    HW129594   3.591   1.602   4.239
 9565SOL    HW229595   3.478   1.550   4.134
 9566SOL     OW29596   2.435   6.999   0.603
 9566SOL    HW129597   2.484   0.058   0.615
 9566SOL    HW229598   2.391   6.973   0.689
 9567SOL     OW29599   6.818   4.613   1.208
 9567SOL    HW129600   6.908   4.573   1.186
 9567SOL    HW229601   6.820   4.650   1.301
 9568SOL     OW29602   4.043   1.563   6.611
 9568SOL    HW129603   4.079   1.624   6.682
 9568SOL    HW229604   4.112   1.549   6.540
 9569SOL     OW29605   5.589   0.607   2.105
 9569SOL    HW129606   5.553   0.662   2.030
 9569SOL    HW229607   5.680   0.574   2.081
 9570SOL     OW29608   6.958   3.303   1.328
 9570SOL    HW129609   6.988   3.300   1.423
 9570SOL    HW229610   6.887   3.234   1.314
 9571SOL     OW29611   3.004   2.402   6.882
 9571SOL    HW129612   2.929   2.336   6.888
 9571SOL    HW229613   3.040   2.403   6.789
 9572SOL     OW29614   2.150   3.904   3.517
 9572SOL    HW129615   2.157   3.805   3.528
 9572SOL    HW229616   2.189   3.949   3.598
 9573SOL     OW29617   6.756   0.857   4.613
 9573SOL    HW129618   6.746   0.836   4.710
 9573SOL    HW229619   6.688   0.806   4.561
 9574SOL     OW29620   3.849   3.105   1.424
 9574SOL    HW129621   3.863   3.050   1.507
 9574SOL    HW229622   3.781   3.175   1.443
 9575SOL     OW29623   6.079   6.473   1.765
 9575SOL    HW129624   5.995   6.503   1.811
 9575SOL    HW229625   6.148   6.450   1.834
 9576SOL     OW29626   0.787   0.041   0.113
 9576SOL    HW129627   0.756   0.113   0.051
 9576SOL    HW229628   0.709   7.013   0.141
 9577SOL     OW29629   6.476   5.243   1.791
 9577SOL    HW129630   6.462   5.254   1.693
 9577SOL    HW229631   6.518   5.154   1.809
 9578SOL     OW29632   1.331   2.517   2.836
 9578SOL    HW129633   1.389   2.456   2.890
 9578SOL    HW229634   1.266   2.462   2.784
 9579SOL     OW29635   5.713   6.462   2.305
 9579SOL    HW129636   5.648   6.413   2.246
 9579SOL    HW229637   5.804   6.423   2.294
 9580SOL     OW29638   4.754   4.831   2.000
 9580SOL    HW129639   4.698   4.908   1.968
 9580SOL    HW229640   4.850   4.850   1.981
 9581SOL     OW29641   6.079   1.219   0.135
 9581SOL    HW129642   6.129   1.198   0.050
 9581SOL    HW229643   6.052   1.134   0.180
 9582SOL     OW29644   4.484   5.741   4.244
 9582SOL    HW129645   4.484   5.840   4.230
 9582SOL    HW229646   4.493   5.720   4.341
 9583SOL     OW29647   3.418   4.560   1.716
 9583SOL    HW129648   3.499   4.610   1.746
 9583SOL    HW229649   3.444   4.493   1.647
 9584SOL     OW29650   2.020   4.264   4.371
 9584SOL    HW129651   2.080   4.195   4.330
 9584SOL    HW229652   2.076   4.341   4.402
 9585SOL     OW29653   5.050   5.516   1.410
 9585SOL    HW129654   5.139   5.500   1.452
 9585SOL    HW229655   5.058   5.589   1.342
 9586SOL     OW29656   4.610   5.219   1.667
 9586SOL    HW129657   4.690   5.217   1.609
 9586SOL    HW229658   4.527   5.215   1.611
 9587SOL     OW29659   2.660   6.291   1.508
 9587SOL    HW129660   2.593   6.234   1.460
 9587SOL    HW229661   2.739   6.307   1.449
 9588SOL     OW29662   6.521   5.793   0.695
 9588SOL    HW129663   6.437   5.738   0.695
 9588SOL    HW229664   6.589   5.750   0.635
 9589SOL     OW29665   1.480   3.916   6.432
 9589SOL    HW129666   1.570   3.874   6.428
 9589SOL    HW229667   1.421   3.876   6.362
 9590SOL     OW29668   4.908   1.340   1.915
 9590SOL    HW129669   4.835   1.340   1.983
 9590SOL    HW229670   4.936   1.435   1.898
 9591SOL     OW29671   3.127   0.255   6.534
 9591SOL    HW129672   3.075   0.202   6.601
 9591SOL    HW229673   3.069   0.277   6.456
 9592SOL     OW29674   2.468   4.549   6.580
 9592SOL    HW129675   2.484   4.461   6.625
 9592SOL    HW229676   2.446   4.534   6.483
 9593SOL     OW29677   1.392   2.111   5.147
 9593SOL    HW129678   1.435   2.030   5.186
 9593SOL    HW229679   1.418   2.120   5.051
 9594SOL     OW29680   0.989   5.754   4.226
 9594SOL    HW129681   1.064   5.818   4.245
 9594SOL    HW229682   1.024   5.679   4.170
 9595SOL     OW29683   0.234   3.126   4.049
 9595SOL    HW129684   0.185   3.039   4.050
 9595SOL    HW229685   0.169   3.200   4.068
 9596SOL     OW29686   0.284   6.325   0.854
 9596SOL    HW129687   0.364   6.271   0.881
 9596SOL    HW229688   0.207   6.265   0.838
 9597SOL     OW29689   0.987   3.980   2.991
 9597SOL    HW129690   0.931   3.980   3.074
 9597SOL    HW229691   1.040   4.065   2.987
 9598SOL     OW29692   1.464   3.510   3.043
 9598SOL    HW129693   1.367   3.518   3.023
 9598SOL    HW229694   1.514   3.493   2.958
 9599SOL     OW29695   3.283   0.217   3.496
 9599SOL    HW129696   3.325   0.182   3.579
 9599SOL    HW229697   3.234   0.143   3.449
 9600SOL     OW29698   3.308   0.548   1.063
 9600SOL    HW129699   3.253   0.561   0.980
 9600SOL    HW229700   3.263   0.593   1.140
 9601SOL     OW29701   6.663   4.203   1.330
 9601SOL    HW129702   6.590   4.220   1.263
 9601SOL    HW229703   6.636   4.127   1.389
 9602SOL     OW29704   5.104   3.836   5.344
 9602SOL    HW129705   5.135   3.768   5.410
 9602SOL    HW229706   5.004   3.837   5.342
 9603SOL     OW29707   5.419   6.672   5.722
 9603SOL    HW129708   5.471   6.643   5.642
 9603SOL    HW229709   5.346   6.735   5.695
 9604SOL     OW29710   5.323   0.029   0.641
 9604SOL    HW129711   5.244   0.089   0.628
 9604SOL    HW229712   5.339   0.015   0.738
 9605SOL     OW29713   6.581   5.583   3.758
 9605SOL    HW129714   6.508   5.652   3.765
 9605SOL    HW229715   6.666   5.620   3.794
 9606SOL     OW29716   1.359   1.189   6.484
 9606SOL    HW129717   1.438   1.248   6.497
 9606SOL    HW229718   1.281   1.225   6.535
 9607SOL     OW29719   3.572   2.311   6.122
 9607SOL    HW129720   3.485   2.334   6.078
 9607SOL    HW229721   3.608   2.393   6.168
 9608SOL     OW29722   6.681   4.190   2.706
 9608SOL    HW129723   6.643   4.101   2.732
 9608SOL    HW229724   6.616   4.239   2.648
 9609SOL     OW29725   4.109   2.559   6.359
 9609SOL    HW129726   4.141   2.486   6.419
 9609SOL    HW229727   4.038   2.524   6.298
 9610SOL     OW29728   1.583   3.787   2.714
 9610SOL    HW129729   1.500   3.732   2.699
 9610SOL    HW229730   1.598   3.799   2.812
 9611SOL     OW29731   1.819   0.290   1.370
 9611SOL    HW129732   1.909   0.291   1.413
 9611SOL    HW229733   1.765   0.367   1.405
 9612SOL     OW29734   0.628   2.946   2.788
 9612SOL    HW129735   0.533   2.977   2.789
 9612SOL    HW229736   0.669   2.964   2.699
 9613SOL     OW29737   6.244   6.231   3.707
 9613SOL    HW129738   6.145   6.226   3.708
 9613SOL    HW229739   6.274   6.315   3.664
 9614SOL     OW29740   4.939   1.879   2.942
 9614SOL    HW129741   4.927   1.792   2.894
 9614SOL    HW229742   4.914   1.868   3.038
 9615SOL     OW29743   2.526   2.475   1.114
 9615SOL    HW129744   2.592   2.534   1.161
 9615SOL    HW229745   2.456   2.532   1.072
 9616SOL     OW29746   3.800   2.967   0.604
 9616SOL    HW129747   3.705   2.985   0.632
 9616SOL    HW229748   3.813   2.868   0.595
 9617SOL     OW29749   2.170   2.831   3.850
 9617SOL    HW129750   2.136   2.823   3.943
 9617SOL    HW229751   2.225   2.914   3.841
 9618SOL     OW29752   3.006   1.192   0.688
 9618SOL    HW129753   3.073   1.146   0.629
 9618SOL    HW229754   2.932   1.127   0.710
 9619SOL     OW29755   2.395   0.851   5.467
 9619SOL    HW129756   2.333   0.867   5.544
 9619SOL    HW229757   2.441   0.937   5.444
 9620SOL     OW29758   4.955   0.255   4.715
 9620SOL    HW129759   5.017   0.306   4.773
 9620SOL    HW229760   4.898   0.318   4.662
 9621SOL     OW29761   1.562   2.621   2.391
 9621SOL    HW129762   1.481   2.635   2.334
 9621SOL    HW229763   1.636   2.584   2.335
 9622SOL     OW29764   5.974   1.192   1.012
 9622SOL    HW129765   6.001   1.273   0.961
 9622SOL    HW229766   5.998   1.204   1.109
 9623SOL     OW29767   3.502   3.019   6.155
 9623SOL    HW129768   3.512   3.024   6.255
 9623SOL    HW229769   3.523   2.926   6.124
 9624SOL     OW29770   5.918   3.374   3.124
 9624SOL    HW129771   5.982   3.314   3.174
 9624SOL    HW229772   5.828   3.331   3.121
 9625SOL     OW29773   5.984   6.275   0.404
 9625SOL    HW129774   5.984   6.278   0.304
 9625SOL    HW229775   6.049   6.206   0.436
 9626SOL     OW29776   3.854   5.441   0.075
 9626SOL    HW129777   3.909   5.501   0.016
 9626SOL    HW229778   3.816   5.495   0.150
 9627SOL     OW29779   1.506   5.960   6.437
 9627SOL    HW129780   1.484   5.970   6.339
 9627SOL    HW229781   1.566   6.035   6.464
 9628SOL     OW29782   4.592   5.890   1.017
 9628SOL    HW129783   4.631   5.855   1.102
 9628SOL    HW229784   4.527   5.963   1.038
 9629SOL     OW29785   2.833   0.240   1.106
 9629SOL    HW129786   2.835   0.142   1.087
 9629SOL    HW229787   2.906   0.263   1.170
 9630SOL     OW29788   6.692   0.457   5.864
 9630SOL    HW129789   6.646   0.382   5.911
 9630SOL    HW229790   6.735   0.517   5.931
 9631SOL     OW29791   6.487   6.851   6.521
 9631SOL    HW129792   6.518   6.770   6.571
 9631SOL    HW229793   6.562   6.886   6.465
 9632SOL     OW29794   1.634   6.557   2.022
 9632SOL    HW129795   1.621   6.482   2.087
 9632SOL    HW229796   1.718   6.543   1.970
 9633SOL     OW29797   6.211   5.382   6.666
 9633SOL    HW129798   6.114   5.409   6.667
 9633SOL    HW229799   6.239   5.353   6.757
 9634SOL     OW29800   1.171   6.642   4.761
 9634SOL    HW129801   1.249   6.582   4.782
 9634SOL    HW229802   1.088   6.603   4.802
 9635SOL     OW29803   2.358   5.282   4.482
 9635SOL    HW129804   2.323   5.216   4.549
 9635SOL    HW229805   2.365   5.238   4.393
 9636SOL     OW29806   4.491   1.451   5.035
 9636SOL    HW129807   4.422   1.512   5.071
 9636SOL    HW229808   4.501   1.466   4.937
 9637SOL     OW29809   1.750   1.790   6.583
 9637SOL    HW129810   1.787   1.837   6.663
 9637SOL    HW229811   1.771   1.842   6.501
 9638SOL     OW29812   6.614   3.083   5.319
 9638SOL    HW129813   6.626   3.168   5.371
 9638SOL    HW229814   6.572   3.014   5.378
 9639SOL     OW29815   4.195   1.278   2.588
 9639SOL    HW129816   4.217   1.219   2.511
 9639SOL    HW229817   4.167   1.368   2.554
 9640SOL     OW29818   1.992   2.709   2.593
 9640SOL    HW129819   2.066   2.686   2.529
 9640SOL    HW229820   2.006   2.802   2.627
 9641SOL     OW29821   5.962   6.351   0.141
 9641SOL    HW129822   6.023   6.387   0.071
 9641SOL    HW229823   5.936   6.257   0.118
 9642SOL     OW29824   2.722   0.774   4.478
 9642SOL    HW129825   2.725   0.742   4.573
 9642SOL    HW229826   2.633   0.750   4.437
 9643SOL     OW29827   4.858   5.137   3.550
 9643SOL    HW129828   4.804   5.083   3.614
 9643SOL    HW229829   4.902   5.212   3.599
 9644SOL     OW29830   1.836   2.338   6.326
 9644SOL    HW129831   1.924   2.290   6.325
 9644SOL    HW229832   1.762   2.271   6.321
 9645SOL     OW29833   2.857   5.319   4.878
 9645SOL    HW129834   2.953   5.293   4.874
 9645SOL    HW229835   2.848   5.417   4.858
 9646SOL     OW29836   3.939   5.214   2.762
 9646SOL    HW129837   3.932   5.116   2.746
 9646SOL    HW229838   3.850   5.250   2.788
 9647SOL     OW29839   6.548   3.312   0.618
 9647SOL    HW129840   6.613   3.346   0.550
 9647SOL    HW229841   6.573   3.346   0.708
 9648SOL     OW29842   4.853   3.201   0.778
 9648SOL    HW129843   4.755   3.207   0.761
 9648SOL    HW229844   4.873   3.230   0.872
 9649SOL     OW29845   2.113   5.688   0.346
 9649SOL    HW129846   2.107   5.751   0.424
 9649SOL    HW229847   2.046   5.615   0.357
 9650SOL     OW29848   6.840   5.968   1.733
 9650SOL    HW129849   6.930   6.011   1.745
 9650SOL    HW229850   6.852   5.869   1.723
 9651SOL     OW29851   0.929   1.141   6.719
 9651SOL    HW129852   0.987   1.138   6.801
 9651SOL    HW229853   0.981   1.179   6.643
 9652SOL     OW29854   0.376   5.174   3.220
 9652SOL    HW129855   0.456   5.125   3.254
 9652SOL    HW229856   0.294   5.137   3.263
 9653SOL     OW29857   6.238   5.048   4.664
 9653SOL    HW129858   6.307   5.074   4.732
 9653SOL    HW229859   6.222   4.950   4.669
 9654SOL     OW29860   2.514   2.903   1.528
 9654SOL    HW129861   2.580   2.834   1.558
 9654SOL    HW229862   2.511   2.904   1.428
 9655SOL     OW29863   6.868   2.007   0.033
 9655SOL    HW129864   6.826   2.000   0.124
 9655SOL    HW229865   6.966   2.025   0.043
 9656SOL     OW29866   3.527   0.449   3.109
 9656SOL    HW129867   3.566   0.488   3.025
 9656SOL    HW229868   3.517   0.520   3.178
 9657SOL     OW29869   6.419   0.588   4.784
 9657SOL    HW129870   6.375   0.498   4.782
 9657SOL    HW229871   6.376   0.645   4.854
 9658SOL     OW29872   6.620   2.512   1.982
 9658SOL    HW129873   6.631   2.416   1.957
 9658SOL    HW229874   6.545   2.521   2.047
 9659SOL     OW29875   0.474   4.443   6.929
 9659SOL    HW129876   0.381   4.481   6.923
 9659SOL    HW229877   0.468   4.347   6.958
 9660SOL     OW29878   0.647   5.244   0.309
 9660SOL    HW129879   0.643   5.273   0.213
 9660SOL    HW229880   0.579   5.294   0.362
 9661SOL     OW29881   4.128   6.326   0.773
 9661SOL    HW129882   4.045   6.275   0.752
 9661SOL    HW229883   4.122   6.363   0.866
 9662SOL     OW29884   6.414   1.225   4.445
 9662SOL    HW129885   6.317   1.204   4.455
 9662SOL    HW229886   6.427   1.324   4.455
 9663SOL     OW29887   2.333   5.702   2.942
 9663SOL    HW129888   2.326   5.648   2.858
 9663SOL    HW229889   2.309   5.644   3.020
 9664SOL     OW29890   3.647   6.207   2.005
 9664SOL    HW129891   3.600   6.120   1.995
 9664SOL    HW229892   3.585   6.282   1.980
 9665SOL     OW29893   5.523   4.053   4.407
 9665SOL    HW129894   5.546   4.121   4.475
 9665SOL    HW229895   5.440   4.080   4.359
 9666SOL     OW29896   5.802   4.676   3.563
 9666SOL    HW129897   5.771   4.770   3.551
 9666SOL    HW229898   5.723   4.615   3.566
 9667SOL     OW29899   4.054   3.761   3.914
 9667SOL    HW129900   4.072   3.719   4.003
 9667SOL    HW229901   3.995   3.841   3.926
 9668SOL     OW29902   0.306   0.884   5.456
 9668SOL    HW129903   0.211   0.868   5.485
 9668SOL    HW229904   0.353   0.796   5.448
 9669SOL     OW29905   1.355   5.749   0.687
 9669SOL    HW129906   1.259   5.742   0.715
 9669SOL    HW229907   1.360   5.787   0.595
 9670SOL     OW29908   5.109   4.865   6.914
 9670SOL    HW129909   5.117   4.964   6.921
 9670SOL    HW229910   5.082   4.840   6.821
 9671SOL     OW29911   6.769   5.939   5.632
 9671SOL    HW129912   6.688   5.895   5.672
 9671SOL    HW229913   6.851   5.895   5.668
 9672SOL     OW29914   0.651   6.180   4.622
 9672SOL    HW129915   0.681   6.238   4.547
 9672SOL    HW229916   0.641   6.235   4.705
 9673SOL     OW29917   3.214   4.319   6.890
 9673SOL    HW129918   3.192   4.285   6.799
 9673SOL    HW229919   3.250   4.412   6.883
 9674SOL     OW29920   3.206   6.003   2.547
 9674SOL    HW129921   3.205   5.941   2.625
 9674SOL    HW229922   3.294   6.052   2.543
 9675SOL     OW29923   6.762   1.928   1.925
 9675SOL    HW129924   6.686   1.910   1.986
 9675SOL    HW229925   6.845   1.887   1.962
 9676SOL     OW29926   0.246   3.605   4.750
 9676SOL    HW129927   0.338   3.630   4.722
 9676SOL    HW229928   0.245   3.509   4.778
 9677SOL     OW29929   1.740   3.030   6.270
 9677SOL    HW129930   1.712   3.106   6.327
 9677SOL    HW229931   1.714   3.048   6.175
 9678SOL     OW29932   3.031   3.179   3.331
 9678SOL    HW129933   3.048   3.082   3.347
 9678SOL    HW229934   3.000   3.193   3.237
 9679SOL     OW29935   1.302   2.863   1.955
 9679SOL    HW129936   1.369   2.904   1.894
 9679SOL    HW229937   1.302   2.912   2.042
 9680SOL     OW29938   5.737   5.786   3.748
 9680SOL    HW129939   5.678   5.716   3.788
 9680SOL    HW229940   5.747   5.769   3.650
 9681SOL     OW29941   2.325   0.871   2.919
 9681SOL    HW129942   2.411   0.869   2.969
 9681SOL    HW229943   2.309   0.962   2.883
 9682SOL     OW29944   5.939   4.542   3.127
 9682SOL    HW129945   5.912   4.624   3.178
 9682SOL    HW229946   5.945   4.464   3.189
 9683SOL     OW29947   4.654   6.152   6.873
 9683SOL    HW129948   4.691   6.061   6.893
 9683SOL    HW229949   4.644   6.162   6.774
 9684SOL     OW29950   0.941   3.684   5.008
 9684SOL    HW129951   0.917   3.591   5.035
 9684SOL    HW229952   1.033   3.705   5.041
 9685SOL     OW29953   1.017   3.056   0.418
 9685SOL    HW129954   0.968   3.134   0.456
 9685SOL    HW229955   1.114   3.063   0.441
 9686SOL     OW29956   6.484   0.771   1.517
 9686SOL    HW129957   6.474   0.838   1.590
 9686SOL    HW229958   6.410   0.783   1.451
 9687SOL     OW29959   3.012   0.367   4.047
 9687SOL    HW129960   3.064   0.441   4.003
 9687SOL    HW229961   3.022   0.283   3.994
 9688SOL     OW29962   6.746   1.458   2.800
 9688SOL    HW129963   6.663   1.507   2.773
 9688SOL    HW229964   6.778   1.493   2.888
 9689SOL     OW29965   2.324   6.316   6.526
 9689SOL    HW129966   2.384   6.249   6.482
 9689SOL    HW229967   2.238   6.271   6.553
 9690SOL     OW29968   6.595   4.862   1.166
 9690SOL    HW129969   6.570   4.940   1.108
 9690SOL    HW229970   6.518   4.798   1.171
 9691SOL     OW29971   1.989   5.059   2.304
 9691SOL    HW129972   1.916   5.097   2.248
 9691SOL    HW229973   1.964   5.065   2.401
 9692SOL     OW29974   2.654   5.686   1.809
 9692SOL    HW129975   2.604   5.769   1.834
 9692SOL    HW229976   2.733   5.711   1.752
 9693SOL     OW29977   6.262   6.358   1.955
 9693SOL    HW129978   6.196   6.297   1.998
 9693SOL    HW229979   6.314   6.308   1.887
 9694SOL     OW29980   1.520   2.621   6.457
 9694SOL    HW129981   1.424   2.592   6.446
 9694SOL    HW229982   1.544   2.622   6.554
 9695SOL     OW29983   6.872   4.350   1.487
 9695SOL    HW129984   6.885   4.447   1.470
 9695SOL    HW229985   6.789   4.318   1.441
 9696SOL     OW29986   4.086   3.431   1.505
 9696SOL    HW129987   4.070   3.359   1.573
 9696SOL    HW229988   4.067   3.520   1.545
 9697SOL     OW29989   0.915   5.774   0.093
 9697SOL    HW129990   0.918   5.731   0.002
 9697SOL    HW229991   0.828   5.751   0.137
 9698SOL     OW29992   5.809   2.081   4.761
 9698SOL    HW129993   5.899   2.037   4.764
 9698SOL    HW229994   5.779   2.091   4.666
 9699SOL     OW29995   1.776   3.228   7.011
 9699SOL    HW129996   1.740   3.260   6.923
 9699SOL    HW229997   1.820   3.305   0.031
 9700SOL     OW29998   3.274   3.767   4.880
 9700SOL    HW129999   3.217   3.698   4.837
 9700SOL    HW230000   3.218   3.827   4.936
 9701SOL     OW30001   4.705   5.472   4.776
 9701SOL    HW130002   4.652   5.393   4.746
 9701SOL    HW230003   4.776   5.493   4.708
 9702SOL     OW30004   4.654   1.025   0.402
 9702SOL    HW130005   4.711   1.093   0.356
 9702SOL    HW230006   4.651   0.941   0.348
 9703SOL     OW30007   2.897   5.891   4.149
 9703SOL    HW130008   2.799   5.903   4.166
 9703SOL    HW230009   2.916   5.794   4.133
 9704SOL     OW30010   3.612   0.058   3.145
 9704SOL    HW130011   3.533   7.026   3.163
 9704SOL    HW230012   3.642   0.100   3.230
 9705SOL     OW30013   3.461   4.326   0.553
 9705SOL    HW130014   3.431   4.266   0.479
 9705SOL    HW230015   3.438   4.421   0.530
 9706SOL     OW30016   5.401   2.829   3.001
 9706SOL    HW130017   5.500   2.838   3.015
 9706SOL    HW230018   5.383   2.800   2.907
 9707SOL     OW30019   2.845   5.345   2.469
 9707SOL    HW130020   2.817   5.315   2.378
 9707SOL    HW230021   2.907   5.423   2.462
 9708SOL     OW30022   2.245   1.428   3.495
 9708SOL    HW130023   2.300   1.356   3.454
 9708SOL    HW230024   2.164   1.388   3.539
 9709SOL     OW30025   1.763   5.956   3.097
 9709SOL    HW130026   1.699   6.033   3.098
 9709SOL    HW230027   1.763   5.914   3.006
 9710SOL     OW30028   0.610   0.799   3.451
 9710SOL    HW130029   0.517   0.836   3.447
 9710SOL    HW230030   0.648   0.813   3.543
 9711SOL     OW30031   1.190   3.741   5.359
 9711SOL    HW130032   1.190   3.716   5.262
 9711SOL    HW230033   1.126   3.817   5.374
 9712SOL     OW30034   4.993   1.982   3.861
 9712SOL    HW130035   5.071   1.997   3.922
 9712SOL    HW230036   5.024   1.981   3.766
 9713SOL     OW30037   6.956   5.117   2.851
 9713SOL    HW130038   6.898   5.174   2.911
 9713SOL    HW230039   0.014   5.166   2.831
 9714SOL     OW30040   2.034   2.237   1.302
 9714SOL    HW130041   2.129   2.263   1.283
 9714SOL    HW230042   1.995   2.298   1.371
 9715SOL     OW30043   5.005   5.743   4.942
 9715SOL    HW130044   5.025   5.828   4.989
 9715SOL    HW230045   4.918   5.707   4.975
 9716SOL     OW30046   4.365   2.133   6.398
 9716SOL    HW130047   4.330   2.050   6.442
 9716SOL    HW230048   4.295   2.204   6.400
 9717SOL     OW30049   5.820   5.422   4.115
 9717SOL    HW130050   5.747   5.386   4.057
 9717SOL    HW230051   5.869   5.347   4.158
 9718SOL     OW30052   4.394   3.339   1.419
 9718SOL    HW130053   4.411   3.243   1.442
 9718SOL    HW230054   4.345   3.383   1.495
 9719SOL     OW30055   0.426   1.975   0.079
 9719SOL    HW130056   0.471   1.986   7.018
 9719SOL    HW230057   0.431   1.879   0.108
 9720SOL     OW30058   6.655   0.568   2.054
 9720SOL    HW130059   6.559   0.596   2.043
 9720SOL    HW230060   6.679   0.502   1.983
 9721SOL     OW30061   6.616   3.874   2.345
 9721SOL    HW130062   6.527   3.852   2.385
 9721SOL    HW230063   6.631   3.973   2.351
 9722SOL     OW30064   0.801   0.691   4.072
 9722SOL    HW130065   0.808   0.779   4.025
 9722SOL    HW230066   0.706   0.672   4.095
 9723SOL     OW30067   0.681   0.935   3.728
 9723SOL    HW130068   0.658   0.856   3.785
 9723SOL    HW230069   0.607   1.002   3.732
 9724SOL     OW30070   3.603   2.537   1.418
 9724SOL    HW130071   3.652   2.605   1.473
 9724SOL    HW230072   3.570   2.464   1.478
 9725SOL     OW30073   4.309   3.303   5.605
 9725SOL    HW130074   4.359   3.218   5.588
 9725SOL    HW230075   4.276   3.304   5.699
 9726SOL     OW30076   4.768   6.505   4.751
 9726SOL    HW130077   4.838   6.449   4.794
 9726SOL    HW230078   4.784   6.602   4.773
 9727SOL     OW30079   1.498   2.876   5.978
 9727SOL    HW130080   1.547   2.864   5.892
 9727SOL    HW230081   1.505   2.793   6.033
 9728SOL     OW30082   2.580   5.967   0.144
 9728SOL    HW130083   2.596   5.874   0.177
 9728SOL    HW230084   2.523   5.964   0.061
 9729SOL     OW30085   2.834   5.028   2.817
 9729SOL    HW130086   2.737   5.023   2.841
 9729SOL    HW230087   2.869   4.936   2.799
 9730SOL     OW30088   6.402   2.940   3.074
 9730SOL    HW130089   6.451   3.024   3.096
 9730SOL    HW230090   6.312   2.962   3.038
 9731SOL     OW30091   3.689   4.875   1.035
 9731SOL    HW130092   3.716   4.783   1.007
 9731SOL    HW230093   3.675   4.933   0.955
 9732SOL     OW30094   6.606   6.296   2.788
 9732SOL    HW130095   6.519   6.339   2.813
 9732SOL    HW230096   6.657   6.274   2.871
 9733SOL     OW30097   5.042   4.356   5.554
 9733SOL    HW130098   4.988   4.280   5.591
 9733SOL    HW230099   4.995   4.394   5.474
 9734SOL     OW30100   5.183   2.606   4.422
 9734SOL    HW130101   5.260   2.587   4.361
 9734SOL    HW230102   5.101   2.624   4.368
 9735SOL     OW30103   1.717   4.642   1.527
 9735SOL    HW130104   1.747   4.557   1.570
 9735SOL    HW230105   1.712   4.714   1.596
 9736SOL     OW30106   4.018   1.294   0.258
 9736SOL    HW130107   3.937   1.346   0.229
 9736SOL    HW230108   4.092   1.308   0.192
 9737SOL     OW30109   4.078   2.208   5.122
 9737SOL    HW130110   4.126   2.290   5.092
 9737SOL    HW230111   4.144   2.137   5.146
 9738SOL     OW30112   1.342   1.111   2.921
 9738SOL    HW130113   1.249   1.083   2.948
 9738SOL    HW230114   1.391   1.031   2.887
 9739SOL     OW30115   5.720   4.766   1.860
 9739SOL    HW130116   5.761   4.837   1.802
 9739SOL    HW230117   5.730   4.792   1.956
 9740SOL     OW30118   6.635   4.654   2.872
 9740SOL    HW130119   6.703   4.704   2.925
 9740SOL    HW230120   6.555   4.712   2.856
 9741SOL     OW30121   4.274   2.302   2.169
 9741SOL    HW130122   4.182   2.265   2.158
 9741SOL    HW230123   4.339   2.242   2.121
 9742SOL     OW30124   5.231   1.311   3.793
 9742SOL    HW130125   5.263   1.373   3.722
 9742SOL    HW230126   5.135   1.331   3.815
 9743SOL     OW30127   1.682   3.086   6.022
 9743SOL    HW130128   1.607   3.023   6.002
 9743SOL    HW230129   1.659   3.178   5.990
 9744SOL     OW30130   2.228   0.922   2.005
 9744SOL    HW130131   2.242   0.969   1.918
 9744SOL    HW230132   2.267   0.830   1.999
 9745SOL     OW30133   0.081   2.593   5.122
 9745SOL    HW130134   0.170   2.618   5.160
 9745SOL    HW230135   0.009   2.616   5.187
 9746SOL     OW30136   6.152   0.927   4.911
 9746SOL    HW130137   6.061   0.897   4.941
 9746SOL    HW230138   6.221   0.864   4.948
 9747SOL     OW30139   0.672   7.023   6.138
 9747SOL    HW130140   0.741   0.067   6.126
 9747SOL    HW230141   0.618   0.016   6.220
 9748SOL     OW30142   0.594   6.168   4.165
 9748SOL    HW130143   0.519   6.194   4.106
 9748SOL    HW230144   0.679   6.164   4.112
 9749SOL     OW30145   0.667   4.252   4.170
 9749SOL    HW130146   0.702   4.287   4.083
 9749SOL    HW230147   0.667   4.326   4.237
 9750SOL     OW30148   4.056   4.831   3.676
 9750SOL    HW130149   3.962   4.844   3.709
 9750SOL    HW230150   4.054   4.812   3.578
 9751SOL     OW30151   1.514   2.674   0.460
 9751SOL    HW130152   1.565   2.660   0.545
 9751SOL    HW230153   1.478   2.587   0.428
 9752SOL     OW30154   4.466   1.229   6.112
 9752SOL    HW130155   4.475   1.329   6.116
 9752SOL    HW230156   4.438   1.202   6.021
 9753SOL     OW30157   0.035   5.335   5.249
 9753SOL    HW130158   6.971   5.373   5.261
 9753SOL    HW230159   0.094   5.402   5.205
 9754SOL     OW30160   1.151   1.367   6.619
 9754SOL    HW130161   1.229   1.429   6.618
 9754SOL    HW230162   1.120   1.353   6.713
 9755SOL     OW30163   3.783   4.904   5.441
 9755SOL    HW130164   3.770   4.816   5.396
 9755SOL    HW230165   3.703   4.925   5.497
 9756SOL     OW30166   5.940   2.282   6.381
 9756SOL    HW130167   5.869   2.214   6.362
 9756SOL    HW230168   5.922   2.366   6.330
 9757SOL     OW30169   6.089   2.398   3.718
 9757SOL    HW130170   6.135   2.484   3.694
 9757SOL    HW230171   6.070   2.397   3.816
 9758SOL     OW30172   3.001   0.518   0.146
 9758SOL    HW130173   2.914   0.567   0.138
 9758SOL    HW230174   3.003   0.468   0.232
 9759SOL     OW30175   3.183   6.242   0.763
 9759SOL    HW130176   3.092   6.200   0.767
 9759SOL    HW230177   3.243   6.194   0.827
 9760SOL     OW30178   6.102   4.608   5.896
 9760SOL    HW130179   6.103   4.631   5.799
 9760SOL    HW230180   6.013   4.631   5.935
 9761SOL     OW30181   5.551   5.615   1.609
 9761SOL    HW130182   5.532   5.684   1.679
 9761SOL    HW230183   5.580   5.530   1.653
 9762SOL     OW30184   2.512   1.507   5.046
 9762SOL    HW130185   2.457   1.430   5.013
 9762SOL    HW230186   2.454   1.588   5.055
 9763SOL     OW30187   2.470   1.760   0.671
 9763SOL    HW130188   2.512   1.672   0.691
 9763SOL    HW230189   2.370   1.749   0.668
 9764SOL     OW30190   1.151   1.978   1.953
 9764SOL    HW130191   1.084   1.976   1.879
 9764SOL    HW230192   1.234   2.024   1.922
 9765SOL     OW30193   0.662   1.905   5.332
 9765SOL    HW130194   0.646   1.997   5.369
 9765SOL    HW230195   0.603   1.890   5.253
 9766SOL     OW30196   2.997   0.206   2.388
 9766SOL    HW130197   3.017   0.297   2.351
 9766SOL    HW230198   3.025   0.137   2.322
 9767SOL     OW30199   5.200   0.296   4.957
 9767SOL    HW130200   5.273   0.243   5.000
 9767SOL    HW230201   5.119   0.294   5.015
 9768SOL     OW30202   4.519   2.387   2.323
 9768SOL    HW130203   4.436   2.339   2.292
 9768SOL    HW230204   4.589   2.319   2.346
 9769SOL     OW30205   0.944   1.920   1.334
 9769SOL    HW130206   0.868   1.921   1.268
 9769SOL    HW230207   0.975   1.826   1.348
 9770SOL     OW30208   5.714   4.958   6.131
 9770SOL    HW130209   5.781   4.994   6.067
 9770SOL    HW230210   5.717   4.858   6.130
 9771SOL     OW30211   3.767   5.608   5.980
 9771SOL    HW130212   3.754   5.607   5.881
 9771SOL    HW230213   3.678   5.598   6.025
 9772SOL     OW30214   6.228   0.566   1.589
 9772SOL    HW130215   6.136   0.588   1.559
 9772SOL    HW230216   6.269   0.501   1.525
 9773SOL     OW30217   6.205   5.522   3.148
 9773SOL    HW130218   6.142   5.475   3.086
 9773SOL    HW230219   6.180   5.618   3.154
 9774SOL     OW30220   0.109   4.698   3.307
 9774SOL    HW130221   0.026   4.729   3.352
 9774SOL    HW230222   0.115   4.599   3.311
 9775SOL     OW30223   2.428   2.706   4.775
 9775SOL    HW130224   2.517   2.749   4.758
 9775SOL    HW230225   2.386   2.680   4.688
 9776SOL     OW30226   0.653   5.741   4.915
 9776SOL    HW130227   0.739   5.702   4.946
 9776SOL    HW230228   0.670   5.823   4.861
 9777SOL     OW30229   5.554   4.474   6.144
 9777SOL    HW130230   5.604   4.445   6.063
 9777SOL    HW230231   5.525   4.394   6.196
 9778SOL     OW30232   4.769   0.459   2.429
 9778SOL    HW130233   4.783   0.519   2.508
 9778SOL    HW230234   4.736   0.512   2.351
 9779SOL     OW30235   2.680   1.696   5.858
 9779SOL    HW130236   2.588   1.673   5.825
 9779SOL    HW230237   2.681   1.790   5.890
 9780SOL     OW30238   3.594   4.496   0.155
 9780SOL    HW130239   3.528   4.426   0.183
 9780SOL    HW230240   3.644   4.529   0.236
 9781SOL     OW30241   1.657   4.926   4.526
 9781SOL    HW130242   1.593   4.924   4.602
 9781SOL    HW230243   1.725   4.998   4.540
 9782SOL     OW30244   6.831   0.538   1.088
 9782SOL    HW130245   6.798   0.445   1.104
 9782SOL    HW230246   6.931   0.537   1.083
 9783SOL     OW30247   5.017   1.161   2.106
 9783SOL    HW130248   4.966   1.211   2.035
 9783SOL    HW230249   5.104   1.208   2.123
 9784SOL     OW30250   4.863   0.752   3.727
 9784SOL    HW130251   4.836   0.708   3.812
 9784SOL    HW230252   4.783   0.764   3.669
 9785SOL     OW30253   0.475   2.928   1.822
 9785SOL    HW130254   0.405   2.944   1.891
 9785SOL    HW230255   0.556   2.983   1.843
 9786SOL     OW30256   2.697   6.275   4.945
 9786SOL    HW130257   2.692   6.326   4.859
 9786SOL    HW230258   2.779   6.303   4.995
 9787SOL     OW30259   5.372   4.035   2.212
 9787SOL    HW130260   5.368   4.115   2.152
 9787SOL    HW230261   5.439   4.052   2.284
 9788SOL     OW30262   7.005   1.494   5.587
 9788SOL    HW130263   6.939   1.456   5.652
 9788SOL    HW230264   0.031   1.566   5.632
 9789SOL     OW30265   2.170   5.823   4.719
 9789SOL    HW130266   2.094   5.865   4.670
 9789SOL    HW230267   2.144   5.732   4.751
 9790SOL     OW30268   6.185   1.761   4.510
 9790SOL    HW130269   6.196   1.671   4.468
 9790SOL    HW230270   6.135   1.751   4.596
 9791SOL     OW30271   0.706   2.526   1.042
 9791SOL    HW130272   0.778   2.548   0.977
 9791SOL    HW230273   0.739   2.540   1.135
 9792SOL     OW30274   4.338   5.535   1.473
 9792SOL    HW130275   4.430   5.565   1.498
 9792SOL    HW230276   4.278   5.615   1.467
 9793SOL     OW30277   4.731   6.151   2.099
 9793SOL    HW130278   4.794   6.165   2.023
 9793SOL    HW230279   4.783   6.133   2.183
 9794SOL     OW30280   3.677   2.616   6.608
 9794SOL    HW130281   3.627   2.566   6.679
 9794SOL    HW230282   3.692   2.710   6.638
 9795SOL     OW30283   1.515   3.294   4.328
 9795SOL    HW130284   1.602   3.249   4.348
 9795SOL    HW230285   1.470   3.245   4.253
 9796SOL     OW30286   3.368   5.012   6.775
 9796SOL    HW130287   3.275   4.979   6.756
 9796SOL    HW230288   3.382   5.100   6.730
 9797SOL     OW30289   4.716   3.086   5.340
 9797SOL    HW130290   4.762   3.030   5.408
 9797SOL    HW230291   4.713   3.181   5.371
 9798SOL     OW30292   1.724   1.921   1.223
 9798SOL    HW130293   1.686   1.949   1.135
 9798SOL    HW230294   1.677   1.969   1.297
 9799SOL     OW30295   3.077   4.035   2.130
 9799SOL    HW130296   2.999   4.095   2.148
 9799SOL    HW230297   3.047   3.956   2.078
 9800SOL     OW30298   4.228   4.948   6.633
 9800SOL    HW130299   4.246   5.046   6.624
 9800SOL    HW230300   4.220   4.924   6.729
 9801SOL     OW30301   4.632   4.982   6.911
 9801SOL    HW130302   4.637   5.032   6.824
 9801SOL    HW230303   4.555   5.016   6.964
 9802SOL     OW30304   6.856   3.442   0.663
 9802SOL    HW130305   6.825   3.421   0.570
 9802SOL    HW230306   6.910   3.526   0.662
 9803SOL     OW30307   6.234   0.744   6.766
 9803SOL    HW130308   6.157   0.808   6.764
 9803SOL    HW230309   6.236   0.697   6.854
 9804SOL     OW30310   5.875   5.389   4.606
 9804SOL    HW130311   5.810   5.415   4.678
 9804SOL    HW230312   5.859   5.446   4.525
 9805SOL     OW30313   2.493   5.075   6.989
 9805SOL    HW130314   2.454   5.106   0.049
 9805SOL    HW230315   2.426   5.089   6.916
 9806SOL     OW30316   6.838   1.575   3.014
 9806SOL    HW130317   6.774   1.609   3.083
 9806SOL    HW230318   6.891   1.651   2.977
 9807SOL     OW30319   3.841   2.676   0.837
 9807SOL    HW130320   3.938   2.692   0.854
 9807SOL    HW230321   3.796   2.651   0.923
 9808SOL     OW30322   1.248   1.554   4.972
 9808SOL    HW130323   1.223   1.581   4.878
 9808SOL    HW230324   1.193   1.606   5.037
 9809SOL     OW30325   1.245   1.203   4.854
 9809SOL    HW130326   1.169   1.142   4.832
 9809SOL    HW230327   1.227   1.250   4.940
 9810SOL     OW30328   3.763   0.810   3.449
 9810SOL    HW130329   3.801   0.896   3.483
 9810SOL    HW230330   3.735   0.753   3.527
 9811SOL     OW30331   0.823   6.642   2.880
 9811SOL    HW130332   0.786   6.666   2.970
 9811SOL    HW230333   0.818   6.721   2.820
 9812SOL     OW30334   4.891   2.313   5.490
 9812SOL    HW130335   4.833   2.382   5.535
 9812SOL    HW230336   4.849   2.223   5.502
 9813SOL     OW30337   6.684   4.723   0.403
 9813SOL    HW130338   6.699   4.780   0.323
 9813SOL    HW230339   6.603   4.756   0.452
 9814SOL     OW30340   7.006   0.265   5.496
 9814SOL    HW130341   0.061   0.318   5.475
 9814SOL    HW230342   6.934   0.326   5.528
 9815SOL     OW30343   6.583   3.903   2.754
 9815SOL    HW130344   6.493   3.859   2.750
 9815SOL    HW230345   6.650   3.846   2.707
 9816SOL     OW30346   0.229   6.663   6.282
 9816SOL    HW130347   0.268   6.728   6.347
 9816SOL    HW230348   0.299   6.595   6.257
 9817SOL     OW30349   2.730   6.675   6.843
 9817SOL    HW130350   2.706   6.631   6.930
 9817SOL    HW230351   2.772   6.607   6.782
 9818SOL     OW30352   0.748   6.651   3.221
 9818SOL    HW130353   0.694   6.735   3.216
 9818SOL    HW230354   0.806   6.653   3.302
 9819SOL     OW30355   6.872   3.428   4.922
 9819SOL    HW130356   6.942   3.448   4.991
 9819SOL    HW230357   6.910   3.444   4.831
 9820SOL     OW30358   4.241   2.004   5.916
 9820SOL    HW130359   4.288   2.011   5.828
 9820SOL    HW230360   4.272   2.078   5.976
 9821SOL     OW30361   4.053   3.221   1.301
 9821SOL    HW130362   3.977   3.174   1.345
 9821SOL    HW230363   4.099   3.281   1.366
 9822SOL     OW30364   3.595   6.398   5.757
 9822SOL    HW130365   3.568   6.483   5.712
 9822SOL    HW230366   3.667   6.353   5.704
 9823SOL     OW30367   2.386   0.152   3.127
 9823SOL    HW130368   2.347   0.085   3.064
 9823SOL    HW230369   2.367   0.245   3.093
 9824SOL     OW30370   0.891   6.175   5.263
 9824SOL    HW130371   0.930   6.083   5.253
 9824SOL    HW230372   0.881   6.216   5.172
 9825SOL     OW30373   5.856   6.690   4.984
 9825SOL    HW130374   5.760   6.682   4.958
 9825SOL    HW230375   5.872   6.639   5.069
 9826SOL     OW30376   1.944   5.614   4.987
 9826SOL    HW130377   2.026   5.584   4.939
 9826SOL    HW230378   1.970   5.674   5.063
 9827SOL     OW30379   1.227   4.859   1.671
 9827SOL    HW130380   1.267   4.776   1.632
 9827SOL    HW230381   1.145   4.885   1.619
 9828SOL     OW30382   4.429   2.455   4.443
 9828SOL    HW130383   4.336   2.422   4.462
 9828SOL    HW230384   4.438   2.474   4.345
 9829SOL     OW30385   4.464   5.571   5.442
 9829SOL    HW130386   4.368   5.596   5.460
 9829SOL    HW230387   4.467   5.485   5.392
 9830SOL     OW30388   6.123   2.075   3.194
 9830SOL    HW130389   6.081   2.155   3.238
 9830SOL    HW230390   6.054   2.025   3.142
 9831SOL     OW30391   0.510   3.838   2.816
 9831SOL    HW130392   0.537   3.879   2.903
 9831SOL    HW230393   0.592   3.805   2.768
 9832SOL     OW30394   4.520   5.266   4.766
 9832SOL    HW130395   4.576   5.184   4.770
 9832SOL    HW230396   4.491   5.292   4.858
 9833SOL     OW30397   3.709   3.641   3.338
 9833SOL    HW130398   3.804   3.628   3.366
 9833SOL    HW230399   3.666   3.710   3.397
 9834SOL     OW30400   2.728   6.459   6.058
 9834SOL    HW130401   2.724   6.537   6.121
 9834SOL    HW230402   2.824   6.434   6.043
 9835SOL     OW30403   3.889   4.013   3.969
 9835SOL    HW130404   3.815   3.945   3.972
 9835SOL    HW230405   3.892   4.063   4.055
 9836SOL     OW30406   0.315   4.328   6.028
 9836SOL    HW130407   0.341   4.235   6.004
 9836SOL    HW230408   0.392   4.374   6.072
 9837SOL     OW30409   5.699   2.020   2.992
 9837SOL    HW130410   5.640   1.947   2.959
 9837SOL    HW230411   5.783   1.981   3.029
 9838SOL     OW30412   2.236   6.904   1.397
 9838SOL    HW130413   2.138   6.915   1.388
 9838SOL    HW230414   2.283   6.959   1.328
 9839SOL     OW30415   5.329   0.338   3.692
 9839SOL    HW130416   5.320   0.371   3.786
 9839SOL    HW230417   5.245   0.358   3.641
 9840SOL     OW30418   6.132   1.628   6.591
 9840SOL    HW130419   6.143   1.722   6.560
 9840SOL    HW230420   6.175   1.617   6.681
 9841SOL     OW30421   0.295   6.451   3.073
 9841SOL    HW130422   0.344   6.496   2.999
 9841SOL    HW230423   0.202   6.490   3.080
 9842SOL     OW30424   3.313   1.078   6.591
 9842SOL    HW130425   3.402   1.037   6.611
 9842SOL    HW230426   3.282   1.048   6.501
 9843SOL     OW30427   0.590   0.115   1.259
 9843SOL    HW130428   0.514   0.177   1.237
 9843SOL    HW230429   0.594   0.041   1.191
 9844SOL     OW30430   4.352   0.029   3.945
 9844SOL    HW130431   4.273   7.005   3.908
 9844SOL    HW230432   4.402   0.071   3.869
 9845SOL     OW30433   1.883   3.593   2.630
 9845SOL    HW130434   1.809   3.643   2.584
 9845SOL    HW230435   1.940   3.547   2.561
 9846SOL     OW30436   5.614   2.429   1.781
 9846SOL    HW130437   5.553   2.508   1.773
 9846SOL    HW230438   5.647   2.423   1.876
 9847SOL     OW30439   4.290   4.135   6.822
 9847SOL    HW130440   4.247   4.160   6.908
 9847SOL    HW230441   4.221   4.139   6.749
 9848SOL     OW30442   3.237   4.223   5.713
 9848SOL    HW130443   3.331   4.212   5.744
 9848SOL    HW230444   3.229   4.188   5.619
 9849SOL     OW30445   0.547   2.372   4.393
 9849SOL    HW130446   0.543   2.387   4.294
 9849SOL    HW230447   0.457   2.392   4.433
 9850SOL     OW30448   1.312   0.629   4.523
 9850SOL    HW130449   1.296   0.556   4.590
 9850SOL    HW230450   1.409   0.655   4.526
 9851SOL     OW30451   3.743   5.226   4.889
 9851SOL    HW130452   3.836   5.230   4.926
 9851SOL    HW230453   3.727   5.136   4.850
 9852SOL     OW30454   2.315   0.554   0.086
 9852SOL    HW130455   2.324   0.615   0.165
 9852SOL    HW230456   2.223   0.516   0.084
 9853SOL     OW30457   0.107   4.432   3.360
 9853SOL    HW130458   0.019   4.397   3.330
 9853SOL    HW230459   0.161   4.358   3.400
 9854SOL     OW30460   0.826   4.312   6.210
 9854SOL    HW130461   0.899   4.378   6.195
 9854SOL    HW230462   0.738   4.359   6.210
 9855SOL     OW30463   1.188   4.962   1.022
 9855SOL    HW130464   1.163   5.027   1.094
 9855SOL    HW230465   1.220   4.877   1.063
 9856SOL     OW30466   5.839   4.114   3.309
 9856SOL    HW130467   5.835   4.075   3.401
 9856SOL    HW230468   5.763   4.178   3.297
 9857SOL     OW30469   4.350   0.232   5.255
 9857SOL    HW130470   4.383   0.211   5.163
 9857SOL    HW230471   4.306   0.322   5.255
 9858SOL     OW30472   6.709   6.449   2.406
 9858SOL    HW130473   6.731   6.457   2.309
 9858SOL    HW230474   6.623   6.400   2.417
 9859SOL     OW30475   0.012   5.174   3.233
 9859SOL    HW130476   0.042   5.080   3.249
 9859SOL    HW230477   6.941   5.175   3.211
 9860SOL     OW30478   1.332   3.088   4.896
 9860SOL    HW130479   1.319   3.185   4.913
 9860SOL    HW230480   1.430   3.068   4.894
 9861SOL     OW30481   3.362   2.173   3.027
 9861SOL    HW130482   3.395   2.121   2.948
 9861SOL    HW230483   3.438   2.191   3.089
 9862SOL     OW30484   1.052   4.064   0.131
 9862SOL    HW130485   1.071   4.158   0.160
 9862SOL    HW230486   0.971   4.030   0.180
 9863SOL     OW30487   4.151   5.901   0.997
 9863SOL    HW130488   4.131   5.971   1.065
 9863SOL    HW230489   4.175   5.944   0.910
 9864SOL     OW30490   2.337   5.501   5.419
 9864SOL    HW130491   2.288   5.510   5.506
 9864SOL    HW230492   2.320   5.411   5.380
 9865SOL     OW30493   0.933   5.433   5.620
 9865SOL    HW130494   0.997   5.381   5.675
 9865SOL    HW230495   0.876   5.490   5.679
 9866SOL     OW30496   6.915   5.071   5.199
 9866SOL    HW130497   6.821   5.073   5.165
 9866SOL    HW230498   6.942   4.976   5.217
 9867SOL     OW30499   3.993   1.841   2.361
 9867SOL    HW130500   4.046   1.917   2.400
 9867SOL    HW230501   3.936   1.801   2.433
 9868SOL     OW30502   2.405   4.469   4.130
 9868SOL    HW130503   2.384   4.377   4.161
 9868SOL    HW230504   2.391   4.476   4.031
 9869SOL     OW30505   6.388   2.914   1.101
 9869SOL    HW130506   6.427   2.988   1.155
 9869SOL    HW230507   6.288   2.915   1.111
 9870SOL     OW30508   2.421   2.174   2.272
 9870SOL    HW130509   2.349   2.202   2.335
 9870SOL    HW230510   2.470   2.256   2.240
 9871SOL     OW30511   6.190   5.154   3.804
 9871SOL    HW130512   6.122   5.215   3.763
 9871SOL    HW230513   6.218   5.085   3.737
 9872SOL     OW30514   0.593   4.752   6.359
 9872SOL    HW130515   0.553   4.817   6.424
 9872SOL    HW230516   0.629   4.802   6.280
 9873SOL     OW30517   1.488   1.370   5.693
 9873SOL    HW130518   1.421   1.297   5.707
 9873SOL    HW230519   1.576   1.343   5.731
 9874SOL     OW30520   0.043   3.068   5.010
 9874SOL    HW130521   0.020   3.019   5.094
 9874SOL    HW230522   0.082   3.157   5.033
 9875SOL     OW30523   6.489   5.991   1.347
 9875SOL    HW130524   6.407   6.022   1.394
 9875SOL    HW230525   6.567   5.995   1.411
 9876SOL     OW30526   1.064   6.339   3.320
 9876SOL    HW130527   1.085   6.263   3.258
 9876SOL    HW230528   0.969   6.333   3.349
 9877SOL     OW30529   0.878   5.166   5.063
 9877SOL    HW130530   0.805   5.099   5.047
 9877SOL    HW230531   0.875   5.196   5.159
 9878SOL     OW30532   3.204   2.901   6.500
 9878SOL    HW130533   3.180   2.999   6.502
 9878SOL    HW230534   3.263   2.880   6.578
 9879SOL     OW30535   6.987   4.932   5.858
 9879SOL    HW130536   6.996   4.894   5.950
 9879SOL    HW230537   6.904   4.895   5.814
 9880SOL     OW30538   2.396   1.363   0.919
 9880SOL    HW130539   2.332   1.363   0.996
 9880SOL    HW230540   2.490   1.356   0.954
 9881SOL     OW30541   6.537   1.438   3.768
 9881SOL    HW130542   6.487   1.503   3.826
 9881SOL    HW230543   6.535   1.348   3.811
 9882SOL     OW30544   3.644   3.158   5.495
 9882SOL    HW130545   3.696   3.154   5.410
 9882SOL    HW230546   3.678   3.088   5.558
 9883SOL     OW30547   1.917   0.300   2.127
 9883SOL    HW130548   1.837   0.245   2.151
 9883SOL    HW230549   1.981   0.301   2.205
 9884SOL     OW30550   2.983   2.369   5.310
 9884SOL    HW130551   3.076   2.357   5.275
 9884SOL    HW230552   2.958   2.465   5.306
 9885SOL     OW30553   5.105   3.228   5.372
 9885SOL    HW130554   5.120   3.196   5.466
 9885SOL    HW230555   5.018   3.191   5.338
 9886SOL     OW30556   3.552   6.099   1.529
 9886SOL    HW130557   3.558   6.089   1.430
 9886SOL    HW230558   3.575   6.193   1.555
 9887SOL     OW30559   3.317   1.416   6.862
 9887SOL    HW130560   3.366   1.502   6.849
 9887SOL    HW230561   3.244   1.408   6.794
 9888SOL     OW30562   6.395   6.426   3.591
 9888SOL    HW130563   6.392   6.510   3.645
 9888SOL    HW230564   6.490   6.399   3.577
 9889SOL     OW30565   6.843   6.046   3.363
 9889SOL    HW130566   6.853   6.143   3.385
 9889SOL    HW230567   6.897   6.024   3.281
 9890SOL     OW30568   0.968   3.533   1.713
 9890SOL    HW130569   1.014   3.483   1.640
 9890SOL    HW230570   1.018   3.521   1.799
 9891SOL     OW30571   5.756   5.390   1.496
 9891SOL    HW130572   5.678   5.380   1.558
 9891SOL    HW230573   5.821   5.456   1.535
 9892SOL     OW30574   1.638   5.049   3.999
 9892SOL    HW130575   1.546   5.022   4.026
 9892SOL    HW230576   1.677   4.979   3.939
 9893SOL     OW30577   5.294   5.026   4.437
 9893SOL    HW130578   5.231   4.950   4.451
 9893SOL    HW230579   5.388   4.995   4.449
 9894SOL     OW30580   4.717   2.880   5.540
 9894SOL    HW130581   4.716   2.918   5.633
 9894SOL    HW230582   4.771   2.797   5.538
 9895SOL     OW30583   5.423   1.993   6.832
 9895SOL    HW130584   5.512   2.038   6.829
 9895SOL    HW230585   5.379   2.011   6.920
 9896SOL     OW30586   4.528   3.111   0.008
 9896SOL    HW130587   4.577   3.033   0.047
 9896SOL    HW230588   4.494   3.169   0.082
 9897SOL     OW30589   0.030   1.884   4.127
 9897SOL    HW130590   0.021   1.950   4.053
 9897SOL    HW230591   6.978   1.823   4.127
 9898SOL     OW30592   1.051   5.145   5.548
 9898SOL    HW130593   0.987   5.104   5.613
 9898SOL    HW230594   1.114   5.075   5.515
 9899SOL     OW30595   4.792   5.134   2.075
 9899SOL    HW130596   4.887   5.139   2.044
 9899SOL    HW230597   4.735   5.095   2.003
 9900SOL     OW30598   0.688   3.479   3.404
 9900SOL    HW130599   0.630   3.399   3.390
 9900SOL    HW230600   0.777   3.464   3.361
 9901SOL     OW30601   2.388   1.803   5.573
 9901SOL    HW130602   2.453   1.878   5.581
 9901SOL    HW230603   2.300   1.839   5.542
 9902SOL     OW30604   4.705   3.531   0.086
 9902SOL    HW130605   4.704   3.449   0.029
 9902SOL    HW230606   4.760   3.602   0.043
 9903SOL     OW30607   3.587   0.888   1.229
 9903SOL    HW130608   3.672   0.914   1.276
 9903SOL    HW230609   3.528   0.969   1.221
 9904SOL     OW30610   6.853   0.142   2.138
 9904SOL    HW130611   6.868   0.051   2.176
 9904SOL    HW230612   6.808   0.200   2.206
 9905SOL     OW30613   1.646   6.154   6.587
 9905SOL    HW130614   1.679   6.242   6.552
 9905SOL    HW230615   1.722   6.103   6.626
 9906SOL     OW30616   3.673   3.755   5.833
 9906SOL    HW130617   3.637   3.664   5.851
 9906SOL    HW230618   3.772   3.755   5.844
 9907SOL     OW30619   1.751   6.521   2.975
 9907SOL    HW130620   1.829   6.566   2.932
 9907SOL    HW230621   1.676   6.587   2.986
 9908SOL     OW30622   0.910   3.390   5.111
 9908SOL    HW130623   0.822   3.370   5.154
 9908SOL    HW230624   0.980   3.398   5.182
 9909SOL     OW30625   3.532   0.002   2.739
 9909SOL    HW130626   3.529   6.940   2.694
 9909SOL    HW230627   3.441   0.044   2.735
 9910SOL     OW30628   0.843   4.468   1.550
 9910SOL    HW130629   0.842   4.504   1.643
 9910SOL    HW230630   0.749   4.463   1.516
 9911SOL     OW30631   3.682   4.910   3.189
 9911SOL    HW130632   3.607   4.928   3.125
 9911SOL    HW230633   3.720   4.997   3.220
 9912SOL     OW30634   4.306   0.101   1.033
 9912SOL    HW130635   4.398   0.122   1.067
 9912SOL    HW230636   4.303   0.006   1.002
 9913SOL     OW30637   4.444   2.112   2.611
 9913SOL    HW130638   4.528   2.088   2.561
 9913SOL    HW230639   4.377   2.151   2.548
 9914SOL     OW30640   1.807   5.557   5.577
 9914SOL    HW130641   1.770   5.491   5.511
 9914SOL    HW230642   1.825   5.511   5.664
 9915SOL     OW30643   5.309   3.622   4.357
 9915SOL    HW130644   5.275   3.572   4.437
 9915SOL    HW230645   5.409   3.624   4.359
 9916SOL     OW30646   2.641   3.301   0.642
 9916SOL    HW130647   2.692   3.294   0.727
 9916SOL    HW230648   2.566   3.366   0.654
 9917SOL     OW30649   2.271   3.404   5.236
 9917SOL    HW130650   2.221   3.440   5.157
 9917SOL    HW230651   2.264   3.305   5.238
 9918SOL     OW30652   2.087   0.932   4.802
 9918SOL    HW130653   2.029   0.971   4.875
 9918SOL    HW230654   2.089   0.995   4.725
 9919SOL     OW30655   0.186   5.267   2.845
 9919SOL    HW130656   0.237   5.207   2.783
 9919SOL    HW230657   0.247   5.303   2.915
 9920SOL     OW30658   4.140   6.980   2.031
 9920SOL    HW130659   4.149   7.015   1.938
 9920SOL    HW230660   4.222   6.926   2.054
 9921SOL     OW30661   4.731   0.077   3.604
 9921SOL    HW130662   4.771   0.166   3.625
 9921SOL    HW230663   4.798   0.005   3.622
 9922SOL     OW30664   4.790   3.393   1.305
 9922SOL    HW130665   4.762   3.303   1.338
 9922SOL    HW230666   4.719   3.461   1.326
 9923SOL     OW30667   6.608   0.967   6.045
 9923SOL    HW130668   6.553   1.048   6.024
 9923SOL    HW230669   6.638   0.971   6.140
 9924SOL     OW30670   5.141   1.055   2.894
 9924SOL    HW130671   5.173   0.961   2.891
 9924SOL    HW230672   5.161   1.096   2.983
 9925SOL     OW30673   3.032   2.248   4.604
 9925SOL    HW130674   2.971   2.262   4.682
 9925SOL    HW230675   3.124   2.278   4.627
 9926SOL     OW30676   1.746   1.349   0.164
 9926SOL    HW130677   1.803   1.422   0.201
 9926SOL    HW230678   1.650   1.378   0.168
 9927SOL     OW30679   0.791   2.206   2.483
 9927SOL    HW130680   0.862   2.147   2.520
 9927SOL    HW230681   0.703   2.180   2.522
 9928SOL     OW30682   6.536   3.264   2.768
 9928SOL    HW130683   6.571   3.197   2.833
 9928SOL    HW230684   6.437   3.257   2.763
 9929SOL     OW30685   1.613   4.217   5.898
 9929SOL    HW130686   1.706   4.248   5.881
 9929SOL    HW230687   1.550   4.269   5.840
 9930SOL     OW30688   0.630   5.844   0.240
 9930SOL    HW130689   0.685   5.906   0.296
 9930SOL    HW230690   0.535   5.874   0.240
 9931SOL     OW30691   2.929   5.547   6.891
 9931SOL    HW130692   2.982   5.543   6.976
 9931SOL    HW230693   2.895   5.455   6.870
 9932SOL     OW30694   1.927   2.603   0.518
 9932SOL    HW130695   1.845   2.598   0.574
 9932SOL    HW230696   1.913   2.667   0.443
 9933SOL     OW30697   0.823   1.274   2.408
 9933SOL    HW130698   0.807   1.363   2.451
 9933SOL    HW230699   0.735   1.231   2.390
 9934SOL     OW30700   4.573   1.653   0.033
 9934SOL    HW130701   4.633   1.729   0.009
 9934SOL    HW230702   4.628   1.570   0.047
 9935SOL     OW30703   2.734   2.342   0.838
 9935SOL    HW130704   2.808   2.324   0.904
 9935SOL    HW230705   2.772   2.340   0.746
 9936SOL     OW30706   6.036   6.222   6.207
 9936SOL    HW130707   6.011   6.130   6.176
 9936SOL    HW230708   6.107   6.216   6.277
 9937SOL     OW30709   1.106   0.012   3.349
 9937SOL    HW130710   1.091   6.994   3.437
 9937SOL    HW230711   1.113   6.970   3.277
 9938SOL     OW30712   7.012   1.560   3.439
 9938SOL    HW130713   6.971   1.512   3.361
 9938SOL    HW230714   7.011   1.501   3.519
 9939SOL     OW30715   3.174   4.167   1.395
 9939SOL    HW130716   3.090   4.173   1.342
 9939SOL    HW230717   3.252   4.159   1.333
 9940SOL     OW30718   0.419   0.808   3.845
 9940SOL    HW130719   0.432   0.716   3.882
 9940SOL    HW230720   0.323   0.822   3.822
 9941SOL     OW30721   5.625   4.740   0.388
 9941SOL    HW130722   5.635   4.655   0.439
 9941SOL    HW230723   5.547   4.791   0.423
 9942SOL     OW30724   5.580   5.103   2.904
 9942SOL    HW130725   5.483   5.098   2.931
 9942SOL    HW230726   5.589   5.079   2.808
 9943SOL     OW30727   1.520   3.964   5.996
 9943SOL    HW130728   1.594   3.907   6.031
 9943SOL    HW230729   1.557   4.052   5.965
 9944SOL     OW30730   1.082   5.451   6.313
 9944SOL    HW130731   1.095   5.387   6.237
 9944SOL    HW230732   0.984   5.461   6.330
 9945SOL     OW30733   6.562   3.936   6.532
 9945SOL    HW130734   6.597   4.015   6.582
 9945SOL    HW230735   6.465   3.924   6.554
 9946SOL     OW30736   5.026   2.212   1.529
 9946SOL    HW130737   4.990   2.197   1.437
 9946SOL    HW230738   4.988   2.144   1.592
 9947SOL     OW30739   0.562   1.903   3.367
 9947SOL    HW130740   0.632   1.974   3.365
 9947SOL    HW230741   0.574   1.844   3.287
 9948SOL     OW30742   5.614   0.263   4.606
 9948SOL    HW130743   5.529   0.298   4.644
 9948SOL    HW230744   5.595   0.212   4.522
 9949SOL     OW30745   6.396   4.778   2.858
 9949SOL    HW130746   6.397   4.846   2.931
 9949SOL    HW230747   6.320   4.715   2.872
 9950SOL     OW30748   5.211   4.104   5.331
 9950SOL    HW130749   5.147   4.132   5.259
 9950SOL    HW230750   5.186   4.012   5.363
 9951SOL     OW30751   0.169   1.902   3.264
 9951SOL    HW130752   0.175   1.878   3.361
 9951SOL    HW230753   0.082   1.948   3.246
 9952SOL     OW30754   1.200   4.947   2.188
 9952SOL    HW130755   1.299   4.959   2.177
 9952SOL    HW230756   1.154   4.964   2.101
 9953SOL     OW30757   6.013   3.384   3.851
 9953SOL    HW130758   5.932   3.351   3.899
 9953SOL    HW230759   6.009   3.484   3.842
 9954SOL     OW30760   3.835   0.896   0.547
 9954SOL    HW130761   3.788   0.926   0.630
 9954SOL    HW230762   3.873   0.976   0.501
 9955SOL     OW30763   5.694   4.566   1.279
 9955SOL    HW130764   5.787   4.537   1.303
 9955SOL    HW230765   5.693   4.665   1.265
 9956SOL     OW30766   2.235   3.133   3.553
 9956SOL    HW130767   2.212   3.149   3.649
 9956SOL    HW230768   2.284   3.046   3.544
 9957SOL     OW30769   5.677   0.247   0.487
 9957SOL    HW130770   5.744   0.218   0.555
 9957SOL    HW230771   5.616   0.315   0.527
 9958SOL     OW30772   5.678   5.683   0.173
 9958SOL    HW130773   5.711   5.637   0.256
 9958SOL    HW230774   5.734   5.655   0.095
 9959SOL     OW30775   4.955   5.475   0.560
 9959SOL    HW130776   4.972   5.414   0.637
 9959SOL    HW230777   5.035   5.533   0.544
 9960SOL     OW30778   7.010   0.376   0.341
 9960SOL    HW130779   0.074   0.362   0.378
 9960SOL    HW230780   6.954   0.294   0.358
 9961SOL     OW30781   3.232   5.328   1.042
 9961SOL    HW130782   3.307   5.364   1.097
 9961SOL    HW230783   3.172   5.273   1.100
 9962SOL     OW30784   3.108   0.580   1.444
 9962SOL    HW130785   3.028   0.524   1.466
 9962SOL    HW230786   3.167   0.586   1.524
 9963SOL     OW30787   0.982   0.570   5.821
 9963SOL    HW130788   1.066   0.623   5.831
 9963SOL    HW230789   0.903   0.629   5.836
 9964SOL     OW30790   4.492   4.746   5.932
 9964SOL    HW130791   4.473   4.650   5.951
 9964SOL    HW230792   4.576   4.752   5.878
 9965SOL     OW30793   2.868   5.147   3.698
 9965SOL    HW130794   2.855   5.048   3.702
 9965SOL    HW230795   2.940   5.174   3.761
 9966SOL     OW30796   3.701   4.915   2.523
 9966SOL    HW130797   3.626   4.940   2.585
 9966SOL    HW230798   3.664   4.898   2.431
 9967SOL     OW30799   6.485   0.110   3.249
 9967SOL    HW130800   6.576   0.145   3.227
 9967SOL    HW230801   6.417   0.153   3.190
 9968SOL     OW30802   4.132   6.614   6.824
 9968SOL    HW130803   4.124   6.519   6.855
 9968SOL    HW230804   4.204   6.621   6.756
 9969SOL     OW30805   0.697   5.739   4.204
 9969SOL    HW130806   0.794   5.715   4.201
 9969SOL    HW230807   0.680   5.801   4.281
 9970SOL     OW30808   6.760   3.471   1.761
 9970SOL    HW130809   6.844   3.517   1.733
 9970SOL    HW230810   6.713   3.526   1.830
 9971SOL     OW30811   0.578   5.019   3.980
 9971SOL    HW130812   0.589   5.110   3.941
 9971SOL    HW230813   0.495   5.017   4.035
 9972SOL     OW30814   2.957   4.105   6.245
 9972SOL    HW130815   2.922   4.020   6.284
 9972SOL    HW230816   2.885   4.175   6.245
 9973SOL     OW30817   2.337   2.417   3.112
 9973SOL    HW130818   2.364   2.334   3.064
 9973SOL    HW230819   2.242   2.439   3.090
 9974SOL     OW30820   1.167   2.191   3.053
 9974SOL    HW130821   1.256   2.149   3.032
 9974SOL    HW230822   1.170   2.288   3.031
 9975SOL     OW30823   2.507   4.795   0.034
 9975SOL    HW130824   2.510   4.890   0.003
 9975SOL    HW230825   2.474   4.737   6.986
 9976SOL     OW30826   3.833   4.980   5.940
 9976SOL    HW130827   3.772   5.054   5.911
 9976SOL    HW230828   3.925   4.995   5.904
 9977SOL     OW30829   4.559   6.901   5.511
 9977SOL    HW130830   4.502   6.878   5.433
 9977SOL    HW230831   4.531   6.848   5.591
 9978SOL     OW30832   0.965   3.283   6.652
 9978SOL    HW130833   0.904   3.257   6.727
 9978SOL    HW230834   1.059   3.285   6.686
 9979SOL     OW30835   3.271   3.557   5.346
 9979SOL    HW130836   3.358   3.593   5.311
 9979SOL    HW230837   3.218   3.519   5.271
 9980SOL     OW30838   2.067   1.765   1.015
 9980SOL    HW130839   2.056   1.828   1.091
 9980SOL    HW230840   2.135   1.802   0.951
 9981SOL     OW30841   6.003   1.906   0.263
 9981SOL    HW130842   6.071   1.843   0.227
 9981SOL    HW230843   5.919   1.856   0.283
 9982SOL     OW30844   2.092   2.166   4.222
 9982SOL    HW130845   2.156   2.242   4.206
 9982SOL    HW230846   2.006   2.203   4.257
 9983SOL     OW30847   0.693   3.325   2.680
 9983SOL    HW130848   0.647   3.250   2.632
 9983SOL    HW230849   0.625   3.381   2.727
 9984SOL     OW30850   0.152   5.143   1.301
 9984SOL    HW130851   0.157   5.224   1.242
 9984SOL    HW230852   0.217   5.154   1.377
 9985SOL     OW30853   4.806   4.464   0.179
 9985SOL    HW130854   4.846   4.440   0.090
 9985SOL    HW230855   4.841   4.401   0.248
 9986SOL     OW30856   5.732   5.412   0.286
 9986SOL    HW130857   5.747   5.351   0.363
 9986SOL    HW230858   5.719   5.359   0.203
 9987SOL     OW30859   5.750   2.735   1.541
 9987SOL    HW130860   5.738   2.748   1.442
 9987SOL    HW230861   5.675   2.779   1.590
 9988SOL     OW30862   5.987   6.331   4.028
 9988SOL    HW130863   5.990   6.278   3.943
 9988SOL    HW230864   5.906   6.390   4.027
 9989SOL     OW30865   0.146   5.478   2.318
 9989SOL    HW130866   0.175   5.422   2.396
 9989SOL    HW230867   0.058   5.521   2.339
 9990SOL     OW30868   0.111   6.656   3.694
 9990SOL    HW130869   0.164   6.630   3.613
 9990SOL    HW230870   0.131   6.751   3.717
 9991SOL     OW30871   1.791   5.249   3.195
 9991SOL    HW130872   1.862   5.241   3.266
 9991SOL    HW230873   1.763   5.345   3.187
 9992SOL     OW30874   2.361   4.871   0.920
 9992SOL    HW130875   2.366   4.947   0.855
 9992SOL    HW230876   2.384   4.904   1.011
 9993SOL     OW30877   3.774   6.242   4.467
 9993SOL    HW130878   3.847   6.267   4.531
 9993SOL    HW230879   3.814   6.207   4.383
 9994SOL     OW30880   5.944   5.017   4.942
 9994SOL    HW130881   5.867   5.037   5.001
 9994SOL    HW230882   5.918   4.947   4.875
 9995SOL     OW30883   3.388   0.855   5.449
 9995SOL    HW130884   3.452   0.809   5.510
 9995SOL    HW230885   3.401   0.954   5.457
 9996SOL     OW30886   3.109   3.648   0.798
 9996SOL    HW130887   3.098   3.705   0.717
 9996SOL    HW230888   3.041   3.674   0.867
 9997SOL     OW30889   6.255   2.649   3.433
 9997SOL    HW130890   6.332   2.678   3.376
 9997SOL    HW230891   6.170   2.659   3.381
 9998SOL     OW30892   4.785   4.528   2.768
 9998SOL    HW130893   4.854   4.599   2.766
 9998SOL    HW230894   4.824   4.442   2.735
 9999SOL     OW30895   0.899   7.000   3.729
 9999SOL    HW130896   0.872   0.055   3.779
 9999SOL    HW230897   0.818   6.958   3.688
10000SOL     OW30898   5.052   2.409   1.249
10000SOL    HW130899   5.119   2.473   1.287
10000SOL    HW230900   5.015   2.447   1.164
10001SOL     OW30901   4.041   6.001   1.840
10001SOL    HW130902   3.973   5.944   1.795
10001SOL    HW230903   4.067   6.076   1.779
10002SOL     OW30904   2.913   1.383   1.914
10002SOL    HW130905   3.003   1.420   1.938
10002SOL    HW230906   2.883   1.319   1.985
10003SOL     OW30907   1.333   1.038   3.751
10003SOL    HW130908   1.387   0.989   3.819
10003SOL    HW230909   1.380   1.123   3.726
10004SOL     OW30910   6.079   4.275   4.874
10004SOL    HW130911   6.118   4.258   4.783
10004SOL    HW230912   6.153   4.279   4.941
10005SOL     OW30913   2.379   5.462   3.344
10005SOL    HW130914   2.474   5.486   3.365
10005SOL    HW230915   2.353   5.379   3.393
10006SOL     OW30916   5.932   0.474   5.342
10006SOL    HW130917   6.017   0.526   5.358
10006SOL    HW230918   5.859   0.537   5.317
10007SOL     OW30919   1.402   4.849   4.383
10007SOL    HW130920   1.494   4.888   4.384
10007SOL    HW230921   1.404   4.756   4.420
10008SOL     OW30922   3.904   1.334   5.942
10008SOL    HW130923   3.845   1.258   5.914
10008SOL    HW230924   3.851   1.420   5.940
10009SOL     OW30925   1.188   3.164   2.119
10009SOL    HW130926   1.128   3.134   2.194
10009SOL    HW230927   1.269   3.209   2.157
10010SOL     OW30928   2.659   3.685   0.217
10010SOL    HW130929   2.704   3.740   0.148
10010SOL    HW230930   2.697   3.706   0.307
10011SOL     OW30931   1.978   3.133   0.269
10011SOL    HW130932   2.037   3.167   0.342
10011SOL    HW230933   1.906   3.075   0.309
10012SOL     OW30934   5.933   2.275   3.182
10012SOL    HW130935   5.869   2.292   3.107
10012SOL    HW230936   5.997   2.351   3.190
10013SOL     OW30937   0.199   6.061   5.164
10013SOL    HW130938   0.163   6.121   5.236
10013SOL    HW230939   0.295   6.084   5.146
10014SOL     OW30940   0.884   0.439   3.236
10014SOL    HW130941   0.841   0.490   3.310
10014SOL    HW230942   0.942   0.500   3.182
10015SOL     OW30943   4.252   5.200   5.768
10015SOL    HW130944   4.164   5.201   5.815
10015SOL    HW230945   4.304   5.120   5.797
10016SOL     OW30946   2.042   0.437   3.789
10016SOL    HW130947   1.978   0.486   3.730
10016SOL    HW230948   2.131   0.430   3.743
10017SOL     OW30949   2.427   2.559   2.630
10017SOL    HW130950   2.341   2.557   2.579
10017SOL    HW230951   2.504   2.552   2.566
10018SOL     OW30952   6.589   3.265   5.954
10018SOL    HW130953   6.540   3.179   5.937
10018SOL    HW230954   6.674   3.244   6.003
10019SOL     OW30955   0.668   2.049   1.961
10019SOL    HW130956   0.680   1.986   2.038
10019SOL    HW230957   0.582   2.099   1.972
10020SOL     OW30958   6.271   0.808   2.342
10020SOL    HW130959   6.255   0.807   2.243
10020SOL    HW230960   6.355   0.758   2.363
10021SOL     OW30961   1.077   3.138   2.370
10021SOL    HW130962   1.098   3.045   2.401
10021SOL    HW230963   1.145   3.202   2.407
10022SOL     OW30964   2.708   5.340   6.929
10022SOL    HW130965   2.748   5.249   6.938
10022SOL    HW230966   2.674   5.370   7.018
10023SOL     OW30967   1.021   0.603   6.135
10023SOL    HW130968   1.092   0.626   6.069
10023SOL    HW230969   0.959   0.680   6.145
10024SOL     OW30970   1.698   4.866   2.463
10024SOL    HW130971   1.692   4.924   2.382
10024SOL    HW230972   1.651   4.910   2.539
10025SOL     OW30973   1.116   4.434   1.700
10025SOL    HW130974   1.029   4.484   1.702
10025SOL    HW230975   1.141   4.408   1.793
10026SOL     OW30976   5.031   1.855   4.235
10026SOL    HW130977   5.034   1.939   4.181
10026SOL    HW230978   5.122   1.836   4.272
10027SOL     OW30979   2.946   1.692   5.291
10027SOL    HW130980   2.912   1.731   5.205
10027SOL    HW230981   2.964   1.594   5.278
10028SOL     OW30982   4.256   0.576   1.121
10028SOL    HW130983   4.273   0.659   1.174
10028SOL    HW230984   4.228   0.601   1.028
10029SOL     OW30985   0.528   3.628   5.079
10029SOL    HW130986   0.556   3.608   4.985
10029SOL    HW230987   0.432   3.655   5.080
10030SOL     OW30988   2.572   0.008   4.871
10030SOL    HW130989   2.519   0.092   4.857
10030SOL    HW230990   2.645   0.003   4.802
10031SOL     OW30991   2.754   4.725   3.675
10031SOL    HW130992   2.844   4.719   3.633
10031SOL    HW230993   2.721   4.820   3.672
10032SOL     OW30994   2.904   6.365   5.086
10032SOL    HW130995   2.936   6.382   5.179
10032SOL    HW230996   2.983   6.355   5.025
10033SOL     OW30997   2.852   1.402   3.414
10033SOL    HW130998   2.923   1.347   3.371
10033SOL    HW230999   2.868   1.499   3.396
10034SOL     OW31000   2.562   0.738   3.766
10034SOL    HW131001   2.577   0.754   3.669
10034SOL    HW231002   2.483   0.677   3.779
10035SOL     OW31003   5.971   2.882   2.550
10035SOL    HW131004   5.938   2.888   2.456
10035SOL    HW231005   6.011   2.791   2.565
10036SOL     OW31006   6.979   1.094   6.887
10036SOL    HW131007   0.042   1.134   6.905
10036SOL    HW231008   6.978   0.999   6.916
10037SOL     OW31009   6.351   0.043   6.652
10037SOL    HW131010   6.415   6.998   6.624
10037SOL    HW231011   6.259   0.005   6.657
10038SOL     OW31012   4.522   6.544   6.441
10038SOL    HW131013   4.559   6.623   6.489
10038SOL    HW231014   4.581   6.520   6.364
10039SOL     OW31015   6.461   5.616   2.877
10039SOL    HW131016   6.486   5.713   2.879
10039SOL    HW231017   6.472   5.577   2.968
10040SOL     OW31018   3.260   6.493   0.973
10040SOL    HW131019   3.323   6.452   0.907
10040SOL    HW231020   3.207   6.565   0.928
10041SOL     OW31021   6.910   5.208   4.933
10041SOL    HW131022   6.950   5.121   4.904
10041SOL    HW231023   6.896   5.208   5.032
10042SOL     OW31024   0.416   0.355   4.977
10042SOL    HW131025   0.350   0.279   4.984
10042SOL    HW231026   0.392   0.412   4.899
10043SOL     OW31027   0.894   0.614   3.528
10043SOL    HW131028   0.857   0.584   3.616
10043SOL    HW231029   0.988   0.581   3.519
10044SOL     OW31030   2.832   1.640   6.275
10044SOL    HW131031   2.763   1.712   6.275
10044SOL    HW231032   2.920   1.678   6.245
10045SOL     OW31033   3.801   6.901   5.145
10045SOL    HW131034   3.701   6.898   5.135
10045SOL    HW231035   3.827   6.852   5.228
10046SOL     OW31036   7.020   2.625   1.527
10046SOL    HW131037   7.024   2.688   1.449
10046SOL    HW231038   0.046   2.661   1.603
10047SOL     OW31039   6.913   2.177   4.581
10047SOL    HW131040   7.009   2.166   4.607
10047SOL    HW231041   6.904   2.167   4.482
10048SOL     OW31042   4.001   1.862   1.534
10048SOL    HW131043   4.054   1.907   1.605
10048SOL    HW231044   4.060   1.801   1.481
10049SOL     OW31045   1.443   7.011   5.188
10049SOL    HW131046   1.527   6.957   5.186
10049SOL    HW231047   1.448   0.056   5.119
10050SOL     OW31048   5.005   2.876   3.731
10050SOL    HW131049   5.035   2.793   3.779
10050SOL    HW231050   5.051   2.882   3.643
10051SOL     OW31051   5.899   2.975   5.150
10051SOL    HW131052   5.901   2.887   5.102
10051SOL    HW231053   5.992   2.999   5.179
10052SOL     OW31054   0.681   3.244   1.586
10052SOL    HW131055   0.752   3.175   1.602
10052SOL    HW231056   0.684   3.313   1.659
10053SOL     OW31057   3.067   5.901   3.658
10053SOL    HW131058   3.086   5.912   3.756
10053SOL    HW231059   3.039   5.807   3.640
10054SOL     OW31060   3.785   5.800   4.931
10054SOL    HW131061   3.691   5.820   4.959
10054SOL    HW231062   3.797   5.828   4.836
10055SOL     OW31063   5.964   2.688   5.441
10055SOL    HW131064   5.884   2.742   5.469
10055SOL    HW231065   5.934   2.601   5.404
10056SOL     OW31066   6.611   4.711   1.508
10056SOL    HW131067   6.514   4.715   1.482
10056SOL    HW231068   6.665   4.764   1.442
10057SOL     OW31069   3.518   2.087   4.044
10057SOL    HW131070   3.563   2.125   4.124
10057SOL    HW231071   3.419   2.097   4.054
10058SOL     OW31072   0.662   5.276   3.932
10058SOL    HW131073   0.665   5.302   4.028
10058SOL    HW231074   0.647   5.357   3.876
10059SOL     OW31075   5.849   0.960   0.998
10059SOL    HW131076   5.818   0.935   1.090
10059SOL    HW231077   5.900   1.046   1.002
10060SOL     OW31078   2.695   2.744   1.648
10060SOL    HW131079   2.772   2.798   1.684
10060SOL    HW231080   2.656   2.689   1.721
10061SOL     OW31081   6.009   1.429   4.411
10061SOL    HW131082   5.988   1.466   4.502
10061SOL    HW231083   6.058   1.498   4.357
10062SOL     OW31084   6.682   6.157   3.076
10062SOL    HW131085   6.687   6.256   3.079
10062SOL    HW231086   6.647   6.122   3.164
10063SOL     OW31087   1.007   3.166   3.465
10063SOL    HW131088   1.075   3.095   3.446
10063SOL    HW231089   0.915   3.127   3.457
10064SOL     OW31090   5.729   6.429   4.157
10064SOL    HW131091   5.697   6.405   4.248
10064SOL    HW231092   5.673   6.384   4.088
10065SOL     OW31093   1.893   6.476   3.208
10065SOL    HW131094   1.840   6.485   3.124
10065SOL    HW231095   1.865   6.393   3.256
10066SOL     OW31096   0.710   6.837   3.627
10066SOL    HW131097   0.678   6.787   3.707
10066SOL    HW231098   0.632   6.861   3.569
10067SOL     OW31099   4.257   4.846   4.314
10067SOL    HW131100   4.184   4.915   4.313
10067SOL    HW231101   4.344   4.890   4.292
10068SOL     OW31102   5.085   3.702   5.075
10068SOL    HW131103   4.998   3.671   5.036
10068SOL    HW231104   5.068   3.748   5.162
10069SOL     OW31105   2.618   1.661   3.165
10069SOL    HW131106   2.594   1.566   3.188
10069SOL    HW231107   2.661   1.705   3.243
10070SOL     OW31108   0.935   6.799   4.657
10070SOL    HW131109   0.889   6.850   4.730
10070SOL    HW231110   1.029   6.778   4.686
10071SOL     OW31111   5.316   5.941   4.927
10071SOL    HW131112   5.384   6.014   4.920
10071SOL    HW231113   5.348   5.871   4.991
10072SOL     OW31114   1.054   6.554   3.017
10072SOL    HW131115   0.965   6.592   2.992
10072SOL    HW231116   1.065   6.559   3.116
10073SOL     OW31117   7.004   4.816   6.111
10073SOL    HW131118   0.053   4.851   6.166
10073SOL    HW231119   6.926   4.796   6.170
10074SOL     OW31120   2.277   0.354   6.344
10074SOL    HW131121   2.264   0.310   6.433
10074SOL    HW231122   2.313   0.288   6.278
10075SOL     OW31123   0.795   2.502   3.936
10075SOL    HW131124   0.842   2.591   3.932
10075SOL    HW231125   0.861   2.431   3.961
10076SOL     OW31126   4.894   7.025   4.748
10076SOL    HW131127   4.980   6.979   4.773
10076SOL    HW231128   4.910   0.096   4.740
10077SOL     OW31129   4.573   1.793   5.967
10077SOL    HW131130   4.620   1.706   5.960
10077SOL    HW231131   4.614   1.859   5.904
10078SOL     OW31132   5.823   0.080   5.683
10078SOL    HW131133   5.847   0.169   5.644
10078SOL    HW231134   5.774   0.026   5.615
10079SOL     OW31135   0.508   3.172   1.416
10079SOL    HW131136   0.570   3.196   1.491
10079SOL    HW231137   0.516   3.240   1.343
10080SOL     OW31138   2.114   2.765   0.262
10080SOL    HW131139   2.110   2.687   0.201
10080SOL    HW231140   2.116   2.850   0.209
10081SOL     OW31141   1.033   0.343   6.526
10081SOL    HW131142   0.991   0.433   6.514
10081SOL    HW231143   1.090   0.323   6.446
10082SOL     OW31144   5.943   2.193   1.992
10082SOL    HW131145   5.867   2.145   1.948
10082SOL    HW231146   5.921   2.290   1.999
10083SOL     OW31147   4.746   0.433   4.003
10083SOL    HW131148   4.708   0.416   4.095
10083SOL    HW231149   4.686   0.496   3.954
10084SOL     OW31150   2.477   1.300   5.747
10084SOL    HW131151   2.563   1.277   5.794
10084SOL    HW231152   2.478   1.397   5.723
10085SOL     OW31153   0.638   6.084   2.611
10085SOL    HW131154   0.672   6.033   2.690
10085SOL    HW231155   0.554   6.132   2.636
10086SOL     OW31156   6.117   4.177   2.122
10086SOL    HW131157   6.161   4.265   2.106
10086SOL    HW231158   6.045   4.188   2.192
10087SOL     OW31159   1.325   0.281   4.257
10087SOL    HW131160   1.383   0.360   4.277
10087SOL    HW231161   1.365   0.199   4.299
10088SOL     OW31162   0.419   7.024   4.600
10088SOL    HW131163   0.412   0.032   4.506
10088SOL    HW231164   0.435   6.926   4.597
10089SOL     OW31165   1.673   2.525   2.017
10089SOL    HW131166   1.759   2.546   1.972
10089SOL    HW231167   1.691   2.487   2.108
10090SOL     OW31168   0.951   3.965   0.934
10090SOL    HW131169   0.911   4.056   0.932
10090SOL    HW231170   1.003   3.953   1.018
10091SOL     OW31171   1.098   2.904   4.859
10091SOL    HW131172   1.187   2.949   4.854
10091SOL    HW231173   1.087   2.843   4.781
10092SOL     OW31174   1.925   3.830   5.089
10092SOL    HW131175   1.929   3.790   4.997
10092SOL    HW231176   1.965   3.921   5.087
10093SOL     OW31177   6.332   5.376   6.044
10093SOL    HW131178   6.369   5.291   6.006
10093SOL    HW231179   6.388   5.404   6.122
10094SOL     OW31180   1.800   1.624   2.464
10094SOL    HW131181   1.859   1.608   2.543
10094SOL    HW231182   1.818   1.555   2.394
10095SOL     OW31183   0.112   0.941   5.999
10095SOL    HW131184   0.197   0.957   5.950
10095SOL    HW231185   0.047   0.893   5.940
10096SOL     OW31186   0.732   5.371   2.743
10096SOL    HW131187   0.811   5.409   2.790
10096SOL    HW231188   0.676   5.319   2.808
10097SOL     OW31189   1.390   0.724   0.950
10097SOL    HW131190   1.301   0.679   0.957
10097SOL    HW231191   1.388   0.810   1.001
10098SOL     OW31192   2.299   5.135   6.775
10098SOL    HW131193   2.301   5.098   6.682
10098SOL    HW231194   2.225   5.090   6.827
10099SOL     OW31195   6.500   4.602   5.392
10099SOL    HW131196   6.518   4.634   5.485
10099SOL    HW231197   6.465   4.678   5.337
10100SOL     OW31198   5.040   0.750   4.520
10100SOL    HW131199   5.115   0.815   4.530
10100SOL    HW231200   5.070   0.659   4.547
10101SOL     OW31201   7.003   4.782   2.335
10101SOL    HW131202   7.003   4.689   2.298
10101SOL    HW231203   6.981   4.780   2.432
10102SOL     OW31204   3.305   1.732   1.715
10102SOL    HW131205   3.389   1.749   1.663
10102SOL    HW231206   3.319   1.653   1.775
10103SOL     OW31207   2.719   1.487   6.042
10103SOL    HW131208   2.695   1.552   5.971
10103SOL    HW231209   2.743   1.536   6.126
10104SOL     OW31210   0.964   5.695   5.159
10104SOL    HW131211   0.923   5.610   5.127
10104SOL    HW231212   1.020   5.677   5.240
10105SOL     OW31213   1.673   0.376   6.807
10105SOL    HW131214   1.706   0.446   6.871
10105SOL    HW231215   1.726   0.381   6.723
10106SOL     OW31216   5.420   5.810   0.580
10106SOL    HW131217   5.387   5.772   0.494
10106SOL    HW231218   5.519   5.793   0.588
10107SOL     OW31219   5.884   1.530   5.838
10107SOL    HW131220   5.857   1.516   5.742
10107SOL    HW231221   5.802   1.537   5.894
10108SOL     OW31222   6.961   6.971   0.174
10108SOL    HW131223   6.946   0.002   0.253
10108SOL    HW231224   6.980   6.877   0.204
10109SOL     OW31225   4.348   5.527   3.836
10109SOL    HW131226   4.346   5.550   3.933
10109SOL    HW231227   4.257   5.498   3.807
10110SOL     OW31228   3.984   0.688   5.992
10110SOL    HW131229   4.039   0.630   5.932
10110SOL    HW231230   3.954   0.634   6.071
10111SOL     OW31231   0.118   3.063   2.620
10111SOL    HW131232   0.104   3.149   2.571
10111SOL    HW231233   0.054   2.994   2.586
10112SOL     OW31234   4.712   4.162   5.858
10112SOL    HW131235   4.759   4.251   5.863
10112SOL    HW231236   4.614   4.177   5.863
10113SOL     OW31237   3.801   0.000   6.858
10113SOL    HW131238   3.794   0.075   6.924
10113SOL    HW231239   3.739   0.017   6.782
10114SOL     OW31240   5.409   1.116   1.064
10114SOL    HW131241   5.383   1.143   0.971
10114SOL    HW231242   5.505   1.139   1.079
10115SOL     OW31243   1.873   2.337   3.821
10115SOL    HW131244   1.811   2.366   3.748
10115SOL    HW231245   1.835   2.257   3.868
10116SOL     OW31246   0.845   1.096   1.429
10116SOL    HW131247   0.861   1.130   1.336
10116SOL    HW231248   0.746   1.088   1.445
10117SOL     OW31249   5.545   0.160   5.824
10117SOL    HW131250   5.587   0.251   5.835
10117SOL    HW231251   5.471   0.149   5.890
10118SOL     OW31252   6.893   5.529   2.332
10118SOL    HW131253   6.869   5.497   2.240
10118SOL    HW231254   6.885   5.452   2.396
10119SOL     OW31255   2.574   0.715   5.662
10119SOL    HW131256   2.487   0.739   5.618
10119SOL    HW231257   2.570   0.619   5.691
10120SOL     OW31258   6.900   2.907   3.797
10120SOL    HW131259   6.827   2.932   3.733
10120SOL    HW231260   6.859   2.869   3.880
10121SOL     OW31261   5.946   4.737   4.726
10121SOL    HW131262   5.861   4.703   4.685
10121SOL    HW231263   6.024   4.700   4.675
10122SOL     OW31264   5.593   3.501   0.402
10122SOL    HW131265   5.521   3.459   0.348
10122SOL    HW231266   5.637   3.431   0.459
10123SOL     OW31267   6.960   6.289   0.652
10123SOL    HW131268   6.949   6.389   0.660
10123SOL    HW231269   6.987   6.251   0.740
10124SOL     OW31270   3.239   4.102   0.061
10124SOL    HW131271   3.175   4.080   0.134
10124SOL    HW231272   3.207   4.184   0.012
10125SOL     OW31273   1.618   0.300   2.120
10125SOL    HW131274   1.611   0.313   2.219
10125SOL    HW231275   1.527   0.286   2.082
10126SOL     OW31276   6.270   5.160   0.790
10126SOL    HW131277   6.180   5.144   0.831
10126SOL    HW231278   6.288   5.090   0.720
10127SOL     OW31279   3.293   5.642   5.301
10127SOL    HW131280   3.374   5.606   5.255
10127SOL    HW231281   3.212   5.621   5.246
10128SOL     OW31282   6.963   2.104   0.835
10128SOL    HW131283   6.973   2.172   0.908
10128SOL    HW231284   6.906   2.142   0.762
10129SOL     OW31285   6.108   2.223   3.513
10129SOL    HW131286   6.110   2.286   3.591
10129SOL    HW231287   6.014   2.196   3.494
10130SOL     OW31288   6.816   5.786   2.375
10130SOL    HW131289   6.882   5.835   2.318
10130SOL    HW231290   6.815   5.690   2.348
10131SOL     OW31291   0.679   1.136   1.931
10131SOL    HW131292   0.632   1.139   2.019
10131SOL    HW231293   0.663   1.221   1.881
10132SOL     OW31294   2.811   6.478   2.839
10132SOL    HW131295   2.760   6.540   2.899
10132SOL    HW231296   2.909   6.492   2.852
10133SOL     OW31297   4.635   5.940   3.340
10133SOL    HW131298   4.730   5.934   3.371
10133SOL    HW231299   4.580   5.871   3.387
10134SOL     OW31300   0.195   1.349   3.574
10134SOL    HW131301   0.231   1.423   3.631
10134SOL    HW231302   0.254   1.336   3.495
10135SOL     OW31303   4.224   5.103   2.678
10135SOL    HW131304   4.142   5.151   2.647
10135SOL    HW231305   4.295   5.169   2.701
10136SOL     OW31306   6.281   0.453   3.390
10136SOL    HW131307   6.326   0.487   3.472
10136SOL    HW231308   6.221   0.524   3.353
10137SOL     OW31309   6.522   5.580   4.427
10137SOL    HW131310   6.471   5.500   4.394
10137SOL    HW231311   6.503   5.659   4.369
10138SOL     OW31312   6.022   1.913   6.965
10138SOL    HW131313   5.959   1.901   6.888
10138SOL    HW231314   6.049   2.009   6.972
10139SOL     OW31315   3.310   2.974   3.355
10139SOL    HW131316   3.241   2.974   3.282
10139SOL    HW231317   3.396   2.939   3.319
10140SOL     OW31318   6.968   5.301   6.961
10140SOL    HW131319   6.956   5.216   7.012
10140SOL    HW231320   6.909   5.372   6.999
10141SOL     OW31321   1.910   1.485   4.430
10141SOL    HW131322   1.994   1.531   4.403
10141SOL    HW231323   1.931   1.414   4.497
10142SOL     OW31324   3.819   5.831   4.675
10142SOL    HW131325   3.912   5.837   4.711
10142SOL    HW231326   3.823   5.807   4.578
10143SOL     OW31327   4.915   0.192   1.380
10143SOL    HW131328   4.893   0.239   1.295
10143SOL    HW231329   4.920   0.258   1.455
10144SOL     OW31330   3.205   5.944   4.564
10144SOL    HW131331   3.164   5.854   4.581
10144SOL    HW231332   3.134   6.014   4.561
10145SOL     OW31333   2.996   5.753   5.816
10145SOL    HW131334   3.009   5.750   5.915
10145SOL    HW231335   2.901   5.776   5.795
10146SOL     OW31336   4.255   5.427   4.295
10146SOL    HW131337   4.188   5.481   4.346
10146SOL    HW231338   4.207   5.364   4.233
10147SOL     OW31339   4.923   4.229   3.909
10147SOL    HW131340   4.964   4.153   3.858
10147SOL    HW231341   4.922   4.206   4.006
10148SOL     OW31342   6.116   5.478   0.577
10148SOL    HW131343   6.115   5.530   0.491
10148SOL    HW231344   6.069   5.531   0.648
10149SOL     OW31345   4.111   2.174   1.458
10149SOL    HW131346   4.136   2.112   1.532
10149SOL    HW231347   4.135   2.132   1.370
10150SOL     OW31348   5.096   4.334   0.654
10150SOL    HW131349   5.177   4.304   0.703
10150SOL    HW231350   5.037   4.255   0.634
10151SOL     OW31351   1.413   6.876   6.544
10151SOL    HW131352   1.464   6.831   6.470
10151SOL    HW231353   1.357   6.949   6.506
10152SOL     OW31354   0.942   4.845   3.809
10152SOL    HW131355   0.931   4.907   3.731
10152SOL    HW231356   0.855   4.801   3.830
10153SOL     OW31357   4.987   6.114   3.686
10153SOL    HW131358   5.084   6.099   3.700
10153SOL    HW231359   4.944   6.140   3.772
10154SOL     OW31360   6.726   5.471   6.022
10154SOL    HW131361   6.680   5.453   5.935
10154SOL    HW231362   6.813   5.518   6.005
10155SOL     OW31363   4.218   0.946   5.916
10155SOL    HW131364   4.131   0.928   5.869
10155SOL    HW231365   4.229   1.044   5.931
10156SOL     OW31366   5.350   0.268   2.269
10156SOL    HW131367   5.319   0.182   2.229
10156SOL    HW231368   5.372   0.254   2.365
10157SOL     OW31369   6.016   1.110   6.324
10157SOL    HW131370   5.970   1.032   6.282
10157SOL    HW231371   6.109   1.084   6.351
10158SOL     OW31372   4.315   3.478   0.224
10158SOL    HW131373   4.349   3.558   0.273
10158SOL    HW231374   4.339   3.486   0.127
10159SOL     OW31375   2.518   2.337   6.236
10159SOL    HW131376   2.544   2.357   6.331
10159SOL    HW231377   2.430   2.380   6.216
10160SOL     OW31378   0.391   4.644   3.679
10160SOL    HW131379   0.489   4.640   3.659
10160SOL    HW231380   0.360   4.554   3.708
10161SOL     OW31381   3.186   5.127   6.290
10161SOL    HW131382   3.130   5.061   6.339
10161SOL    HW231383   3.141   5.217   6.292
10162SOL     OW31384   2.492   3.099   6.008
10162SOL    HW131385   2.445   3.181   6.040
10162SOL    HW231386   2.473   3.023   6.070
10163SOL     OW31387   6.451   4.092   6.055
10163SOL    HW131388   6.468   3.998   6.026
10163SOL    HW231389   6.418   4.092   6.150
10164SOL     OW31390   6.374   3.004   5.004
10164SOL    HW131391   6.359   3.096   4.967
10164SOL    HW231392   6.472   2.989   5.016
10165SOL     OW31393   0.761   2.010   4.346
10165SOL    HW131394   0.707   1.979   4.268
10165SOL    HW231395   0.792   2.104   4.330
10166SOL     OW31396   2.726   1.920   1.528
10166SOL    HW131397   2.683   1.957   1.610
10166SOL    HW231398   2.825   1.923   1.537
10167SOL     OW31399   5.231   0.884   6.594
10167SOL    HW131400   5.258   0.979   6.611
10167SOL    HW231401   5.247   0.830   6.677
10168SOL     OW31402   6.636   4.192   4.424
10168SOL    HW131403   6.626   4.290   4.440
10168SOL    HW231404   6.678   4.149   4.505
10169SOL     OW31405   6.543   4.966   2.615
10169SOL    HW131406   6.588   4.885   2.577
10169SOL    HW231407   6.445   4.962   2.596
10170SOL     OW31408   0.989   3.952   5.296
10170SOL    HW131409   0.918   3.975   5.228
10170SOL    HW231410   1.052   4.029   5.305
10171SOL     OW31411   6.339   4.046   5.539
10171SOL    HW131412   6.324   3.975   5.470
10171SOL    HW231413   6.262   4.047   5.602
10172SOL     OW31414   4.944   0.290   2.957
10172SOL    HW131415   4.852   0.323   2.935
10172SOL    HW231416   5.012   0.349   2.912
10173SOL     OW31417   1.607   1.491   1.103
10173SOL    HW131418   1.621   1.430   1.181
10173SOL    HW231419   1.680   1.558   1.101
10174SOL     OW31420   6.220   4.588   3.082
10174SOL    HW131421   6.122   4.581   3.100
10174SOL    HW231422   6.270   4.583   3.168
10175SOL     OW31423   6.113   2.252   4.954
10175SOL    HW131424   6.121   2.167   4.901
10175SOL    HW231425   6.198   2.267   5.005
10176SOL     OW31426   1.915   3.467   6.506
10176SOL    HW131427   1.967   3.385   6.528
10176SOL    HW231428   1.876   3.506   6.590
10177SOL     OW31429   2.859   6.823   0.396
10177SOL    HW131430   2.942   6.857   0.353
10177SOL    HW231431   2.815   6.757   0.336
10178SOL     OW31432   5.761   2.823   4.430
10178SOL    HW131433   5.776   2.740   4.376
10178SOL    HW231434   5.833   2.831   4.499
10179SOL     OW31435   1.538   2.299   6.565
10179SOL    HW131436   1.471   2.373   6.572
10179SOL    HW231437   1.501   2.216   6.606
10180SOL     OW31438   2.469   5.668   5.758
10180SOL    HW131439   2.393   5.611   5.787
10180SOL    HW231440   2.434   5.749   5.710
10181SOL     OW31441   6.196   3.213   1.699
10181SOL    HW131442   6.167   3.303   1.667
10181SOL    HW231443   6.206   3.151   1.620
10182SOL     OW31444   5.908   1.143   1.343
10182SOL    HW131445   5.873   1.205   1.413
10182SOL    HW231446   6.003   1.168   1.321
10183SOL     OW31447   0.934   1.828   6.675
10183SOL    HW131448   0.945   1.923   6.645
10183SOL    HW231449   0.975   1.767   6.607
10184SOL     OW31450   5.082   1.646   6.280
10184SOL    HW131451   5.176   1.628   6.253
10184SOL    HW231452   5.054   1.736   6.247
10185SOL     OW31453   4.777   6.938   1.010
10185SOL    HW131454   4.808   6.925   1.104
10185SOL    HW231455   4.717   6.862   0.984
10186SOL     OW31456   4.839   2.897   3.025
10186SOL    HW131457   4.819   2.815   2.971
10186SOL    HW231458   4.820   2.979   2.970
10187SOL     OW31459   0.836   2.255   1.921
10187SOL    HW131460   0.776   2.176   1.934
10187SOL    HW231461   0.902   2.235   1.848
10188SOL     OW31462   3.884   6.351   0.557
10188SOL    HW131463   3.792   6.314   0.563
10188SOL    HW231464   3.888   6.440   0.602
10189SOL     OW31465   2.323   6.510   5.153
10189SOL    HW131466   2.259   6.558   5.093
10189SOL    HW231467   2.417   6.525   5.122
10190SOL     OW31468   4.610   2.585   0.571
10190SOL    HW131469   4.563   2.535   0.643
10190SOL    HW231470   4.543   2.628   0.510
10191SOL     OW31471   5.080   4.499   6.401
10191SOL    HW131472   4.983   4.479   6.414
10191SOL    HW231473   5.125   4.500   6.491
10192SOL     OW31474   3.497   0.725   4.866
10192SOL    HW131475   3.495   0.812   4.816
10192SOL    HW231476   3.591   0.705   4.893
10193SOL     OW31477   4.484   4.295   0.964
10193SOL    HW131478   4.447   4.209   0.998
10193SOL    HW231479   4.564   4.277   0.906
10194SOL     OW31480   6.249   4.312   5.245
10194SOL    HW131481   6.227   4.376   5.171
10194SOL    HW231482   6.222   4.353   5.332
10195SOL     OW31483   6.875   4.628   1.459
10195SOL    HW131484   6.963   4.641   1.506
10195SOL    HW231485   6.801   4.653   1.521
10196SOL     OW31486   6.949   1.249   5.150
10196SOL    HW131487   6.952   1.185   5.073
10196SOL    HW231488   7.005   1.213   5.225
10197SOL     OW31489   6.633   0.931   5.564
10197SOL    HW131490   6.552   0.888   5.526
10197SOL    HW231491   6.710   0.918   5.502
10198SOL     OW31492   3.909   0.097   2.529
10198SOL    HW131493   3.915   0.102   2.628
10198SOL    HW231494   4.001   0.101   2.490
10199SOL     OW31495   1.040   2.842   5.502
10199SOL    HW131496   1.018   2.779   5.576
10199SOL    HW231497   0.967   2.910   5.492
10200SOL     OW31498   5.675   2.767   1.275
10200SOL    HW131499   5.625   2.750   1.190
10200SOL    HW231500   5.691   2.866   1.285
10201SOL     OW31501   0.748   4.223   1.109
10201SOL    HW131502   0.838   4.209   1.150
10201SOL    HW231503   0.757   4.227   1.010
10202SOL     OW31504   4.128   1.457   5.460
10202SOL    HW131505   4.081   1.383   5.412
10202SOL    HW231506   4.127   1.439   5.559
10203SOL     OW31507   5.903   2.759   4.997
10203SOL    HW131508   5.987   2.705   5.005
10203SOL    HW231509   5.828   2.699   4.970
10204SOL     OW31510   5.155   0.008   6.436
10204SOL    HW131511   5.062   0.045   6.441
10204SOL    HW231512   5.162   6.956   6.497
10205SOL     OW31513   1.173   0.808   6.660
10205SOL    HW131514   1.207   0.721   6.623
10205SOL    HW231515   1.076   0.818   6.637
10206SOL     OW31516   1.076   0.854   5.645
10206SOL    HW131517   1.001   0.874   5.708
10206SOL    HW231518   1.085   0.755   5.634
10207SOL     OW31519   1.523   1.527   5.940
10207SOL    HW131520   1.475   1.493   5.859
10207SOL    HW231521   1.618   1.496   5.938
10208SOL     OW31522   6.453   5.098   4.816
10208SOL    HW131523   6.517   5.032   4.775
10208SOL    HW231524   6.395   5.051   4.883
10209SOL     OW31525   6.689   6.919   6.381
10209SOL    HW131526   6.710   7.016   6.390
10209SOL    HW231527   6.673   6.896   6.285
10210SOL     OW31528   3.973   5.904   1.467
10210SOL    HW131529   3.935   5.907   1.375
10210SOL    HW231530   3.948   5.988   1.516
10211SOL     OW31531   4.221   6.332   5.602
10211SOL    HW131532   4.134   6.328   5.554
10211SOL    HW231533   4.268   6.417   5.579
10212SOL     OW31534   0.875   0.146   6.088
10212SOL    HW131535   0.942   0.155   6.014
10212SOL    HW231536   0.891   0.218   6.156
10213SOL     OW31537   5.124   1.947   0.162
10213SOL    HW131538   5.050   1.903   0.213
10213SOL    HW231539   5.087   2.023   0.109
10214SOL     OW31540   0.420   2.919   1.540
10214SOL    HW131541   0.439   2.912   1.638
10214SOL    HW231542   0.453   3.007   1.506
10215SOL     OW31543   3.585   3.236   2.545
10215SOL    HW131544   3.550   3.209   2.455
10215SOL    HW231545   3.614   3.154   2.595
10216SOL     OW31546   6.703   0.430   1.820
10216SOL    HW131547   6.800   0.406   1.814
10216SOL    HW231548   6.680   0.495   1.747
10217SOL     OW31549   2.966   1.154   3.304
10217SOL    HW131550   3.038   1.142   3.373
10217SOL    HW231551   2.921   1.067   3.287
10218SOL     OW31552   1.315   2.787   3.029
10218SOL    HW131553   1.317   2.697   2.985
10218SOL    HW231554   1.306   2.857   2.959
10219SOL     OW31555   0.567   1.159   2.371
10219SOL    HW131556   0.547   1.256   2.385
10219SOL    HW231557   0.536   1.131   2.280
10220SOL     OW31558   3.391   2.642   1.677
10220SOL    HW131559   3.458   2.696   1.627
10220SOL    HW231560   3.389   2.549   1.641
10221SOL     OW31561   1.106   6.004   3.067
10221SOL    HW131562   1.037   5.936   3.042
10221SOL    HW231563   1.087   6.038   3.159
10222SOL     OW31564   3.489   3.934   4.999
10222SOL    HW131565   3.569   3.897   5.045
10222SOL    HW231566   3.444   3.862   4.945
10223SOL     OW31567   0.780   5.545   1.717
10223SOL    HW131568   0.742   5.631   1.751
10223SOL    HW231569   0.815   5.491   1.793
10224SOL     OW31570   6.165   4.270   3.134
10224SOL    HW131571   6.205   4.329   3.064
10224SOL    HW231572   6.211   4.287   3.221
10225SOL     OW31573   2.313   3.721   6.317
10225SOL    HW131574   2.267   3.657   6.379
10225SOL    HW231575   2.303   3.689   6.223
10226SOL     OW31576   4.442   2.694   0.391
10226SOL    HW131577   4.351   2.706   0.352
10226SOL    HW231578   4.469   2.778   0.438
10227SOL     OW31579   5.478   3.805   1.277
10227SOL    HW131580   5.491   3.823   1.180
10227SOL    HW231581   5.382   3.787   1.295
10228SOL     OW31582   5.273   0.538   0.783
10228SOL    HW131583   5.199   0.600   0.810
10228SOL    HW231584   5.356   0.560   0.834
10229SOL     OW31585   0.389   3.490   4.494
10229SOL    HW131586   0.469   3.438   4.526
10229SOL    HW231587   0.419   3.564   4.433
10230SOL     OW31588   6.790   6.514   2.127
10230SOL    HW131589   6.780   6.484   2.032
10230SOL    HW231590   6.877   6.480   2.163
10231SOL     OW31591   1.585   5.514   3.271
10231SOL    HW131592   1.564   5.591   3.211
10231SOL    HW231593   1.655   5.540   3.336
10232SOL     OW31594   4.855   5.947   3.510
10232SOL    HW131595   4.924   5.886   3.472
10232SOL    HW231596   4.896   6.000   3.584
10233SOL     OW31597   4.163   4.336   6.306
10233SOL    HW131598   4.118   4.392   6.237
10233SOL    HW231599   4.200   4.254   6.262
10234SOL     OW31600   6.987   0.810   1.767
10234SOL    HW131601   0.007   0.832   1.682
10234SOL    HW231602   6.890   0.830   1.757
10235SOL     OW31603   1.177   1.307   3.496
10235SOL    HW131604   1.116   1.233   3.469
10235SOL    HW231605   1.186   1.309   3.595
10236SOL     OW31606   2.512   6.767   1.717
10236SOL    HW131607   2.505   6.672   1.685
10236SOL    HW231608   2.436   6.820   1.680
10237SOL     OW31609   0.150   3.429   6.532
10237SOL    HW131610   0.099   3.347   6.559
10237SOL    HW231611   0.134   3.448   6.435
10238SOL     OW31612   3.573   5.958   1.264
10238SOL    HW131613   3.582   5.864   1.297
10238SOL    HW231614   3.586   5.959   1.165
10239SOL     OW31615   1.841   2.755   4.251
10239SOL    HW131616   1.798   2.727   4.337
10239SOL    HW231617   1.769   2.779   4.185
10240SOL     OW31618   2.913   6.303   1.072
10240SOL    HW131619   2.816   6.286   1.058
10240SOL    HW231620   2.964   6.275   0.990
10241SOL     OW31621   3.811   2.354   1.628
10241SOL    HW131622   3.882   2.423   1.643
10241SOL    HW231623   3.754   2.347   1.711
10242SOL     OW31624   6.668   2.513   6.941
10242SOL    HW131625   6.612   2.466   7.010
10242SOL    HW231626   6.764   2.489   6.954
10243SOL     OW31627   2.371   5.219   0.951
10243SOL    HW131628   2.316   5.165   0.887
10243SOL    HW231629   2.314   5.246   1.029
10244SOL     OW31630   2.602   4.104   1.651
10244SOL    HW131631   2.556   4.189   1.626
10244SOL    HW231632   2.701   4.116   1.642
10245SOL     OW31633   3.977   4.488   0.801
10245SOL    HW131634   4.067   4.488   0.845
10245SOL    HW231635   3.939   4.396   0.804
10246SOL     OW31636   3.349   3.011   4.527
10246SOL    HW131637   3.337   2.951   4.448
10246SOL    HW231638   3.407   2.966   4.595
10247SOL     OW31639   0.746   2.936   4.786
10247SOL    HW131640   0.809   2.998   4.831
10247SOL    HW231641   0.735   2.853   4.842
10248SOL     OW31642   0.742   0.073   3.416
10248SOL    HW131643   0.808   0.067   3.491
10248SOL    HW231644   0.789   0.095   3.331
10249SOL     OW31645   2.574   4.921   6.308
10249SOL    HW131646   2.654   4.924   6.249
10249SOL    HW231647   2.496   4.884   6.258
10250SOL     OW31648   4.738   2.361   0.129
10250SOL    HW131649   4.688   2.338   0.212
10250SOL    HW231650   4.761   2.458   0.128
10251SOL     OW31651   2.251   0.107   4.570
10251SOL    HW131652   2.158   0.126   4.601
10251SOL    HW231653   2.284   0.183   4.514
10252SOL     OW31654   5.323   4.091   5.906
10252SOL    HW131655   5.269   4.068   5.987
10252SOL    HW231656   5.406   4.037   5.904
10253SOL     OW31657   3.997   6.864   6.654
10253SOL    HW131658   3.932   6.932   6.622
10253SOL    HW231659   4.084   6.908   6.675
10254SOL     OW31660   5.386   1.209   4.588
10254SOL    HW131661   5.387   1.264   4.504
10254SOL    HW231662   5.467   1.150   4.590
10255SOL     OW31663   3.767   5.352   1.884
10255SOL    HW131664   3.762   5.315   1.791
10255SOL    HW231665   3.762   5.277   1.950
10256SOL     OW31666   4.291   0.615   2.865
10256SOL    HW131667   4.204   0.589   2.823
10256SOL    HW231668   4.365   0.560   2.826
10257SOL     OW31669   3.226   4.971   3.017
10257SOL    HW131670   3.247   4.909   2.942
10257SOL    HW231671   3.231   5.065   2.984
10258SOL     OW31672   1.952   1.616   1.618
10258SOL    HW131673   2.035   1.671   1.613
10258SOL    HW231674   1.916   1.602   1.525
10259SOL     OW31675   0.439   3.582   3.695
10259SOL    HW131676   0.409   3.593   3.600
10259SOL    HW231677   0.458   3.672   3.734
10260SOL     OW31678   1.121   1.221   3.802
10260SOL    HW131679   1.162   1.150   3.744
10260SOL    HW231680   1.118   1.189   3.897
10261SOL     OW31681   6.642   3.557   1.075
10261SOL    HW131682   6.648   3.631   1.008
10261SOL    HW231683   6.571   3.493   1.048
10262SOL     OW31684   3.411   1.183   0.109
10262SOL    HW131685   3.389   1.145   0.019
10262SOL    HW231686   3.455   1.272   0.099
10263SOL     OW31687   5.985   0.656   1.467
10263SOL    HW131688   5.924   0.678   1.543
10263SOL    HW231689   5.932   0.649   1.382
10264SOL     OW31690   6.617   5.361   6.753
10264SOL    HW131691   6.710   5.374   6.720
10264SOL    HW231692   6.563   5.314   6.683
10265SOL     OW31693   1.972   1.710   0.313
10265SOL    HW131694   1.939   1.805   0.306
10265SOL    HW231695   2.028   1.689   0.234
10266SOL     OW31696   2.842   3.465   2.364
10266SOL    HW131697   2.880   3.374   2.377
10266SOL    HW231698   2.756   3.459   2.313
10267SOL     OW31699   5.876   1.096   0.682
10267SOL    HW131700   5.876   1.153   0.764
10267SOL    HW231701   5.785   1.098   0.639
10268SOL     OW31702   4.572   0.510   1.129
10268SOL    HW131703   4.617   0.578   1.071
10268SOL    HW231704   4.473   0.511   1.110
10269SOL     OW31705   2.385   1.954   6.349
10269SOL    HW131706   2.315   1.929   6.416
10269SOL    HW231707   2.474   1.960   6.395
10270SOL     OW31708   3.201   6.330   2.036
10270SOL    HW131709   3.157   6.325   2.125
10270SOL    HW231710   3.143   6.284   1.968
10271SOL     OW31711   1.358   2.296   0.150
10271SOL    HW131712   1.271   2.253   0.125
10271SOL    HW231713   1.341   2.391   0.178
10272SOL     OW31714   6.343   0.329   4.828
10272SOL    HW131715   6.346   0.230   4.825
10272SOL    HW231716   6.255   0.359   4.867
10273SOL     OW31717   2.310   5.234   3.438
10273SOL    HW131718   2.266   5.169   3.500
10273SOL    HW231719   2.408   5.216   3.433
10274SOL     OW31720   0.258   5.029   4.935
10274SOL    HW131721   0.214   4.955   4.986
10274SOL    HW231722   0.244   5.015   4.837
10275SOL     OW31723   0.154   0.509   3.042
10275SOL    HW131724   0.238   0.561   3.029
10275SOL    HW231725   0.110   0.536   3.127
10276SOL     OW31726   3.896   5.907   6.029
10276SOL    HW131727   3.858   5.997   6.006
10276SOL    HW231728   3.839   5.835   5.989
10277SOL     OW31729   0.424   6.763   4.559
10277SOL    HW131730   0.382   6.686   4.607
10277SOL    HW231731   0.502   6.730   4.506
10278SOL     OW31732   7.000   0.522   5.265
10278SOL    HW131733   6.974   0.434   5.225
10278SOL    HW231734   0.022   0.506   5.351
10279SOL     OW31735   1.701   5.928   4.220
10279SOL    HW131736   1.675   6.022   4.242
10279SOL    HW231737   1.758   5.927   4.138
10280SOL     OW31738   5.268   3.942   0.528
10280SOL    HW131739   5.332   3.929   0.603
10280SOL    HW231740   5.318   3.944   0.441
10281SOL     OW31741   6.755   2.355   3.856
10281SOL    HW131742   6.780   2.405   3.774
10281SOL    HW231743   6.676   2.296   3.836
10282SOL     OW31744   5.099   3.822   3.468
10282SOL    HW131745   5.131   3.784   3.555
10282SOL    HW231746   5.161   3.794   3.395
10283SOL     OW31747   0.546   4.013   0.812
10283SOL    HW131748   0.526   3.928   0.763
10283SOL    HW231749   0.465   4.043   0.863
10284SOL     OW31750   0.282   2.916   3.745
10284SOL    HW131751   0.215   2.917   3.819
10284SOL    HW231752   0.293   2.823   3.711
10285SOL     OW31753   5.203   6.239   4.814
10285SOL    HW131754   5.225   6.276   4.905
10285SOL    HW231755   5.284   6.193   4.777
10286SOL     OW31756   2.799   1.489   4.420
10286SOL    HW131757   2.706   1.504   4.454
10286SOL    HW231758   2.806   1.396   4.383
10287SOL     OW31759   2.184   5.866   3.109
10287SOL    HW131760   2.168   5.816   3.194
10287SOL    HW231761   2.214   5.803   3.038
10288SOL     OW31762   3.609   6.992   5.642
10288SOL    HW131763   3.641   6.908   5.597
10288SOL    HW231764   3.523   7.021   5.600
10289SOL     OW31765   2.578   5.907   6.619
10289SOL    HW131766   2.642   5.840   6.654
10289SOL    HW231767   2.489   5.864   6.605
10290SOL     OW31768   3.284   3.048   2.261
10290SOL    HW131769   3.288   3.143   2.293
10290SOL    HW231770   3.267   3.048   2.162
10291SOL     OW31771   2.349   1.403   2.490
10291SOL    HW131772   2.390   1.439   2.407
10291SOL    HW231773   2.287   1.328   2.468
10292SOL     OW31774   6.301   6.388   6.582
10292SOL    HW131775   6.295   6.486   6.564
10292SOL    HW231776   6.371   6.371   6.651
10293SOL     OW31777   0.871   3.840   4.211
10293SOL    HW131778   0.924   3.798   4.285
10293SOL    HW231779   0.774   3.820   4.224
10294SOL     OW31780   3.566   1.660   2.251
10294SOL    HW131781   3.502   1.726   2.288
10294SOL    HW231782   3.650   1.707   2.222
10295SOL     OW31783   0.872   2.538   0.118
10295SOL    HW131784   0.870   2.618   0.058
10295SOL    HW231785   0.779   2.503   0.130
10296SOL     OW31786   6.051   1.300   5.858
10296SOL    HW131787   5.997   1.380   5.883
10296SOL    HW231788   6.137   1.301   5.909
10297SOL     OW31789   3.116   1.812   6.588
10297SOL    HW131790   3.145   1.798   6.494
10297SOL    HW231791   3.045   1.883   6.591
10298SOL     OW31792   0.462   2.477   3.018
10298SOL    HW131793   0.398   2.400   3.019
10298SOL    HW231794   0.413   2.560   3.043
10299SOL     OW31795   4.032   6.128   2.158
10299SOL    HW131796   3.960   6.119   2.227
10299SOL    HW231797   4.118   6.155   2.202
10300SOL     OW31798   0.281   3.227   1.595
10300SOL    HW131799   0.198   3.180   1.624
10300SOL    HW231800   0.342   3.162   1.550
10301SOL     OW31801   4.106   1.238   6.409
10301SOL    HW131802   4.108   1.252   6.508
10301SOL    HW231803   4.187   1.280   6.368
10302SOL     OW31804   2.713   5.790   4.354
10302SOL    HW131805   2.704   5.697   4.390
10302SOL    HW231806   2.664   5.798   4.268
10303SOL     OW31807   0.884   6.263   5.025
10303SOL    HW131808   0.803   6.281   4.970
10303SOL    HW231809   0.955   6.221   4.968
10304SOL     OW31810   6.482   6.837   6.950
10304SOL    HW131811   6.469   6.809   0.018
10304SOL    HW231812   6.445   6.929   6.937
10305SOL     OW31813   2.218   4.037   5.919
10305SOL    HW131814   2.133   4.051   5.868
10305SOL    HW231815   2.205   3.965   5.988
10306SOL     OW31816   5.182   0.192   1.395
10306SOL    HW131817   5.227   0.279   1.414
10306SOL    HW231818   5.086   0.208   1.372
10307SOL     OW31819   2.426   0.416   5.147
10307SOL    HW131820   2.359   0.343   5.138
10307SOL    HW231821   2.471   0.431   5.059
10308SOL     OW31822   2.562   4.501   2.519
10308SOL    HW131823   2.506   4.494   2.602
10308SOL    HW231824   2.607   4.414   2.502
10309SOL     OW31825   6.446   1.153   5.465
10309SOL    HW131826   6.523   1.103   5.425
10309SOL    HW231827   6.372   1.161   5.398
10310SOL     OW31828   3.281   2.878   5.983
10310SOL    HW131829   3.366   2.916   6.019
10310SOL    HW231830   3.206   2.943   5.996
10311SOL     OW31831   5.611   6.286   6.849
10311SOL    HW131832   5.600   6.207   6.790
10311SOL    HW231833   5.589   6.369   6.798
10312SOL     OW31834   4.505   0.438   2.102
10312SOL    HW131835   4.418   0.419   2.148
10312SOL    HW231836   4.488   0.463   2.007
10313SOL     OW31837   4.844   6.307   2.974
10313SOL    HW131838   4.791   6.362   3.038
10313SOL    HW231839   4.915   6.363   2.932
10314SOL     OW31840   0.678   6.874   0.744
10314SOL    HW131841   0.680   6.924   0.830
10314SOL    HW231842   0.767   6.831   0.729
10315SOL     OW31843   5.183   6.403   3.573
10315SOL    HW131844   5.118   6.403   3.649
10315SOL    HW231845   5.272   6.371   3.605
10316SOL     OW31846   0.186   2.576   6.343
10316SOL    HW131847   0.254   2.506   6.322
10316SOL    HW231848   0.232   2.664   6.357
10317SOL     OW31849   3.395   6.015   5.887
10317SOL    HW131850   3.366   5.921   5.869
10317SOL    HW231851   3.430   6.021   5.980
10318SOL     OW31852   5.944   6.815   6.978
10318SOL    HW131853   5.892   6.762   0.019
10318SOL    HW231854   6.004   6.880   7.026
10319SOL     OW31855   0.136   4.523   4.621
10319SOL    HW131856   0.229   4.550   4.596
10319SOL    HW231857   0.106   4.449   4.560
10320SOL     OW31858   0.586   0.491   3.819
10320SOL    HW131859   0.570   0.505   3.721
10320SOL    HW231860   0.678   0.522   3.843
10321SOL     OW31861   5.512   2.184   1.816
10321SOL    HW131862   5.446   2.207   1.888
10321SOL    HW231863   5.558   2.267   1.785
10322SOL     OW31864   4.511   4.473   4.770
10322SOL    HW131865   4.454   4.521   4.837
10322SOL    HW231866   4.453   4.432   4.701
10323SOL     OW31867   0.231   4.403   5.204
10323SOL    HW131868   0.295   4.366   5.136
10323SOL    HW231869   0.140   4.365   5.188
10324SOL     OW31870   3.303   3.522   2.175
10324SOL    HW131871   3.395   3.501   2.209
10324SOL    HW231872   3.304   3.609   2.127
10325SOL     OW31873   0.535   5.938   2.839
10325SOL    HW131874   0.528   5.838   2.845
10325SOL    HW231875   0.582   5.973   2.920
10326SOL     OW31876   5.238   3.662   7.004
10326SOL    HW131877   5.229   3.707   6.915
10326SOL    HW231878   5.188   3.714   0.046
10327SOL     OW31879   2.915   4.049   1.319
10327SOL    HW131880   2.963   4.055   1.406
10327SOL    HW231881   2.902   3.953   1.294
10328SOL     OW31882   6.563   2.920   2.111
10328SOL    HW131883   6.606   2.973   2.037
10328SOL    HW231884   6.477   2.881   2.077
10329SOL     OW31885   3.541   1.678   3.064
10329SOL    HW131886   3.486   1.604   3.028
10329SOL    HW231887   3.526   1.761   3.010
10330SOL     OW31888   4.620   0.281   1.279
10330SOL    HW131889   4.642   0.286   1.376
10330SOL    HW231890   4.615   0.373   1.240
10331SOL     OW31891   6.550   5.802   0.056
10331SOL    HW131892   6.572   5.718   0.006
10331SOL    HW231893   6.450   5.813   0.061
10332SOL     OW31894   1.301   1.027   0.736
10332SOL    HW131895   1.350   0.983   0.812
10332SOL    HW231896   1.247   0.958   0.687
10333SOL     OW31897   1.088   5.963   4.640
10333SOL    HW131898   1.145   5.886   4.668
10333SOL    HW231899   1.021   5.932   4.573
10334SOL     OW31900   3.359   0.170   3.809
10334SOL    HW131901   3.304   0.144   3.888
10334SOL    HW231902   3.416   0.249   3.833
10335SOL     OW31903   0.389   3.664   5.978
10335SOL    HW131904   0.350   3.630   5.892
10335SOL    HW231905   0.389   3.591   6.046
10336SOL     OW31906   5.489   0.065   2.965
10336SOL    HW131907   5.552   0.045   2.890
10336SOL    HW231908   5.514   0.012   3.046
10337SOL     OW31909   6.148   5.321   0.170
10337SOL    HW131910   6.233   5.301   0.220
10337SOL    HW231911   6.074   5.266   0.209
10338SOL     OW31912   1.839   6.346   1.950
10338SOL    HW131913   1.821   6.286   1.873
10338SOL    HW231914   1.936   6.370   1.951
10339SOL     OW31915   6.662   2.283   5.927
10339SOL    HW131916   6.760   2.262   5.916
10339SOL    HW231917   6.626   2.230   6.004
10340SOL     OW31918   1.703   3.557   6.307
10340SOL    HW131919   1.766   3.561   6.229
10340SOL    HW231920   1.751   3.518   6.385
10341SOL     OW31921   2.080   2.955   2.689
10341SOL    HW131922   2.059   3.007   2.772
10341SOL    HW231923   2.159   2.896   2.706
10342SOL     OW31924   1.343   0.614   3.875
10342SOL    HW131925   1.291   0.553   3.935
10342SOL    HW231926   1.286   0.640   3.797
10343SOL     OW31927   2.117   5.607   1.051
10343SOL    HW131928   2.137   5.655   1.137
10343SOL    HW231929   2.032   5.642   1.012
10344SOL     OW31930   3.745   4.523   6.216
10344SOL    HW131931   3.769   4.469   6.135
10344SOL    HW231932   3.804   4.604   6.221
10345SOL     OW31933   1.270   3.059   5.328
10345SOL    HW131934   1.302   2.985   5.269
10345SOL    HW231935   1.348   3.102   5.372
10346SOL     OW31936   0.516   5.900   1.938
10346SOL    HW131937   0.453   5.903   2.016
10346SOL    HW231938   0.577   5.979   1.941
10347SOL     OW31939   4.527   1.785   3.815
10347SOL    HW131940   4.541   1.797   3.914
10347SOL    HW231941   4.578   1.706   3.783
10348SOL     OW31942   6.067   4.026   0.751
10348SOL    HW131943   6.029   4.028   0.659
10348SOL    HW231944   6.157   4.068   0.752
10349SOL     OW31945   0.102   6.457   6.419
10349SOL    HW131946   0.137   6.539   6.374
10349SOL    HW231947   0.085   6.476   6.515
10350SOL     OW31948   2.862   6.685   5.364
10350SOL    HW131949   2.893   6.591   5.370
10350SOL    HW231950   2.857   6.724   5.456
10351SOL     OW31951   4.370   4.960   5.817
10351SOL    HW131952   4.370   4.944   5.719
10351SOL    HW231953   4.430   4.894   5.862
10352SOL     OW31954   3.937   2.303   5.859
10352SOL    HW131955   4.019   2.324   5.913
10352SOL    HW231956   3.923   2.204   5.856
10353SOL     OW31957   6.909   2.705   4.763
10353SOL    HW131958   6.886   2.654   4.846
10353SOL    HW231959   6.941   2.797   4.788
10354SOL     OW31960   5.263   1.347   2.082
10354SOL    HW131961   5.239   1.426   2.025
10354SOL    HW231962   5.239   1.366   2.177
10355SOL     OW31963   2.586   5.781   2.355
10355SOL    HW131964   2.582   5.681   2.358
10355SOL    HW231965   2.510   5.815   2.299
10356SOL     OW31966   6.982   4.152   5.276
10356SOL    HW131967   6.983   4.112   5.185
10356SOL    HW231968   6.986   4.080   5.345
10357SOL     OW31969   2.532   1.883   6.621
10357SOL    HW131970   2.615   1.836   6.650
10357SOL    HW231971   2.461   1.816   6.602
10358SOL     OW31972   0.388   1.999   1.360
10358SOL    HW131973   0.485   1.979   1.351
10358SOL    HW231974   0.376   2.074   1.426
10359SOL     OW31975   7.023   1.332   1.948
10359SOL    HW131976   7.006   1.283   2.033
10359SOL    HW231977   6.969   1.292   1.874
10360SOL     OW31978   5.617   6.129   3.666
10360SOL    HW131979   5.657   6.054   3.719
10360SOL    HW231980   5.678   6.151   3.589
10361SOL     OW31981   2.543   5.303   1.705
10361SOL    HW131982   2.614   5.367   1.678
10361SOL    HW231983   2.482   5.347   1.772
10362SOL     OW31984   1.834   4.205   4.561
10362SOL    HW131985   1.837   4.284   4.621
10362SOL    HW231986   1.912   4.207   4.498
10363SOL     OW31987   5.053   0.935   3.515
10363SOL    HW131988   4.965   0.974   3.486
10363SOL    HW231989   5.047   0.909   3.612
10364SOL     OW31990   2.014   4.412   1.407
10364SOL    HW131991   2.072   4.490   1.386
10364SOL    HW231992   2.002   4.405   1.506
10365SOL     OW31993   4.824   5.321   6.996
10365SOL    HW131994   4.891   5.260   6.954
10365SOL    HW231995   4.817   5.301   0.067
10366SOL     OW31996   3.071   6.533   2.965
10366SOL    HW131997   3.157   6.482   2.964
10366SOL    HW231998   3.090   6.631   2.957
10367SOL     OW31999   6.240   2.643   3.717
10367SOL    HW132000   6.291   2.706   3.776
10367SOL    HW232001   6.266   2.658   3.621
10368SOL     OW32002   1.657   0.840   1.573
10368SOL    HW132003   1.749   0.856   1.608
10368SOL    HW232004   1.610   0.773   1.632
10369SOL     OW32005   3.629   2.647   0.031
10369SOL    HW132006   3.548   2.697   7.025
10369SOL    HW232007   3.611   2.615   0.124
10370SOL     OW32008   3.906   0.875   5.393
10370SOL    HW132009   3.958   0.838   5.316
10370SOL    HW232010   3.959   0.946   5.438
10371SOL     OW32011   4.754   6.512   5.265
10371SOL    HW132012   4.655   6.520   5.252
10371SOL    HW232013   4.791   6.446   5.200
10372SOL     OW32014   2.072   0.890   4.007
10372SOL    HW132015   2.057   0.888   3.908
10372SOL    HW232016   2.171   0.889   4.026
10373SOL     OW32017   0.676   6.324   4.375
10373SOL    HW132018   0.776   6.336   4.371
10373SOL    HW232019   0.645   6.272   4.295
10374SOL     OW32020   2.809   2.275   2.996
10374SOL    HW132021   2.906   2.272   3.021
10374SOL    HW232022   2.800   2.282   2.897
10375SOL     OW32023   5.736   2.108   0.811
10375SOL    HW132024   5.640   2.137   0.819
10375SOL    HW232025   5.783   2.123   0.898
10376SOL     OW32026   0.946   0.922   3.656
10376SOL    HW132027   0.985   0.928   3.564
10376SOL    HW232028   0.847   0.915   3.649
10377SOL     OW32029   0.965   0.532   4.198
10377SOL    HW132030   0.961   0.433   4.185
10377SOL    HW232031   0.887   0.575   4.151
10378SOL     OW32032   0.026   0.472   6.497
10378SOL    HW132033   0.059   0.497   6.406
10378SOL    HW232034   7.015   0.380   6.495
10379SOL     OW32035   5.193   1.266   4.142
10379SOL    HW132036   5.265   1.202   4.114
10379SOL    HW232037   5.226   1.323   4.217
10380SOL     OW32038   5.136   0.356   1.965
10380SOL    HW132039   5.086   0.408   2.034
10380SOL    HW232040   5.190   0.284   2.010
10381SOL     OW32041   4.734   4.864   5.814
10381SOL    HW132042   4.833   4.869   5.804
10381SOL    HW232043   4.691   4.935   5.756
10382SOL     OW32044   2.338   5.145   0.166
10382SOL    HW132045   2.295   5.232   0.191
10382SOL    HW232046   2.341   5.085   0.245
10383SOL     OW32047   0.218   2.416   0.505
10383SOL    HW132048   0.220   2.438   0.603
10383SOL    HW232049   0.250   2.495   0.452
10384SOL     OW32050   6.289   0.196   0.148
10384SOL    HW132051   6.350   0.275   0.136
10384SOL    HW232052   6.334   0.128   0.205
10385SOL     OW32053   6.189   1.561   6.299
10385SOL    HW132054   6.170   1.536   6.394
10385SOL    HW232055   6.110   1.609   6.260
10386SOL     OW32056   6.079   2.463   5.844
10386SOL    HW132057   6.132   2.546   5.827
10386SOL    HW232058   6.046   2.464   5.938
10387SOL     OW32059   2.029   2.609   3.225
10387SOL    HW132060   1.974   2.583   3.304
10387SOL    HW232061   2.122   2.632   3.255
10388SOL     OW32062   1.621   5.033   2.673
10388SOL    HW132063   1.601   4.981   2.756
10388SOL    HW232064   1.613   5.131   2.693
10389SOL     OW32065   0.691   4.562   3.002
10389SOL    HW132066   0.662   4.492   2.938
10389SOL    HW232067   0.635   4.557   3.085
10390SOL     OW32068   1.247   3.122   3.694
10390SOL    HW132069   1.259   3.032   3.736
10390SOL    HW232070   1.325   3.180   3.717
10391SOL     OW32071   2.540   6.278   6.081
10391SOL    HW132072   2.488   6.261   5.997
10391SOL    HW232073   2.612   6.345   6.062
10392SOL     OW32074   6.511   5.364   0.251
10392SOL    HW132075   6.581   5.358   0.180
10392SOL    HW232076   6.486   5.272   0.281
10393SOL     OW32077   1.440   1.341   4.146
10393SOL    HW132078   1.409   1.246   4.143
10393SOL    HW232079   1.538   1.345   4.126
10394SOL     OW32080   1.686   6.324   6.865
10394SOL    HW132081   1.723   6.404   6.818
10394SOL    HW232082   1.591   6.311   6.836
10395SOL     OW32083   0.218   1.298   4.875
10395SOL    HW132084   0.206   1.200   4.890
10395SOL    HW232085   0.272   1.336   4.950
10396SOL     OW32086   0.316   0.245   5.333
10396SOL    HW132087   0.231   0.206   5.298
10396SOL    HW232088   0.383   0.172   5.347
10397SOL     OW32089   4.420   1.457   2.709
10397SOL    HW132090   4.380   1.366   2.707
10397SOL    HW232091   4.391   1.505   2.792
10398SOL     OW32092   6.824   2.631   2.575
10398SOL    HW132093   6.756   2.587   2.633
10398SOL    HW232094   6.882   2.691   2.630
10399SOL     OW32095   5.677   1.968   5.304
10399SOL    HW132096   5.647   2.048   5.251
10399SOL    HW232097   5.776   1.958   5.294
10400SOL     OW32098   2.404   4.880   1.791
10400SOL    HW132099   2.409   4.961   1.850
10400SOL    HW232100   2.421   4.906   1.696
10401SOL     OW32101   0.301   6.259   1.172
10401SOL    HW132102   0.290   6.357   1.183
10401SOL    HW232103   0.397   6.234   1.183
10402SOL     OW32104   0.344   2.962   4.424
10402SOL    HW132105   0.342   2.990   4.520
10402SOL    HW232106   0.383   3.035   4.368
10403SOL     OW32107   5.291   0.947   2.134
10403SOL    HW132108   5.269   0.881   2.206
10403SOL    HW232109   5.384   0.981   2.147
10404SOL     OW32110   0.504   6.438   3.800
10404SOL    HW132111   0.411   6.464   3.773
10404SOL    HW232112   0.528   6.350   3.759
10405SOL     OW32113   1.663   6.586   5.719
10405SOL    HW132114   1.763   6.591   5.720
10405SOL    HW232115   1.626   6.672   5.684
10406SOL     OW32116   2.387   4.803   6.141
10406SOL    HW132117   2.306   4.851   6.109
10406SOL    HW232118   2.412   4.731   6.076
10407SOL     OW32119   1.148   1.397   0.159
10407SOL    HW132120   1.155   1.299   0.144
10407SOL    HW232121   1.062   1.418   0.205
10408SOL     OW32122   4.384   5.284   3.344
10408SOL    HW132123   4.372   5.356   3.275
10408SOL    HW232124   4.347   5.198   3.309
10409SOL     OW32125   5.989   5.038   2.366
10409SOL    HW132126   5.890   5.047   2.361
10409SOL    HW232127   6.033   5.123   2.337
10410SOL     OW32128   5.808   6.674   0.745
10410SOL    HW132129   5.781   6.625   0.662
10410SOL    HW232130   5.766   6.765   0.745
10411SOL     OW32131   2.323   4.643   2.857
10411SOL    HW132132   2.241   4.669   2.807
10411SOL    HW232133   2.348   4.549   2.834
10412SOL     OW32134   0.417   2.292   0.093
10412SOL    HW132135   0.367   2.294   0.007
10412SOL    HW232136   0.428   2.198   0.124
10413SOL     OW32137   0.504   1.977   6.670
10413SOL    HW132138   0.465   2.069   6.662
10413SOL    HW232139   0.431   1.909   6.669
10414SOL     OW32140   5.484   6.888   5.406
10414SOL    HW132141   5.409   6.821   5.406
10414SOL    HW232142   5.560   6.854   5.461
10415SOL     OW32143   0.696   5.450   3.495
10415SOL    HW132144   0.684   5.375   3.559
10415SOL    HW232145   0.773   5.507   3.523
10416SOL     OW32146   5.100   0.881   6.362
10416SOL    HW132147   5.157   0.876   6.444
10416SOL    HW232148   5.008   0.908   6.386
10417SOL     OW32149   3.699   5.200   4.339
10417SOL    HW132150   3.751   5.285   4.332
10417SOL    HW232151   3.616   5.215   4.394
10418SOL     OW32152   6.306   4.117   6.316
10418SOL    HW132153   6.259   4.160   6.394
10418SOL    HW232154   6.253   4.038   6.285
10419SOL     OW32155   2.596   1.573   4.592
10419SOL    HW132156   2.641   1.575   4.681
10419SOL    HW232157   2.505   1.613   4.599
10420SOL     OW32158   6.049   3.538   3.332
10420SOL    HW132159   5.994   3.481   3.271
10420SOL    HW232160   5.991   3.581   3.400
10421SOL     OW32161   0.666   4.535   4.284
10421SOL    HW132162   0.648   4.633   4.290
10421SOL    HW232163   0.764   4.519   4.286
10422SOL     OW32164   6.556   3.967   4.943
10422SOL    HW132165   6.519   4.026   5.014
10422SOL    HW232166   6.579   3.877   4.982
10423SOL     OW32167   2.496   4.883   4.281
10423SOL    HW132168   2.477   4.791   4.316
10423SOL    HW232169   2.478   4.885   4.183
10424SOL     OW32170   3.394   1.047   0.542
10424SOL    HW132171   3.359   1.129   0.587
10424SOL    HW232172   3.431   0.985   0.610
10425SOL     OW32173   1.513   2.636   0.888
10425SOL    HW132174   1.467   2.724   0.873
10425SOL    HW232175   1.452   2.561   0.862
10426SOL     OW32176   6.448   2.139   6.471
10426SOL    HW132177   6.415   2.202   6.401
10426SOL    HW232178   6.453   2.047   6.433
10427SOL     OW32179   5.074   0.366   4.183
10427SOL    HW132180   5.025   0.279   4.186
10427SOL    HW232181   5.013   0.440   4.211
10428SOL     OW32182   2.456   0.247   3.976
10428SOL    HW132183   2.448   0.247   3.877
10428SOL    HW232184   2.546   0.282   4.003
10429SOL     OW32185   1.561   2.793   1.270
10429SOL    HW132186   1.629   2.853   1.313
10429SOL    HW232187   1.545   2.713   1.329
10430SOL     OW32188   3.190   6.971   3.464
10430SOL    HW132189   3.281   6.930   3.464
10430SOL    HW232190   3.128   6.913   3.411
10431SOL     OW32191   4.136   0.370   3.089
10431SOL    HW132192   4.045   0.369   3.048
10431SOL    HW232193   4.178   0.280   3.078
10432SOL     OW32194   0.523   5.435   6.395
10432SOL    HW132195   0.468   5.421   6.313
10432SOL    HW232196   0.470   5.485   6.463
10433SOL     OW32197   2.547   0.036   2.839
10433SOL    HW132198   2.511   0.028   2.932
10433SOL    HW232199   2.471   0.052   2.775
10434SOL     OW32200   5.373   0.727   5.969
10434SOL    HW132201   5.427   0.736   6.054
10434SOL    HW232202   5.278   0.708   5.992
10435SOL     OW32203   2.140   1.969   0.221
10435SOL    HW132204   2.140   1.948   0.123
10435SOL    HW232205   2.047   1.993   0.249
10436SOL     OW32206   6.586   3.426   5.227
10436SOL    HW132207   6.586   3.358   5.300
10436SOL    HW232208   6.500   3.477   5.229
10437SOL     OW32209   5.757   6.470   4.694
10437SOL    HW132210   5.794   6.393   4.747
10437SOL    HW232211   5.702   6.528   4.754
10438SOL     OW32212   6.606   5.992   6.791
10438SOL    HW132213   6.594   5.900   6.753
10438SOL    HW232214   6.670   5.989   6.867
10439SOL     OW32215   6.351   5.785   4.805
10439SOL    HW132216   6.365   5.686   4.803
10439SOL    HW232217   6.332   5.814   4.899
10440SOL     OW32218   6.125   2.706   1.252
10440SOL    HW132219   6.122   2.651   1.169
10440SOL    HW232220   6.083   2.795   1.235
10441SOL     OW32221   4.500   1.802   6.752
10441SOL    HW132222   4.526   1.798   6.848
10441SOL    HW232223   4.561   1.744   6.698
10442SOL     OW32224   1.818   1.642   5.398
10442SOL    HW132225   1.728   1.669   5.431
10442SOL    HW232226   1.859   1.717   5.345
10443SOL     OW32227   0.473   1.599   1.401
10443SOL    HW132228   0.513   1.508   1.412
10443SOL    HW232229   0.546   1.667   1.400
10444SOL     OW32230   4.037   5.104   4.547
10444SOL    HW132231   4.091   5.188   4.550
10444SOL    HW232232   3.960   5.112   4.610
10445SOL     OW32233   0.458   3.234   3.098
10445SOL    HW132234   0.392   3.162   3.079
10445SOL    HW232235   0.462   3.250   3.197
10446SOL     OW32236   2.475   4.474   5.765
10446SOL    HW132237   2.522   4.490   5.678
10446SOL    HW232238   2.449   4.378   5.772
10447SOL     OW32239   0.195   2.338   2.757
10447SOL    HW132240   0.120   2.387   2.802
10447SOL    HW232241   0.255   2.402   2.711
10448SOL     OW32242   2.049   6.759   1.715
10448SOL    HW132243   2.064   6.661   1.705
10448SOL    HW232244   1.973   6.774   1.779
10449SOL     OW32245   3.704   4.931   4.930
10449SOL    HW132246   3.741   4.900   4.842
10449SOL    HW232247   3.604   4.927   4.928
10450SOL     OW32248   6.823   0.659   5.396
10450SOL    HW132249   6.890   0.605   5.345
10450SOL    HW232250   6.732   0.645   5.357
10451SOL     OW32251   3.334   1.336   3.269
10451SOL    HW132252   3.389   1.388   3.334
10451SOL    HW232253   3.381   1.332   3.181
10452SOL     OW32254   6.022   2.899   4.525
10452SOL    HW132255   6.109   2.855   4.502
10452SOL    HW232256   6.020   2.919   4.623
10453SOL     OW32257   4.471   6.227   3.551
10453SOL    HW132258   4.446   6.174   3.471
10453SOL    HW232259   4.554   6.190   3.591
10454SOL     OW32260   6.651   1.468   6.353
10454SOL    HW132261   6.705   1.434   6.431
10454SOL    HW232262   6.708   1.467   6.271
10455SOL     OW32263   0.087   5.382   3.546
10455SOL    HW132264   7.020   5.393   3.578
10455SOL    HW232265   0.095   5.418   3.453
10456SOL     OW32266   1.066   5.156   6.440
10456SOL    HW132267   0.988   5.106   6.477
10456SOL    HW232268   1.051   5.172   6.342
10457SOL     OW32269   3.895   2.504   6.969
10457SOL    HW132270   3.950   2.497   0.025
10457SOL    HW232271   3.841   2.588   6.972
10458SOL     OW32272   0.362   5.910   6.917
10458SOL    HW132273   0.313   5.985   6.962
10458SOL    HW232274   0.296   5.849   6.873
10459SOL     OW32275   6.564   5.179   1.326
10459SOL    HW132276   6.615   5.221   1.400
10459SOL    HW232277   6.626   5.160   1.249
10460SOL     OW32278   0.051   0.702   0.827
10460SOL    HW132279   6.989   0.699   0.782
10460SOL    HW232280   0.118   0.745   0.766
10461SOL     OW32281   7.004   5.084   6.211
10461SOL    HW132282   6.986   5.173   6.168
10461SOL    HW232283   0.062   5.088   6.262
10462SOL     OW32284   4.323   2.150   6.809
10462SOL    HW132285   4.233   2.171   6.845
10462SOL    HW232286   4.315   2.113   6.717
10463SOL     OW32287   4.993   2.246   6.697
10463SOL    HW132288   4.950   2.217   6.612
10463SOL    HW232289   4.946   2.326   6.733
10464SOL     OW32290   6.609   4.983   2.302
10464SOL    HW132291   6.514   4.969   2.273
10464SOL    HW232292   6.640   4.904   2.356
10465SOL     OW32293   5.442   4.611   1.416
10465SOL    HW132294   5.526   4.577   1.374
10465SOL    HW232295   5.440   4.585   1.513
10466SOL     OW32296   6.347   4.574   6.047
10466SOL    HW132297   6.257   4.601   6.014
10466SOL    HW232298   6.382   4.498   5.992
10467SOL     OW32299   0.761   3.565   0.103
10467SOL    HW132300   0.817   3.548   0.184
10467SOL    HW232301   0.802   3.519   0.024
10468SOL     OW32302   1.725   4.454   3.362
10468SOL    HW132303   1.699   4.368   3.319
10468SOL    HW232304   1.824   4.455   3.377
10469SOL     OW32305   0.584   1.494   4.230
10469SOL    HW132306   0.548   1.407   4.197
10469SOL    HW232307   0.510   1.550   4.266
10470SOL     OW32308   2.138   3.362   2.859
10470SOL    HW132309   2.177   3.275   2.889
10470SOL    HW232310   2.039   3.361   2.873
10471SOL     OW32311   2.878   6.465   6.783
10471SOL    HW132312   2.912   6.452   6.876
10471SOL    HW232313   2.793   6.414   6.770
10472SOL     OW32314   3.985   4.731   6.612
10472SOL    HW132315   4.030   4.798   6.553
10472SOL    HW232316   3.933   4.667   6.556
10473SOL     OW32317   5.665   4.495   0.527
10473SOL    HW132318   5.617   4.466   0.609
10473SOL    HW232319   5.706   4.416   0.482
10474SOL     OW32320   5.922   1.042   4.661
10474SOL    HW132321   5.901   0.948   4.635
10474SOL    HW232322   5.987   1.081   4.594
10475SOL     OW32323   1.340   5.634   1.599
10475SOL    HW132324   1.378   5.726   1.610
10475SOL    HW232325   1.274   5.633   1.524
10476SOL     OW32326   4.747   6.260   0.528
10476SOL    HW132327   4.651   6.270   0.555
10476SOL    HW232328   4.801   6.235   0.608
10477SOL     OW32329   6.634   5.314   3.869
10477SOL    HW132330   6.607   5.393   3.814
10477SOL    HW232331   6.723   5.332   3.911
10478SOL     OW32332   6.994   1.455   0.028
10478SOL    HW132333   6.985   1.443   0.127
10478SOL    HW232334   6.931   1.394   7.008
10479SOL     OW32335   0.701   2.576   2.060
10479SOL    HW132336   0.775   2.562   1.994
10479SOL    HW232337   0.715   2.514   2.137
10480SOL     OW32338   2.629   6.927   2.544
10480SOL    HW132339   2.709   6.945   2.488
10480SOL    HW232340   2.551   6.906   2.485
10481SOL     OW32341   6.517   0.618   2.320
10481SOL    HW132342   6.546   0.687   2.254
10481SOL    HW232343   6.584   0.613   2.395
10482SOL     OW32344   4.893   3.300   4.079
10482SOL    HW132345   4.881   3.203   4.058
10482SOL    HW232346   4.910   3.311   4.177
10483SOL     OW32347   6.106   6.451   6.954
10483SOL    HW132348   6.079   6.462   6.858
10483SOL    HW232349   6.170   6.524   6.979
10484SOL     OW32350   6.164   1.258   2.638
10484SOL    HW132351   6.142   1.178   2.582
10484SOL    HW232352   6.257   1.289   2.617
10485SOL     OW32353   5.386   3.815   5.597
10485SOL    HW132354   5.296   3.776   5.612
10485SOL    HW232355   5.386   3.912   5.622
10486SOL     OW32356   5.219   3.243   2.247
10486SOL    HW132357   5.312   3.248   2.283
10486SOL    HW232358   5.194   3.333   2.210
10487SOL     OW32359   5.699   6.276   1.624
10487SOL    HW132360   5.735   6.252   1.534
10487SOL    HW232361   5.600   6.286   1.618
10488SOL     OW32362   2.494   2.422   6.763
10488SOL    HW132363   2.463   2.517   6.755
10488SOL    HW232364   2.548   2.412   6.847
10489SOL     OW32365   0.897   5.653   6.184
10489SOL    HW132366   0.890   5.696   6.274
10489SOL    HW232367   0.973   5.694   6.134
10490SOL     OW32368   0.232   0.436   4.174
10490SOL    HW132369   0.148   0.412   4.223
10490SOL    HW232370   0.311   0.421   4.233
10491SOL     OW32371   1.157   4.042   6.020
10491SOL    HW132372   1.208   4.065   5.937
10491SOL    HW232373   1.211   4.067   6.100
10492SOL     OW32374   4.173   3.618   5.664
10492SOL    HW132375   4.120   3.664   5.593
10492SOL    HW232376   4.262   3.590   5.628
10493SOL     OW32377   2.995   0.832   1.379
10493SOL    HW132378   3.071   0.894   1.395
10493SOL    HW232379   3.019   0.740   1.410
10494SOL     OW32380   5.482   2.502   4.280
10494SOL    HW132381   5.580   2.517   4.265
10494SOL    HW232382   5.458   2.411   4.246
10495SOL     OW32383   1.525   6.553   0.078
10495SOL    HW132384   1.444   6.523   0.028
10495SOL    HW232385   1.560   6.478   0.134
10496SOL     OW32386   6.709   0.405   5.600
10496SOL    HW132387   6.694   0.421   5.697
10496SOL    HW232388   6.635   0.349   5.563
10497SOL     OW32389   1.183   1.160   1.404
10497SOL    HW132390   1.220   1.074   1.440
10497SOL    HW232391   1.150   1.146   1.311
10498SOL     OW32392   2.807   5.554   6.110
10498SOL    HW132393   2.872   5.630   6.121
10498SOL    HW232394   2.850   5.469   6.140
10499SOL     OW32395   3.509   5.519   3.490
10499SOL    HW132396   3.580   5.588   3.478
10499SOL    HW232397   3.522   5.445   3.423
10500SOL     OW32398   1.353   1.911   6.414
10500SOL    HW132399   1.304   1.864   6.340
10500SOL    HW232400   1.383   2.000   6.382
10501SOL     OW32401   1.879   3.254   3.216
10501SOL    HW132402   1.929   3.327   3.169
10501SOL    HW232403   1.928   3.168   3.205
10502SOL     OW32404   3.276   6.141   6.577
10502SOL    HW132405   3.217   6.136   6.658
10502SOL    HW232406   3.342   6.215   6.589
10503SOL     OW32407   2.628   3.538   6.185
10503SOL    HW132408   2.551   3.506   6.241
10503SOL    HW232409   2.622   3.497   6.094
10504SOL     OW32410   2.971   3.220   0.632
10504SOL    HW132411   2.875   3.212   0.660
10504SOL    HW232412   3.017   3.286   0.690
10505SOL     OW32413   6.658   6.299   1.512
10505SOL    HW132414   6.651   6.291   1.611
10505SOL    HW232415   6.696   6.215   1.474
10506SOL     OW32416   0.720   4.435   5.508
10506SOL    HW132417   0.783   4.374   5.460
10506SOL    HW232418   0.638   4.449   5.453
10507SOL     OW32419   1.016   0.242   5.425
10507SOL    HW132420   0.921   0.259   5.398
10507SOL    HW232421   1.077   0.274   5.352
10508SOL     OW32422   5.026   4.159   2.908
10508SOL    HW132423   5.053   4.064   2.896
10508SOL    HW232424   5.071   4.196   2.990
10509SOL     OW32425   1.805   0.101   6.025
10509SOL    HW132426   1.882   0.115   6.087
10509SOL    HW232427   1.838   0.103   5.930
10510SOL     OW32428   6.782   5.941   0.031
10510SOL    HW132429   6.852   5.870   0.022
10510SOL    HW232430   6.692   5.898   0.033
10511SOL     OW32431   5.351   2.910   0.330
10511SOL    HW132432   5.317   2.896   0.423
10511SOL    HW232433   5.320   2.835   0.271
10512SOL     OW32434   3.300   6.601   6.655
10512SOL    HW132435   3.397   6.583   6.645
10512SOL    HW232436   3.272   6.674   6.592
10513SOL     OW32437   6.466   2.197   0.344
10513SOL    HW132438   6.469   2.099   0.330
10513SOL    HW232439   6.371   2.227   0.354
10514SOL     OW32440   0.238   4.792   1.428
10514SOL    HW132441   0.191   4.711   1.461
10514SOL    HW232442   0.299   4.827   1.499
10515SOL     OW32443   6.457   2.111   4.357
10515SOL    HW132444   6.516   2.136   4.434
10515SOL    HW232445   6.435   2.014   4.361
10516SOL     OW32446   4.135   0.357   6.228
10516SOL    HW132447   4.076   0.437   6.222
10516SOL    HW232448   4.114   0.295   6.152
10517SOL     OW32449   0.164   1.493   3.072
10517SOL    HW132450   0.144   1.395   3.078
10517SOL    HW232451   0.254   1.511   3.110
10518SOL     OW32452   0.814   6.802   1.134
10518SOL    HW132453   0.813   6.710   1.172
10518SOL    HW232454   0.894   6.851   1.169
10519SOL     OW32455   2.726   3.606   5.400
10519SOL    HW132456   2.806   3.582   5.345
10519SOL    HW232457   2.698   3.700   5.380
10520SOL     OW32458   4.203   2.745   6.601
10520SOL    HW132459   4.150   2.727   6.683
10520SOL    HW232460   4.206   2.663   6.544
10521SOL     OW32461   6.300   5.613   1.718
10521SOL    HW132462   6.289   5.555   1.637
10521SOL    HW232463   6.337   5.558   1.793
10522SOL     OW32464   6.156   0.702   2.090
10522SOL    HW132465   6.070   0.652   2.076
10522SOL    HW232466   6.143   0.798   2.065
10523SOL     OW32467   0.279   5.675   6.740
10523SOL    HW132468   0.318   5.684   6.649
10523SOL    HW232469   0.333   5.609   6.793
10524SOL     OW32470   3.254   0.946   3.878
10524SOL    HW132471   3.164   0.906   3.896
10524SOL    HW232472   3.269   1.024   3.938
10525SOL     OW32473   2.771   6.041   4.487
10525SOL    HW132474   2.786   6.122   4.430
10525SOL    HW232475   2.758   5.961   4.428
10526SOL     OW32476   5.920   7.026   2.695
10526SOL    HW132477   5.908   0.072   2.628
10526SOL    HW232478   5.977   6.954   2.655
10527SOL     OW32479   1.450   2.603   4.929
10527SOL    HW132480   1.403   2.517   4.911
10527SOL    HW232481   1.504   2.629   4.849
10528SOL     OW32482   6.623   4.643   4.800
10528SOL    HW132483   6.529   4.644   4.834
10528SOL    HW232484   6.675   4.572   4.847
10529SOL     OW32485   6.667   6.595   4.073
10529SOL    HW132486   6.681   6.590   3.975
10529SOL    HW232487   6.586   6.650   4.093
10530SOL     OW32488   2.060   1.503   6.030
10530SOL    HW132489   1.987   1.570   6.040
10530SOL    HW232490   2.140   1.532   6.082
10531SOL     OW32491   2.082   2.683   5.315
10531SOL    HW132492   2.094   2.779   5.290
10531SOL    HW232493   2.151   2.628   5.270
10532SOL     OW32494   3.550   2.577   5.832
10532SOL    HW132495   3.480   2.578   5.761
10532SOL    HW232496   3.507   2.585   5.922
10533SOL     OW32497   2.561   1.311   6.232
10533SOL    HW132498   2.627   1.368   6.183
10533SOL    HW232499   2.584   1.309   6.329
10534SOL     OW32500   6.318   5.569   1.400
10534SOL    HW132501   6.351   5.635   1.332
10534SOL    HW232502   6.326   5.476   1.363
10535SOL     OW32503   0.007   0.820   2.234
10535SOL    HW132504   0.067   0.819   2.314
10535SOL    HW232505   6.965   0.748   2.243
10536SOL     OW32506   4.526   0.169   3.054
10536SOL    HW132507   4.482   0.259   3.058
10536SOL    HW232508   4.598   0.164   3.122
10537SOL     OW32509   0.861   4.746   1.535
10537SOL    HW132510   0.911   4.804   1.472
10537SOL    HW232511   0.887   4.651   1.522
10538SOL     OW32512   5.107   3.410   0.132
10538SOL    HW132513   5.126   3.317   0.101
10538SOL    HW232514   5.144   3.476   0.067
10539SOL     OW32515   0.312   3.299   5.897
10539SOL    HW132516   0.283   3.225   5.837
10539SOL    HW232517   0.337   3.379   5.843
10540SOL     OW32518   2.712   0.647   6.913
10540SOL    HW132519   2.792   0.633   6.854
10540SOL    HW232520   2.676   0.739   6.898
10541SOL     OW32521   3.569   2.527   0.276
10541SOL    HW132522   3.612   2.436   0.274
10541SOL    HW232523   3.547   2.552   0.370
10542SOL     OW32524   0.572   2.655   0.325
10542SOL    HW132525   0.635   2.664   0.403
10542SOL    HW232526   0.582   2.563   0.286
10543SOL     OW32527   2.173   0.973   5.607
10543SOL    HW132528   2.099   0.965   5.541
10543SOL    HW232529   2.175   1.065   5.645
10544SOL     OW32530   0.929   2.537   1.921
10544SOL    HW132531   0.888   2.447   1.934
10544SOL    HW232532   1.016   2.541   1.971
10545SOL     OW32533   5.946   0.214   2.519
10545SOL    HW132534   5.868   0.254   2.470
10545SOL    HW232535   6.028   0.267   2.499
10546SOL     OW32536   2.793   0.632   3.868
10546SOL    HW132537   2.705   0.673   3.843
10546SOL    HW232538   2.778   0.561   3.937
10547SOL     OW32539   4.164   1.782   1.016
10547SOL    HW132540   4.149   1.804   0.920
10547SOL    HW232541   4.254   1.814   1.044
10548SOL     OW32542   5.064   4.144   5.106
10548SOL    HW132543   5.157   4.164   5.073
10548SOL    HW232544   5.016   4.090   5.036
10549SOL     OW32545   1.162   0.930   2.101
10549SOL    HW132546   1.246   0.978   2.123
10549SOL    HW232547   1.124   0.965   2.015
10550SOL     OW32548   5.076   0.077   4.209
10550SOL    HW132549   5.072   0.060   4.307
10550SOL    HW232550   5.166   0.049   4.174
10551SOL     OW32551   1.204   2.849   5.971
10551SOL    HW132552   1.303   2.868   5.967
10551SOL    HW232553   1.168   2.881   6.059
10552SOL     OW32554   3.315   2.117   5.230
10552SOL    HW132555   3.415   2.119   5.233
10552SOL    HW232556   3.280   2.209   5.211
10553SOL     OW32557   2.769   5.075   6.947
10553SOL    HW132558   2.670   5.076   6.961
10553SOL    HW232559   2.813   5.023   7.020
10554SOL     OW32560   6.610   4.405   6.215
10554SOL    HW132561   6.586   4.410   6.118
10554SOL    HW232562   6.528   4.389   6.269
10555SOL     OW32563   3.146   1.965   1.324
10555SOL    HW132564   3.206   1.992   1.400
10555SOL    HW232565   3.110   1.873   1.342
10556SOL     OW32566   2.165   3.217   4.756
10556SOL    HW132567   2.104   3.232   4.833
10556SOL    HW232568   2.229   3.143   4.778
10557SOL     OW32569   6.565   2.738   3.738
10557SOL    HW132570   6.633   2.744   3.665
10557SOL    HW232571   6.600   2.781   3.821
10558SOL     OW32572   4.940   6.302   5.138
10558SOL    HW132573   4.947   6.311   5.038
10558SOL    HW232574   4.914   6.209   5.161
10559SOL     OW32575   4.123   2.248   0.453
10559SOL    HW132576   4.126   2.319   0.523
10559SOL    HW232577   4.215   2.214   0.436
10560SOL     OW32578   0.781   3.044   4.430
10560SOL    HW132579   0.727   3.021   4.348
10560SOL    HW232580   0.758   3.137   4.459
10561SOL     OW32581   2.373   4.054   0.008
10561SOL    HW132582   2.451   4.088   6.982
10561SOL    HW232583   2.396   4.054   0.105
10562SOL     OW32584   3.436   0.895   0.775
10562SOL    HW132585   3.422   0.917   0.872
10562SOL    HW232586   3.408   0.801   0.757
10563SOL     OW32587   1.922   1.746   4.767
10563SOL    HW132588   1.928   1.840   4.800
10563SOL    HW232589   1.940   1.683   4.843
10564SOL     OW32590   6.191   1.773   1.899
10564SOL    HW132591   6.205   1.828   1.817
10564SOL    HW232592   6.253   1.804   1.971
10565SOL     OW32593   5.448   1.935   4.673
10565SOL    HW132594   5.477   1.975   4.759
10565SOL    HW232595   5.349   1.917   4.676
10566SOL     OW32596   4.047   4.425   6.068
10566SOL    HW132597   4.039   4.506   6.010
10566SOL    HW232598   4.077   4.347   6.013
10567SOL     OW32599   1.860   4.554   4.389
10567SOL    HW132600   1.866   4.643   4.343
10567SOL    HW232601   1.870   4.481   4.322
10568SOL     OW32602   4.570   1.313   3.266
10568SOL    HW132603   4.592   1.373   3.343
10568SOL    HW232604   4.484   1.265   3.285
10569SOL     OW32605   5.848   3.267   4.014
10569SOL    HW132606   5.829   3.313   4.102
10569SOL    HW232607   5.909   3.189   4.030
10570SOL     OW32608   1.650   4.601   2.234
10570SOL    HW132609   1.736   4.588   2.185
10570SOL    HW232610   1.583   4.532   2.204
10571SOL     OW32611   6.110   6.623   3.911
10571SOL    HW132612   6.030   6.662   3.957
10571SOL    HW232613   6.094   6.526   3.893
10572SOL     OW32614   6.319   3.623   2.364
10572SOL    HW132615   6.240   3.564   2.345
10572SOL    HW232616   6.365   3.590   2.446
10573SOL     OW32617   6.021   5.095   5.490
10573SOL    HW132618   6.053   5.143   5.572
10573SOL    HW232619   5.922   5.090   5.491
10574SOL     OW32620   0.512   1.456   2.893
10574SOL    HW132621   0.556   1.405   2.819
10574SOL    HW232622   0.583   1.496   2.952
10575SOL     OW32623   1.178   0.126   5.177
10575SOL    HW132624   1.102   0.062   5.189
10575SOL    HW232625   1.260   0.076   5.149
10576SOL     OW32626   1.591   4.976   3.548
10576SOL    HW132627   1.622   4.881   3.546
10576SOL    HW232628   1.638   5.025   3.621
10577SOL     OW32629   1.520   2.026   5.588
10577SOL    HW132630   1.509   2.122   5.612
10577SOL    HW232631   1.603   2.015   5.533
10578SOL     OW32632   6.538   0.819   5.829
10578SOL    HW132633   6.599   0.839   5.752
10578SOL    HW232634   6.567   0.871   5.909
10579SOL     OW32635   4.337   1.875   0.350
10579SOL    HW132636   4.256   1.817   0.347
10579SOL    HW232637   4.384   1.872   0.261
10580SOL     OW32638   6.079   6.177   6.868
10580SOL    HW132639   6.116   6.267   6.890
10580SOL    HW232640   6.153   6.117   6.838
10581SOL     OW32641   5.235   1.151   3.468
10581SOL    HW132642   5.327   1.127   3.437
10581SOL    HW232643   5.180   1.068   3.478
10582SOL     OW32644   3.772   4.720   6.779
10582SOL    HW132645   3.769   4.786   6.853
10582SOL    HW232646   3.850   4.739   6.720
10583SOL     OW32647   4.444   1.695   0.527
10583SOL    HW132648   4.438   1.609   0.475
10583SOL    HW232649   4.399   1.768   0.475
10584SOL     OW32650   5.850   0.158   1.809
10584SOL    HW132651   5.894   0.128   1.725
10584SOL    HW232652   5.884   0.248   1.834
10585SOL     OW32653   1.394   3.315   6.491
10585SOL    HW132654   1.432   3.405   6.511
10585SOL    HW232655   1.332   3.287   6.564
10586SOL     OW32656   3.519   0.459   6.705
10586SOL    HW132657   3.558   0.551   6.704
10586SOL    HW232658   3.508   0.426   6.612
10587SOL     OW32659   6.027   4.106   1.028
10587SOL    HW132660   5.961   4.181   1.022
10587SOL    HW232661   6.046   4.071   0.937
10588SOL     OW32662   6.918   5.455   2.769
10588SOL    HW132663   7.011   5.471   2.735
10588SOL    HW232664   6.921   5.431   2.866
10589SOL     OW32665   6.048   1.982   4.055
10589SOL    HW132666   5.988   2.062   4.060
10589SOL    HW232667   6.002   1.903   4.096
10590SOL     OW32668   1.147   0.789   4.030
10590SOL    HW132669   1.194   0.745   4.107
10590SOL    HW232670   1.183   0.752   3.944
10591SOL     OW32671   1.179   3.026   0.751
10591SOL    HW132672   1.087   2.990   0.763
10591SOL    HW232673   1.186   3.116   0.795
10592SOL     OW32674   6.645   1.638   0.077
10592SOL    HW132675   6.701   1.614   0.157
10592SOL    HW232676   6.703   1.679   0.007
10593SOL     OW32677   1.889   4.877   1.088
10593SOL    HW132678   1.824   4.933   1.036
10593SOL    HW232679   1.840   4.831   1.162
10594SOL     OW32680   0.452   1.707   4.346
10594SOL    HW132681   0.464   1.740   4.252
10594SOL    HW232682   0.475   1.780   4.410
10595SOL     OW32683   3.512   6.092   6.132
10595SOL    HW132684   3.576   6.143   6.074
10595SOL    HW232685   3.548   6.000   6.148
10596SOL     OW32686   3.644   0.877   1.719
10596SOL    HW132687   3.590   0.812   1.771
10596SOL    HW232688   3.716   0.915   1.777
10597SOL     OW32689   1.792   0.320   4.702
10597SOL    HW132690   1.726   0.249   4.678
10597SOL    HW232691   1.747   0.390   4.758
10598SOL     OW32692   1.441   2.334   6.863
10598SOL    HW132693   1.398   2.246   6.842
10598SOL    HW232694   1.454   2.342   6.962
10599SOL     OW32695   5.391   1.170   6.950
10599SOL    HW132696   5.333   1.149   0.001
10599SOL    HW232697   5.416   1.267   6.953
10600SOL     OW32698   2.064   3.130   6.354
10600SOL    HW132699   2.044   3.053   6.415
10600SOL    HW232700   2.060   3.099   6.259
10601SOL     OW32701   3.264   6.659   6.116
10601SOL    HW132702   3.351   6.687   6.158
10601SOL    HW232703   3.265   6.561   6.098
10602SOL     OW32704   4.636   1.014   1.984
10602SOL    HW132705   4.691   0.955   2.044
10602SOL    HW232706   4.541   1.011   2.012
10603SOL     OW32707   1.523   5.290   4.842
10603SOL    HW132708   1.567   5.286   4.753
10603SOL    HW232709   1.485   5.200   4.865
10604SOL     OW32710   6.710   4.293   5.342
10604SOL    HW132711   6.687   4.374   5.289
10604SOL    HW232712   6.784   4.244   5.297
10605SOL     OW32713   1.634   5.089   6.857
10605SOL    HW132714   1.559   5.023   6.854
10605SOL    HW232715   1.681   5.082   6.945
10606SOL     OW32716   0.732   0.495   2.443
10606SOL    HW132717   0.799   0.526   2.511
10606SOL    HW232718   0.675   0.423   2.483
10607SOL     OW32719   5.383   4.984   6.844
10607SOL    HW132720   5.313   4.914   6.827
10607SOL    HW232721   5.372   5.019   6.938
10608SOL     OW32722   6.231   1.878   3.415
10608SOL    HW132723   6.251   1.908   3.508
10608SOL    HW232724   6.208   1.957   3.358
10609SOL     OW32725   3.787   6.311   1.421
10609SOL    HW132726   3.702   6.331   1.371
10609SOL    HW232727   3.846   6.392   1.419
10610SOL     OW32728   1.622   2.781   5.721
10610SOL    HW132729   1.716   2.770   5.754
10610SOL    HW232730   1.619   2.854   5.653
10611SOL     OW32731   5.538   3.001   5.949
10611SOL    HW132732   5.609   3.004   6.019
10611SOL    HW232733   5.480   2.920   5.963
10612SOL     OW32734   2.130   0.019   0.585
10612SOL    HW132735   2.215   6.994   0.592
10612SOL    HW232736   2.052   6.985   0.601
10613SOL     OW32737   0.455   6.503   5.806
10613SOL    HW132738   0.422   6.589   5.767
10613SOL    HW232739   0.377   6.450   5.840
10614SOL     OW32740   6.840   0.864   4.347
10614SOL    HW132741   6.881   0.953   4.367
10614SOL    HW232742   6.827   0.814   4.433
10615SOL     OW32743   5.848   5.391   5.311
10615SOL    HW132744   5.814   5.341   5.231
10615SOL    HW232745   5.783   5.383   5.386
10616SOL     OW32746   2.876   5.501   0.408
10616SOL    HW132747   2.792   5.456   0.437
10616SOL    HW232748   2.915   5.452   0.330
10617SOL     OW32749   1.247   2.112   6.893
10617SOL    HW132750   1.230   2.029   6.946
10617SOL    HW232751   1.177   2.180   6.913
10618SOL     OW32752   6.329   3.703   0.857
10618SOL    HW132753   6.352   3.754   0.940
10618SOL    HW232754   6.397   3.724   0.786
10619SOL     OW32755   1.252   4.023   3.977
10619SOL    HW132756   1.181   4.025   3.907
10619SOL    HW232757   1.249   4.108   4.030
10620SOL     OW32758   1.612   5.839   4.593
10620SOL    HW132759   1.660   5.753   4.581
10620SOL    HW232760   1.630   5.874   4.685
10621SOL     OW32761   2.876   5.998   1.063
10621SOL    HW132762   2.798   6.057   1.086
10621SOL    HW232763   2.916   5.963   1.148
10622SOL     OW32764   4.210   0.858   1.257
10622SOL    HW132765   4.150   0.798   1.312
10622SOL    HW232766   4.153   0.921   1.203
10623SOL     OW32767   6.424   1.616   3.936
10623SOL    HW132768   6.466   1.673   4.007
10623SOL    HW232769   6.347   1.665   3.896
10624SOL     OW32770   1.926   0.413   4.032
10624SOL    HW132771   1.878   0.333   4.066
10624SOL    HW232772   1.954   0.397   3.937
10625SOL     OW32773   0.166   3.270   6.918
10625SOL    HW132774   0.223   3.337   6.872
10625SOL    HW232775   0.070   3.300   6.915
10626SOL     OW32776   0.455   2.674   1.399
10626SOL    HW132777   0.435   2.683   1.301
10626SOL    HW232778   0.428   2.758   1.446
10627SOL     OW32779   6.014   5.914   3.622
10627SOL    HW132780   5.918   5.942   3.635
10627SOL    HW232781   6.066   5.934   3.704
10628SOL     OW32782   6.223   5.620   6.005
10628SOL    HW132783   6.280   5.538   5.997
10628SOL    HW232784   6.276   5.700   5.977
10629SOL     OW32785   2.654   5.468   5.915
10629SOL    HW132786   2.595   5.532   5.864
10629SOL    HW232787   2.722   5.520   5.966
10630SOL     OW32788   0.336   1.318   3.347
10630SOL    HW132789   0.376   1.407   3.324
10630SOL    HW232790   0.284   1.283   3.270
10631SOL     OW32791   1.068   6.609   4.036
10631SOL    HW132792   1.054   6.697   3.990
10631SOL    HW232793   0.983   6.580   4.078
10632SOL     OW32794   0.561   2.385   5.377
10632SOL    HW132795   0.623   2.459   5.351
10632SOL    HW232796   0.500   2.364   5.300
10633SOL     OW32797   1.057   4.949   1.478
10633SOL    HW132798   1.105   4.961   1.391
10633SOL    HW232799   0.989   5.022   1.488
10634SOL     OW32800   3.049   6.523   1.685
10634SOL    HW132801   3.097   6.509   1.772
10634SOL    HW232802   2.961   6.568   1.703
10635SOL     OW32803   2.671   1.362   0.962
10635SOL    HW132804   2.691   1.447   1.011
10635SOL    HW232805   2.744   1.296   0.979
10636SOL     OW32806   0.590   2.245   1.655
10636SOL    HW132807   0.581   2.344   1.645
10636SOL    HW232808   0.676   2.224   1.702
10637SOL     OW32809   3.746   4.642   5.381
10637SOL    HW132810   3.651   4.647   5.352
10637SOL    HW232811   3.781   4.550   5.364
10638SOL     OW32812   6.921   0.026   5.389
10638SOL    HW132813   6.982   0.091   5.434
10638SOL    HW232814   6.828   0.063   5.386
10639SOL     OW32815   2.497   0.696   4.364
10639SOL    HW132816   2.534   0.712   4.273
10639SOL    HW232817   2.406   0.654   4.357
10640SOL     OW32818   4.142   6.904   0.298
10640SOL    HW132819   4.061   6.897   0.241
10640SOL    HW232820   4.151   6.997   0.332
10641SOL     OW32821   5.022   1.099   6.744
10641SOL    HW132822   4.983   1.027   6.686
10641SOL    HW232823   5.121   1.091   6.745
10642SOL     OW32824   0.039   2.768   1.295
10642SOL    HW132825   0.096   2.707   1.240
10642SOL    HW232826   6.998   2.813   1.237
10643SOL     OW32827   3.312   3.600   5.873
10643SOL    HW132828   3.300   3.613   5.775
10643SOL    HW232829   3.230   3.556   5.911
10644SOL     OW32830   3.867   1.176   4.867
10644SOL    HW132831   3.834   1.264   4.833
10644SOL    HW232832   3.848   1.169   4.965
10645SOL     OW32833   2.878   0.885   5.032
10645SOL    HW132834   2.897   0.983   5.032
10645SOL    HW232835   2.799   0.867   5.091
10646SOL     OW32836   0.562   3.793   6.809
10646SOL    HW132837   0.570   3.695   6.791
10646SOL    HW232838   0.467   3.821   6.800
10647SOL     OW32839   0.389   5.411   0.929
10647SOL    HW132840   0.394   5.334   0.865
10647SOL    HW232841   0.318   5.393   0.997
10648SOL     OW32842   4.478   3.332   6.703
10648SOL    HW132843   4.503   3.398   6.632
10648SOL    HW232844   4.557   3.273   6.722
10649SOL     OW32845   0.333   4.706   6.019
10649SOL    HW132846   0.385   4.791   6.012
10649SOL    HW232847   0.348   4.665   6.109
10650SOL     OW32848   3.369   6.800   3.490
10650SOL    HW132849   3.446   6.795   3.427
10650SOL    HW232850   3.400   6.775   3.582
10651SOL     OW32851   3.901   6.841   6.080
10651SOL    HW132852   3.821   6.810   6.029
10651SOL    HW232853   3.917   6.779   6.157
10652SOL     OW32854   3.410   0.781   6.808
10652SOL    HW132855   3.330   0.774   6.747
10652SOL    HW232856   3.385   0.748   6.899
10653SOL     OW32857   5.173   3.542   4.035
10653SOL    HW132858   5.103   3.509   3.972
10653SOL    HW232859   5.225   3.616   3.993
10654SOL     OW32860   4.541   0.629   0.871
10654SOL    HW132861   4.579   0.713   0.911
10654SOL    HW232862   4.441   0.629   0.882
10655SOL     OW32863   2.873   5.755   1.665
10655SOL    HW132864   2.882   5.843   1.711
10655SOL    HW232865   2.963   5.725   1.633
10656SOL     OW32866   6.746   3.159   6.443
10656SOL    HW132867   6.672   3.181   6.506
10656SOL    HW232868   6.759   3.059   6.439
10657SOL     OW32869   6.060   0.708   1.130
10657SOL    HW132870   6.103   0.766   1.060
10657SOL    HW232871   5.961   0.715   1.122
10658SOL     OW32872   0.619   5.337   5.085
10658SOL    HW132873   0.609   5.412   5.151
10658SOL    HW232874   0.537   5.280   5.087
10659SOL     OW32875   5.317   0.487   0.516
10659SOL    HW132876   5.299   0.512   0.611
10659SOL    HW232877   5.414   0.502   0.496
10660SOL     OW32878   4.999   4.976   5.567
10660SOL    HW132879   4.968   5.023   5.485
10660SOL    HW232880   4.969   5.027   5.648
10661SOL     OW32881   0.317   0.475   2.727
10661SOL    HW132882   0.386   0.418   2.682
10661SOL    HW232883   0.358   0.561   2.757
10662SOL     OW32884   6.037   1.434   0.677
10662SOL    HW132885   6.016   1.525   0.642
10662SOL    HW232886   6.071   1.376   0.603
10663SOL     OW32887   6.763   0.568   0.504
10663SOL    HW132888   6.798   0.486   0.460
10663SOL    HW232889   6.692   0.610   0.448
10664SOL     OW32890   1.879   4.631   6.771
10664SOL    HW132891   1.858   4.713   6.718
10664SOL    HW232892   1.919   4.562   6.711
10665SOL     OW32893   6.347   0.972   0.289
10665SOL    HW132894   6.309   0.899   0.346
10665SOL    HW232895   6.307   1.060   0.317
10666SOL     OW32896   1.402   6.754   0.419
10666SOL    HW132897   1.429   6.772   0.325
10666SOL    HW232898   1.307   6.779   0.432
10667SOL     OW32899   3.435   1.822   5.105
10667SOL    HW132900   3.346   1.865   5.087
10667SOL    HW232901   3.456   1.828   5.202
10668SOL     OW32902   2.432   1.019   5.834
10668SOL    HW132903   2.365   1.085   5.800
10668SOL    HW232904   2.454   1.039   5.930
10669SOL     OW32905   0.811   6.336   6.263
10669SOL    HW132906   0.813   6.433   6.286
10669SOL    HW232907   0.730   6.294   6.304
10670SOL     OW32908   6.982   4.455   5.733
10670SOL    HW132909   0.001   4.406   5.659
10670SOL    HW232910   0.023   4.485   5.800
10671SOL     OW32911   1.674   1.673   3.113
10671SOL    HW132912   1.718   1.724   3.039
10671SOL    HW232913   1.735   1.600   3.143
10672SOL     OW32914   6.870   2.944   0.575
10672SOL    HW132915   6.941   2.998   0.529
10672SOL    HW232916   6.900   2.849   0.583
10673SOL     OW32917   3.204   3.482   5.107
10673SOL    HW132918   3.152   3.547   5.052
10673SOL    HW232919   3.270   3.434   5.049
10674SOL     OW32920   3.857   2.078   2.599
10674SOL    HW132921   3.763   2.044   2.600
10674SOL    HW232922   3.867   2.150   2.531
10675SOL     OW32923   0.548   0.645   6.017
10675SOL    HW132924   0.629   0.665   5.963
10675SOL    HW232925   0.474   0.615   5.956
10676SOL     OW32926   6.916   0.545   6.740
10676SOL    HW132927   6.927   0.499   6.828
10676SOL    HW232928   6.959   0.491   6.668
10677SOL     OW32929   0.042   0.645   0.507
10677SOL    HW132930   0.002   0.729   0.472
10677SOL    HW232931   6.996   0.583   0.536
10678SOL     OW32932   2.627   6.518   3.594
10678SOL    HW132933   2.537   6.540   3.631
10678SOL    HW232934   2.676   6.603   3.572
10679SOL     OW32935   6.106   5.005   4.046
10679SOL    HW132936   6.101   4.906   4.037
10679SOL    HW232937   6.132   5.045   3.958
10680SOL     OW32938   1.616   2.481   3.279
10680SOL    HW132939   1.677   2.420   3.228
10680SOL    HW232940   1.522   2.450   3.269
10681SOL     OW32941   0.590   1.398   5.513
10681SOL    HW132942   0.609   1.496   5.505
10681SOL    HW232943   0.664   1.354   5.565
10682SOL     OW32944   6.610   1.653   3.152
10682SOL    HW132945   6.582   1.686   3.242
10682SOL    HW232946   6.540   1.676   3.085
10683SOL     OW32947   1.733   1.585   4.620
10683SOL    HW132948   1.781   1.657   4.671
10683SOL    HW232949   1.795   1.545   4.553
10684SOL     OW32950   5.942   6.031   0.146
10684SOL    HW132951   5.877   6.047   0.073
10684SOL    HW232952   6.035   6.031   0.109
10685SOL     OW32953   0.113   2.384   1.898
10685SOL    HW132954   0.055   2.373   1.817
10685SOL    HW232955   0.174   2.462   1.885
10686SOL     OW32956   3.786   4.641   0.925
10686SOL    HW132957   3.722   4.568   0.949
10686SOL    HW232958   3.857   4.605   0.865
10687SOL     OW32959   0.310   5.018   1.894
10687SOL    HW132960   0.295   4.936   1.838
10687SOL    HW232961   0.224   5.045   1.937
10688SOL     OW32962   7.016   5.909   2.200
10688SOL    HW132963   0.066   5.855   2.234
10688SOL    HW232964   0.001   5.927   2.102
10689SOL     OW32965   0.399   0.550   1.851
10689SOL    HW132966   0.437   0.458   1.845
10689SOL    HW232967   0.304   0.549   1.819
10690SOL     OW32968   4.311   5.820   1.970
10690SOL    HW132969   4.407   5.844   1.982
10690SOL    HW232970   4.265   5.821   2.059
10691SOL     OW32971   6.427   1.106   1.404
10691SOL    HW132972   6.395   1.093   1.311
10691SOL    HW232973   6.354   1.083   1.468
10692SOL     OW32974   4.931   6.126   4.145
10692SOL    HW132975   4.904   6.030   4.147
10692SOL    HW232976   4.895   6.173   4.226
10693SOL     OW32977   5.868   2.195   2.303
10693SOL    HW132978   5.781   2.198   2.254
10693SOL    HW232979   5.936   2.148   2.246
10694SOL     OW32980   3.957   6.086   0.728
10694SOL    HW132981   3.917   5.996   0.745
10694SOL    HW232982   4.050   6.076   0.692
10695SOL     OW32983   5.934   3.032   4.289
10695SOL    HW132984   6.009   3.097   4.300
10695SOL    HW232985   5.916   2.986   4.376
10696SOL     OW32986   5.911   0.091   1.249
10696SOL    HW132987   5.864   0.017   1.202
10696SOL    HW232988   6.006   0.095   1.219
10697SOL     OW32989   2.174   6.256   3.544
10697SOL    HW132990   2.269   6.278   3.526
10697SOL    HW232991   2.154   6.163   3.513
10698SOL     OW32992   2.635   0.630   3.090
10698SOL    HW132993   2.624   0.531   3.082
10698SOL    HW232994   2.699   0.663   3.021
10699SOL     OW32995   1.591   2.387   2.524
10699SOL    HW132996   1.505   2.363   2.568
10699SOL    HW232997   1.590   2.484   2.499
10700SOL     OW32998   6.209   0.807   1.724
10700SOL    HW132999   6.217   0.720   1.675
10700SOL    HW233000   6.242   0.795   1.817
10701SOL     OW33001   3.476   6.349   0.807
10701SOL    HW133002   3.465   6.269   0.867
10701SOL    HW233003   3.443   6.326   0.715
10702SOL     OW33004   5.979   3.217   1.465
10702SOL    HW133005   6.050   3.170   1.413
10702SOL    HW233006   6.021   3.282   1.528
10703SOL     OW33007   4.150   3.403   3.875
10703SOL    HW133008   4.184   3.475   3.815
10703SOL    HW233009   4.052   3.393   3.864
10704SOL     OW33010   5.532   6.613   2.026
10704SOL    HW133011   5.618   6.646   2.065
10704SOL    HW233012   5.525   6.514   2.041
10705SOL     OW33013   1.097   2.681   6.635
10705SOL    HW133014   1.163   2.737   6.585
10705SOL    HW233015   1.013   2.672   6.581
10706SOL     OW33016   3.532   1.330   1.751
10706SOL    HW133017   3.624   1.340   1.714
10706SOL    HW233018   3.520   1.392   1.829
10707SOL     OW33019   6.312   6.879   6.075
10707SOL    HW133020   6.344   6.955   6.132
10707SOL    HW233021   6.231   6.838   6.117
10708SOL     OW33022   4.569   1.148   1.324
10708SOL    HW133023   4.482   1.179   1.286
10708SOL    HW233024   4.560   1.139   1.423
10709SOL     OW33025   0.762   6.474   5.758
10709SOL    HW133026   0.664   6.465   5.776
10709SOL    HW233027   0.809   6.503   5.841
10710SOL     OW33028   6.246   5.975   3.090
10710SOL    HW133029   6.278   6.068   3.111
10710SOL    HW233030   6.252   5.959   2.991
10711SOL     OW33031   2.212   5.813   5.429
10711SOL    HW133032   2.235   5.724   5.466
10711SOL    HW233033   2.295   5.861   5.401
10712SOL     OW33034   4.621   1.401   5.291
10712SOL    HW133035   4.536   1.436   5.330
10712SOL    HW233036   4.634   1.440   5.199
10713SOL     OW33037   1.715   6.356   1.233
10713SOL    HW133038   1.664   6.339   1.318
10713SOL    HW233039   1.672   6.431   1.183
10714SOL     OW33040   6.980   5.494   5.716
10714SOL    HW133041   6.963   5.396   5.730
10714SOL    HW233042   6.898   5.538   5.681
10715SOL     OW33043   5.644   1.524   3.781
10715SOL    HW133044   5.701   1.591   3.734
10715SOL    HW233045   5.697   1.480   3.853
10716SOL     OW33046   6.502   0.784   3.286
10716SOL    HW133047   6.467   0.771   3.378
10716SOL    HW233048   6.581   0.845   3.288
10717SOL     OW33049   6.590   6.863   1.960
10717SOL    HW133050   6.568   6.959   1.940
10717SOL    HW233051   6.519   6.824   2.018
10718SOL     OW33052   0.642   3.712   5.910
10718SOL    HW133053   0.630   3.701   5.812
10718SOL    HW233054   0.556   3.692   5.957
10719SOL     OW33055   3.673   0.645   2.067
10719SOL    HW133056   3.618   0.655   1.984
10719SOL    HW233057   3.763   0.609   2.043
10720SOL     OW33058   0.434   3.099   6.876
10720SOL    HW133059   0.378   3.173   6.837
10720SOL    HW233060   0.477   3.131   6.960
10721SOL     OW33061   4.578   2.679   3.789
10721SOL    HW133062   4.597   2.714   3.697
10721SOL    HW233063   4.636   2.725   3.856
10722SOL     OW33064   0.341   4.183   0.929
10722SOL    HW133065   0.367   4.280   0.924
10722SOL    HW233066   0.299   4.164   1.018
10723SOL     OW33067   6.038   4.639   6.884
10723SOL    HW133068   5.953   4.586   6.891
10723SOL    HW233069   6.016   4.734   6.863
10724SOL     OW33070   4.142   6.930   5.638
10724SOL    HW133071   4.085   7.011   5.624
10724SOL    HW233072   4.136   6.902   5.734
10725SOL     OW33073   6.467   6.944   5.205
10725SOL    HW133074   6.424   6.863   5.165
10725SOL    HW233075   6.566   6.935   5.200
10726SOL     OW33076   5.508   1.153   4.974
10726SOL    HW133077   5.562   1.174   4.893
10726SOL    HW233078   5.568   1.124   5.048
10727SOL     OW33079   2.229   6.110   6.844
10727SOL    HW133080   2.237   6.080   6.749
10727SOL    HW233081   2.219   6.209   6.847
10728SOL     OW33082   6.111   6.158   3.288
10728SOL    HW133083   6.160   6.184   3.204
10728SOL    HW233084   6.059   6.074   3.271
10729SOL     OW33085   5.687   3.018   4.179
10729SOL    HW133086   5.605   3.013   4.237
10729SOL    HW233087   5.766   3.042   4.235
10730SOL     OW33088   1.744   5.638   3.731
10730SOL    HW133089   1.793   5.568   3.679
10730SOL    HW233090   1.785   5.646   3.822
10731SOL     OW33091   4.636   6.419   6.947
10731SOL    HW133092   4.714   6.431   7.008
10731SOL    HW233093   4.637   6.325   6.911
10732SOL     OW33094   6.016   6.343   3.042
10732SOL    HW133095   6.081   6.275   3.006
10732SOL    HW233096   5.930   6.298   3.064
10733SOL     OW33097   0.435   0.943   6.324
10733SOL    HW133098   0.436   0.863   6.265
10733SOL    HW233099   0.429   0.914   6.420
10734SOL     OW33100   1.669   0.493   4.527
10734SOL    HW133101   1.643   0.588   4.545
10734SOL    HW233102   1.719   0.457   4.605
10735SOL     OW33103   6.743   6.788   2.265
10735SOL    HW133104   6.766   6.825   2.175
10735SOL    HW233105   6.732   6.688   2.259
10736SOL     OW33106   5.173   6.885   3.731
10736SOL    HW133107   5.271   6.867   3.745
10736SOL    HW233108   5.147   6.968   3.780
10737SOL     OW33109   6.094   0.971   2.004
10737SOL    HW133110   6.043   0.931   1.927
10737SOL    HW233111   6.031   0.991   2.079
10738SOL     OW33112   3.639   0.449   0.968
10738SOL    HW133113   3.723   0.395   0.966
10738SOL    HW233114   3.563   0.393   0.935
10739SOL     OW33115   5.759   2.986   3.853
10739SOL    HW133116   5.845   2.938   3.832
10739SOL    HW233117   5.743   2.985   3.952
10740SOL     OW33118   3.000   0.886   6.335
10740SOL    HW133119   2.950   0.954   6.281
10740SOL    HW233120   2.952   0.798   6.331
10741SOL     OW33121   1.501   2.175   3.761
10741SOL    HW133122   1.408   2.210   3.751
10741SOL    HW233123   1.566   2.251   3.762
10742SOL     OW33124   6.371   6.423   2.857
10742SOL    HW133125   6.297   6.464   2.911
10742SOL    HW233126   6.368   6.459   2.764
10743SOL     OW33127   3.283   1.707   5.356
10743SOL    HW133128   3.230   1.623   5.347
10743SOL    HW233129   3.239   1.779   5.303
10744SOL     OW33130   2.282   1.193   0.596
10744SOL    HW133131   2.183   1.178   0.587
10744SOL    HW233132   2.301   1.291   0.600
10745SOL     OW33133   1.861   4.586   2.052
10745SOL    HW133134   1.879   4.510   2.113
10745SOL    HW233135   1.945   4.640   2.040
10746SOL     OW33136   2.258   6.016   6.570
10746SOL    HW133137   2.185   6.055   6.514
10746SOL    HW233138   2.266   5.918   6.552
10747SOL     OW33139   6.688   1.114   4.542
10747SOL    HW133140   6.592   1.139   4.551
10747SOL    HW233141   6.699   1.017   4.562
10748SOL     OW33142   3.060   6.715   1.499
10748SOL    HW133143   3.043   6.634   1.555
10748SOL    HW233144   3.045   6.797   1.555
10749SOL     OW33145   5.726   4.524   1.590
10749SOL    HW133146   5.674   4.608   1.602
10749SOL    HW233147   5.669   4.445   1.613
10750SOL     OW33148   4.187   2.180   4.201
10750SOL    HW133149   4.279   2.202   4.167
10750SOL    HW233150   4.119   2.217   4.138
10751SOL     OW33151   0.394   6.071   4.298
10751SOL    HW133152   0.481   6.105   4.263
10751SOL    HW233153   0.350   6.142   4.354
10752SOL     OW33154   6.374   6.474   0.285
10752SOL    HW133155   6.457   6.465   0.340
10752SOL    HW233156   6.309   6.534   0.331
10753SOL     OW33157   5.126   0.411   3.913
10753SOL    HW133158   5.083   0.421   4.003
10753SOL    HW233159   5.090   0.480   3.851
10754SOL     OW33160   1.053   4.222   2.199
10754SOL    HW133161   1.010   4.140   2.162
10754SOL    HW233162   1.046   4.221   2.299
10755SOL     OW33163   0.447   2.907   0.950
10755SOL    HW133164   0.352   2.935   0.962
10755SOL    HW233165   0.483   2.947   0.866
10756SOL     OW33166   1.325   0.734   0.530
10756SOL    HW133167   1.247   0.791   0.553
10756SOL    HW233168   1.309   0.641   0.563
10757SOL     OW33169   0.523   3.547   1.930
10757SOL    HW133170   0.440   3.603   1.920
10757SOL    HW233171   0.578   3.554   1.847
10758SOL     OW33172   0.750   0.431   0.382
10758SOL    HW133173   0.697   0.350   0.408
10758SOL    HW233174   0.728   0.456   0.288
10759SOL     OW33175   2.904   2.739   5.622
10759SOL    HW133176   2.866   2.793   5.697
10759SOL    HW233177   2.981   2.789   5.582
10760SOL     OW33178   1.204   4.772   6.571
10760SOL    HW133179   1.266   4.729   6.505
10760SOL    HW233180   1.256   4.797   6.653
10761SOL     OW33181   1.186   1.699   5.510
10761SOL    HW133182   1.225   1.608   5.497
10761SOL    HW233183   1.241   1.766   5.460
10762SOL     OW33184   3.023   5.750   6.115
10762SOL    HW133185   2.954   5.819   6.136
10762SOL    HW233186   3.114   5.789   6.125
10763SOL     OW33187   4.986   0.563   3.419
10763SOL    HW133188   4.905   0.589   3.471
10763SOL    HW233189   4.961   0.546   3.324
10764SOL     OW33190   4.944   6.788   4.554
10764SOL    HW133191   4.951   6.878   4.597
10764SOL    HW233192   5.032   6.763   4.514
10765SOL     OW33193   0.524   1.606   1.679
10765SOL    HW133194   0.503   1.592   1.582
10765SOL    HW233195   0.618   1.639   1.688
10766SOL     OW33196   2.051   4.889   6.918
10766SOL    HW133197   2.055   4.984   6.946
10766SOL    HW233198   1.995   4.881   6.836
10767SOL     OW33199   1.218   5.079   6.686
10767SOL    HW133200   1.200   5.098   6.589
10767SOL    HW233201   1.138   5.034   6.726
10768SOL     OW33202   5.359   6.200   6.493
10768SOL    HW133203   5.398   6.216   6.402
10768SOL    HW233204   5.417   6.136   6.544
10769SOL     OW33205   3.085   3.127   4.473
10769SOL    HW133206   3.173   3.097   4.438
10769SOL    HW233207   3.021   3.141   4.398
10770SOL     OW33208   5.638   6.985   3.255
10770SOL    HW133209   5.699   6.952   3.327
10770SOL    HW233210   5.558   0.000   3.297
10771SOL     OW33211   4.491   6.206   5.794
10771SOL    HW133212   4.496   6.109   5.771
10771SOL    HW233213   4.534   6.260   5.722
10772SOL     OW33214   5.870   5.428   2.619
10772SOL    HW133215   5.789   5.438   2.560
10772SOL    HW233216   5.853   5.475   2.706
10773SOL     OW33217   0.161   3.511   1.260
10773SOL    HW133218   0.127   3.489   1.351
10773SOL    HW233219   0.103   3.467   1.191
10774SOL     OW33220   0.537   3.739   0.458
10774SOL    HW133221   0.625   3.742   0.506
10774SOL    HW233222   0.490   3.827   0.470
10775SOL     OW33223   1.481   4.131   0.649
10775SOL    HW133224   1.443   4.116   0.557
10775SOL    HW233225   1.450   4.220   0.683
10776SOL     OW33226   0.595   2.666   3.804
10776SOL    HW133227   0.621   2.611   3.883
10776SOL    HW233228   0.677   2.708   3.764
10777SOL     OW33229   2.016   0.940   1.753
10777SOL    HW133230   2.008   1.039   1.742
10777SOL    HW233231   2.020   0.897   1.663
10778SOL     OW33232   5.008   0.343   2.578
10778SOL    HW133233   5.076   0.382   2.640
10778SOL    HW233234   4.944   0.415   2.551
10779SOL     OW33235   5.508   3.231   5.554
10779SOL    HW133236   5.471   3.139   5.567
10779SOL    HW233237   5.534   3.243   5.458
10780SOL     OW33238   1.858   5.135   4.502
10780SOL    HW133239   1.920   5.213   4.514
10780SOL    HW233240   1.774   5.167   4.456
10781SOL     OW33241   5.460   2.287   4.519
10781SOL    HW133242   5.458   2.210   4.583
10781SOL    HW233243   5.385   2.350   4.540
10782SOL     OW33244   0.774   1.325   5.278
10782SOL    HW133245   0.779   1.240   5.330
10782SOL    HW233246   0.859   1.377   5.289
10783SOL     OW33247   0.809   2.397   3.624
10783SOL    HW133248   0.803   2.476   3.685
10783SOL    HW233249   0.752   2.322   3.660
10784SOL     OW33250   4.254   5.748   3.019
10784SOL    HW133251   4.286   5.672   3.075
10784SOL    HW233252   4.177   5.793   3.065
10785SOL     OW33253   1.204   5.215   1.903
10785SOL    HW133254   1.285   5.164   1.874
10785SOL    HW233255   1.130   5.152   1.927
10786SOL     OW33256   4.300   1.731   2.494
10786SOL    HW133257   4.268   1.799   2.560
10786SOL    HW233258   4.344   1.655   2.543
10787SOL     OW33259   4.179   1.386   3.376
10787SOL    HW133260   4.152   1.473   3.417
10787SOL    HW233261   4.150   1.383   3.280
10788SOL     OW33262   1.913   3.966   0.057
10788SOL    HW133263   1.972   4.008   0.125
10788SOL    HW233264   1.953   3.979   6.993
10789SOL     OW33265   6.724   1.172   2.029
10789SOL    HW133266   6.757   1.079   2.042
10789SOL    HW233267   6.720   1.219   2.117
10790SOL     OW33268   0.623   1.678   5.759
10790SOL    HW133269   0.635   1.775   5.778
10790SOL    HW233270   0.654   1.657   5.666
10791SOL     OW33271   1.464   2.374   3.044
10791SOL    HW133272   1.507   2.285   3.029
10791SOL    HW233273   1.415   2.373   3.132
10792SOL     OW33274   3.502   1.221   2.394
10792SOL    HW133275   3.462   1.312   2.406
10792SOL    HW233276   3.599   1.223   2.417
10793SOL     OW33277   3.950   1.853   4.550
10793SOL    HW133278   3.852   1.863   4.530
10793SOL    HW233279   4.003   1.903   4.481
10794SOL     OW33280   5.173   2.186   0.534
10794SOL    HW133281   5.204   2.200   0.628
10794SOL    HW233282   5.174   2.273   0.485
10795SOL     OW33283   6.704   3.280   3.571
10795SOL    HW133284   6.777   3.286   3.639
10795SOL    HW233285   6.640   3.208   3.598
10796SOL     OW33286   0.253   0.025   6.257
10796SOL    HW133287   0.284   6.984   6.323
10796SOL    HW233288   0.154   0.034   6.262
10797SOL     OW33289   4.437   4.575   6.971
10797SOL    HW133290   4.360   4.589   0.005
10797SOL    HW233291   4.406   4.530   6.887
10798SOL     OW33292   2.013   6.451   6.628
10798SOL    HW133293   1.917   6.471   6.610
10798SOL    HW233294   2.071   6.513   6.575
10799SOL     OW33295   2.575   1.393   2.625
10799SOL    HW133296   2.623   1.328   2.566
10799SOL    HW233297   2.482   1.407   2.590
10800SOL     OW33298   2.367   6.989   5.477
10800SOL    HW133299   2.421   0.044   5.494
10800SOL    HW233300   2.270   7.010   5.486
10801SOL     OW33301   3.267   6.054   6.322
10801SOL    HW133302   3.259   6.074   6.419
10801SOL    HW233303   3.358   6.081   6.290
10802SOL     OW33304   0.746   5.292   4.238
10802SOL    HW133305   0.667   5.349   4.220
10802SOL    HW233306   0.743   5.259   4.333
10803SOL     OW33307   0.085   4.244   4.840
10803SOL    HW133308   0.033   4.271   4.759
10803SOL    HW233309   0.183   4.256   4.822
10804SOL     OW33310   4.878   4.719   1.134
10804SOL    HW133311   4.845   4.740   1.041
10804SOL    HW233312   4.805   4.734   1.199
10805SOL     OW33313   3.908   5.968   0.306
10805SOL    HW133314   3.973   6.040   0.332
10805SOL    HW233315   3.895   5.905   0.383
10806SOL     OW33316   6.137   4.220   6.501
10806SOL    HW133317   6.095   4.147   6.555
10806SOL    HW233318   6.065   4.272   6.455
10807SOL     OW33319   4.540   1.013   4.290
10807SOL    HW133320   4.628   1.015   4.244
10807SOL    HW233321   4.542   1.074   4.369
10808SOL     OW33322   0.082   2.135   0.280
10808SOL    HW133323   0.101   2.123   0.182
10808SOL    HW233324   0.103   2.229   0.306
10809SOL     OW33325   3.114   1.435   2.836
10809SOL    HW133326   3.063   1.521   2.834
10809SOL    HW233327   3.151   1.417   2.745
10810SOL     OW33328   1.796   1.335   6.670
10810SOL    HW133329   1.887   1.299   6.691
10810SOL    HW233330   1.748   1.355   6.756
10811SOL     OW33331   4.599   4.417   5.995
10811SOL    HW133332   4.604   4.437   6.093
10811SOL    HW233333   4.513   4.369   5.975
10812SOL     OW33334   6.831   2.502   2.321
10812SOL    HW133335   6.740   2.461   2.312
10812SOL    HW233336   6.830   2.567   2.397
10813SOL     OW33337   3.492   5.076   2.673
10813SOL    HW133338   3.497   5.141   2.749
10813SOL    HW233339   3.446   5.119   2.595
10814SOL     OW33340   2.031   6.115   4.925
10814SOL    HW133341   1.946   6.140   4.971
10814SOL    HW233342   2.092   6.070   4.990
10815SOL     OW33343   4.726   2.100   3.219
10815SOL    HW133344   4.725   2.186   3.168
10815SOL    HW233345   4.635   2.059   3.218
10816SOL     OW33346   2.029   2.337   1.789
10816SOL    HW133347   2.075   2.297   1.867
10816SOL    HW233348   2.014   2.268   1.719
10817SOL     OW33349   4.221   0.329   2.083
10817SOL    HW133350   4.307   0.292   2.046
10817SOL    HW233351   4.172   0.256   2.132
10818SOL     OW33352   4.545   2.983   6.180
10818SOL    HW133353   4.567   3.078   6.155
10818SOL    HW233354   4.583   2.963   6.270
10819SOL     OW33355   0.554   4.108   5.447
10819SOL    HW133356   0.645   4.122   5.487
10819SOL    HW233357   0.503   4.194   5.451
10820SOL     OW33358   6.601   0.428   4.968
10820SOL    HW133359   6.524   0.468   4.918
10820SOL    HW233360   6.599   0.329   4.958
10821SOL     OW33361   0.008   6.936   1.069
10821SOL    HW133362   6.990   6.916   1.156
10821SOL    HW233363   6.995   7.018   1.029
10822SOL     OW33364   0.613   4.748   0.222
10822SOL    HW133365   0.541   4.757   0.290
10822SOL    HW233366   0.627   4.651   0.201
10823SOL     OW33367   1.373   1.979   1.278
10823SOL    HW133368   1.398   1.888   1.244
10823SOL    HW233369   1.456   2.027   1.307
10824SOL     OW33370   5.735   0.197   3.142
10824SOL    HW133371   5.721   0.098   3.140
10824SOL    HW233372   5.716   0.232   3.233
10825SOL     OW33373   4.145   1.378   1.441
10825SOL    HW133374   4.075   1.426   1.388
10825SOL    HW233375   4.175   1.436   1.517
10826SOL     OW33376   6.513   2.777   1.328
10826SOL    HW133377   6.505   2.788   1.427
10826SOL    HW233378   6.460   2.849   1.282
10827SOL     OW33379   1.413   2.536   3.663
10827SOL    HW133380   1.379   2.566   3.573
10827SOL    HW233381   1.490   2.593   3.690
10828SOL     OW33382   1.009   5.771   0.411
10828SOL    HW133383   0.947   5.740   0.339
10828SOL    HW233384   1.016   5.700   0.482
10829SOL     OW33385   2.313   3.730   1.661
10829SOL    HW133386   2.313   3.669   1.740
10829SOL    HW233387   2.400   3.778   1.657
10830SOL     OW33388   4.670   1.552   3.759
10830SOL    HW133389   4.701   1.469   3.805
10830SOL    HW233390   4.749   1.603   3.726
10831SOL     OW33391   5.160   2.854   2.621
10831SOL    HW133392   5.132   2.950   2.628
10831SOL    HW233393   5.087   2.796   2.657
10832SOL     OW33394   6.529   2.563   2.918
10832SOL    HW133395   6.432   2.540   2.913
10832SOL    HW233396   6.544   2.652   2.874
10833SOL     OW33397   2.730   7.024   4.403
10833SOL    HW133398   2.696   7.014   4.310
10833SOL    HW233399   2.806   0.062   4.405
10834SOL     OW33400   0.125   1.142   5.596
10834SOL    HW133401   0.184   1.087   5.536
10834SOL    HW233402   0.127   1.238   5.566
10835SOL     OW33403   6.902   2.534   1.973
10835SOL    HW133404   6.811   2.514   2.010
10835SOL    HW233405   6.897   2.535   1.873
10836SOL     OW33406   1.728   3.081   1.076
10836SOL    HW133407   1.639   3.123   1.062
10836SOL    HW233408   1.729   2.991   1.031
10837SOL     OW33409   1.458   5.814   1.353
10837SOL    HW133410   1.478   5.749   1.279
10837SOL    HW233411   1.359   5.832   1.355
10838SOL     OW33412   6.432   0.164   0.486
10838SOL    HW133413   6.472   0.148   0.576
10838SOL    HW233414   6.428   0.078   0.435
10839SOL     OW33415   1.859   1.585   6.992
10839SOL    HW133416   1.826   1.668   0.010
10839SOL    HW233417   1.951   1.563   7.026
10840SOL     OW33418   3.812   5.546   2.730
10840SOL    HW133419   3.741   5.616   2.722
10840SOL    HW233420   3.796   5.475   2.661
10841SOL     OW33421   4.909   3.258   6.184
10841SOL    HW133422   4.864   3.309   6.111
10841SOL    HW233423   4.967   3.320   6.237
10842SOL     OW33424   6.442   2.798   1.594
10842SOL    HW133425   6.502   2.772   1.669
10842SOL    HW233426   6.361   2.740   1.594
10843SOL     OW33427   0.459   1.078   2.123
10843SOL    HW133428   0.386   1.140   2.095
10843SOL    HW233429   0.432   0.984   2.103
10844SOL     OW33430   3.411   6.891   3.132
10844SOL    HW133431   3.392   6.808   3.185
10844SOL    HW233432   3.340   6.959   3.150
10845SOL     OW33433   1.944   3.043   0.774
10845SOL    HW133434   2.023   2.985   0.752
10845SOL    HW233435   1.860   2.991   0.761
10846SOL     OW33436   3.871   1.677   1.771
10846SOL    HW133437   3.788   1.733   1.771
10846SOL    HW233438   3.934   1.711   1.701
10847SOL     OW33439   4.258   2.849   5.866
10847SOL    HW133440   4.350   2.825   5.897
10847SOL    HW233441   4.193   2.841   5.942
10848SOL     OW33442   1.014   0.428   0.404
10848SOL    HW133443   0.915   0.434   0.401
10848SOL    HW233444   1.042   0.332   0.407
10849SOL     OW33445   2.198   5.135   4.089
10849SOL    HW133446   2.213   5.232   4.108
10849SOL    HW233447   2.113   5.123   4.037
10850SOL     OW33448   5.907   0.601   2.175
10850SOL    HW133449   5.865   0.664   2.241
10850SOL    HW233450   5.962   0.534   2.224
10851SOL     OW33451   4.467   1.899   6.209
10851SOL    HW133452   4.368   1.908   6.224
10851SOL    HW233453   4.484   1.872   6.114
10852SOL     OW33454   0.032   0.220   5.890
10852SOL    HW133455   7.008   0.138   5.864
10852SOL    HW233456   0.128   0.195   5.905
10853SOL     OW33457   2.231   0.398   4.745
10853SOL    HW133458   2.230   0.498   4.739
10853SOL    HW233459   2.188   0.359   4.663
10854SOL     OW33460   6.846   6.155   1.040
10854SOL    HW133461   6.747   6.148   1.053
10854SOL    HW233462   6.871   6.251   1.028
10855SOL     OW33463   1.578   5.455   1.555
10855SOL    HW133464   1.554   5.509   1.636
10855SOL    HW233465   1.664   5.487   1.517
10856SOL     OW33466   6.397   0.301   6.543
10856SOL    HW133467   6.427   0.341   6.630
10856SOL    HW233468   6.370   0.206   6.558
10857SOL     OW33469   6.267   0.306   5.235
10857SOL    HW133470   6.227   0.367   5.167
10857SOL    HW233471   6.279   0.215   5.195
10858SOL     OW33472   1.664   2.203   0.234
10858SOL    HW133473   1.630   2.178   0.143
10858SOL    HW233474   1.591   2.248   0.285
10859SOL     OW33475   1.354   5.729   2.816
10859SOL    HW133476   1.387   5.803   2.757
10859SOL    HW233477   1.315   5.656   2.760
10860SOL     OW33478   6.049   3.597   1.377
10860SOL    HW133479   5.951   3.613   1.373
10860SOL    HW233480   6.097   3.685   1.369
10861SOL     OW33481   2.975   3.318   1.167
10861SOL    HW133482   2.896   3.297   1.224
10861SOL    HW233483   3.011   3.408   1.192
10862SOL     OW33484   3.744   3.745   5.412
10862SOL    HW133485   3.725   3.834   5.370
10862SOL    HW233486   3.659   3.706   5.448
10863SOL     OW33487   1.869   0.493   3.344
10863SOL    HW133488   1.819   0.470   3.427
10863SOL    HW233489   1.810   0.482   3.264
10864SOL     OW33490   3.183   4.291   1.624
10864SOL    HW133491   3.181   4.258   1.530
10864SOL    HW233492   3.090   4.314   1.654
10865SOL     OW33493   3.718   1.388   2.729
10865SOL    HW133494   3.767   1.407   2.814
10865SOL    HW233495   3.740   1.458   2.661
10866SOL     OW33496   0.201   3.308   3.339
10866SOL    HW133497   0.214   3.369   3.261
10866SOL    HW233498   0.290   3.283   3.377
10867SOL     OW33499   4.651   2.851   7.006
10867SOL    HW133500   4.636   2.813   0.070
10867SOL    HW233501   4.745   2.834   6.978
10868SOL     OW33502   1.581   0.106   4.677
10868SOL    HW133503   1.635   0.023   4.685
10868SOL    HW233504   1.558   0.122   4.581
10869NA      NA33505   0.073   1.146   6.098
10870NA      NA33506   4.492   4.562   5.196
10871NA      NA33507   1.533   4.681   2.417
10872NA      NA33508   6.036   4.070   3.183
10873NA      NA33509   3.812   2.305   5.497
10874NA      NA33510   2.066   4.748   0.102
10875NA      NA33511   1.595   5.471   6.768
10876NA      NA33512   4.047   4.582   1.409
10877NA      NA33513   4.781   4.765   0.204
10878NA      NA33514   3.466   1.120   0.338
10879NA      NA33515   5.458   7.022   1.680
10880NA      NA33516   2.612   6.283   5.720
10881NA      NA33517   4.207   5.130   1.616
10882NA      NA33518   3.934   3.695   6.648
   7.02716   7.02716   7.02716
