Generated by trjconv : CNT in water t=  36.00000
33518
    1C        C    1   2.840   2.765   4.740
    1C        C    2   2.893   2.711   4.859
    1C        C    3   2.838   2.768   4.975
    1C        C    4   2.848   2.772   4.253
    1C        C    5   2.891   2.719   4.376
    1C        C    6   2.836   2.764   4.499
    1C        C    7   3.006   2.631   4.620
    1C        C    8   2.891   2.714   4.619
    1C        C    9   3.069   2.592   4.739
    1C        C   10   3.000   2.620   4.859
    1C        C   11   3.173   2.482   4.971
    1C        C   12   3.053   2.554   4.971
    1C        C   13   2.849   2.769   3.765
    1C        C   14   2.897   2.718   3.888
    1C        C   15   2.855   2.779   4.008
    1C        C   16   3.014   2.641   4.132
    1C        C   17   2.901   2.725   4.131
    1C        C   18   3.073   2.603   4.255
    1C        C   19   3.012   2.646   4.375
    1C        C   20   3.199   2.549   4.499
    1C        C   21   3.067   2.599   4.496
    1C        C   22   3.271   2.530   4.619
    1C        C   23   3.200   2.536   4.742
    1C        C   24   3.407   2.478   4.858
    1C        C   25   3.264   2.490   4.860
    1C        C   26   3.482   2.466   4.976
    1C        C   27   2.844   2.764   3.275
    1C        C   28   2.898   2.721   3.398
    1C        C   29   2.849   2.766   3.522
    1C        C   30   3.012   2.632   3.644
    1C        C   31   2.900   2.717   3.644
    1C        C   32   3.070   2.595   3.768
    1C        C   33   3.006   2.628   3.889
    1C        C   34   3.204   2.547   4.012
    1C        C   35   3.072   2.599   4.010
    1C        C   36   3.270   2.523   4.135
    1C        C   37   3.203   2.549   4.257
    1C        C   38   3.409   2.500   4.377
    1C        C   39   3.270   2.527   4.379
    1C        C   40   3.480   2.493   4.499
    1C        C   41   3.408   2.495   4.620
    1C        C   42   3.624   2.482   4.739
    1C        C   43   3.482   2.476   4.738
    1C        C   44   3.699   2.481   4.859
    1C        C   45   3.620   2.479   4.975
    1C        C   46   2.830   2.749   2.789
    1C        C   47   2.888   2.705   2.910
    1C        C   48   2.839   2.758   3.031
    1C        C   49   3.012   2.635   3.155
    1C        C   50   2.896   2.716   3.153
    1C        C   51   3.075   2.601   3.277
    1C        C   52   3.012   2.637   3.398
    1C        C   53   3.204   2.546   3.519
    1C        C   54   3.073   2.601   3.521
    1C        C   55   3.269   2.526   3.642
    1C        C   56   3.204   2.549   3.766
    1C        C   57   3.408   2.500   3.890
    1C        C   58   3.271   2.535   3.889
    1C        C   59   3.480   2.495   4.011
    1C        C   60   3.409   2.499   4.134
    1C        C   61   3.621   2.489   4.251
    1C        C   62   3.479   2.487   4.255
    1C        C   63   3.691   2.500   4.373
    1C        C   64   3.621   2.489   4.495
    1C        C   65   3.829   2.533   4.615
    1C        C   66   3.693   2.495   4.617
    1C        C   67   3.900   2.553   4.736
    1C        C   68   3.837   2.513   4.855
    1C        C   69   4.046   2.577   4.972
    1C        C   70   3.915   2.528   4.970
    1C        C   71   2.817   2.728   2.305
    1C        C   72   2.879   2.690   2.426
    1C        C   73   2.826   2.744   2.545
    1C        C   74   2.998   2.619   2.669
    1C        C   75   2.881   2.698   2.667
    1C        C   76   3.067   2.588   2.788
    1C        C   77   3.007   2.629   2.910
    1C        C   78   3.200   2.543   3.029
    1C        C   79   3.070   2.597   3.032
    1C        C   80   3.270   2.528   3.151
    1C        C   81   3.206   2.547   3.276
    1C        C   82   3.410   2.491   3.398
    1C        C   83   3.273   2.522   3.398
    1C        C   84   3.478   2.487   3.522
    1C        C   85   3.408   2.501   3.644
    1C        C   86   3.619   2.496   3.763
    1C        C   87   3.477   2.493   3.767
    1C        C   88   3.688   2.502   3.886
    1C        C   89   3.621   2.495   4.010
    1C        C   90   3.830   2.537   4.129
    1C        C   91   3.694   2.499   4.131
    1C        C   92   3.897   2.564   4.251
    1C        C   93   3.827   2.540   4.371
    1C        C   94   4.018   2.631   4.493
    1C        C   95   3.894   2.563   4.493
    1C        C   96   4.081   2.668   4.614
    1C        C   97   4.026   2.620   4.735
    1C        C   98   4.186   2.758   4.857
    1C        C   99   4.090   2.651   4.857
    1C        C  100   4.207   2.839   4.969
    1C        C  101   2.816   2.725   2.066
    1C        C  102   2.981   2.584   2.189
    1C        C  103   2.868   2.672   2.185
    1C        C  104   3.059   2.576   2.307
    1C        C  105   2.996   2.612   2.428
    1C        C  106   3.193   2.528   2.547
    1C        C  107   3.061   2.578   2.549
    1C        C  108   3.266   2.512   2.667
    1C        C  109   3.194   2.527   2.788
    1C        C  110   3.405   2.482   2.908
    1C        C  111   3.267   2.512   2.908
    1C        C  112   3.477   2.481   3.030
    1C        C  113   3.407   2.495   3.152
    1C        C  114   3.619   2.488   3.271
    1C        C  115   3.478   2.482   3.274
    1C        C  116   3.688   2.500   3.394
    1C        C  117   3.619   2.492   3.517
    1C        C  118   3.824   2.537   3.640
    1C        C  119   3.688   2.499   3.640
    1C        C  120   3.889   2.567   3.762
    1C        C  121   3.824   2.541   3.885
    1C        C  122   4.015   2.634   4.004
    1C        C  123   3.895   2.560   4.006
    1C        C  124   4.074   2.671   4.126
    1C        C  125   4.022   2.629   4.251
    1C        C  126   4.191   2.758   4.371
    1C        C  127   4.083   2.666   4.373
    1C        C  128   4.236   2.814   4.493
    1C        C  129   4.183   2.766   4.614
    1C        C  130   4.317   2.931   4.733
    1C        C  131   4.235   2.815   4.736
    1C        C  132   4.348   2.999   4.852
    1C        C  133   4.279   2.959   4.967
    1C        C  134   3.168   2.467   2.076
    1C        C  135   3.032   2.502   2.083
    1C        C  136   3.253   2.475   2.187
    1C        C  137   3.188   2.515   2.306
    1C        C  138   3.398   2.473   2.422
    1C        C  139   3.258   2.495   2.426
    1C        C  140   3.474   2.471   2.540
    1C        C  141   3.403   2.480   2.662
    1C        C  142   3.613   2.485   2.785
    1C        C  143   3.473   2.472   2.785
    1C        C  144   3.686   2.498   2.906
    1C        C  145   3.618   2.491   3.029
    1C        C  146   3.828   2.530   3.149
    1C        C  147   3.691   2.495   3.150
    1C        C  148   3.895   2.554   3.271
    1C        C  149   3.824   2.535   3.392
    1C        C  150   4.015   2.623   3.512
    1C        C  151   3.888   2.561   3.516
    1C        C  152   4.077   2.659   3.633
    1C        C  153   4.012   2.636   3.757
    1C        C  154   4.184   2.758   3.882
    1C        C  155   4.070   2.675   3.880
    1C        C  156   4.238   2.803   4.004
    1C        C  157   4.186   2.757   4.128
    1C        C  158   4.334   2.912   4.246
    1C        C  159   4.243   2.804   4.248
    1C        C  160   4.370   2.977   4.366
    1C        C  161   4.328   2.921   4.489
    1C        C  162   4.437   3.104   4.607
    1C        C  163   4.365   2.983   4.610
    1C        C  164   4.459   3.177   4.726
    1C        C  165   4.424   3.118   4.849
    1C        C  166   4.505   3.317   4.966
    1C        C  167   4.472   3.182   4.964
    1C        C  168   3.466   2.437   2.066
    1C        C  169   3.393   2.455   2.184
    1C        C  170   3.613   2.463   2.299
    1C        C  171   3.471   2.458   2.302
    1C        C  172   3.685   2.486   2.419
    1C        C  173   3.615   2.478   2.541
    1C        C  174   3.821   2.534   2.658
    1C        C  175   3.685   2.496   2.663
    1C        C  176   3.887   2.558   2.780
    1C        C  177   3.822   2.534   2.904
    1C        C  178   4.019   2.616   3.024
    1C        C  179   3.891   2.556   3.025
    1C        C  180   4.078   2.658   3.145
    1C        C  181   4.019   2.621   3.268
    1C        C  182   4.190   2.745   3.393
    1C        C  183   4.079   2.657   3.391
    1C        C  184   4.238   2.798   3.515
    1C        C  185   4.190   2.744   3.637
    1C        C  186   4.330   2.906   3.759
    1C        C  187   4.238   2.799   3.758
    1C        C  188   4.368   2.968   3.880
    1C        C  189   4.325   2.914   4.004
    1C        C  190   4.439   3.097   4.124
    1C        C  191   4.371   2.973   4.124
    1C        C  192   4.460   3.168   4.244
    1C        C  193   4.431   3.105   4.366
    1C        C  194   4.510   3.305   4.485
    1C        C  195   4.469   3.170   4.486
    1C        C  196   4.519   3.380   4.605
    1C        C  197   4.503   3.312   4.728
    1C        C  198   4.544   3.529   4.846
    1C        C  199   4.527   3.387   4.847
    1C        C  200   4.580   3.612   4.958
    1C        C  201   3.605   2.419   2.064
    1C        C  202   3.822   2.496   2.175
    1C        C  203   3.685   2.454   2.177
    1C        C  204   3.892   2.531   2.294
    1C        C  205   3.823   2.517   2.416
    1C        C  206   4.017   2.608   2.533
    1C        C  207   3.892   2.542   2.536
    1C        C  208   4.075   2.649   2.655
    1C        C  209   4.014   2.620   2.779
    1C        C  210   4.189   2.740   2.901
    1C        C  211   4.078   2.652   2.901
    1C        C  212   4.243   2.789   3.022
    1C        C  213   4.188   2.747   3.146
    1C        C  214   4.329   2.900   3.267
    1C        C  215   4.240   2.791   3.269
    1C        C  216   4.361   2.966   3.388
    1C        C  217   4.324   2.910   3.513
    1C        C  218   4.425   3.094   3.635
    1C        C  219   4.366   2.966   3.636
    1C        C  220   4.453   3.162   3.756
    1C        C  221   4.432   3.094   3.878
    1C        C  222   4.499   3.296   3.998
    1C        C  223   4.461   3.160   3.999
    1C        C  224   4.507   3.370   4.118
    1C        C  225   4.494   3.305   4.243
    1C        C  226   4.518   3.517   4.359
    1C        C  227   4.513   3.376   4.363
    1C        C  228   4.518   3.591   4.479
    1C        C  229   4.523   3.521   4.602
    1C        C  230   4.501   3.735   4.719
    1C        C  231   4.530   3.596   4.721
    1C        C  232   4.490   3.811   4.838
    1C        C  233   4.533   3.744   4.953
    1C        C  234   4.009   2.606   2.053
    1C        C  235   3.890   2.534   2.059
    1C        C  236   4.078   2.636   2.171
    1C        C  237   4.019   2.595   2.293
    1C        C  238   4.190   2.732   2.416
    1C        C  239   4.079   2.643   2.411
    1C        C  240   4.243   2.780   2.538
    1C        C  241   4.187   2.736   2.660
    1C        C  242   4.333   2.895   2.779
    1C        C  243   4.242   2.787   2.779
    1C        C  244   4.373   2.956   2.900
    1C        C  245   4.328   2.901   3.022
    1C        C  246   4.434   3.084   3.143
    1C        C  247   4.368   2.959   3.145
    1C        C  248   4.457   3.151   3.265
    1C        C  249   4.426   3.092   3.389
    1C        C  250   4.488   3.294   3.509
    1C        C  251   4.453   3.157   3.512
    1C        C  252   4.499   3.364   3.631
    1C        C  253   4.489   3.299   3.756
    1C        C  254   4.518   3.509   3.872
    1C        C  255   4.509   3.368   3.877
    1C        C  256   4.515   3.583   3.992
    1C        C  257   4.515   3.511   4.114
    1C        C  258   4.486   3.724   4.237
    1C        C  259   4.512   3.585   4.235
    1C        C  260   4.463   3.795   4.356
    1C        C  261   4.479   3.727   4.479
    1C        C  262   4.412   3.931   4.598
    1C        C  263   4.464   3.799   4.599
    1C        C  264   4.391   4.003   4.718
    1C        C  265   4.426   3.937   4.837
    1C        C  266   4.309   4.121   4.952
    1C        C  267   4.381   4.002   4.952
    1C        C  268   4.251   2.770   2.059
    1C        C  269   4.187   2.725   2.176
    1C        C  270   4.342   2.881   2.290
    1C        C  271   4.244   2.778   2.294
    1C        C  272   4.376   2.942   2.412
    1C        C  273   4.335   2.887   2.535
    1C        C  274   4.436   3.078   2.654
    1C        C  275   4.372   2.952   2.655
    1C        C  276   4.462   3.145   2.775
    1C        C  277   4.436   3.082   2.900
    1C        C  278   4.499   3.286   3.020
    1C        C  279   4.462   3.150   3.021
    1C        C  280   4.504   3.358   3.141
    1C        C  281   4.490   3.289   3.264
    1C        C  282   4.501   3.502   3.383
    1C        C  283   4.500   3.361   3.385
    1C        C  284   4.507   3.576   3.504
    1C        C  285   4.509   3.505   3.626
    1C        C  286   4.480   3.714   3.748
    1C        C  287   4.510   3.576   3.748
    1C        C  288   4.467   3.785   3.869
    1C        C  289   4.486   3.721   3.994
    1C        C  290   4.422   3.926   4.113
    1C        C  291   4.467   3.792   4.115
    1C        C  292   4.393   3.994   4.233
    1C        C  293   4.418   3.929   4.356
    1C        C  294   4.318   4.120   4.475
    1C        C  295   4.386   3.996   4.476
    1C        C  296   4.277   4.183   4.595
    1C        C  297   4.321   4.127   4.717
    1C        C  298   4.191   4.307   4.834
    1C        C  299   4.270   4.187   4.835
    1C        C  300   4.157   4.396   4.941
    1C        C  301   4.337   2.879   2.055
    1C        C  302   4.463   3.061   2.173
    1C        C  303   4.397   2.934   2.170
    1C        C  304   4.480   3.134   2.293
    1C        C  305   4.444   3.066   2.412
    1C        C  306   4.497   3.278   2.531
    1C        C  307   4.466   3.140   2.530
    1C        C  308   4.504   3.350   2.652
    1C        C  309   4.492   3.283   2.775
    1C        C  310   4.515   3.495   2.892
    1C        C  311   4.511   3.353   2.896
    1C        C  312   4.511   3.566   3.014
    1C        C  313   4.512   3.499   3.138
    1C        C  314   4.473   3.710   3.259
    1C        C  315   4.497   3.571   3.259
    1C        C  316   4.463   3.778   3.383
    1C        C  317   4.490   3.716   3.507
    1C        C  318   4.422   3.920   3.620
    1C        C  319   4.469   3.787   3.627
    1C        C  320   4.389   3.980   3.743
    1C        C  321   4.418   3.917   3.867
    1C        C  322   4.316   4.104   3.984
    1C        C  323   4.390   3.984   3.988
    1C        C  324   4.271   4.164   4.104
    1C        C  325   4.314   4.112   4.228
    1C        C  326   4.177   4.272   4.347
    1C        C  327   4.276   4.172   4.350
    1C        C  328   4.126   4.327   4.467
    1C        C  329   4.184   4.288   4.591
    1C        C  330   4.019   4.428   4.707
    1C        C  331   4.136   4.348   4.710
    1C        C  332   3.961   4.487   4.821
    1C        C  333   4.041   4.475   4.935
    1C        C  334   4.548   3.258   2.058
    1C        C  335   4.525   3.120   2.058
    1C        C  336   4.531   3.343   2.168
    1C        C  337   4.511   3.273   2.289
    1C        C  338   4.507   3.488   2.404
    1C        C  339   4.514   3.347   2.409
    1C        C  340   4.506   3.561   2.525
    1C        C  341   4.514   3.491   2.647
    1C        C  342   4.487   3.702   2.768
    1C        C  343   4.512   3.563   2.769
    1C        C  344   4.469   3.771   2.890
    1C        C  345   4.487   3.705   3.014
    1C        C  346   4.423   3.911   3.132
    1C        C  347   4.467   3.776   3.135
    1C        C  348   4.392   3.977   3.253
    1C        C  349   4.421   3.912   3.376
    1C        C  350   4.307   4.094   3.498
    1C        C  351   4.389   3.979   3.496
    1C        C  352   4.263   4.153   3.619
    1C        C  353   4.310   4.097   3.740
    1C        C  354   4.168   4.255   3.860
    1C        C  355   4.268   4.156   3.861
    1C        C  356   4.113   4.303   3.981
    1C        C  357   4.166   4.259   4.104
    1C        C  358   4.005   4.395   4.223
    1C        C  359   4.122   4.316   4.225
    1C        C  360   3.945   4.438   4.343
    1C        C  361   4.008   4.405   4.465
    1C        C  362   3.820   4.504   4.585
    1C        C  363   3.951   4.452   4.585
    1C        C  364   3.753   4.539   4.704
    1C        C  365   3.829   4.537   4.823
    1C        C  366   3.622   4.593   4.940
    1C        C  367   3.759   4.570   4.941
    1C        C  368   4.495   3.558   2.046
    1C        C  369   4.507   3.482   2.162
    1C        C  370   4.494   3.699   2.281
    1C        C  371   4.504   3.558   2.281
    1C        C  372   4.479   3.771   2.402
    1C        C  373   4.492   3.702   2.524
    1C        C  374   4.420   3.903   2.642
    1C        C  375   4.471   3.771   2.646
    1C        C  376   4.389   3.966   2.765
    1C        C  377   4.421   3.904   2.887
    1C        C  378   4.313   4.087   3.009
    1C        C  379   4.393   3.971   3.008
    1C        C  380   4.269   4.147   3.129
    1C        C  381   4.312   4.093   3.252
    1C        C  382   4.167   4.249   3.370
    1C        C  383   4.263   4.145   3.374
    1C        C  384   4.114   4.300   3.490
    1C        C  385   4.167   4.257   3.613
    1C        C  386   3.997   4.379   3.736
    1C        C  387   4.116   4.302   3.737
    1C        C  388   3.934   4.417   3.857
    1C        C  389   3.998   4.385   3.980
    1C        C  390   3.814   4.489   4.100
    1C        C  391   3.944   4.434   4.101
    1C        C  392   3.746   4.511   4.222
    1C        C  393   3.815   4.494   4.344
    1C        C  394   3.608   4.544   4.467
    1C        C  395   3.748   4.522   4.465
    1C        C  396   3.539   4.557   4.590
    1C        C  397   3.614   4.562   4.710
    1C        C  398   3.400   4.558   4.831
    1C        C  399   3.539   4.582   4.828
    1C        C  400   3.331   4.516   4.945
    1C        C  401   4.496   3.697   2.045
    1C        C  402   4.442   3.908   2.160
    1C        C  403   4.482   3.773   2.162
    1C        C  404   4.406   3.973   2.281
    1C        C  405   4.430   3.903   2.401
    1C        C  406   4.313   4.085   2.520
    1C        C  407   4.389   3.966   2.520
    1C        C  408   4.273   4.143   2.643
    1C        C  409   4.314   4.086   2.766
    1C        C  410   4.166   4.240   2.882
    1C        C  411   4.269   4.144   2.887
    1C        C  412   4.112   4.284   3.005
    1C        C  413   4.170   4.248   3.128
    1C        C  414   3.997   4.375   3.248
    1C        C  415   4.117   4.301   3.248
    1C        C  416   3.934   4.411   3.370
    1C        C  417   4.001   4.386   3.492
    1C        C  418   3.805   4.467   3.612
    1C        C  419   3.936   4.414   3.614
    1C        C  420   3.740   4.494   3.734
    1C        C  421   3.807   4.477   3.858
    1C        C  422   3.604   4.533   3.979
    1C        C  423   3.743   4.507   3.980
    1C        C  424   3.535   4.537   4.102
    1C        C  425   3.606   4.532   4.224
    1C        C  426   3.395   4.550   4.348
    1C        C  427   3.536   4.547   4.346
    1C        C  428   3.326   4.541   4.471
    1C        C  429   3.398   4.544   4.592
    1C        C  430   3.186   4.512   4.716
    1C        C  431   3.325   4.542   4.712
    1C        C  432   3.116   4.486   4.837
    1C        C  433   3.194   4.493   4.953
    1C        C  434   4.378   4.114   2.049
    1C        C  435   4.442   3.989   2.046
    1C        C  436   4.302   4.164   2.159
    1C        C  437   4.328   4.092   2.279
    1C        C  438   4.177   4.247   2.395
    1C        C  439   4.274   4.144   2.398
    1C        C  440   4.122   4.294   2.516
    1C        C  441   4.174   4.243   2.637
    1C        C  442   3.997   4.364   2.758
    1C        C  443   4.115   4.287   2.758
    1C        C  444   3.936   4.400   2.880
    1C        C  445   3.997   4.366   3.003
    1C        C  446   3.806   4.460   3.123
    1C        C  447   3.936   4.406   3.124
    1C        C  448   3.738   4.483   3.245
    1C        C  449   3.804   4.465   3.369
    1C        C  450   3.598   4.517   3.489
    1C        C  451   3.737   4.490   3.491
    1C        C  452   3.532   4.534   3.612
    1C        C  453   3.603   4.532   3.734
    1C        C  454   3.392   4.545   3.858
    1C        C  455   3.533   4.544   3.857
    1C        C  456   3.325   4.535   3.982
    1C        C  457   3.394   4.536   4.106
    1C        C  458   3.185   4.499   4.230
    1C        C  459   3.323   4.532   4.228
    1C        C  460   3.121   4.480   4.354
    1C        C  461   3.187   4.515   4.473
    1C        C  462   2.990   4.430   4.596
    1C        C  463   3.117   4.491   4.594
    1C        C  464   2.921   4.397   4.715
    1C        C  465   2.984   4.431   4.837
    1C        C  466   2.798   4.326   4.959
    1C        C  467   2.899   4.422   4.952
    1C        C  468   4.117   4.282   2.036
    1C        C  469   4.179   4.237   2.154
    1C        C  470   3.997   4.359   2.269
    1C        C  471   4.121   4.289   2.272
    1C        C  472   3.934   4.391   2.391
    1C        C  473   4.002   4.368   2.513
    1C        C  474   3.809   4.456   2.636
    1C        C  475   3.939   4.401   2.635
    1C        C  476   3.740   4.481   2.757
    1C        C  477   3.807   4.458   2.879
    1C        C  478   3.600   4.509   3.001
    1C        C  479   3.739   4.481   3.000
    1C        C  480   3.529   4.518   3.123
    1C        C  481   3.600   4.511   3.245
    1C        C  482   3.388   4.534   3.370
    1C        C  483   3.529   4.528   3.366
    1C        C  484   3.318   4.528   3.493
    1C        C  485   3.391   4.531   3.614
    1C        C  486   3.184   4.494   3.737
    1C        C  487   3.321   4.528   3.737
    1C        C  488   3.123   4.469   3.862
    1C        C  489   3.190   4.496   3.983
    1C        C  490   2.999   4.406   4.109
    1C        C  491   3.122   4.474   4.106
    1C        C  492   2.936   4.374   4.231
    1C        C  493   2.993   4.419   4.352
    1C        C  494   2.823   4.296   4.476
    1C        C  495   2.930   4.388   4.475
    1C        C  496   2.766   4.252   4.598
    1C        C  497   2.809   4.310   4.720
    1C        C  498   2.662   4.157   4.838
    1C        C  499   2.757   4.262   4.842
    1C        C  500   2.594   4.108   4.951
    1C        C  501   4.003   4.361   2.032
    1C        C  502   3.808   4.458   2.146
    1C        C  503   3.937   4.401   2.149
    1C        C  504   3.738   4.469   2.268
    1C        C  505   3.802   4.443   2.391
    1C        C  506   3.600   4.496   2.512
    1C        C  507   3.739   4.472   2.514
    1C        C  508   3.532   4.510   2.635
    1C        C  509   3.601   4.507   2.758
    1C        C  510   3.389   4.522   2.880
    1C        C  511   3.530   4.523   2.879
    1C        C  512   3.317   4.519   3.001
    1C        C  513   3.388   4.529   3.123
    1C        C  514   3.182   4.493   3.246
    1C        C  515   3.319   4.526   3.246
    1C        C  516   3.117   4.469   3.369
    1C        C  517   3.180   4.498   3.492
    1C        C  518   2.994   4.401   3.616
    1C        C  519   3.117   4.471   3.615
    1C        C  520   2.936   4.368   3.740
    1C        C  521   2.996   4.407   3.862
    1C        C  522   2.833   4.276   3.991
    1C        C  523   2.939   4.370   3.986
    1C        C  524   2.782   4.229   4.114
    1C        C  525   2.828   4.283   4.236
    1C        C  526   2.688   4.125   4.358
    1C        C  527   2.770   4.240   4.358
    1C        C  528   2.649   4.069   4.481
    1C        C  529   2.680   4.141   4.599
    1C        C  530   2.575   3.956   4.726
    1C        C  531   2.630   4.087   4.720
    1C        C  532   2.536   3.896   4.848
    1C        C  533   2.521   3.989   4.956
    1C        C  534   3.612   4.558   2.035
    1C        C  535   3.743   4.508   2.032
    1C        C  536   3.531   4.528   2.149
    1C        C  537   3.600   4.502   2.271
    1C        C  538   3.386   4.511   2.394
    1C        C  539   3.527   4.509   2.392
    1C        C  540   3.315   4.503   2.516
    1C        C  541   3.390   4.508   2.635
    1C        C  542   3.181   4.485   2.756
    1C        C  543   3.319   4.511   2.757
    1C        C  544   3.117   4.457   2.879
    1C        C  545   3.180   4.485   3.002
    1C        C  546   2.991   4.396   3.128
    1C        C  547   3.111   4.470   3.125
    1C        C  548   2.933   4.358   3.251
    1C        C  549   2.992   4.402   3.372
    1C        C  550   2.823   4.274   3.499
    1C        C  551   2.933   4.363   3.494
    1C        C  552   2.774   4.226   3.623
    1C        C  553   2.825   4.281   3.743
    1C        C  554   2.701   4.114   3.868
    1C        C  555   2.783   4.229   3.867
    1C        C  556   2.658   4.059   3.990
    1C        C  557   2.699   4.115   4.113
    1C        C  558   2.590   3.936   4.237
    1C        C  559   2.656   4.061   4.236
    1C        C  560   2.559   3.874   4.361
    1C        C  561   2.585   3.943   4.482
    1C        C  562   2.521   3.746   4.610
    1C        C  563   2.560   3.882   4.606
    1C        C  564   2.512   3.677   4.733
    1C        C  565   2.517   3.754   4.853
    1C        C  566   2.518   3.540   4.974
    1C        C  567   2.518   3.679   4.971
    1C        C  568   3.321   4.475   2.036
    1C        C  569   3.390   4.512   2.152
    1C        C  570   3.176   4.478   2.273
    1C        C  571   3.314   4.510   2.272
    1C        C  572   3.106   4.457   2.394
    1C        C  573   3.176   4.477   2.515
    1C        C  574   2.981   4.397   2.640
    1C        C  575   3.108   4.458   2.638
    1C        C  576   2.926   4.357   2.763
    1C        C  577   2.992   4.390   2.884
    1C        C  578   2.824   4.263   3.009
    1C        C  579   2.933   4.353   3.006
    1C        C  580   2.776   4.215   3.133
    1C        C  581   2.827   4.266   3.255
    1C        C  582   2.689   4.108   3.378
    1C        C  583   2.774   4.221   3.378
    1C        C  584   2.654   4.052   3.503
    1C        C  585   2.691   4.112   3.626
    1C        C  586   2.594   3.925   3.747
    1C        C  587   2.654   4.053   3.749
    1C        C  588   2.568   3.866   3.873
    1C        C  589   2.597   3.931   3.995
    1C        C  590   2.533   3.729   4.122
    1C        C  591   2.570   3.865   4.117
    1C        C  592   2.516   3.665   4.247
    1C        C  593   2.527   3.737   4.368
    1C        C  594   2.505   3.529   4.493
    1C        C  595   2.512   3.670   4.491
    1C        C  596   2.510   3.459   4.616
    1C        C  597   2.506   3.535   4.735
    1C        C  598   2.524   3.324   4.856
    1C        C  599   2.510   3.464   4.857
    1C        C  600   2.535   3.248   4.974
    1C        C  601   3.190   4.431   2.037
    1C        C  602   2.979   4.381   2.153
    1C        C  603   3.112   4.436   2.153
    1C        C  604   2.920   4.349   2.278
    1C        C  605   2.981   4.392   2.398
    1C        C  606   2.815   4.260   2.521
    1C        C  607   2.919   4.356   2.520
    1C        C  608   2.768   4.211   2.644
    1C        C  609   2.821   4.262   2.765
    1C        C  610   2.679   4.107   2.889
    1C        C  611   2.769   4.216   2.888
    1C        C  612   2.646   4.047   3.012
    1C        C  613   2.687   4.106   3.134
    1C        C  614   2.585   3.922   3.260
    1C        C  615   2.649   4.048   3.257
    1C        C  616   2.567   3.856   3.383
    1C        C  617   2.595   3.924   3.504
    1C        C  618   2.528   3.722   3.632
    1C        C  619   2.569   3.857   3.626
    1C        C  620   2.510   3.656   3.756
    1C        C  621   2.530   3.731   3.874
    1C        C  622   2.498   3.523   4.006
    1C        C  623   2.520   3.663   3.998
    1C        C  624   2.500   3.451   4.127
    1C        C  625   2.505   3.524   4.248
    1C        C  626   2.535   3.318   4.374
    1C        C  627   2.506   3.456   4.372
    1C        C  628   2.545   3.247   4.495
    1C        C  629   2.524   3.319   4.615
    1C        C  630   2.587   3.116   4.738
    1C        C  631   2.537   3.249   4.737
    1C        C  632   2.613   3.045   4.858
    1C        C  633   2.557   3.110   4.973
    1C        C  634   2.769   4.301   2.046
    1C        C  635   2.886   4.378   2.045
    1C        C  636   2.740   4.223   2.159
    1C        C  637   2.804   4.266   2.278
    1C        C  638   2.666   4.106   2.403
    1C        C  639   2.757   4.214   2.400
    1C        C  640   2.632   4.042   2.524
    1C        C  641   2.678   4.102   2.644
    1C        C  642   2.575   3.921   2.769
    1C        C  643   2.636   4.049   2.768
    1C        C  644   2.555   3.853   2.892
    1C        C  645   2.586   3.919   3.013
    1C        C  646   2.519   3.721   3.143
    1C        C  647   2.559   3.856   3.137
    1C        C  648   2.505   3.652   3.266
    1C        C  649   2.528   3.720   3.387
    1C        C  650   2.504   3.511   3.513
    1C        C  651   2.513   3.652   3.510
    1C        C  652   2.508   3.446   3.639
    1C        C  653   2.504   3.515   3.762
    1C        C  654   2.522   3.308   3.885
    1C        C  655   2.502   3.448   3.886
    1C        C  656   2.545   3.242   4.008
    1C        C  657   2.528   3.313   4.129
    1C        C  658   2.598   3.115   4.254
    1C        C  659   2.549   3.248   4.252
    1C        C  660   2.629   3.052   4.376
    1C        C  661   2.590   3.113   4.497
    1C        C  662   2.708   2.935   4.617
    1C        C  663   2.628   3.052   4.619
    1C        C  664   2.749   2.874   4.737
    1C        C  665   2.694   2.926   4.858
    1C        C  666   2.742   2.869   4.976
    1C        C  667   2.683   4.017   2.049
    1C        C  668   2.677   4.098   2.163
    1C        C  669   2.573   3.910   2.283
    1C        C  670   2.633   4.039   2.283
    1C        C  671   2.546   3.844   2.406
    1C        C  672   2.573   3.914   2.525
    1C        C  673   2.513   3.715   2.654
    1C        C  674   2.548   3.851   2.649
    1C        C  675   2.504   3.644   2.776
    1C        C  676   2.521   3.717   2.896
    1C        C  677   2.499   3.511   3.025
    1C        C  678   2.505   3.652   3.021
    1C        C  679   2.494   3.439   3.147
    1C        C  680   2.492   3.511   3.268
    1C        C  681   2.526   3.302   3.396
    1C        C  682   2.503   3.441   3.391
    1C        C  683   2.548   3.237   3.519
    1C        C  684   2.531   3.307   3.641
    1C        C  685   2.598   3.109   3.765
    1C        C  686   2.541   3.238   3.764
    1C        C  687   2.632   3.048   3.888
    1C        C  688   2.591   3.108   4.009
    1C        C  689   2.709   2.935   4.132
    1C        C  690   2.625   3.049   4.133
    1C        C  691   2.755   2.879   4.254
    1C        C  692   2.707   2.934   4.374
    1C        C  693   2.748   2.875   4.496
    1C        C  694   2.627   3.889   2.051
    1C        C  695   2.521   3.700   2.169
    1C        C  696   2.571   3.832   2.166
    1C        C  697   2.495   3.633   2.291
    1C        C  698   2.513   3.707   2.410
    1C        C  699   2.486   3.500   2.536
    1C        C  700   2.501   3.641   2.534
    1C        C  701   2.498   3.432   2.659
    1C        C  702   2.494   3.503   2.781
    1C        C  703   2.517   3.296   2.907
    1C        C  704   2.500   3.437   2.905
    1C        C  705   2.535   3.229   3.029
    1C        C  706   2.518   3.300   3.150
    1C        C  707   2.595   3.104   3.275
    1C        C  708   2.542   3.234   3.273
    1C        C  709   2.626   3.041   3.398
    1C        C  710   2.598   3.105   3.520
    1C        C  711   2.704   2.924   3.643
    1C        C  712   2.628   3.043   3.644
    1C        C  713   2.754   2.874   3.765
    1C        C  714   2.715   2.934   3.887
    1C        C  715   2.758   2.881   4.011
    1C        C  716   2.446   3.491   2.059
    1C        C  717   2.492   3.624   2.055
    1C        C  718   2.451   3.414   2.179
    1C        C  719   2.473   3.493   2.296
    1C        C  720   2.505   3.283   2.420
    1C        C  721   2.482   3.422   2.418
    1C        C  722   2.532   3.219   2.543
    1C        C  723   2.523   3.293   2.663
    1C        C  724   2.589   3.095   2.786
    1C        C  725   2.536   3.225   2.786
    1C        C  726   2.622   3.035   2.910
    1C        C  727   2.586   3.097   3.032
    1C        C  728   2.699   2.917   3.155
    1C        C  729   2.623   3.036   3.154
    1C        C  730   2.748   2.868   3.278
    1C        C  731   2.703   2.923   3.401
    1C        C  732   2.750   2.867   3.522
    1C        C  733   2.487   3.192   2.065
    1C        C  734   2.478   3.274   2.178
    1C        C  735   2.574   3.081   2.300
    1C        C  736   2.517   3.211   2.299
    1C        C  737   2.601   3.014   2.422
    1C        C  738   2.577   3.085   2.541
    1C        C  739   2.691   2.908   2.667
    1C        C  740   2.612   3.026   2.665
    1C        C  741   2.734   2.853   2.790
    1C        C  742   2.694   2.914   2.911
    1C        C  743   2.742   2.861   3.033
    1C        C  744   2.533   3.061   2.069
    1C        C  745   2.684   2.898   2.183
    1C        C  746   2.605   3.015   2.180
    1C        C  747   2.725   2.837   2.303
    1C        C  748   2.680   2.897   2.424
    1C        C  749   2.729   2.847   2.546
    1C        C  750   2.731   2.835   2.066
    1C        C  751   3.651   2.329   1.956
    1C        O  752   3.674   2.209   1.988
    1C        O  753   3.618   2.353   1.822
    1C        C  754   4.601   3.040   1.959
    1C        O  755   4.556   3.037   1.841
    1C        O  756   4.732   3.000   1.986
    1C        C  757   4.431   4.198   1.939
    1C        O  758   4.488   4.308   1.962
    1C        O  759   4.373   4.189   1.812
    1C        C  760   3.601   4.690   1.969
    1C        O  761   3.524   4.784   2.003
    1C        O  762   3.609   4.684   1.829
    1C        C  763   2.874   4.492   1.951
    1C        O  764   2.905   4.481   1.829
    1C        O  765   2.788   4.600   1.967
    1C        C  766   2.387   3.458   1.927
    1C        O  767   2.455   3.438   1.823
    1C        O  768   2.254   3.489   1.899
    1C        C  769   4.700   3.596   5.043
    1C        O  770   4.707   3.629   5.165
    1C        O  771   4.826   3.570   4.988
    1C        C  772   4.264   4.449   5.027
    1C        O  773   4.293   4.389   5.134
    1C        O  774   4.321   4.577   5.013
    1C        C  775   4.142   2.499   5.054
    1C        O  776   4.188   2.386   5.026
    1C        O  777   4.175   2.535   5.185
    1C        C  778   2.867   4.540   5.036
    1C        O  779   2.808   4.640   4.987
    1C        O  780   2.897   4.552   5.172
    1C        C  781   2.458   3.042   5.060
    1C        O  782   2.356   2.980   5.018
    1C        O  783   2.469   3.061   5.197
    1C        C  784   2.404   3.988   5.048
    1C        O  785   2.298   4.049   5.019
    1C        O  786   2.420   3.976   5.186
    1C        C  787   2.941   2.418   2.003
    1C        O  788   2.880   2.454   1.899
    1C        O  789   2.890   2.298   2.053
    1C        C  790   3.182   2.357   5.049
    1C        O  791   3.185   2.244   4.994
    1C        O  792   3.151   2.360   5.186
    1C        H  793   4.297   3.009   5.060
    1C        H  794   4.195   2.796   5.066
    1C        H  795   4.495   3.121   5.049
    1C        H  796   4.469   3.375   5.048
    1C        H  797   4.516   3.789   5.049
    1C        H  798   4.443   3.989   5.038
    1C        H  799   4.259   4.146   5.043
    1C        H  800   4.024   4.551   5.009
    1C        H  801   3.801   4.536   5.033
    1C        H  802   3.581   4.643   5.025
    1C        H  803   3.387   4.509   5.036
    1C        H  804   3.159   4.448   5.044
    1C        H  805   3.874   2.491   5.062
    1C        H  806   3.663   2.503   5.070
    1C        H  807   3.012   2.579   5.067
    1C        H  808   3.438   2.432   5.067
    1C        H  809   2.888   2.760   5.070
    1C        H  810   2.692   2.890   5.068
    1C        H  811   2.542   3.301   5.066
    1C        H  812   2.513   3.499   5.073
    1C        H  813   2.491   3.727   5.063
    1C        H  814   2.642   4.128   5.044
    1C        H  815   2.735   4.327   5.045
    1C        H  816   2.703   2.871   1.969
    1C        H  817   2.875   2.705   1.979
    1C        H  818   3.187   2.386   2.009
    1C        H  819   3.423   2.463   1.972
    1C        H  820   3.843   2.504   1.968
    1C        H  821   4.079   2.578   1.977
    1C        H  822   4.234   2.717   1.968
    1C        H  823   4.389   2.894   1.963
    1C        H  824   4.626   3.290   1.992
    1C        H  825   4.450   3.514   1.959
    1C        H  826   4.538   3.747   1.959
    1C        H  827   3.801   4.519   1.943
    1C        H  828   3.982   4.410   1.939
    1C        H  829   4.165   4.260   1.943
    1C        H  830   4.526   3.973   1.981
    1C        H  831   2.630   3.829   1.962
    1C        H  832   2.769   4.023   1.985
    1C        H  833   2.690   4.321   1.977
    1C        H  834   3.350   4.531   1.949
    1C        H  835   3.147   4.425   1.940
    1C        H  836   2.485   2.988   2.007
    1C        H  837   2.494   3.239   1.969
    1C        H  838   2.475   3.676   1.964
    2V3OU   H29  839   2.794   3.549   0.908
    2V3OU   C27  840   2.772   3.501   1.007
    2V3OU   H27  841   2.717   3.572   1.074
    2V3OU   H28  842   2.722   3.402   0.991
    2V3OU   O11  843   2.899   3.472   1.065
    2V3OU   C15  844   2.917   3.384   1.170
    2V3OU   C13  845   3.045   3.368   1.228
    2V3OU   C14  846   3.070   3.262   1.316
    2V3OU   C16  847   2.966   3.179   1.355
    2V3OU    H6  848   2.985   3.093   1.421
    2V3OU   C12  849   3.208   3.229   1.358
    2V3OU    O2  850   3.228   3.122   1.419
    2V3OU   C10  851   3.320   3.300   1.295
    2V3OU    C8  852   3.452   3.263   1.319
    2V3OU   O10  853   3.488   3.149   1.385
    2V3OU   H26  854   3.402   3.113   1.412
    2V3OU    C6  855   3.557   3.344   1.266
    2V3OU    C5  856   3.530   3.465   1.203
    2V3OU    C4  857   3.695   3.288   1.261
    2V3OU    H4  858   3.719   3.229   1.355
    2V3OU    H5  859   3.709   3.214   1.177
    2V3OU    C2  860   3.809   3.390   1.259
    2V3OU    O6  861   3.801   3.468   1.379
    2V3OU   H21  862   3.754   3.550   1.356
    2V3OU    C3  863   3.777   3.487   1.145
    2V3OU    H2  864   3.856   3.567   1.146
    2V3OU    H3  865   3.775   3.432   1.047
    2V3OU   C25  866   3.946   3.322   1.250
    2V3OU    O7  867   3.989   3.286   1.141
    2V3OU   C26  868   4.024   3.283   1.374
    2V3OU   H22  869   4.060   3.376   1.426
    2V3OU   H23  870   4.114   3.222   1.346
    2V3OU    O8  871   3.952   3.198   1.460
    2V3OU   H24  872   3.909   3.260   1.521
    2V3OU    C1  873   3.643   3.555   1.167
    2V3OU    H1  874   3.617   3.614   1.074
    2V3OU    O3  875   3.653   3.646   1.277
    2V3OU   C19  876   3.613   3.783   1.264
    2V3OU    H9  877   3.514   3.794   1.210
    2V3OU    O4  878   3.709   3.839   1.177
    2V3OU   C20  879   3.838   3.867   1.232
    2V3OU   H10  880   3.893   3.768   1.232
    2V3OU   C24  881   3.602   3.853   1.399
    2V3OU   H16  882   3.539   3.789   1.467
    2V3OU   H17  883   3.557   3.955   1.390
    2V3OU   C23  884   3.741   3.869   1.461
    2V3OU   H15  885   3.782   3.763   1.472
    2V3OU    N1  886   3.732   3.936   1.589
    2V3OU   H19  887   3.803   3.917   1.657
    2V3OU   H20  888   3.645   3.923   1.636
    2V3OU   C21  889   3.845   3.939   1.367
    2V3OU   H11  890   3.946   3.924   1.413
    2V3OU    O5  891   3.828   4.080   1.362
    2V3OU   H18  892   3.772   4.106   1.437
    2V3OU   C22  893   3.902   3.943   1.118
    2V3OU   H12  894   3.850   4.042   1.108
    2V3OU   H13  895   3.895   3.885   1.023
    2V3OU   H14  896   4.013   3.951   1.134
    2V3OU   C11  897   3.154   3.462   1.201
    2V3OU    O1  898   3.124   3.577   1.162
    2V3OU    C9  899   3.294   3.418   1.221
    2V3OU    C7  900   3.395   3.503   1.176
    2V3OU    O9  901   3.381   3.614   1.095
    2V3OU   H25  902   3.285   3.631   1.090
    2V3OU   C17  903   2.812   3.304   1.219
    2V3OU    H7  904   2.710   3.334   1.195
    2V3OU   C18  905   2.837   3.199   1.306
    2V3OU    H8  906   2.755   3.146   1.357
    3SOL     OW  907   0.595   4.129   0.784
    3SOL    HW1  908   0.679   4.164   0.826
    3SOL    HW2  909   0.600   4.140   0.685
    4SOL     OW  910   5.401   1.227   2.223
    4SOL    HW1  911   5.499   1.209   2.231
    4SOL    HW2  912   5.356   1.201   2.309
    5SOL     OW  913   3.768   2.897   1.235
    5SOL    HW1  914   3.729   2.965   1.173
    5SOL    HW2  915   3.853   2.932   1.274
    6SOL     OW  916   2.721   2.426   0.482
    6SOL    HW1  917   2.701   2.400   0.577
    6SOL    HW2  918   2.718   2.344   0.424
    7SOL     OW  919   5.933   1.094   1.668
    7SOL    HW1  920   5.878   1.175   1.649
    7SOL    HW2  921   5.992   1.075   1.590
    8SOL     OW  922   2.965   1.695   3.385
    8SOL    HW1  923   2.986   1.665   3.292
    8SOL    HW2  924   2.969   1.617   3.447
    9SOL     OW  925   6.979   4.106   5.683
    9SOL    HW1  926   7.008   4.051   5.761
    9SOL    HW2  927   7.002   4.202   5.699
   10SOL     OW  928   0.572   4.447   0.598
   10SOL    HW1  929   0.551   4.445   0.696
   10SOL    HW2  930   0.544   4.360   0.556
   11SOL     OW  931   4.401   6.735   6.779
   11SOL    HW1  932   4.466   6.675   6.826
   11SOL    HW2  933   4.368   6.804   6.842
   12SOL     OW  934   5.472   6.473   2.260
   12SOL    HW1  935   5.425   6.552   2.221
   12SOL    HW2  936   5.423   6.442   2.341
   13SOL     OW  937   1.441   0.432   3.028
   13SOL    HW1  938   1.505   0.499   3.066
   13SOL    HW2  939   1.388   0.391   3.103
   14SOL     OW  940   3.026   0.007   2.978
   14SOL    HW1  941   3.097   0.035   2.913
   14SOL    HW2  942   2.978   6.938   2.943
   15SOL     OW  943   2.425   6.519   6.478
   15SOL    HW1  944   2.431   6.601   6.421
   15SOL    HW2  945   2.408   6.546   6.573
   16SOL     OW  946   6.290   1.959   6.999
   16SOL    HW1  947   6.213   2.016   6.972
   16SOL    HW2  948   6.278   1.929   0.083
   17SOL     OW  949   4.280   6.025   3.168
   17SOL    HW1  950   4.244   6.103   3.220
   17SOL    HW2  951   4.225   6.012   3.085
   18SOL     OW  952   1.901   1.440   0.254
   18SOL    HW1  953   1.899   1.475   0.161
   18SOL    HW2  954   1.927   1.343   0.253
   19SOL     OW  955   0.901   6.848   1.221
   19SOL    HW1  956   0.895   6.764   1.168
   19SOL    HW2  957   0.997   6.875   1.228
   20SOL     OW  958   3.528   0.794   4.153
   20SOL    HW1  959   3.447   0.822   4.103
   20SOL    HW2  960   3.609   0.811   4.097
   21SOL     OW  961   2.914   2.921   1.685
   21SOL    HW1  962   2.906   2.824   1.660
   21SOL    HW2  963   2.830   2.969   1.657
   22SOL     OW  964   0.903   1.139   5.335
   22SOL    HW1  965   0.837   1.173   5.268
   22SOL    HW2  966   0.886   1.042   5.352
   23SOL     OW  967   2.788   5.960   4.697
   23SOL    HW1  968   2.825   5.886   4.641
   23SOL    HW2  969   2.845   5.972   4.778
   24SOL     OW  970   3.955   1.360   4.941
   24SOL    HW1  971   3.959   1.267   4.976
   24SOL    HW2  972   3.992   1.423   5.009
   25SOL     OW  973   2.411   5.292   1.126
   25SOL    HW1  974   2.386   5.261   1.218
   25SOL    HW2  975   2.427   5.212   1.068
   26SOL     OW  976   5.822   1.238   2.912
   26SOL    HW1  977   5.860   1.162   2.860
   26SOL    HW2  978   5.724   1.222   2.927
   27SOL     OW  979   6.227   6.988   2.340
   27SOL    HW1  980   6.179   6.952   2.421
   27SOL    HW2  981   6.292   6.920   2.308
   28SOL     OW  982   3.125   0.236   0.456
   28SOL    HW1  983   3.175   0.186   0.528
   28SOL    HW2  984   3.108   0.175   0.379
   29SOL     OW  985   4.353   2.983   1.680
   29SOL    HW1  986   4.422   3.005   1.750
   29SOL    HW2  987   4.379   2.899   1.633
   30SOL     OW  988   4.145   1.529   5.119
   30SOL    HW1  989   4.173   1.625   5.121
   30SOL    HW2  990   4.053   1.520   5.157
   31SOL     OW  991   0.443   1.264   5.147
   31SOL    HW1  992   0.431   1.344   5.088
   31SOL    HW2  993   0.359   1.209   5.147
   32SOL     OW  994   6.835   2.162   1.898
   32SOL    HW1  995   6.779   2.187   1.978
   32SOL    HW2  996   6.874   2.245   1.859
   33SOL     OW  997   1.634   2.116   5.814
   33SOL    HW1  998   1.569   2.065   5.757
   33SOL    HW2  999   1.690   2.051   5.866
   34SOL     OW 1000   0.608   0.498   4.880
   34SOL    HW1 1001   0.517   0.508   4.921
   34SOL    HW2 1002   0.650   0.588   4.869
   35SOL     OW 1003   4.058   2.059   6.268
   35SOL    HW1 1004   4.107   2.146   6.274
   35SOL    HW2 1005   4.021   2.035   6.357
   36SOL     OW 1006   1.590   1.728   5.649
   36SOL    HW1 1007   1.502   1.680   5.649
   36SOL    HW2 1008   1.600   1.778   5.563
   37SOL     OW 1009   2.190   6.515   0.853
   37SOL    HW1 1010   2.103   6.520   0.804
   37SOL    HW2 1011   2.245   6.440   0.816
   38SOL     OW 1012   6.996   6.374   1.663
   38SOL    HW1 1013   6.952   6.359   1.574
   38SOL    HW2 1014   0.057   6.443   1.654
   39SOL     OW 1015   6.829   2.534   5.981
   39SOL    HW1 1016   6.882   2.614   6.010
   39SOL    HW2 1017   6.732   2.551   6.001
   40SOL     OW 1018   6.885   1.154   1.289
   40SOL    HW1 1019   6.884   1.055   1.277
   40SOL    HW2 1020   6.816   1.181   1.356
   41SOL     OW 1021   1.059   1.045   6.153
   41SOL    HW1 1022   1.088   1.096   6.072
   41SOL    HW2 1023   1.064   0.947   6.134
   42SOL     OW 1024   4.007   0.086   0.719
   42SOL    HW1 1025   3.980   0.077   0.623
   42SOL    HW2 1026   4.024   7.005   0.757
   43SOL     OW 1027   4.767   5.822   5.208
   43SOL    HW1 1028   4.739   5.891   5.275
   43SOL    HW2 1029   4.783   5.735   5.256
   44SOL     OW 1030   0.347   3.306   6.814
   44SOL    HW1 1031   0.273   3.300   6.881
   44SOL    HW2 1032   0.340   3.393   6.764
   45SOL     OW 1033   3.015   0.326   1.367
   45SOL    HW1 1034   2.966   0.412   1.383
   45SOL    HW2 1035   2.948   0.253   1.350
   46SOL     OW 1036   1.271   4.953   4.141
   46SOL    HW1 1037   1.182   4.987   4.171
   46SOL    HW2 1038   1.317   4.908   4.217
   47SOL     OW 1039   5.458   4.665   2.746
   47SOL    HW1 1040   5.405   4.623   2.673
   47SOL    HW2 1041   5.407   4.659   2.832
   48SOL     OW 1042   0.606   0.948   5.467
   48SOL    HW1 1043   0.588   1.043   5.443
   48SOL    HW2 1044   0.545   0.889   5.415
   49SOL     OW 1045   5.602   3.119   0.437
   49SOL    HW1 1046   5.615   3.135   0.339
   49SOL    HW2 1047   5.679   3.158   0.488
   50SOL     OW 1048   0.121   3.444   4.849
   50SOL    HW1 1049   0.216   3.456   4.821
   50SOL    HW2 1050   0.095   3.517   4.912
   51SOL     OW 1051   2.777   5.684   2.569
   51SOL    HW1 1052   2.843   5.759   2.564
   51SOL    HW2 1053   2.687   5.717   2.541
   52SOL     OW 1054   0.821   2.145   1.671
   52SOL    HW1 1055   0.782   2.090   1.597
   52SOL    HW2 1056   0.777   2.120   1.757
   53SOL     OW 1057   4.877   6.215   4.057
   53SOL    HW1 1058   4.945   6.151   4.092
   53SOL    HW2 1059   4.854   6.192   3.963
   54SOL     OW 1060   4.836   5.089   5.984
   54SOL    HW1 1061   4.878   5.180   5.981
   54SOL    HW2 1062   4.889   5.029   6.044
   55SOL     OW 1063   3.559   2.010   0.841
   55SOL    HW1 1064   3.500   2.005   0.921
   55SOL    HW2 1065   3.649   2.044   0.869
   56SOL     OW 1066   0.475   6.800   1.457
   56SOL    HW1 1067   0.470   6.701   1.442
   56SOL    HW2 1068   0.560   6.822   1.505
   57SOL     OW 1069   5.682   1.118   1.216
   57SOL    HW1 1070   5.680   1.085   1.122
   57SOL    HW2 1071   5.592   1.155   1.240
   58SOL     OW 1072   6.934   0.313   6.800
   58SOL    HW1 1073   6.958   0.217   6.810
   58SOL    HW2 1074   6.835   0.323   6.802
   59SOL     OW 1075   1.010   0.194   4.895
   59SOL    HW1 1076   1.088   0.188   4.957
   59SOL    HW2 1077   1.042   0.211   4.802
   60SOL     OW 1078   5.002   0.157   5.112
   60SOL    HW1 1079   4.954   0.101   5.045
   60SOL    HW2 1080   4.954   0.153   5.199
   61SOL     OW 1081   4.322   0.179   4.968
   61SOL    HW1 1082   4.349   0.136   4.882
   61SOL    HW2 1083   4.223   0.192   4.970
   62SOL     OW 1084   3.042   0.975   4.974
   62SOL    HW1 1085   3.091   0.890   4.992
   62SOL    HW2 1086   3.020   0.981   4.877
   63SOL     OW 1087   6.960   3.361   3.502
   63SOL    HW1 1088   6.944   3.283   3.562
   63SOL    HW2 1089   0.046   3.365   3.478
   64SOL     OW 1090   0.376   2.349   5.355
   64SOL    HW1 1091   0.281   2.322   5.372
   64SOL    HW2 1092   0.429   2.268   5.329
   65SOL     OW 1093   0.613   3.483   5.577
   65SOL    HW1 1094   0.709   3.479   5.605
   65SOL    HW2 1095   0.568   3.560   5.622
   66SOL     OW 1096   2.657   0.683   0.846
   66SOL    HW1 1097   2.577   0.736   0.817
   66SOL    HW2 1098   2.630   0.620   0.920
   67SOL     OW 1099   4.589   5.621   4.138
   67SOL    HW1 1100   4.567   5.613   4.235
   67SOL    HW2 1101   4.681   5.586   4.122
   68SOL     OW 1102   5.475   2.655   6.622
   68SOL    HW1 1103   5.486   2.735   6.680
   68SOL    HW2 1104   5.487   2.572   6.676
   69SOL     OW 1105   2.162   2.878   5.761
   69SOL    HW1 1106   2.095   2.885   5.687
   69SOL    HW2 1107   2.231   2.810   5.738
   70SOL     OW 1108   6.318   6.266   2.208
   70SOL    HW1 1109   6.324   6.226   2.299
   70SOL    HW2 1110   6.376   6.214   2.145
   71SOL     OW 1111   2.160   3.362   2.690
   71SOL    HW1 1112   2.167   3.428   2.616
   71SOL    HW2 1113   2.115   3.404   2.769
   72SOL     OW 1114   3.504   5.559   3.687
   72SOL    HW1 1115   3.421   5.581   3.739
   72SOL    HW2 1116   3.534   5.466   3.710
   73SOL     OW 1117   3.744   2.349   6.446
   73SOL    HW1 1118   3.699   2.426   6.400
   73SOL    HW2 1119   3.798   2.297   6.379
   74SOL     OW 1120   5.244   6.560   6.340
   74SOL    HW1 1121   5.153   6.520   6.330
   74SOL    HW2 1122   5.305   6.492   6.382
   75SOL     OW 1123   3.343   4.910   5.466
   75SOL    HW1 1124   3.326   4.994   5.517
   75SOL    HW2 1125   3.326   4.926   5.369
   76SOL     OW 1126   2.679   2.945   1.129
   76SOL    HW1 1127   2.691   2.869   1.192
   76SOL    HW2 1128   2.692   2.914   1.035
   77SOL     OW 1129   5.389   4.791   6.367
   77SOL    HW1 1130   5.483   4.757   6.354
   77SOL    HW2 1131   5.339   4.729   6.427
   78SOL     OW 1132   6.575   6.134   6.443
   78SOL    HW1 1133   6.658   6.124   6.497
   78SOL    HW2 1134   6.538   6.226   6.456
   79SOL     OW 1135   3.205   6.481   0.230
   79SOL    HW1 1136   3.214   6.467   0.131
   79SOL    HW2 1137   3.238   6.400   0.278
   80SOL     OW 1138   0.144   0.954   4.091
   80SOL    HW1 1139   0.063   0.927   4.038
   80SOL    HW2 1140   0.226   0.939   4.036
   81SOL     OW 1141   1.768   0.179   4.092
   81SOL    HW1 1142   1.714   0.118   4.034
   81SOL    HW2 1143   1.854   0.201   4.047
   82SOL     OW 1144   6.675   4.382   5.851
   82SOL    HW1 1145   6.770   4.371   5.882
   82SOL    HW2 1146   6.621   4.422   5.925
   83SOL     OW 1147   6.576   6.912   6.189
   83SOL    HW1 1148   6.667   6.871   6.200
   83SOL    HW2 1149   6.555   6.969   6.268
   84SOL     OW 1150   6.352   3.516   1.449
   84SOL    HW1 1151   6.285   3.443   1.436
   84SOL    HW2 1152   6.424   3.485   1.511
   85SOL     OW 1153   1.166   1.239   5.382
   85SOL    HW1 1154   1.075   1.220   5.343
   85SOL    HW2 1155   1.232   1.172   5.347
   86SOL     OW 1156   2.277   1.204   4.675
   86SOL    HW1 1157   2.314   1.117   4.642
   86SOL    HW2 1158   2.215   1.186   4.751
   87SOL     OW 1159   4.713   6.923   1.727
   87SOL    HW1 1160   4.778   6.998   1.711
   87SOL    HW2 1161   4.633   6.958   1.775
   88SOL     OW 1162   5.941   0.604   0.594
   88SOL    HW1 1163   5.885   0.610   0.677
   88SOL    HW2 1164   5.911   0.526   0.539
   89SOL     OW 1165   2.461   1.742   5.470
   89SOL    HW1 1166   2.531   1.672   5.457
   89SOL    HW2 1167   2.376   1.698   5.501
   90SOL     OW 1168   6.631   5.802   3.593
   90SOL    HW1 1169   6.577   5.740   3.536
   90SOL    HW2 1170   6.677   5.870   3.536
   91SOL     OW 1171   4.232   4.868   4.679
   91SOL    HW1 1172   4.280   4.782   4.697
   91SOL    HW2 1173   4.254   4.899   4.586
   92SOL     OW 1174   3.373   6.296   1.502
   92SOL    HW1 1175   3.306   6.349   1.554
   92SOL    HW2 1176   3.328   6.214   1.464
   93SOL     OW 1177   3.440   4.656   5.838
   93SOL    HW1 1178   3.396   4.570   5.812
   93SOL    HW2 1179   3.512   4.678   5.771
   94SOL     OW 1180   2.477   6.755   1.858
   94SOL    HW1 1181   2.459   6.759   1.957
   94SOL    HW2 1182   2.527   6.671   1.837
   95SOL     OW 1183   6.522   0.205   5.343
   95SOL    HW1 1184   6.542   0.298   5.315
   95SOL    HW2 1185   6.520   0.200   5.443
   96SOL     OW 1186   1.546   6.956   5.069
   96SOL    HW1 1187   1.487   6.988   4.995
   96SOL    HW2 1188   1.633   6.925   5.032
   97SOL     OW 1189   5.969   2.811   4.868
   97SOL    HW1 1190   6.009   2.727   4.904
   97SOL    HW2 1191   6.041   2.868   4.827
   98SOL     OW 1192   5.821   1.959   6.013
   98SOL    HW1 1193   5.794   1.863   6.024
   98SOL    HW2 1194   5.766   2.017   6.073
   99SOL     OW 1195   4.480   1.867   0.919
   99SOL    HW1 1196   4.465   1.850   0.822
   99SOL    HW2 1197   4.549   1.939   0.929
  100SOL     OW 1198   6.337   5.095   6.775
  100SOL    HW1 1199   6.436   5.105   6.773
  100SOL    HW2 1200   6.309   5.045   6.857
  101SOL     OW 1201   0.970   6.468   4.027
  101SOL    HW1 1202   0.915   6.531   3.972
  101SOL    HW2 1203   0.999   6.514   4.111
  102SOL     OW 1204   4.336   0.306   2.891
  102SOL    HW1 1205   4.416   0.260   2.931
  102SOL    HW2 1206   4.265   0.315   2.961
  103SOL     OW 1207   3.364   2.004   1.652
  103SOL    HW1 1208   3.289   1.981   1.589
  103SOL    HW2 1209   3.399   1.920   1.693
  104SOL     OW 1210   6.949   6.022   2.179
  104SOL    HW1 1211   6.978   6.092   2.113
  104SOL    HW2 1212   0.019   5.984   2.224
  105SOL     OW 1213   5.348   1.287   5.890
  105SOL    HW1 1214   5.379   1.381   5.908
  105SOL    HW2 1215   5.248   1.286   5.888
  106SOL     OW 1216   3.276   6.502   1.008
  106SOL    HW1 1217   3.226   6.508   1.094
  106SOL    HW2 1218   3.288   6.405   0.984
  107SOL     OW 1219   2.246   3.051   0.953
  107SOL    HW1 1220   2.224   3.122   1.020
  107SOL    HW2 1221   2.266   2.965   1.001
  108SOL     OW 1222   4.674   4.291   5.064
  108SOL    HW1 1223   4.741   4.218   5.056
  108SOL    HW2 1224   4.620   4.278   5.147
  109SOL     OW 1225   6.165   0.697   1.418
  109SOL    HW1 1226   6.229   0.724   1.490
  109SOL    HW2 1227   6.189   0.606   1.384
  110SOL     OW 1228   3.503   5.976   4.623
  110SOL    HW1 1229   3.419   6.028   4.607
  110SOL    HW2 1230   3.579   6.040   4.636
  111SOL     OW 1231   3.248   1.264   3.391
  111SOL    HW1 1232   3.283   1.197   3.325
  111SOL    HW2 1233   3.271   1.234   3.484
  112SOL     OW 1234   6.753   1.198   6.474
  112SOL    HW1 1235   6.822   1.270   6.471
  112SOL    HW2 1236   6.699   1.207   6.558
  113SOL     OW 1237   6.846   6.293   3.746
  113SOL    HW1 1238   6.812   6.381   3.712
  113SOL    HW2 1239   6.768   6.238   3.776
  114SOL     OW 1240   1.341   6.850   0.187
  114SOL    HW1 1241   1.282   6.819   0.112
  114SOL    HW2 1242   1.322   6.795   0.268
  115SOL     OW 1243   5.424   0.862   5.716
  115SOL    HW1 1244   5.520   0.865   5.687
  115SOL    HW2 1245   5.368   0.827   5.641
  116SOL     OW 1246   5.997   4.424   2.476
  116SOL    HW1 1247   5.925   4.468   2.531
  116SOL    HW2 1248   6.083   4.424   2.528
  117SOL     OW 1249   1.490   6.711   6.366
  117SOL    HW1 1250   1.573   6.695   6.312
  117SOL    HW2 1251   1.462   6.806   6.357
  118SOL     OW 1252   2.092   0.875   2.878
  118SOL    HW1 1253   2.192   0.863   2.884
  118SOL    HW2 1254   2.048   0.821   2.950
  119SOL     OW 1255   6.772   2.393   6.396
  119SOL    HW1 1256   6.695   2.400   6.333
  119SOL    HW2 1257   6.782   2.297   6.424
  120SOL     OW 1258   5.550   6.527   1.600
  120SOL    HW1 1259   5.644   6.554   1.622
  120SOL    HW2 1260   5.496   6.524   1.684
  121SOL     OW 1261   2.774   3.048   5.832
  121SOL    HW1 1262   2.798   2.955   5.862
  121SOL    HW2 1263   2.675   3.060   5.840
  122SOL     OW 1264   0.331   3.265   4.537
  122SOL    HW1 1265   0.357   3.333   4.605
  122SOL    HW2 1266   0.397   3.191   4.537
  123SOL     OW 1267   0.588   1.855   1.786
  123SOL    HW1 1268   0.532   1.910   1.724
  123SOL    HW2 1269   0.680   1.845   1.748
  124SOL     OW 1270   4.903   3.644   0.896
  124SOL    HW1 1271   4.863   3.697   0.971
  124SOL    HW2 1272   4.877   3.686   0.809
  125SOL     OW 1273   2.309   3.389   1.600
  125SOL    HW1 1274   2.336   3.381   1.696
  125SOL    HW2 1275   2.284   3.484   1.580
  126SOL     OW 1276   3.887   4.580   0.694
  126SOL    HW1 1277   3.822   4.655   0.703
  126SOL    HW2 1278   3.871   4.533   0.607
  127SOL     OW 1279   1.040   5.032   5.701
  127SOL    HW1 1280   1.039   4.980   5.615
  127SOL    HW2 1281   1.115   5.098   5.699
  128SOL     OW 1282   4.367   2.685   1.234
  128SOL    HW1 1283   4.391   2.592   1.207
  128SOL    HW2 1284   4.317   2.729   1.159
  129SOL     OW 1285   2.447   3.837   6.613
  129SOL    HW1 1286   2.434   3.749   6.568
  129SOL    HW2 1287   2.440   3.910   6.546
  130SOL     OW 1288   1.897   2.497   4.786
  130SOL    HW1 1289   1.959   2.421   4.807
  130SOL    HW2 1290   1.925   2.540   4.700
  131SOL     OW 1291   5.570   1.710   2.392
  131SOL    HW1 1292   5.616   1.763   2.463
  131SOL    HW2 1293   5.625   1.629   2.369
  132SOL     OW 1294   0.540   2.417   2.174
  132SOL    HW1 1295   0.481   2.363   2.233
  132SOL    HW2 1296   0.614   2.457   2.228
  133SOL     OW 1297   0.028   5.391   2.629
  133SOL    HW1 1298   6.975   5.413   2.703
  133SOL    HW2 1299   0.026   5.463   2.560
  134SOL     OW 1300   1.267   3.431   2.417
  134SOL    HW1 1301   1.352   3.383   2.399
  134SOL    HW2 1302   1.191   3.366   2.418
  135SOL     OW 1303   4.048   1.185   4.105
  135SOL    HW1 1304   4.072   1.279   4.080
  135SOL    HW2 1305   4.070   1.124   4.029
  136SOL     OW 1306   4.655   4.872   5.379
  136SOL    HW1 1307   4.575   4.931   5.377
  136SOL    HW2 1308   4.709   4.885   5.296
  137SOL     OW 1309   3.382   1.018   5.705
  137SOL    HW1 1310   3.310   1.076   5.668
  137SOL    HW2 1311   3.386   1.029   5.805
  138SOL     OW 1312   6.204   4.737   5.111
  138SOL    HW1 1313   6.112   4.774   5.126
  138SOL    HW2 1314   6.207   4.689   5.023
  139SOL     OW 1315   3.080   6.073   5.695
  139SOL    HW1 1316   3.011   6.038   5.632
  139SOL    HW2 1317   3.069   6.029   5.784
  140SOL     OW 1318   6.526   4.479   4.527
  140SOL    HW1 1319   6.485   4.446   4.612
  140SOL    HW2 1320   6.454   4.501   4.461
  141SOL     OW 1321   1.168   1.951   2.243
  141SOL    HW1 1322   1.266   1.954   2.262
  141SOL    HW2 1323   1.154   1.929   2.146
  142SOL     OW 1324   1.619   5.331   1.360
  142SOL    HW1 1325   1.540   5.385   1.391
  142SOL    HW2 1326   1.594   5.280   1.278
  143SOL     OW 1327   5.205   4.441   2.093
  143SOL    HW1 1328   5.283   4.386   2.063
  143SOL    HW2 1329   5.120   4.399   2.061
  144SOL     OW 1330   2.285   6.208   1.024
  144SOL    HW1 1331   2.333   6.265   0.957
  144SOL    HW2 1332   2.346   6.187   1.100
  145SOL     OW 1333   6.822   5.012   0.607
  145SOL    HW1 1334   6.816   4.986   0.703
  145SOL    HW2 1335   6.909   5.058   0.589
  146SOL     OW 1336   6.496   5.019   0.659
  146SOL    HW1 1337   6.482   4.925   0.691
  146SOL    HW2 1338   6.432   5.037   0.584
  147SOL     OW 1339   5.240   2.773   0.698
  147SOL    HW1 1340   5.177   2.830   0.646
  147SOL    HW2 1341   5.334   2.806   0.685
  148SOL     OW 1342   1.144   5.284   5.391
  148SOL    HW1 1343   1.087   5.361   5.417
  148SOL    HW2 1344   1.089   5.216   5.343
  149SOL     OW 1345   3.124   1.175   6.003
  149SOL    HW1 1346   3.035   1.137   5.977
  149SOL    HW2 1347   3.154   1.241   5.933
  150SOL     OW 1348   0.255   5.830   5.835
  150SOL    HW1 1349   0.232   5.740   5.796
  150SOL    HW2 1350   0.172   5.885   5.842
  151SOL     OW 1351   3.723   0.642   2.036
  151SOL    HW1 1352   3.742   0.720   1.977
  151SOL    HW2 1353   3.785   0.643   2.114
  152SOL     OW 1354   3.235   1.226   4.881
  152SOL    HW1 1355   3.239   1.128   4.866
  152SOL    HW2 1356   3.143   1.259   4.860
  153SOL     OW 1357   1.397   0.637   2.831
  153SOL    HW1 1358   1.411   0.589   2.918
  153SOL    HW2 1359   1.436   0.584   2.756
  154SOL     OW 1360   6.469   2.153   2.949
  154SOL    HW1 1361   6.370   2.160   2.960
  154SOL    HW2 1362   6.511   2.124   3.035
  155SOL     OW 1363   0.526   1.475   2.771
  155SOL    HW1 1364   0.575   1.414   2.833
  155SOL    HW2 1365   0.462   1.532   2.822
  156SOL     OW 1366   0.220   2.448   1.404
  156SOL    HW1 1367   0.205   2.358   1.363
  156SOL    HW2 1368   0.245   2.438   1.500
  157SOL     OW 1369   6.139   3.057   2.642
  157SOL    HW1 1370   6.096   3.034   2.555
  157SOL    HW2 1371   6.071   3.094   2.704
  158SOL     OW 1372   1.706   1.926   4.040
  158SOL    HW1 1373   1.791   1.978   4.039
  158SOL    HW2 1374   1.628   1.989   4.035
  159SOL     OW 1375   4.938   3.549   2.283
  159SOL    HW1 1376   4.904   3.457   2.266
  159SOL    HW2 1377   4.990   3.580   2.203
  160SOL     OW 1378   6.203   4.337   6.132
  160SOL    HW1 1379   6.249   4.348   6.044
  160SOL    HW2 1380   6.271   4.336   6.205
  161SOL     OW 1381   3.183   4.786   5.658
  161SOL    HW1 1382   3.220   4.837   5.580
  161SOL    HW2 1383   3.213   4.691   5.653
  162SOL     OW 1384   4.873   6.057   2.093
  162SOL    HW1 1385   4.949   6.052   2.159
  162SOL    HW2 1386   4.807   5.985   2.113
  163SOL     OW 1387   5.555   0.613   1.971
  163SOL    HW1 1388   5.568   0.650   1.879
  163SOL    HW2 1389   5.604   0.670   2.037
  164SOL     OW 1390   6.396   3.195   1.367
  164SOL    HW1 1391   6.459   3.269   1.392
  164SOL    HW2 1392   6.430   3.148   1.286
  165SOL     OW 1393   6.455   3.901   6.372
  165SOL    HW1 1394   6.392   3.978   6.360
  165SOL    HW2 1395   6.407   3.826   6.418
  166SOL     OW 1396   1.456   0.418   1.065
  166SOL    HW1 1397   1.515   0.394   1.142
  166SOL    HW2 1398   1.380   0.474   1.097
  167SOL     OW 1399   6.821   3.183   0.676
  167SOL    HW1 1400   6.783   3.153   0.763
  167SOL    HW2 1401   6.762   3.153   0.601
  168SOL     OW 1402   2.484   5.504   1.482
  168SOL    HW1 1403   2.478   5.588   1.429
  168SOL    HW2 1404   2.565   5.453   1.454
  169SOL     OW 1405   1.340   6.939   1.444
  169SOL    HW1 1406   1.317   6.990   1.527
  169SOL    HW2 1407   1.295   6.850   1.445
  170SOL     OW 1408   0.684   1.337   2.922
  170SOL    HW1 1409   0.744   1.326   3.001
  170SOL    HW2 1410   0.724   1.291   2.843
  171SOL     OW 1411   3.438   4.053   0.819
  171SOL    HW1 1412   3.397   4.079   0.731
  171SOL    HW2 1413   3.432   3.954   0.831
  172SOL     OW 1414   6.809   3.114   1.395
  172SOL    HW1 1415   6.792   3.088   1.300
  172SOL    HW2 1416   6.871   3.047   1.437
  173SOL     OW 1417   0.356   6.319   5.462
  173SOL    HW1 1418   0.414   6.298   5.541
  173SOL    HW2 1419   0.351   6.238   5.402
  174SOL     OW 1420   2.662   5.757   3.502
  174SOL    HW1 1421   2.745   5.726   3.456
  174SOL    HW2 1422   2.685   5.790   3.594
  175SOL     OW 1423   0.491   5.371   3.023
  175SOL    HW1 1424   0.455   5.342   3.112
  175SOL    HW2 1425   0.502   5.290   2.964
  176SOL     OW 1426   3.002   5.297   0.543
  176SOL    HW1 1427   2.970   5.236   0.471
  176SOL    HW2 1428   3.091   5.335   0.518
  177SOL     OW 1429   4.718   2.189   3.305
  177SOL    HW1 1430   4.807   2.223   3.275
  177SOL    HW2 1431   4.725   2.091   3.324
  178SOL     OW 1432   5.440   4.450   5.618
  178SOL    HW1 1433   5.445   4.371   5.679
  178SOL    HW2 1434   5.346   4.461   5.586
  179SOL     OW 1435   3.236   0.148   1.144
  179SOL    HW1 1436   3.140   0.144   1.171
  179SOL    HW2 1437   3.288   0.196   1.215
  180SOL     OW 1438   1.329   2.520   6.959
  180SOL    HW1 1439   1.286   2.432   6.976
  180SOL    HW2 1440   1.366   2.522   6.866
  181SOL     OW 1441   2.923   3.311   4.722
  181SOL    HW1 1442   2.995   3.378   4.738
  181SOL    HW2 1443   2.837   3.359   4.702
  182SOL     OW 1444   5.018   2.379   4.899
  182SOL    HW1 1445   4.938   2.432   4.928
  182SOL    HW2 1446   5.050   2.412   4.810
  183SOL     OW 1447   5.837   1.824   2.362
  183SOL    HW1 1448   5.782   1.863   2.287
  183SOL    HW2 1449   5.832   1.884   2.441
  184SOL     OW 1450   0.191   4.307   2.899
  184SOL    HW1 1451   0.237   4.391   2.928
  184SOL    HW2 1452   0.092   4.320   2.904
  185SOL     OW 1453   2.652   3.120   6.434
  185SOL    HW1 1454   2.708   3.083   6.509
  185SOL    HW2 1455   2.558   3.132   6.466
  186SOL     OW 1456   6.064   6.243   3.734
  186SOL    HW1 1457   6.101   6.324   3.688
  186SOL    HW2 1458   5.983   6.269   3.787
  187SOL     OW 1459   5.865   0.338   3.915
  187SOL    HW1 1460   5.962   0.316   3.918
  187SOL    HW2 1461   5.816   0.282   3.981
  188SOL     OW 1462   6.117   2.079   4.493
  188SOL    HW1 1463   6.154   2.162   4.535
  188SOL    HW2 1464   6.019   2.092   4.476
  189SOL     OW 1465   1.555   4.376   2.909
  189SOL    HW1 1466   1.512   4.289   2.931
  189SOL    HW2 1467   1.596   4.371   2.817
  190SOL     OW 1468   3.224   1.263   6.483
  190SOL    HW1 1469   3.166   1.275   6.564
  190SOL    HW2 1470   3.170   1.221   6.409
  191SOL     OW 1471   4.433   6.291   5.897
  191SOL    HW1 1472   4.401   6.248   5.981
  191SOL    HW2 1473   4.357   6.341   5.854
  192SOL     OW 1474   6.668   0.812   0.621
  192SOL    HW1 1475   6.592   0.810   0.686
  192SOL    HW2 1476   6.672   0.901   0.576
  193SOL     OW 1477   5.710   4.398   6.980
  193SOL    HW1 1478   5.789   4.449   6.945
  193SOL    HW2 1479   5.738   4.304   7.000
  194SOL     OW 1480   4.166   6.781   4.242
  194SOL    HW1 1481   4.166   6.684   4.266
  194SOL    HW2 1482   4.239   6.828   4.291
  195SOL     OW 1483   6.559   5.557   3.457
  195SOL    HW1 1484   6.650   5.569   3.419
  195SOL    HW2 1485   6.491   5.565   3.384
  196SOL     OW 1486   0.966   1.116   0.989
  196SOL    HW1 1487   1.038   1.141   1.052
  196SOL    HW2 1488   1.004   1.103   0.897
  197SOL     OW 1489   2.043   0.855   0.562
  197SOL    HW1 1490   2.076   0.768   0.526
  197SOL    HW2 1491   2.120   0.910   0.594
  198SOL     OW 1492   2.669   1.450   4.205
  198SOL    HW1 1493   2.617   1.530   4.172
  198SOL    HW2 1494   2.767   1.470   4.201
  199SOL     OW 1495   1.203   1.627   4.628
  199SOL    HW1 1496   1.269   1.618   4.702
  199SOL    HW2 1497   1.237   1.581   4.546
  200SOL     OW 1498   6.064   2.133   6.946
  200SOL    HW1 1499   6.029   2.187   0.012
  200SOL    HW2 1500   6.101   2.194   6.876
  201SOL     OW 1501   0.147   1.203   6.472
  201SOL    HW1 1502   0.244   1.214   6.494
  201SOL    HW2 1503   0.120   1.109   6.488
  202SOL     OW 1504   5.164   0.353   0.594
  202SOL    HW1 1505   5.185   0.378   0.500
  202SOL    HW2 1506   5.073   0.311   0.598
  203SOL     OW 1507   6.409   2.819   6.307
  203SOL    HW1 1508   6.495   2.774   6.330
  203SOL    HW2 1509   6.410   2.846   6.210
  204SOL     OW 1510   6.100   0.633   5.101
  204SOL    HW1 1511   6.143   0.569   5.165
  204SOL    HW2 1512   6.160   0.646   5.022
  205SOL     OW 1513   1.965   4.044   2.419
  205SOL    HW1 1514   1.877   4.045   2.466
  205SOL    HW2 1515   2.035   4.008   2.480
  206SOL     OW 1516   0.266   3.761   0.652
  206SOL    HW1 1517   0.206   3.735   0.727
  206SOL    HW2 1518   0.349   3.804   0.688
  207SOL     OW 1519   6.137   2.523   4.676
  207SOL    HW1 1520   6.059   2.547   4.734
  207SOL    HW2 1521   6.106   2.516   4.581
  208SOL     OW 1522   1.035   3.445   5.239
  208SOL    HW1 1523   1.046   3.346   5.246
  208SOL    HW2 1524   1.095   3.481   5.168
  209SOL     OW 1525   6.640   4.616   3.078
  209SOL    HW1 1526   6.679   4.688   3.135
  209SOL    HW2 1527   6.544   4.638   3.058
  210SOL     OW 1528   4.619   3.347   0.313
  210SOL    HW1 1529   4.530   3.391   0.327
  210SOL    HW2 1530   4.654   3.314   0.400
  211SOL     OW 1531   1.473   1.247   2.021
  211SOL    HW1 1532   1.460   1.336   2.064
  211SOL    HW2 1533   1.490   1.259   1.924
  212SOL     OW 1534   1.882   3.908   1.693
  212SOL    HW1 1535   1.878   3.945   1.600
  212SOL    HW2 1536   1.801   3.851   1.709
  213SOL     OW 1537   1.178   4.870   1.158
  213SOL    HW1 1538   1.198   4.904   1.250
  213SOL    HW2 1539   1.084   4.892   1.134
  214SOL     OW 1540   5.716   6.987   2.217
  214SOL    HW1 1541   5.814   0.000   2.213
  214SOL    HW2 1542   5.673   0.001   2.130
  215SOL     OW 1543   2.235   5.184   2.773
  215SOL    HW1 1544   2.283   5.194   2.861
  215SOL    HW2 1545   2.216   5.087   2.757
  216SOL     OW 1546   1.579   6.365   3.135
  216SOL    HW1 1547   1.573   6.415   3.221
  216SOL    HW2 1548   1.575   6.430   3.059
  217SOL     OW 1549   1.112   4.860   5.485
  217SOL    HW1 1550   1.190   4.805   5.457
  217SOL    HW2 1551   1.030   4.828   5.438
  218SOL     OW 1552   2.623   2.030   5.455
  218SOL    HW1 1553   2.548   2.031   5.520
  218SOL    HW2 1554   2.641   1.935   5.426
  219SOL     OW 1555   4.239   2.257   1.491
  219SOL    HW1 1556   4.230   2.350   1.456
  219SOL    HW2 1557   4.149   2.221   1.515
  220SOL     OW 1558   3.102   6.498   1.218
  220SOL    HW1 1559   3.133   6.592   1.234
  220SOL    HW2 1560   3.014   6.484   1.262
  221SOL     OW 1561   5.190   4.776   1.906
  221SOL    HW1 1562   5.113   4.762   1.969
  221SOL    HW2 1563   5.194   4.700   1.841
  222SOL     OW 1564   1.765   4.580   6.578
  222SOL    HW1 1565   1.801   4.669   6.552
  222SOL    HW2 1566   1.731   4.583   6.672
  223SOL     OW 1567   6.491   2.705   4.965
  223SOL    HW1 1568   6.494   2.803   4.944
  223SOL    HW2 1569   6.516   2.690   5.060
  224SOL     OW 1570   3.473   2.182   5.711
  224SOL    HW1 1571   3.475   2.279   5.733
  224SOL    HW2 1572   3.409   2.135   5.772
  225SOL     OW 1573   4.027   6.390   6.492
  225SOL    HW1 1574   4.093   6.379   6.417
  225SOL    HW2 1575   4.076   6.413   6.576
  226SOL     OW 1576   1.572   2.688   6.772
  226SOL    HW1 1577   1.564   2.611   6.708
  226SOL    HW2 1578   1.623   2.762   6.729
  227SOL     OW 1579   1.735   3.690   1.139
  227SOL    HW1 1580   1.817   3.708   1.085
  227SOL    HW2 1581   1.736   3.745   1.222
  228SOL     OW 1582   0.756   0.546   2.025
  228SOL    HW1 1583   0.838   0.498   1.996
  228SOL    HW2 1584   0.736   0.525   2.120
  229SOL     OW 1585   3.688   6.980   6.175
  229SOL    HW1 1586   3.733   6.922   6.243
  229SOL    HW2 1587   3.595   6.946   6.158
  230SOL     OW 1588   5.365   5.436   5.460
  230SOL    HW1 1589   5.369   5.400   5.554
  230SOL    HW2 1590   5.433   5.390   5.404
  231SOL     OW 1591   5.399   1.588   6.656
  231SOL    HW1 1592   5.499   1.598   6.654
  231SOL    HW2 1593   5.376   1.496   6.687
  232SOL     OW 1594   1.206   1.787   5.886
  232SOL    HW1 1595   1.129   1.735   5.847
  232SOL    HW2 1596   1.172   1.874   5.923
  233SOL     OW 1597   3.458   1.801   2.943
  233SOL    HW1 1598   3.424   1.709   2.927
  233SOL    HW2 1599   3.486   1.810   3.039
  234SOL     OW 1600   5.360   0.654   0.860
  234SOL    HW1 1601   5.298   0.685   0.788
  234SOL    HW2 1602   5.309   0.599   0.926
  235SOL     OW 1603   4.808   2.940   2.733
  235SOL    HW1 1604   4.793   2.938   2.634
  235SOL    HW2 1605   4.859   2.859   2.761
  236SOL     OW 1606   4.043   3.844   6.183
  236SOL    HW1 1607   4.049   3.866   6.280
  236SOL    HW2 1608   3.957   3.882   6.146
  237SOL     OW 1609   6.172   3.450   2.654
  237SOL    HW1 1610   6.155   3.416   2.561
  237SOL    HW2 1611   6.170   3.374   2.718
  238SOL     OW 1612   5.999   2.080   0.631
  238SOL    HW1 1613   6.001   2.094   0.730
  238SOL    HW2 1614   5.906   2.057   0.602
  239SOL     OW 1615   1.019   3.429   0.289
  239SOL    HW1 1616   0.972   3.400   0.372
  239SOL    HW2 1617   1.079   3.356   0.256
  240SOL     OW 1618   4.910   3.444   4.025
  240SOL    HW1 1619   4.820   3.403   4.045
  240SOL    HW2 1620   4.923   3.448   3.926
  241SOL     OW 1621   2.663   2.004   4.432
  241SOL    HW1 1622   2.726   2.062   4.379
  241SOL    HW2 1623   2.649   1.918   4.383
  242SOL     OW 1624   3.801   3.577   2.482
  242SOL    HW1 1625   3.839   3.485   2.480
  242SOL    HW2 1626   3.811   3.615   2.574
  243SOL     OW 1627   3.964   2.622   6.599
  243SOL    HW1 1628   3.984   2.564   6.520
  243SOL    HW2 1629   4.019   2.705   6.594
  244SOL     OW 1630   4.856   3.483   4.710
  244SOL    HW1 1631   4.838   3.504   4.806
  244SOL    HW2 1632   4.781   3.429   4.673
  245SOL     OW 1633   3.355   1.158   3.180
  245SOL    HW1 1634   3.390   1.220   3.110
  245SOL    HW2 1635   3.404   1.070   3.175
  246SOL     OW 1636   6.379   1.169   2.069
  246SOL    HW1 1637   6.441   1.199   2.141
  246SOL    HW2 1638   6.325   1.247   2.038
  247SOL     OW 1639   1.643   1.577   1.957
  247SOL    HW1 1640   1.701   1.620   1.888
  247SOL    HW2 1641   1.562   1.633   1.973
  248SOL     OW 1642   2.846   3.183   1.800
  248SOL    HW1 1643   2.891   3.197   1.889
  248SOL    HW2 1644   2.871   3.092   1.765
  249SOL     OW 1645   4.825   6.573   4.895
  249SOL    HW1 1646   4.763   6.495   4.892
  249SOL    HW2 1647   4.808   6.626   4.979
  250SOL     OW 1648   4.472   2.410   0.228
  250SOL    HW1 1649   4.447   2.395   0.324
  250SOL    HW2 1650   4.391   2.437   0.177
  251SOL     OW 1651   3.791   4.774   5.251
  251SOL    HW1 1652   3.841   4.796   5.334
  251SOL    HW2 1653   3.746   4.685   5.262
  252SOL     OW 1654   6.305   6.558   5.382
  252SOL    HW1 1655   6.262   6.509   5.306
  252SOL    HW2 1656   6.390   6.600   5.351
  253SOL     OW 1657   4.256   6.384   6.250
  253SOL    HW1 1658   4.292   6.474   6.228
  253SOL    HW2 1659   4.188   6.357   6.181
  254SOL     OW 1660   6.298   2.160   5.627
  254SOL    HW1 1661   6.201   2.140   5.615
  254SOL    HW2 1662   6.309   2.239   5.688
  255SOL     OW 1663   0.853   4.214   6.828
  255SOL    HW1 1664   0.846   4.314   6.829
  255SOL    HW2 1665   0.922   4.184   6.893
  256SOL     OW 1666   5.351   2.614   4.877
  256SOL    HW1 1667   5.269   2.612   4.934
  256SOL    HW2 1668   5.430   2.638   4.933
  257SOL     OW 1669   4.752   6.605   2.355
  257SOL    HW1 1670   4.841   6.613   2.309
  257SOL    HW2 1671   4.702   6.527   2.318
  258SOL     OW 1672   1.728   3.174   6.201
  258SOL    HW1 1673   1.783   3.108   6.149
  258SOL    HW2 1674   1.788   3.246   6.236
  259SOL     OW 1675   3.607   6.893   3.748
  259SOL    HW1 1676   3.659   6.929   3.825
  259SOL    HW2 1677   3.519   6.939   3.742
  260SOL     OW 1678   4.103   5.359   3.154
  260SOL    HW1 1679   4.196   5.360   3.189
  260SOL    HW2 1680   4.066   5.453   3.155
  261SOL     OW 1681   4.366   5.209   0.037
  261SOL    HW1 1682   4.378   5.119   0.079
  261SOL    HW2 1683   4.297   5.203   6.976
  262SOL     OW 1684   0.890   4.646   6.559
  262SOL    HW1 1685   0.846   4.607   6.478
  262SOL    HW2 1686   0.922   4.571   6.618
  263SOL     OW 1687   0.787   6.813   4.021
  263SOL    HW1 1688   0.870   6.804   4.076
  263SOL    HW2 1689   0.707   6.816   4.082
  264SOL     OW 1690   6.464   3.569   6.539
  264SOL    HW1 1691   6.430   3.562   6.633
  264SOL    HW2 1692   6.516   3.654   6.530
  265SOL     OW 1693   0.044   0.314   3.282
  265SOL    HW1 1694   0.047   0.406   3.243
  265SOL    HW2 1695   0.105   0.310   3.361
  266SOL     OW 1696   3.422   1.030   5.971
  266SOL    HW1 1697   3.463   0.987   6.051
  266SOL    HW2 1698   3.425   1.130   5.982
  267SOL     OW 1699   2.032   0.330   3.581
  267SOL    HW1 1700   2.017   0.335   3.679
  267SOL    HW2 1701   1.944   0.315   3.535
  268SOL     OW 1702   3.165   2.622   1.072
  268SOL    HW1 1703   3.135   2.701   1.017
  268SOL    HW2 1704   3.197   2.654   1.161
  269SOL     OW 1705   4.535   2.063   0.268
  269SOL    HW1 1706   4.451   2.113   0.291
  269SOL    HW2 1707   4.511   1.970   0.240
  270SOL     OW 1708   5.737   0.837   6.941
  270SOL    HW1 1709   5.647   0.824   6.982
  270SOL    HW2 1710   5.727   0.843   6.841
  271SOL     OW 1711   0.434   3.785   6.478
  271SOL    HW1 1712   0.346   3.802   6.435
  271SOL    HW2 1713   0.497   3.746   6.412
  272SOL     OW 1714   3.450   5.808   3.079
  272SOL    HW1 1715   3.459   5.897   3.034
  272SOL    HW2 1716   3.480   5.815   3.174
  273SOL     OW 1717   1.865   4.826   6.111
  273SOL    HW1 1718   1.917   4.774   6.043
  273SOL    HW2 1719   1.800   4.885   6.063
  274SOL     OW 1720   5.204   2.212   3.652
  274SOL    HW1 1721   5.267   2.279   3.613
  274SOL    HW2 1722   5.141   2.181   3.581
  275SOL     OW 1723   6.179   6.669   1.318
  275SOL    HW1 1724   6.260   6.610   1.319
  275SOL    HW2 1725   6.103   6.623   1.365
  276SOL     OW 1726   0.987   0.709   4.759
  276SOL    HW1 1727   0.898   0.684   4.796
  276SOL    HW2 1728   1.005   0.654   4.677
  277SOL     OW 1729   2.045   4.250   0.713
  277SOL    HW1 1730   1.964   4.280   0.763
  277SOL    HW2 1731   2.027   4.163   0.667
  278SOL     OW 1732   0.840   3.216   2.671
  278SOL    HW1 1733   0.812   3.174   2.757
  278SOL    HW2 1734   0.852   3.314   2.684
  279SOL     OW 1735   6.606   1.147   3.721
  279SOL    HW1 1736   6.650   1.059   3.703
  279SOL    HW2 1737   6.548   1.172   3.644
  280SOL     OW 1738   1.668   4.793   2.462
  280SOL    HW1 1739   1.593   4.759   2.406
  280SOL    HW2 1740   1.706   4.875   2.420
  281SOL     OW 1741   2.487   4.848   1.263
  281SOL    HW1 1742   2.563   4.863   1.200
  281SOL    HW2 1743   2.497   4.758   1.307
  282SOL     OW 1744   2.780   1.599   6.037
  282SOL    HW1 1745   2.854   1.598   6.104
  282SOL    HW2 1746   2.776   1.511   5.990
  283SOL     OW 1747   3.484   2.418   5.897
  283SOL    HW1 1748   3.546   2.489   5.864
  283SOL    HW2 1749   3.534   2.356   5.958
  284SOL     OW 1750   0.701   3.645   3.928
  284SOL    HW1 1751   0.659   3.595   4.004
  284SOL    HW2 1752   0.663   3.737   3.924
  285SOL     OW 1753   4.994   5.324   4.242
  285SOL    HW1 1754   5.016   5.369   4.155
  285SOL    HW2 1755   4.912   5.269   4.231
  286SOL     OW 1756   2.876   3.651   0.273
  286SOL    HW1 1757   2.850   3.747   0.278
  286SOL    HW2 1758   2.857   3.607   0.361
  287SOL     OW 1759   1.434   2.655   0.402
  287SOL    HW1 1760   1.453   2.613   0.313
  287SOL    HW2 1761   1.335   2.650   0.420
  288SOL     OW 1762   4.704   3.462   0.891
  288SOL    HW1 1763   4.783   3.523   0.887
  288SOL    HW2 1764   4.730   3.376   0.935
  289SOL     OW 1765   3.933   5.552   6.427
  289SOL    HW1 1766   3.951   5.619   6.499
  289SOL    HW2 1767   3.840   5.565   6.392
  290SOL     OW 1768   1.675   1.449   4.713
  290SOL    HW1 1769   1.737   1.473   4.639
  290SOL    HW2 1770   1.604   1.388   4.678
  291SOL     OW 1771   6.249   2.346   2.783
  291SOL    HW1 1772   6.335   2.387   2.813
  291SOL    HW2 1773   6.262   2.249   2.765
  292SOL     OW 1774   3.072   0.249   3.968
  292SOL    HW1 1775   3.076   0.156   3.932
  292SOL    HW2 1776   3.139   0.260   4.041
  293SOL     OW 1777   3.648   4.903   3.567
  293SOL    HW1 1778   3.660   4.809   3.601
  293SOL    HW2 1779   3.701   4.966   3.623
  294SOL     OW 1780   4.704   0.767   0.738
  294SOL    HW1 1781   4.751   0.815   0.664
  294SOL    HW2 1782   4.743   0.676   0.749
  295SOL     OW 1783   6.043   6.673   3.288
  295SOL    HW1 1784   6.004   6.749   3.236
  295SOL    HW2 1785   6.080   6.707   3.375
  296SOL     OW 1786   2.387   2.098   3.664
  296SOL    HW1 1787   2.474   2.118   3.709
  296SOL    HW2 1788   2.347   2.182   3.628
  297SOL     OW 1789   1.492   5.181   2.360
  297SOL    HW1 1790   1.453   5.132   2.438
  297SOL    HW2 1791   1.433   5.167   2.280
  298SOL     OW 1792   6.542   4.474   0.874
  298SOL    HW1 1793   6.563   4.563   0.914
  298SOL    HW2 1794   6.597   4.460   0.792
  299SOL     OW 1795   5.896   2.385   4.296
  299SOL    HW1 1796   5.970   2.448   4.322
  299SOL    HW2 1797   5.809   2.433   4.302
  300SOL     OW 1798   6.696   6.853   2.055
  300SOL    HW1 1799   6.709   6.939   2.103
  300SOL    HW2 1800   6.598   6.833   2.047
  301SOL     OW 1801   4.586   2.545   5.448
  301SOL    HW1 1802   4.545   2.567   5.359
  301SOL    HW2 1803   4.652   2.616   5.472
  302SOL     OW 1804   0.820   5.585   4.012
  302SOL    HW1 1805   0.825   5.685   4.015
  302SOL    HW2 1806   0.729   5.556   4.040
  303SOL     OW 1807   6.251   6.913   2.948
  303SOL    HW1 1808   6.174   6.943   2.893
  303SOL    HW2 1809   6.239   6.817   2.973
  304SOL     OW 1810   3.769   0.150   3.176
  304SOL    HW1 1811   3.774   0.061   3.221
  304SOL    HW2 1812   3.833   0.152   3.099
  305SOL     OW 1813   1.526   4.695   1.307
  305SOL    HW1 1814   1.531   4.764   1.380
  305SOL    HW2 1815   1.509   4.605   1.348
  306SOL     OW 1816   2.036   0.622   3.536
  306SOL    HW1 1817   1.950   0.615   3.587
  306SOL    HW2 1818   2.082   0.533   3.535
  307SOL     OW 1819   3.336   0.267   1.717
  307SOL    HW1 1820   3.240   0.259   1.688
  307SOL    HW2 1821   3.364   0.184   1.764
  308SOL     OW 1822   0.896   4.521   3.807
  308SOL    HW1 1823   0.978   4.573   3.783
  308SOL    HW2 1824   0.922   4.430   3.838
  309SOL     OW 1825   3.349   4.846   5.192
  309SOL    HW1 1826   3.317   4.875   5.101
  309SOL    HW2 1827   3.286   4.778   5.229
  310SOL     OW 1828   1.473   5.530   6.071
  310SOL    HW1 1829   1.432   5.446   6.107
  310SOL    HW2 1830   1.569   5.534   6.101
  311SOL     OW 1831   6.978   0.872   1.349
  311SOL    HW1 1832   6.988   0.823   1.262
  311SOL    HW2 1833   0.057   0.881   1.392
  312SOL     OW 1834   3.771   1.299   5.872
  312SOL    HW1 1835   3.783   1.278   5.775
  312SOL    HW2 1836   3.855   1.337   5.908
  313SOL     OW 1837   0.237   4.539   0.723
  313SOL    HW1 1838   0.318   4.501   0.766
  313SOL    HW2 1839   0.155   4.508   0.772
  314SOL     OW 1840   3.240   6.008   1.629
  314SOL    HW1 1841   3.249   6.014   1.529
  314SOL    HW2 1842   3.200   6.092   1.664
  315SOL     OW 1843   1.090   3.770   2.888
  315SOL    HW1 1844   1.071   3.867   2.873
  315SOL    HW2 1845   1.035   3.715   2.825
  316SOL     OW 1846   1.979   3.188   4.846
  316SOL    HW1 1847   1.910   3.199   4.775
  316SOL    HW2 1848   2.036   3.108   4.824
  317SOL     OW 1849   6.469   1.363   0.209
  317SOL    HW1 1850   6.449   1.450   0.254
  317SOL    HW2 1851   6.556   1.371   0.160
  318SOL     OW 1852   2.666   4.392   1.164
  318SOL    HW1 1853   2.690   4.467   1.227
  318SOL    HW2 1854   2.691   4.305   1.206
  319SOL     OW 1855   1.569   0.115   6.488
  319SOL    HW1 1856   1.536   0.193   6.435
  319SOL    HW2 1857   1.667   0.128   6.508
  320SOL     OW 1858   5.727   3.301   0.604
  320SOL    HW1 1859   5.799   3.364   0.635
  320SOL    HW2 1860   5.642   3.322   0.651
  321SOL     OW 1861   2.103   1.355   2.331
  321SOL    HW1 1862   2.121   1.422   2.258
  321SOL    HW2 1863   2.191   1.324   2.369
  322SOL     OW 1864   3.407   2.538   5.555
  322SOL    HW1 1865   3.447   2.567   5.642
  322SOL    HW2 1866   3.308   2.530   5.564
  323SOL     OW 1867   0.486   4.462   1.779
  323SOL    HW1 1868   0.565   4.470   1.718
  323SOL    HW2 1869   0.515   4.476   1.874
  324SOL     OW 1870   0.555   2.720   4.364
  324SOL    HW1 1871   0.550   2.664   4.281
  324SOL    HW2 1872   0.597   2.667   4.437
  325SOL     OW 1873   2.319   1.760   3.082
  325SOL    HW1 1874   2.369   1.846   3.079
  325SOL    HW2 1875   2.321   1.718   2.991
  326SOL     OW 1876   1.627   4.081   4.902
  326SOL    HW1 1877   1.532   4.087   4.874
  326SOL    HW2 1878   1.633   4.031   4.988
  327SOL     OW 1879   5.953   4.350   6.292
  327SOL    HW1 1880   6.045   4.363   6.255
  327SOL    HW2 1881   5.954   4.364   6.391
  328SOL     OW 1882   4.018   5.706   2.644
  328SOL    HW1 1883   4.043   5.640   2.573
  328SOL    HW2 1884   3.989   5.657   2.726
  329SOL     OW 1885   3.622   4.110   2.531
  329SOL    HW1 1886   3.695   4.147   2.475
  329SOL    HW2 1887   3.660   4.075   2.617
  330SOL     OW 1888   2.531   1.950   1.987
  330SOL    HW1 1889   2.602   2.020   1.990
  330SOL    HW2 1890   2.446   1.987   2.026
  331SOL     OW 1891   5.950   4.378   5.475
  331SOL    HW1 1892   5.879   4.437   5.436
  331SOL    HW2 1893   5.998   4.331   5.401
  332SOL     OW 1894   4.245   1.944   3.229
  332SOL    HW1 1895   4.337   1.905   3.221
  332SOL    HW2 1896   4.177   1.872   3.214
  333SOL     OW 1897   4.555   6.245   0.488
  333SOL    HW1 1898   4.628   6.183   0.460
  333SOL    HW2 1899   4.555   6.254   0.587
  334SOL     OW 1900   4.960   6.530   2.905
  334SOL    HW1 1901   4.905   6.583   2.970
  334SOL    HW2 1902   4.900   6.489   2.836
  335SOL     OW 1903   3.240   0.012   2.826
  335SOL    HW1 1904   3.280   0.091   2.872
  335SOL    HW2 1905   3.263   0.014   2.729
  336SOL     OW 1906   3.338   0.338   4.501
  336SOL    HW1 1907   3.393   0.397   4.560
  336SOL    HW2 1908   3.303   0.391   4.424
  337SOL     OW 1909   0.161   4.412   2.178
  337SOL    HW1 1910   0.079   4.427   2.233
  337SOL    HW2 1911   0.156   4.321   2.136
  338SOL     OW 1912   2.419   2.220   1.586
  338SOL    HW1 1913   2.443   2.205   1.490
  338SOL    HW2 1914   2.351   2.153   1.615
  339SOL     OW 1915   4.461   1.415   3.214
  339SOL    HW1 1916   4.460   1.342   3.146
  339SOL    HW2 1917   4.477   1.376   3.305
  340SOL     OW 1918   4.821   4.037   4.639
  340SOL    HW1 1919   4.752   3.965   4.644
  340SOL    HW2 1920   4.820   4.078   4.548
  341SOL     OW 1921   4.418   4.709   5.477
  341SOL    HW1 1922   4.516   4.708   5.455
  341SOL    HW2 1923   4.401   4.654   5.558
  342SOL     OW 1924   5.784   3.957   0.241
  342SOL    HW1 1925   5.855   3.886   0.238
  342SOL    HW2 1926   5.695   3.915   0.222
  343SOL     OW 1927   2.392   0.914   2.356
  343SOL    HW1 1928   2.413   1.012   2.360
  343SOL    HW2 1929   2.347   0.886   2.441
  344SOL     OW 1930   4.207   6.420   0.501
  344SOL    HW1 1931   4.284   6.394   0.443
  344SOL    HW2 1932   4.196   6.352   0.574
  345SOL     OW 1933   1.564   1.305   5.630
  345SOL    HW1 1934   1.579   1.240   5.555
  345SOL    HW2 1935   1.570   1.398   5.595
  346SOL     OW 1936   3.534   0.829   4.801
  346SOL    HW1 1937   3.506   0.751   4.857
  346SOL    HW2 1938   3.583   0.895   4.858
  347SOL     OW 1939   4.635   6.461   5.822
  347SOL    HW1 1940   4.563   6.403   5.860
  347SOL    HW2 1941   4.641   6.445   5.723
  348SOL     OW 1942   2.463   6.249   2.584
  348SOL    HW1 1943   2.368   6.266   2.558
  348SOL    HW2 1944   2.497   6.325   2.639
  349SOL     OW 1945   2.952   5.093   2.419
  349SOL    HW1 1946   2.979   5.007   2.376
  349SOL    HW2 1947   3.011   5.167   2.386
  350SOL     OW 1948   4.539   3.261   0.829
  350SOL    HW1 1949   4.546   3.226   0.922
  350SOL    HW2 1950   4.612   3.328   0.813
  351SOL     OW 1951   3.200   1.670   0.774
  351SOL    HW1 1952   3.192   1.644   0.678
  351SOL    HW2 1953   3.190   1.769   0.782
  352SOL     OW 1954   3.063   2.197   6.093
  352SOL    HW1 1955   3.133   2.249   6.044
  352SOL    HW2 1956   3.091   2.188   6.189
  353SOL     OW 1957   1.945   0.029   1.392
  353SOL    HW1 1958   2.042   0.056   1.386
  353SOL    HW2 1959   1.909   0.056   1.481
  354SOL     OW 1960   5.024   0.194   2.518
  354SOL    HW1 1961   4.972   0.133   2.458
  354SOL    HW2 1962   4.977   0.282   2.524
  355SOL     OW 1963   1.136   1.250   2.095
  355SOL    HW1 1964   1.199   1.284   2.026
  355SOL    HW2 1965   1.184   1.243   2.183
  356SOL     OW 1966   3.336   0.231   2.915
  356SOL    HW1 1967   3.390   0.229   3.000
  356SOL    HW2 1968   3.327   0.325   2.883
  357SOL     OW 1969   1.306   4.756   5.317
  357SOL    HW1 1970   1.308   4.659   5.340
  357SOL    HW2 1971   1.239   4.772   5.244
  358SOL     OW 1972   4.847   0.975   3.030
  358SOL    HW1 1973   4.790   0.940   2.955
  358SOL    HW2 1974   4.933   1.010   2.992
  359SOL     OW 1975   0.303   1.616   0.518
  359SOL    HW1 1976   0.338   1.644   0.607
  359SOL    HW2 1977   0.256   1.693   0.474
  360SOL     OW 1978   4.929   0.147   0.271
  360SOL    HW1 1979   4.971   0.136   0.361
  360SOL    HW2 1980   4.974   0.085   0.206
  361SOL     OW 1981   3.523   0.661   2.657
  361SOL    HW1 1982   3.453   0.690   2.591
  361SOL    HW2 1983   3.614   0.678   2.619
  362SOL     OW 1984   2.915   4.090   1.081
  362SOL    HW1 1985   2.862   4.141   1.150
  362SOL    HW2 1986   2.863   4.010   1.053
  363SOL     OW 1987   4.581   4.653   3.500
  363SOL    HW1 1988   4.568   4.630   3.596
  363SOL    HW2 1989   4.513   4.721   3.473
  364SOL     OW 1990   2.335   5.712   6.365
  364SOL    HW1 1991   2.423   5.734   6.408
  364SOL    HW2 1992   2.351   5.681   6.271
  365SOL     OW 1993   4.496   0.104   3.085
  365SOL    HW1 1994   4.518   0.131   3.179
  365SOL    HW2 1995   4.414   0.046   3.086
  366SOL     OW 1996   5.186   1.452   0.554
  366SOL    HW1 1997   5.260   1.487   0.611
  366SOL    HW2 1998   5.131   1.387   0.607
  367SOL     OW 1999   4.818   2.099   2.452
  367SOL    HW1 2000   4.852   2.016   2.408
  367SOL    HW2 2001   4.786   2.163   2.382
  368SOL     OW 2002   0.662   5.004   5.542
  368SOL    HW1 2003   0.711   5.067   5.602
  368SOL    HW2 2004   0.586   5.052   5.498
  369SOL     OW 2005   0.765   3.550   1.945
  369SOL    HW1 2006   0.810   3.573   2.031
  369SOL    HW2 2007   0.780   3.453   1.924
  370SOL     OW 2008   3.822   1.633   6.690
  370SOL    HW1 2009   3.887   1.695   6.734
  370SOL    HW2 2010   3.729   1.662   6.713
  371SOL     OW 2011   3.663   2.907   6.507
  371SOL    HW1 2012   3.564   2.903   6.514
  371SOL    HW2 2013   3.689   2.950   6.420
  372SOL     OW 2014   2.056   5.403   0.371
  372SOL    HW1 2015   2.067   5.305   0.354
  372SOL    HW2 2016   2.124   5.434   0.437
  373SOL     OW 2017   6.321   6.905   6.137
  373SOL    HW1 2018   6.282   6.894   6.228
  373SOL    HW2 2019   6.421   6.914   6.144
  374SOL     OW 2020   4.613   0.648   1.307
  374SOL    HW1 2021   4.613   0.647   1.207
  374SOL    HW2 2022   4.697   0.607   1.342
  375SOL     OW 2023   6.755   4.369   1.055
  375SOL    HW1 2024   6.774   4.404   1.146
  375SOL    HW2 2025   6.736   4.445   0.992
  376SOL     OW 2026   2.066   3.914   4.987
  376SOL    HW1 2027   2.008   3.926   5.067
  376SOL    HW2 2028   2.150   3.967   4.999
  377SOL     OW 2029   5.049   1.265   4.489
  377SOL    HW1 2030   5.143   1.237   4.508
  377SOL    HW2 2031   5.048   1.331   4.414
  378SOL     OW 2032   5.546   2.363   5.195
  378SOL    HW1 2033   5.506   2.404   5.277
  378SOL    HW2 2034   5.574   2.436   5.132
  379SOL     OW 2035   6.279   2.521   1.409
  379SOL    HW1 2036   6.304   2.577   1.489
  379SOL    HW2 2037   6.359   2.509   1.351
  380SOL     OW 2038   1.159   2.108   0.412
  380SOL    HW1 2039   1.187   2.199   0.384
  380SOL    HW2 2040   1.181   2.042   0.340
  381SOL     OW 2041   4.623   5.329   0.070
  381SOL    HW1 2042   4.689   5.257   0.049
  381SOL    HW2 2043   4.530   5.294   0.062
  382SOL     OW 2044   2.615   5.119   6.950
  382SOL    HW1 2045   2.541   5.078   7.003
  382SOL    HW2 2046   2.580   5.197   6.897
  383SOL     OW 2047   6.417   1.588   0.312
  383SOL    HW1 2048   6.501   1.640   0.298
  383SOL    HW2 2049   6.340   1.651   0.324
  384SOL     OW 2050   0.939   5.522   5.096
  384SOL    HW1 2051   0.913   5.614   5.068
  384SOL    HW2 2052   1.024   5.496   5.050
  385SOL     OW 2053   4.484   5.432   1.642
  385SOL    HW1 2054   4.542   5.484   1.580
  385SOL    HW2 2055   4.390   5.433   1.609
  386SOL     OW 2056   2.491   5.995   4.239
  386SOL    HW1 2057   2.459   6.050   4.316
  386SOL    HW2 2058   2.418   5.984   4.172
  387SOL     OW 2059   6.888   0.369   5.776
  387SOL    HW1 2060   6.973   0.320   5.797
  387SOL    HW2 2061   6.872   0.367   5.677
  388SOL     OW 2062   0.229   1.523   4.448
  388SOL    HW1 2063   0.196   1.509   4.354
  388SOL    HW2 2064   0.295   1.598   4.449
  389SOL     OW 2065   4.869   3.971   2.105
  389SOL    HW1 2066   4.872   3.901   2.177
  389SOL    HW2 2067   4.792   4.033   2.121
  390SOL     OW 2068   3.708   2.623   0.505
  390SOL    HW1 2069   3.608   2.613   0.506
  390SOL    HW2 2070   3.732   2.716   0.478
  391SOL     OW 2071   4.043   3.826   3.864
  391SOL    HW1 2072   4.108   3.773   3.918
  391SOL    HW2 2073   3.981   3.875   3.926
  392SOL     OW 2074   1.876   4.038   1.423
  392SOL    HW1 2075   1.841   4.055   1.331
  392SOL    HW2 2076   1.965   4.083   1.433
  393SOL     OW 2077   1.192   5.821   1.449
  393SOL    HW1 2078   1.193   5.791   1.354
  393SOL    HW2 2079   1.282   5.807   1.490
  394SOL     OW 2080   6.165   1.065   6.062
  394SOL    HW1 2081   6.077   1.019   6.076
  394SOL    HW2 2082   6.149   1.158   6.030
  395SOL     OW 2083   6.060   4.654   6.694
  395SOL    HW1 2084   6.062   4.753   6.700
  395SOL    HW2 2085   6.131   4.622   6.631
  396SOL     OW 2086   0.525   1.012   1.358
  396SOL    HW1 2087   0.528   1.076   1.435
  396SOL    HW2 2088   0.615   1.005   1.316
  397SOL     OW 2089   4.716   2.179   4.780
  397SOL    HW1 2090   4.765   2.092   4.786
  397SOL    HW2 2091   4.771   2.245   4.729
  398SOL     OW 2092   6.973   1.487   2.940
  398SOL    HW1 2093   6.924   1.574   2.950
  398SOL    HW2 2094   7.001   1.454   3.031
  399SOL     OW 2095   5.774   5.916   3.125
  399SOL    HW1 2096   5.871   5.936   3.108
  399SOL    HW2 2097   5.740   5.975   3.199
  400SOL     OW 2098   0.171   6.346   3.053
  400SOL    HW1 2099   0.082   6.368   3.094
  400SOL    HW2 2100   0.243   6.356   3.122
  401SOL     OW 2101   1.158   5.997   4.830
  401SOL    HW1 2102   1.118   6.034   4.914
  401SOL    HW2 2103   1.136   5.900   4.823
  402SOL     OW 2104   5.883   0.958   3.722
  402SOL    HW1 2105   5.893   0.858   3.722
  402SOL    HW2 2106   5.937   0.997   3.796
  403SOL     OW 2107   2.702   1.797   5.038
  403SOL    HW1 2108   2.726   1.881   5.085
  403SOL    HW2 2109   2.780   1.734   5.039
  404SOL     OW 2110   2.964   5.083   3.420
  404SOL    HW1 2111   2.905   5.153   3.379
  404SOL    HW2 2112   2.945   5.077   3.518
  405SOL     OW 2113   2.941   4.946   3.868
  405SOL    HW1 2114   2.892   4.883   3.928
  405SOL    HW2 2115   3.039   4.925   3.872
  406SOL     OW 2116   0.467   6.856   6.220
  406SOL    HW1 2117   0.519   6.830   6.139
  406SOL    HW2 2118   0.487   6.792   6.295
  407SOL     OW 2119   1.859   3.832   4.270
  407SOL    HW1 2120   1.852   3.932   4.275
  407SOL    HW2 2121   1.830   3.792   4.357
  408SOL     OW 2122   2.692   2.314   2.265
  408SOL    HW1 2123   2.727   2.355   2.180
  408SOL    HW2 2124   2.712   2.216   2.266
  409SOL     OW 2125   0.375   2.702   2.257
  409SOL    HW1 2126   0.386   2.690   2.355
  409SOL    HW2 2127   0.372   2.612   2.213
  410SOL     OW 2128   1.867   3.096   1.699
  410SOL    HW1 2129   1.885   3.060   1.791
  410SOL    HW2 2130   1.954   3.119   1.655
  411SOL     OW 2131   6.867   1.781   1.015
  411SOL    HW1 2132   6.942   1.839   1.047
  411SOL    HW2 2133   6.898   1.686   1.008
  412SOL     OW 2134   1.724   4.691   2.857
  412SOL    HW1 2135   1.719   4.655   2.950
  412SOL    HW2 2136   1.650   4.653   2.802
  413SOL     OW 2137   6.349   4.955   2.299
  413SOL    HW1 2138   6.415   4.952   2.374
  413SOL    HW2 2139   6.381   5.019   2.229
  414SOL     OW 2140   2.348   7.000   3.259
  414SOL    HW1 2141   2.359   0.077   3.306
  414SOL    HW2 2142   2.367   0.002   3.162
  415SOL     OW 2143   5.652   2.875   0.191
  415SOL    HW1 2144   5.641   2.794   0.134
  415SOL    HW2 2145   5.697   2.850   0.277
  416SOL     OW 2146   6.004   3.489   6.632
  416SOL    HW1 2147   5.929   3.540   6.590
  416SOL    HW2 2148   6.088   3.543   6.629
  417SOL     OW 2149   2.353   2.661   5.412
  417SOL    HW1 2150   2.364   2.759   5.432
  417SOL    HW2 2151   2.425   2.610   5.460
  418SOL     OW 2152   3.865   5.997   6.547
  418SOL    HW1 2153   3.794   6.066   6.559
  418SOL    HW2 2154   3.954   6.034   6.574
  419SOL     OW 2155   5.748   0.329   0.219
  419SOL    HW1 2156   5.841   0.320   0.186
  419SOL    HW2 2157   5.721   0.425   0.219
  420SOL     OW 2158   3.441   6.718   1.013
  420SOL    HW1 2159   3.371   6.648   1.000
  420SOL    HW2 2160   3.528   6.674   1.038
  421SOL     OW 2161   4.978   4.111   3.090
  421SOL    HW1 2162   4.915   4.113   3.012
  421SOL    HW2 2163   4.997   4.204   3.121
  422SOL     OW 2164   4.081   1.770   2.062
  422SOL    HW1 2165   4.130   1.734   1.983
  422SOL    HW2 2166   4.066   1.868   2.049
  423SOL     OW 2167   3.522   1.473   6.223
  423SOL    HW1 2168   3.611   1.503   6.258
  423SOL    HW2 2169   3.460   1.457   6.299
  424SOL     OW 2170   1.546   3.621   4.943
  424SOL    HW1 2171   1.584   3.586   4.857
  424SOL    HW2 2172   1.525   3.544   5.004
  425SOL     OW 2173   3.365   1.761   0.419
  425SOL    HW1 2174   3.369   1.662   0.409
  425SOL    HW2 2175   3.270   1.790   0.435
  426SOL     OW 2176   2.241   2.500   3.804
  426SOL    HW1 2177   2.151   2.457   3.812
  426SOL    HW2 2178   2.293   2.455   3.732
  427SOL     OW 2179   4.318   1.392   4.372
  427SOL    HW1 2180   4.342   1.426   4.281
  427SOL    HW2 2181   4.367   1.444   4.441
  428SOL     OW 2182   2.457   2.280   6.126
  428SOL    HW1 2183   2.406   2.221   6.063
  428SOL    HW2 2184   2.448   2.375   6.097
  429SOL     OW 2185   6.929   6.382   3.157
  429SOL    HW1 2186   6.893   6.361   3.067
  429SOL    HW2 2187   6.900   6.474   3.184
  430SOL     OW 2188   2.380   1.653   3.689
  430SOL    HW1 2189   2.299   1.640   3.746
  430SOL    HW2 2190   2.396   1.751   3.676
  431SOL     OW 2191   2.776   1.170   1.755
  431SOL    HW1 2192   2.708   1.145   1.687
  431SOL    HW2 2193   2.851   1.104   1.753
  432SOL     OW 2194   4.968   1.878   1.283
  432SOL    HW1 2195   4.946   1.903   1.189
  432SOL    HW2 2196   5.037   1.941   1.319
  433SOL     OW 2197   2.309   4.613   0.342
  433SOL    HW1 2198   2.331   4.537   0.281
  433SOL    HW2 2199   2.294   4.577   0.435
  434SOL     OW 2200   3.834   5.572   2.415
  434SOL    HW1 2201   3.889   5.656   2.419
  434SOL    HW2 2202   3.896   5.493   2.405
  435SOL     OW 2203   2.879   2.522   6.562
  435SOL    HW1 2204   2.966   2.523   6.513
  435SOL    HW2 2205   2.867   2.609   6.610
  436SOL     OW 2206   5.036   6.731   2.628
  436SOL    HW1 2207   5.096   6.673   2.683
  436SOL    HW2 2208   5.066   6.728   2.532
  437SOL     OW 2209   6.826   0.807   5.539
  437SOL    HW1 2210   6.854   0.823   5.634
  437SOL    HW2 2211   6.734   0.766   5.538
  438SOL     OW 2212   0.740   3.842   2.328
  438SOL    HW1 2213   0.829   3.797   2.333
  438SOL    HW2 2214   0.682   3.794   2.261
  439SOL     OW 2215   0.320   0.691   6.130
  439SOL    HW1 2216   0.340   0.788   6.144
  439SOL    HW2 2217   0.391   0.635   6.173
  440SOL     OW 2218   3.520   1.681   1.272
  440SOL    HW1 2219   3.548   1.717   1.183
  440SOL    HW2 2220   3.423   1.657   1.268
  441SOL     OW 2221   0.896   4.377   2.520
  441SOL    HW1 2222   0.860   4.368   2.427
  441SOL    HW2 2223   0.868   4.298   2.574
  442SOL     OW 2224   3.168   2.976   4.519
  442SOL    HW1 2225   3.081   2.937   4.548
  442SOL    HW2 2226   3.155   3.073   4.496
  443SOL     OW 2227   4.681   2.554   3.071
  443SOL    HW1 2228   4.775   2.519   3.073
  443SOL    HW2 2229   4.680   2.649   3.102
  444SOL     OW 2230   3.904   2.383   1.341
  444SOL    HW1 2231   3.877   2.476   1.315
  444SOL    HW2 2232   3.875   2.365   1.435
  445SOL     OW 2233   2.507   5.490   3.547
  445SOL    HW1 2234   2.555   5.566   3.504
  445SOL    HW2 2235   2.489   5.513   3.643
  446SOL     OW 2236   6.675   6.997   0.868
  446SOL    HW1 2237   6.771   6.968   0.872
  446SOL    HW2 2238   6.650   0.004   0.772
  447SOL     OW 2239   6.129   3.447   7.004
  447SOL    HW1 2240   6.154   3.533   6.959
  447SOL    HW2 2241   6.087   3.386   6.937
  448SOL     OW 2242   3.391   6.314   4.060
  448SOL    HW1 2243   3.461   6.333   3.992
  448SOL    HW2 2244   3.424   6.244   4.124
  449SOL     OW 2245   0.663   4.069   4.585
  449SOL    HW1 2246   0.670   3.978   4.544
  449SOL    HW2 2247   0.634   4.060   4.681
  450SOL     OW 2248   6.581   3.632   3.111
  450SOL    HW1 2249   6.628   3.620   3.198
  450SOL    HW2 2250   6.521   3.712   3.116
  451SOL     OW 2251   2.434   1.749   6.836
  451SOL    HW1 2252   2.501   1.796   6.779
  451SOL    HW2 2253   2.342   1.769   6.803
  452SOL     OW 2254   3.998   5.624   1.550
  452SOL    HW1 2255   3.912   5.579   1.527
  452SOL    HW2 2256   4.020   5.607   1.646
  453SOL     OW 2257   4.569   0.762   6.944
  453SOL    HW1 2258   4.633   0.774   6.868
  453SOL    HW2 2259   4.479   0.740   6.908
  454SOL     OW 2260   0.088   3.166   3.838
  454SOL    HW1 2261   7.007   3.128   3.854
  454SOL    HW2 2262   0.124   3.128   3.752
  455SOL     OW 2263   5.793   5.259   0.138
  455SOL    HW1 2264   5.851   5.341   0.137
  455SOL    HW2 2265   5.771   5.235   0.232
  456SOL     OW 2266   1.908   0.728   3.047
  456SOL    HW1 2267   1.860   0.697   2.965
  456SOL    HW2 2268   1.855   0.800   3.092
  457SOL     OW 2269   3.134   5.559   0.134
  457SOL    HW1 2270   3.166   5.618   0.208
  457SOL    HW2 2271   3.079   5.484   0.172
  458SOL     OW 2272   3.083   1.023   3.914
  458SOL    HW1 2273   3.038   0.934   3.926
  458SOL    HW2 2274   3.046   1.088   3.980
  459SOL     OW 2275   2.812   1.014   3.403
  459SOL    HW1 2276   2.890   0.950   3.398
  459SOL    HW2 2277   2.846   1.108   3.405
  460SOL     OW 2278   0.857   1.742   6.861
  460SOL    HW1 2279   0.926   1.815   6.864
  460SOL    HW2 2280   0.806   1.748   6.776
  461SOL     OW 2281   1.323   6.870   5.250
  461SOL    HW1 2282   1.413   6.845   5.214
  461SOL    HW2 2283   1.279   6.788   5.287
  462SOL     OW 2284   3.509   4.165   5.015
  462SOL    HW1 2285   3.477   4.180   4.922
  462SOL    HW2 2286   3.502   4.068   5.038
  463SOL     OW 2287   5.234   6.563   2.805
  463SOL    HW1 2288   5.314   6.529   2.854
  463SOL    HW2 2289   5.151   6.524   2.845
  464SOL     OW 2290   4.523   6.234   4.931
  464SOL    HW1 2291   4.520   6.324   4.887
  464SOL    HW2 2292   4.456   6.232   5.005
  465SOL     OW 2293   0.341   5.122   0.627
  465SOL    HW1 2294   0.387   5.123   0.716
  465SOL    HW2 2295   0.393   5.065   0.563
  466SOL     OW 2296   3.600   5.020   4.187
  466SOL    HW1 2297   3.540   5.090   4.226
  466SOL    HW2 2298   3.625   5.046   4.093
  467SOL     OW 2299   6.491   6.990   1.571
  467SOL    HW1 2300   6.412   6.928   1.563
  467SOL    HW2 2301   6.574   6.941   1.548
  468SOL     OW 2302   2.677   5.920   6.444
  468SOL    HW1 2303   2.759   5.960   6.404
  468SOL    HW2 2304   2.644   5.979   6.518
  469SOL     OW 2305   3.465   4.671   5.469
  469SOL    HW1 2306   3.407   4.590   5.475
  469SOL    HW2 2307   3.408   4.751   5.449
  470SOL     OW 2308   2.170   5.119   2.065
  470SOL    HW1 2309   2.233   5.065   2.120
  470SOL    HW2 2310   2.078   5.081   2.073
  471SOL     OW 2311   1.239   1.754   4.225
  471SOL    HW1 2312   1.253   1.834   4.283
  471SOL    HW2 2313   1.145   1.755   4.190
  472SOL     OW 2314   5.188   4.251   5.920
  472SOL    HW1 2315   5.106   4.289   5.877
  472SOL    HW2 2316   5.162   4.177   5.982
  473SOL     OW 2317   5.440   3.217   1.878
  473SOL    HW1 2318   5.341   3.227   1.863
  473SOL    HW2 2319   5.483   3.307   1.875
  474SOL     OW 2320   5.052   5.350   3.394
  474SOL    HW1 2321   5.049   5.400   3.480
  474SOL    HW2 2322   4.988   5.273   3.397
  475SOL     OW 2323   4.475   1.395   0.307
  475SOL    HW1 2324   4.545   1.329   0.278
  475SOL    HW2 2325   4.466   1.467   0.238
  476SOL     OW 2326   1.140   3.002   0.437
  476SOL    HW1 2327   1.070   3.047   0.382
  476SOL    HW2 2328   1.188   2.935   0.380
  477SOL     OW 2329   6.480   5.677   2.864
  477SOL    HW1 2330   6.411   5.748   2.877
  477SOL    HW2 2331   6.473   5.610   2.938
  478SOL     OW 2332   6.393   5.098   2.559
  478SOL    HW1 2333   6.418   5.173   2.498
  478SOL    HW2 2334   6.461   5.092   2.633
  479SOL     OW 2335   3.598   3.661   2.687
  479SOL    HW1 2336   3.693   3.652   2.718
  479SOL    HW2 2337   3.542   3.698   2.761
  480SOL     OW 2338   0.493   0.810   1.773
  480SOL    HW1 2339   0.564   0.750   1.809
  480SOL    HW2 2340   0.464   0.777   1.682
  481SOL     OW 2341   6.162   5.911   0.817
  481SOL    HW1 2342   6.118   5.923   0.906
  481SOL    HW2 2343   6.161   5.814   0.792
  482SOL     OW 2344   3.908   4.966   2.491
  482SOL    HW1 2345   3.809   4.958   2.487
  482SOL    HW2 2346   3.948   4.929   2.407
  483SOL     OW 2347   6.473   0.955   4.601
  483SOL    HW1 2348   6.422   0.877   4.636
  483SOL    HW2 2349   6.423   1.039   4.621
  484SOL     OW 2350   2.527   4.840   3.468
  484SOL    HW1 2351   2.466   4.878   3.397
  484SOL    HW2 2352   2.564   4.915   3.523
  485SOL     OW 2353   4.603   2.534   0.656
  485SOL    HW1 2354   4.685   2.589   0.637
  485SOL    HW2 2355   4.610   2.447   0.608
  486SOL     OW 2356   5.960   6.172   5.275
  486SOL    HW1 2357   5.905   6.105   5.325
  486SOL    HW2 2358   5.913   6.197   5.190
  487SOL     OW 2359   6.937   0.772   6.945
  487SOL    HW1 2360   6.925   0.822   0.020
  487SOL    HW2 2361   6.984   0.686   6.963
  488SOL     OW 2362   1.909   5.975   3.305
  488SOL    HW1 2363   1.834   6.018   3.255
  488SOL    HW2 2364   1.887   5.972   3.403
  489SOL     OW 2365   2.743   4.653   5.358
  489SOL    HW1 2366   2.697   4.732   5.316
  489SOL    HW2 2367   2.785   4.597   5.287
  490SOL     OW 2368   1.433   3.270   5.383
  490SOL    HW1 2369   1.390   3.342   5.437
  490SOL    HW2 2370   1.516   3.305   5.340
  491SOL     OW 2371   6.023   3.699   1.058
  491SOL    HW1 2372   5.970   3.615   1.064
  491SOL    HW2 2373   6.098   3.696   1.124
  492SOL     OW 2374   1.224   2.689   5.673
  492SOL    HW1 2375   1.266   2.661   5.586
  492SOL    HW2 2376   1.296   2.711   5.739
  493SOL     OW 2377   1.454   5.659   3.625
  493SOL    HW1 2378   1.551   5.676   3.638
  493SOL    HW2 2379   1.402   5.743   3.645
  494SOL     OW 2380   2.667   0.363   3.261
  494SOL    HW1 2381   2.624   0.452   3.280
  494SOL    HW2 2382   2.638   0.297   3.331
  495SOL     OW 2383   3.938   4.667   0.076
  495SOL    HW1 2384   3.842   4.681   0.099
  495SOL    HW2 2385   3.993   4.666   0.159
  496SOL     OW 2386   4.939   0.946   3.289
  496SOL    HW1 2387   4.872   0.967   3.360
  496SOL    HW2 2388   4.901   0.967   3.199
  497SOL     OW 2389   4.772   3.064   1.237
  497SOL    HW1 2390   4.725   3.138   1.190
  497SOL    HW2 2391   4.707   3.014   1.295
  498SOL     OW 2392   0.750   0.204   1.268
  498SOL    HW1 2393   0.717   0.128   1.212
  498SOL    HW2 2394   0.838   0.236   1.233
  499SOL     OW 2395   2.675   6.648   6.785
  499SOL    HW1 2396   2.736   6.696   6.721
  499SOL    HW2 2397   2.583   6.647   6.747
  500SOL     OW 2398   6.096   1.971   6.521
  500SOL    HW1 2399   6.048   1.970   6.609
  500SOL    HW2 2400   6.118   1.877   6.494
  501SOL     OW 2401   1.598   2.521   4.722
  501SOL    HW1 2402   1.698   2.513   4.731
  501SOL    HW2 2403   1.562   2.573   4.799
  502SOL     OW 2404   2.187   2.995   6.593
  502SOL    HW1 2405   2.107   2.935   6.598
  502SOL    HW2 2406   2.265   2.952   6.638
  503SOL     OW 2407   4.430   5.110   1.017
  503SOL    HW1 2408   4.453   5.081   0.924
  503SOL    HW2 2409   4.337   5.079   1.039
  504SOL     OW 2410   6.297   0.399   0.128
  504SOL    HW1 2411   6.218   0.418   0.186
  504SOL    HW2 2412   6.304   0.301   0.112
  505SOL     OW 2413   6.414   3.554   5.374
  505SOL    HW1 2414   6.452   3.647   5.377
  505SOL    HW2 2415   6.320   3.558   5.340
  506SOL     OW 2416   2.419   5.596   1.956
  506SOL    HW1 2417   2.377   5.506   1.971
  506SOL    HW2 2418   2.479   5.618   2.032
  507SOL     OW 2419   2.994   6.786   3.546
  507SOL    HW1 2420   3.082   6.827   3.522
  507SOL    HW2 2421   2.929   6.798   3.471
  508SOL     OW 2422   0.377   4.969   3.357
  508SOL    HW1 2423   0.387   4.984   3.259
  508SOL    HW2 2424   0.440   4.896   3.386
  509SOL     OW 2425   4.590   0.182   6.053
  509SOL    HW1 2426   4.578   0.241   5.973
  509SOL    HW2 2427   4.507   0.184   6.109
  510SOL     OW 2428   6.607   4.407   0.076
  510SOL    HW1 2429   6.610   4.312   0.107
  510SOL    HW2 2430   6.666   4.464   0.133
  511SOL     OW 2431   0.762   1.627   0.587
  511SOL    HW1 2432   0.754   1.529   0.602
  511SOL    HW2 2433   0.705   1.654   0.509
  512SOL     OW 2434   1.242   1.987   4.397
  512SOL    HW1 2435   1.201   2.025   4.480
  512SOL    HW2 2436   1.323   2.040   4.372
  513SOL     OW 2437   5.594   5.752   2.739
  513SOL    HW1 2438   5.661   5.784   2.807
  513SOL    HW2 2439   5.572   5.826   2.676
  514SOL     OW 2440   4.686   1.422   4.587
  514SOL    HW1 2441   4.779   1.388   4.571
  514SOL    HW2 2442   4.633   1.352   4.634
  515SOL     OW 2443   3.258   0.949   0.046
  515SOL    HW1 2444   3.336   0.940   0.108
  515SOL    HW2 2445   3.259   0.873   6.991
  516SOL     OW 2446   0.529   5.645   2.458
  516SOL    HW1 2447   0.543   5.611   2.550
  516SOL    HW2 2448   0.525   5.745   2.460
  517SOL     OW 2449   3.539   4.971   1.264
  517SOL    HW1 2450   3.458   5.028   1.251
  517SOL    HW2 2451   3.512   4.876   1.276
  518SOL     OW 2452   2.408   6.742   3.958
  518SOL    HW1 2453   2.360   6.729   3.871
  518SOL    HW2 2454   2.371   6.822   4.005
  519SOL     OW 2455   6.842   0.453   2.468
  519SOL    HW1 2456   6.917   0.399   2.430
  519SOL    HW2 2457   6.814   0.413   2.556
  520SOL     OW 2458   3.106   5.688   0.760
  520SOL    HW1 2459   3.134   5.614   0.699
  520SOL    HW2 2460   3.007   5.687   0.771
  521SOL     OW 2461   6.919   6.464   5.158
  521SOL    HW1 2462   6.903   6.563   5.158
  521SOL    HW2 2463   6.943   6.435   5.251
  522SOL     OW 2464   3.886   4.734   6.543
  522SOL    HW1 2465   3.878   4.640   6.575
  522SOL    HW2 2466   3.916   4.793   6.618
  523SOL     OW 2467   2.121   6.710   5.578
  523SOL    HW1 2468   2.150   6.621   5.614
  523SOL    HW2 2469   2.187   6.741   5.509
  524SOL     OW 2470   6.701   1.059   0.807
  524SOL    HW1 2471   6.780   1.075   0.865
  524SOL    HW2 2472   6.727   1.071   0.711
  525SOL     OW 2473   1.280   3.273   3.807
  525SOL    HW1 2474   1.185   3.285   3.837
  525SOL    HW2 2475   1.340   3.329   3.864
  526SOL     OW 2476   4.073   6.461   4.480
  526SOL    HW1 2477   4.159   6.427   4.443
  526SOL    HW2 2478   4.037   6.533   4.421
  527SOL     OW 2479   7.005   0.991   0.745
  527SOL    HW1 2480   6.970   0.897   0.744
  527SOL    HW2 2481   0.058   1.002   0.821
  528SOL     OW 2482   6.864   1.545   4.407
  528SOL    HW1 2483   6.801   1.467   4.410
  528SOL    HW2 2484   6.866   1.589   4.496
  529SOL     OW 2485   1.180   1.192   5.929
  529SOL    HW1 2486   1.146   1.270   5.876
  529SOL    HW2 2487   1.279   1.186   5.921
  530SOL     OW 2488   3.320   4.626   1.702
  530SOL    HW1 2489   3.338   4.622   1.604
  530SOL    HW2 2490   3.401   4.660   1.749
  531SOL     OW 2491   0.298   1.173   6.149
  531SOL    HW1 2492   0.344   1.259   6.170
  531SOL    HW2 2493   0.257   1.179   6.058
  532SOL     OW 2494   3.642   1.004   0.249
  532SOL    HW1 2495   3.569   0.937   0.250
  532SOL    HW2 2496   3.715   0.976   0.311
  533SOL     OW 2497   4.364   0.089   4.717
  533SOL    HW1 2498   4.449   0.036   4.715
  533SOL    HW2 2499   4.370   0.163   4.649
  534SOL     OW 2500   2.135   4.132   1.488
  534SOL    HW1 2501   2.158   4.069   1.562
  534SOL    HW2 2502   2.206   4.201   1.478
  535SOL     OW 2503   4.568   4.627   4.090
  535SOL    HW1 2504   4.487   4.669   4.131
  535SOL    HW2 2505   4.600   4.685   4.015
  536SOL     OW 2506   6.218   6.259   1.141
  536SOL    HW1 2507   6.264   6.225   1.059
  536SOL    HW2 2508   6.120   6.264   1.125
  537SOL     OW 2509   3.374   1.443   2.738
  537SOL    HW1 2510   3.295   1.456   2.798
  537SOL    HW2 2511   3.345   1.451   2.643
  538SOL     OW 2512   3.934   4.760   5.485
  538SOL    HW1 2513   3.945   4.855   5.511
  538SOL    HW2 2514   3.945   4.702   5.566
  539SOL     OW 2515   2.472   0.602   6.729
  539SOL    HW1 2516   2.443   0.592   6.634
  539SOL    HW2 2517   2.405   0.560   6.789
  540SOL     OW 2518   2.608   1.517   5.366
  540SOL    HW1 2519   2.692   1.571   5.357
  540SOL    HW2 2520   2.592   1.467   5.281
  541SOL     OW 2521   4.994   6.082   3.057
  541SOL    HW1 2522   4.999   6.112   3.152
  541SOL    HW2 2523   4.918   6.129   3.012
  542SOL     OW 2524   3.878   5.978   5.864
  542SOL    HW1 2525   3.967   5.939   5.887
  542SOL    HW2 2526   3.879   6.010   5.769
  543SOL     OW 2527   6.314   2.221   4.862
  543SOL    HW1 2528   6.232   2.204   4.917
  543SOL    HW2 2529   6.333   2.319   4.861
  544SOL     OW 2530   0.746   3.006   1.016
  544SOL    HW1 2531   0.842   2.985   0.996
  544SOL    HW2 2532   0.740   3.085   1.077
  545SOL     OW 2533   6.806   5.117   0.321
  545SOL    HW1 2534   6.791   5.090   0.416
  545SOL    HW2 2535   6.817   5.036   0.265
  546SOL     OW 2536   6.928   5.122   2.808
  546SOL    HW1 2537   6.876   5.140   2.724
  546SOL    HW2 2538   6.948   5.209   2.854
  547SOL     OW 2539   4.433   6.674   6.497
  547SOL    HW1 2540   4.443   6.736   6.419
  547SOL    HW2 2541   4.439   6.726   6.582
  548SOL     OW 2542   4.211   2.448   0.189
  548SOL    HW1 2543   4.151   2.379   0.229
  548SOL    HW2 2544   4.165   2.493   0.113
  549SOL     OW 2545   5.611   2.573   3.785
  549SOL    HW1 2546   5.606   2.594   3.883
  549SOL    HW2 2547   5.655   2.484   3.772
  550SOL     OW 2548   0.209   5.842   3.832
  550SOL    HW1 2549   0.153   5.835   3.914
  550SOL    HW2 2550   0.242   5.751   3.807
  551SOL     OW 2551   5.453   0.591   0.435
  551SOL    HW1 2552   5.481   0.658   0.504
  551SOL    HW2 2553   5.483   0.500   0.463
  552SOL     OW 2554   0.297   0.258   4.757
  552SOL    HW1 2555   0.368   0.255   4.687
  552SOL    HW2 2556   0.291   0.350   4.795
  553SOL     OW 2557   3.765   2.256   5.260
  553SOL    HW1 2558   3.833   2.291   5.324
  553SOL    HW2 2559   3.802   2.176   5.212
  554SOL     OW 2560   0.089   5.194   0.184
  554SOL    HW1 2561   0.018   5.124   0.197
  554SOL    HW2 2562   0.055   5.282   0.218
  555SOL     OW 2563   3.159   4.181   5.690
  555SOL    HW1 2564   3.136   4.207   5.596
  555SOL    HW2 2565   3.094   4.224   5.753
  556SOL     OW 2566   5.873   6.217   2.154
  556SOL    HW1 2567   5.926   6.287   2.202
  556SOL    HW2 2568   5.835   6.256   2.070
  557SOL     OW 2569   6.219   3.646   6.750
  557SOL    HW1 2570   6.148   3.700   6.794
  557SOL    HW2 2571   6.309   3.676   6.781
  558SOL     OW 2572   3.363   3.820   1.981
  558SOL    HW1 2573   3.398   3.735   1.941
  558SOL    HW2 2574   3.352   3.808   2.080
  559SOL     OW 2575   6.116   1.161   6.508
  559SOL    HW1 2576   6.093   1.220   6.586
  559SOL    HW2 2577   6.214   1.142   6.509
  560SOL     OW 2578   0.834   2.278   3.497
  560SOL    HW1 2579   0.882   2.292   3.410
  560SOL    HW2 2580   0.738   2.258   3.479
  561SOL     OW 2581   0.194   3.899   6.757
  561SOL    HW1 2582   0.249   3.923   6.837
  561SOL    HW2 2583   0.198   3.974   6.690
  562SOL     OW 2584   4.073   6.432   3.532
  562SOL    HW1 2585   4.164   6.449   3.494
  562SOL    HW2 2586   4.078   6.359   3.600
  563SOL     OW 2587   0.818   0.636   4.448
  563SOL    HW1 2588   0.879   0.715   4.439
  563SOL    HW2 2589   0.728   0.667   4.476
  564SOL     OW 2590   5.756   1.309   5.183
  564SOL    HW1 2591   5.674   1.347   5.141
  564SOL    HW2 2592   5.739   1.291   5.280
  565SOL     OW 2593   3.240   3.421   3.952
  565SOL    HW1 2594   3.206   3.477   3.876
  565SOL    HW2 2595   3.242   3.325   3.924
  566SOL     OW 2596   1.717   2.834   3.594
  566SOL    HW1 2597   1.638   2.894   3.579
  566SOL    HW2 2598   1.772   2.869   3.670
  567SOL     OW 2599   1.322   3.031   5.492
  567SOL    HW1 2600   1.223   3.021   5.484
  567SOL    HW2 2601   1.347   3.125   5.469
  568SOL     OW 2602   1.091   0.247   6.833
  568SOL    HW1 2603   1.171   0.265   6.777
  568SOL    HW2 2604   1.115   0.182   6.905
  569SOL     OW 2605   5.245   3.696   5.186
  569SOL    HW1 2606   5.253   3.789   5.151
  569SOL    HW2 2607   5.174   3.647   5.135
  570SOL     OW 2608   3.525   0.842   6.199
  570SOL    HW1 2609   3.510   0.758   6.251
  570SOL    HW2 2610   3.463   0.913   6.233
  571SOL     OW 2611   2.466   4.447   1.666
  571SOL    HW1 2612   2.559   4.413   1.657
  571SOL    HW2 2613   2.451   4.482   1.758
  572SOL     OW 2614   2.885   1.527   4.482
  572SOL    HW1 2615   2.970   1.526   4.535
  572SOL    HW2 2616   2.818   1.585   4.528
  573SOL     OW 2617   0.464   0.275   5.646
  573SOL    HW1 2618   0.506   0.310   5.730
  573SOL    HW2 2619   0.402   0.343   5.609
  574SOL     OW 2620   2.545   1.036   6.006
  574SOL    HW1 2621   2.578   0.999   5.919
  574SOL    HW2 2622   2.471   1.100   5.989
  575SOL     OW 2623   3.912   3.619   0.360
  575SOL    HW1 2624   3.890   3.606   0.457
  575SOL    HW2 2625   3.827   3.621   0.307
  576SOL     OW 2626   0.230   1.096   2.746
  576SOL    HW1 2627   0.174   1.123   2.824
  576SOL    HW2 2628   0.322   1.073   2.778
  577SOL     OW 2629   0.368   0.034   2.320
  577SOL    HW1 2630   0.399   0.041   2.225
  577SOL    HW2 2631   0.281   6.997   2.323
  578SOL     OW 2632   3.915   0.067   0.458
  578SOL    HW1 2633   3.847   0.002   0.424
  578SOL    HW2 2634   3.997   0.063   0.401
  579SOL     OW 2635   1.183   3.709   1.992
  579SOL    HW1 2636   1.142   3.700   1.901
  579SOL    HW2 2637   1.205   3.805   2.008
  580SOL     OW 2638   4.894   5.046   4.713
  580SOL    HW1 2639   4.934   4.991   4.639
  580SOL    HW2 2640   4.795   5.051   4.700
  581SOL     OW 2641   2.036   2.367   4.113
  581SOL    HW1 2642   1.989   2.455   4.111
  581SOL    HW2 2643   2.079   2.355   4.203
  582SOL     OW 2644   5.494   4.336   4.689
  582SOL    HW1 2645   5.491   4.271   4.613
  582SOL    HW2 2646   5.588   4.366   4.703
  583SOL     OW 2647   3.039   6.301   5.536
  583SOL    HW1 2648   3.052   6.216   5.586
  583SOL    HW2 2649   3.115   6.363   5.554
  584SOL     OW 2650   4.143   1.222   5.187
  584SOL    HW1 2651   4.232   1.252   5.221
  584SOL    HW2 2652   4.156   1.152   5.117
  585SOL     OW 2653   3.620   6.409   1.333
  585SOL    HW1 2654   3.543   6.404   1.396
  585SOL    HW2 2655   3.691   6.467   1.373
  586SOL     OW 2656   3.624   6.953   0.641
  586SOL    HW1 2657   3.561   0.018   0.628
  586SOL    HW2 2658   3.615   6.888   0.565
  587SOL     OW 2659   4.960   1.578   2.574
  587SOL    HW1 2660   5.041   1.531   2.541
  587SOL    HW2 2661   4.938   1.547   2.667
  588SOL     OW 2662   2.150   4.043   2.963
  588SOL    HW1 2663   2.219   3.981   2.926
  588SOL    HW2 2664   2.167   4.135   2.929
  589SOL     OW 2665   3.593   5.000   6.747
  589SOL    HW1 2666   3.606   4.905   6.720
  589SOL    HW2 2667   3.495   5.022   6.741
  590SOL     OW 2668   2.735   1.955   6.186
  590SOL    HW1 2669   2.677   1.912   6.117
  590SOL    HW2 2670   2.828   1.963   6.151
  591SOL     OW 2671   2.785   0.040   3.983
  591SOL    HW1 2672   2.853   0.109   4.008
  591SOL    HW2 2673   2.814   6.961   4.019
  592SOL     OW 2674   5.111   2.505   4.680
  592SOL    HW1 2675   5.155   2.483   4.593
  592SOL    HW2 2676   5.173   2.559   4.736
  593SOL     OW 2677   1.780   0.464   6.905
  593SOL    HW1 2678   1.818   0.487   6.994
  593SOL    HW2 2679   1.812   0.529   6.836
  594SOL     OW 2680   3.591   1.105   4.937
  594SOL    HW1 2681   3.674   1.067   4.977
  594SOL    HW2 2682   3.613   1.151   4.851
  595SOL     OW 2683   6.286   4.057   2.206
  595SOL    HW1 2684   6.261   3.975   2.258
  595SOL    HW2 2685   6.222   4.131   2.228
  596SOL     OW 2686   6.002   5.247   4.345
  596SOL    HW1 2687   6.023   5.257   4.442
  596SOL    HW2 2688   5.969   5.335   4.309
  597SOL     OW 2689   3.440   1.910   6.671
  597SOL    HW1 2690   3.355   1.954   6.640
  597SOL    HW2 2691   3.459   1.937   6.765
  598SOL     OW 2692   2.916   3.682   2.931
  598SOL    HW1 2693   2.936   3.640   2.843
  598SOL    HW2 2694   2.929   3.614   3.004
  599SOL     OW 2695   2.150   4.646   1.299
  599SOL    HW1 2696   2.192   4.596   1.375
  599SOL    HW2 2697   2.204   4.728   1.279
  600SOL     OW 2698   0.219   3.392   5.395
  600SOL    HW1 2699   0.316   3.367   5.395
  600SOL    HW2 2700   0.164   3.311   5.419
  601SOL     OW 2701   6.915   6.981   5.744
  601SOL    HW1 2702   6.923   6.911   5.815
  601SOL    HW2 2703   6.983   0.042   5.760
  602SOL     OW 2704   1.296   0.971   3.597
  602SOL    HW1 2705   1.370   1.019   3.550
  602SOL    HW2 2706   1.211   0.982   3.546
  603SOL     OW 2707   1.338   1.568   4.046
  603SOL    HW1 2708   1.408   1.618   3.996
  603SOL    HW2 2709   1.291   1.631   4.108
  604SOL     OW 2710   5.174   2.810   1.420
  604SOL    HW1 2711   5.112   2.878   1.459
  604SOL    HW2 2712   5.230   2.852   1.350
  605SOL     OW 2713   5.718   6.299   1.345
  605SOL    HW1 2714   5.702   6.292   1.247
  605SOL    HW2 2715   5.643   6.350   1.388
  606SOL     OW 2716   2.990   6.569   5.206
  606SOL    HW1 2717   3.052   6.491   5.215
  606SOL    HW2 2718   3.017   6.640   5.271
  607SOL     OW 2719   1.253   3.068   6.315
  607SOL    HW1 2720   1.193   3.118   6.253
  607SOL    HW2 2721   1.323   3.021   6.262
  608SOL     OW 2722   3.109   1.845   0.423
  608SOL    HW1 2723   3.014   1.867   0.447
  608SOL    HW2 2724   3.139   1.903   0.347
  609SOL     OW 2725   3.478   3.028   2.307
  609SOL    HW1 2726   3.464   2.939   2.264
  609SOL    HW2 2727   3.538   3.084   2.249
  610SOL     OW 2728   4.888   3.028   1.774
  610SOL    HW1 2729   4.832   3.015   1.856
  610SOL    HW2 2730   4.906   2.940   1.732
  611SOL     OW 2731   3.653   1.734   2.241
  611SOL    HW1 2732   3.641   1.833   2.233
  611SOL    HW2 2733   3.718   1.702   2.172
  612SOL     OW 2734   4.787   4.901   4.298
  612SOL    HW1 2735   4.790   4.804   4.275
  612SOL    HW2 2736   4.850   4.921   4.372
  613SOL     OW 2737   3.961   5.159   6.541
  613SOL    HW1 2738   3.956   5.140   6.639
  613SOL    HW2 2739   3.980   5.075   6.491
  614SOL     OW 2740   3.123   6.303   6.391
  614SOL    HW1 2741   3.031   6.265   6.385
  614SOL    HW2 2742   3.139   6.338   6.483
  615SOL     OW 2743   6.735   4.796   3.694
  615SOL    HW1 2744   6.802   4.870   3.701
  615SOL    HW2 2745   6.679   4.794   3.777
  616SOL     OW 2746   6.276   2.581   3.929
  616SOL    HW1 2747   6.248   2.579   3.833
  616SOL    HW2 2748   6.285   2.488   3.963
  617SOL     OW 2749   2.691   0.349   6.034
  617SOL    HW1 2750   2.788   0.359   6.055
  617SOL    HW2 2751   2.636   0.386   6.109
  618SOL     OW 2752   2.353   0.655   3.548
  618SOL    HW1 2753   2.271   0.652   3.492
  618SOL    HW2 2754   2.329   0.679   3.642
  619SOL     OW 2755   0.814   2.490   6.873
  619SOL    HW1 2756   0.789   2.467   6.968
  619SOL    HW2 2757   0.886   2.428   6.842
  620SOL     OW 2758   4.477   3.653   0.253
  620SOL    HW1 2759   4.396   3.648   0.312
  620SOL    HW2 2760   4.536   3.727   0.282
  621SOL     OW 2761   0.234   5.777   1.393
  621SOL    HW1 2762   0.263   5.716   1.319
  621SOL    HW2 2763   0.136   5.763   1.410
  622SOL     OW 2764   0.578   1.410   0.022
  622SOL    HW1 2765   0.610   1.386   6.941
  622SOL    HW2 2766   0.588   1.508   0.036
  623SOL     OW 2767   6.619   5.651   5.313
  623SOL    HW1 2768   6.674   5.734   5.311
  623SOL    HW2 2769   6.657   5.584   5.249
  624SOL     OW 2770   0.740   1.481   1.544
  624SOL    HW1 2771   0.647   1.516   1.539
  624SOL    HW2 2772   0.798   1.532   1.479
  625SOL     OW 2773   1.440   1.077   2.733
  625SOL    HW1 2774   1.362   1.033   2.777
  625SOL    HW2 2775   1.445   1.049   2.637
  626SOL     OW 2776   3.306   5.563   4.701
  626SOL    HW1 2777   3.236   5.527   4.639
  626SOL    HW2 2778   3.262   5.603   4.781
  627SOL     OW 2779   4.469   6.059   6.772
  627SOL    HW1 2780   4.539   6.025   6.834
  627SOL    HW2 2781   4.382   6.013   6.792
  628SOL     OW 2782   5.539   4.000   3.006
  628SOL    HW1 2783   5.473   4.074   3.020
  628SOL    HW2 2784   5.553   3.951   3.092
  629SOL     OW 2785   1.864   0.040   1.082
  629SOL    HW1 2786   1.875   6.966   1.029
  629SOL    HW2 2787   1.897   0.025   1.176
  630SOL     OW 2788   2.618   1.401   2.104
  630SOL    HW1 2789   2.706   1.358   2.081
  630SOL    HW2 2790   2.580   1.445   2.023
  631SOL     OW 2791   2.455   1.243   4.239
  631SOL    HW1 2792   2.476   1.146   4.234
  631SOL    HW2 2793   2.526   1.295   4.191
  632SOL     OW 2794   2.953   0.584   0.994
  632SOL    HW1 2795   3.028   0.528   1.030
  632SOL    HW2 2796   2.981   0.680   0.991
  633SOL     OW 2797   1.854   0.541   4.975
  633SOL    HW1 2798   1.878   0.562   5.070
  633SOL    HW2 2799   1.797   0.460   4.972
  634SOL     OW 2800   2.864   5.651   1.543
  634SOL    HW1 2801   2.787   5.655   1.606
  634SOL    HW2 2802   2.943   5.608   1.588
  635SOL     OW 2803   3.301   0.028   2.545
  635SOL    HW1 2804   3.295   6.997   2.454
  635SOL    HW2 2805   3.255   0.117   2.544
  636SOL     OW 2806   4.635   4.995   6.269
  636SOL    HW1 2807   4.701   4.934   6.224
  636SOL    HW2 2808   4.597   4.950   6.349
  637SOL     OW 2809   5.566   5.288   6.138
  637SOL    HW1 2810   5.574   5.280   6.237
  637SOL    HW2 2811   5.529   5.202   6.100
  638SOL     OW 2812   5.290   1.644   3.418
  638SOL    HW1 2813   5.275   1.742   3.430
  638SOL    HW2 2814   5.311   1.624   3.322
  639SOL     OW 2815   4.321   3.746   1.731
  639SOL    HW1 2816   4.263   3.666   1.714
  639SOL    HW2 2817   4.264   3.824   1.759
  640SOL     OW 2818   2.866   2.897   5.304
  640SOL    HW1 2819   2.779   2.849   5.293
  640SOL    HW2 2820   2.849   2.991   5.334
  641SOL     OW 2821   0.040   6.033   4.276
  641SOL    HW1 2822   0.117   6.071   4.327
  641SOL    HW2 2823   0.004   6.102   4.213
  642SOL     OW 2824   0.992   4.314   6.057
  642SOL    HW1 2825   1.082   4.275   6.042
  642SOL    HW2 2826   0.926   4.241   6.073
  643SOL     OW 2827   5.664   6.376   5.362
  643SOL    HW1 2828   5.566   6.398   5.362
  643SOL    HW2 2829   5.710   6.428   5.290
  644SOL     OW 2830   2.952   6.261   1.370
  644SOL    HW1 2831   3.006   6.186   1.408
  644SOL    HW2 2832   2.920   6.235   1.278
  645SOL     OW 2833   0.709   2.898   2.827
  645SOL    HW1 2834   0.638   2.869   2.761
  645SOL    HW2 2835   0.749   2.818   2.870
  646SOL     OW 2836   1.491   2.965   4.439
  646SOL    HW1 2837   1.576   3.015   4.428
  646SOL    HW2 2838   1.508   2.867   4.426
  647SOL     OW 2839   5.578   3.767   0.111
  647SOL    HW1 2840   5.595   3.687   0.169
  647SOL    HW2 2841   5.494   3.813   0.141
  648SOL     OW 2842   4.300   2.382   4.404
  648SOL    HW1 2843   4.282   2.292   4.445
  648SOL    HW2 2844   4.252   2.389   4.317
  649SOL     OW 2845   4.636   4.729   1.540
  649SOL    HW1 2846   4.578   4.780   1.603
  649SOL    HW2 2847   4.613   4.754   1.446
  650SOL     OW 2848   5.286   5.049   0.670
  650SOL    HW1 2849   5.260   5.041   0.766
  650SOL    HW2 2850   5.223   4.996   0.614
  651SOL     OW 2851   1.809   5.772   6.779
  651SOL    HW1 2852   1.718   5.796   6.814
  651SOL    HW2 2853   1.833   5.680   6.808
  652SOL     OW 2854   4.959   2.428   1.955
  652SOL    HW1 2855   5.054   2.409   1.977
  652SOL    HW2 2856   4.918   2.482   2.028
  653SOL     OW 2857   3.161   4.849   2.564
  653SOL    HW1 2858   3.092   4.841   2.637
  653SOL    HW2 2859   3.119   4.825   2.476
  654SOL     OW 2860   0.312   5.347   6.670
  654SOL    HW1 2861   0.236   5.291   6.636
  654SOL    HW2 2862   0.277   5.411   6.739
  655SOL     OW 2863   1.556   1.692   0.214
  655SOL    HW1 2864   1.591   1.722   0.126
  655SOL    HW2 2865   1.489   1.620   0.200
  656SOL     OW 2866   1.686   6.508   1.295
  656SOL    HW1 2867   1.652   6.603   1.290
  656SOL    HW2 2868   1.744   6.498   1.375
  657SOL     OW 2869   3.781   0.596   0.117
  657SOL    HW1 2870   3.874   0.564   0.131
  657SOL    HW2 2871   3.759   0.592   0.020
  658SOL     OW 2872   3.925   5.740   6.632
  658SOL    HW1 2873   3.839   5.691   6.646
  658SOL    HW2 2874   3.907   5.834   6.603
  659SOL     OW 2875   3.867   0.707   6.178
  659SOL    HW1 2876   3.961   0.676   6.186
  659SOL    HW2 2877   3.852   0.785   6.239
  660SOL     OW 2878   3.770   6.588   3.190
  660SOL    HW1 2879   3.832   6.667   3.192
  660SOL    HW2 2880   3.819   6.507   3.225
  661SOL     OW 2881   5.887   5.177   2.641
  661SOL    HW1 2882   5.877   5.166   2.542
  661SOL    HW2 2883   5.984   5.184   2.664
  662SOL     OW 2884   4.545   1.588   6.811
  662SOL    HW1 2885   4.565   1.677   6.852
  662SOL    HW2 2886   4.516   1.600   6.716
  663SOL     OW 2887   1.292   4.202   4.418
  663SOL    HW1 2888   1.359   4.159   4.358
  663SOL    HW2 2889   1.281   4.298   4.393
  664SOL     OW 2890   5.850   0.151   6.724
  664SOL    HW1 2891   5.780   0.155   6.795
  664SOL    HW2 2892   5.811   0.112   6.641
  665SOL     OW 2893   1.062   4.057   1.644
  665SOL    HW1 2894   1.083   4.154   1.651
  665SOL    HW2 2895   0.981   4.036   1.699
  666SOL     OW 2896   4.308   0.963   1.968
  666SOL    HW1 2897   4.308   1.062   1.952
  666SOL    HW2 2898   4.215   0.928   1.961
  667SOL     OW 2899   0.380   0.472   1.687
  667SOL    HW1 2900   0.459   0.533   1.695
  667SOL    HW2 2901   0.337   0.486   1.597
  668SOL     OW 2902   5.747   3.017   6.600
  668SOL    HW1 2903   5.717   3.107   6.630
  668SOL    HW2 2904   5.845   3.018   6.583
  669SOL     OW 2905   5.134   1.519   3.052
  669SOL    HW1 2906   5.119   1.598   2.993
  669SOL    HW2 2907   5.143   1.437   2.996
  670SOL     OW 2908   4.175   2.186   2.478
  670SOL    HW1 2909   4.139   2.213   2.567
  670SOL    HW2 2910   4.112   2.122   2.434
  671SOL     OW 2911   1.434   5.768   1.588
  671SOL    HW1 2912   1.526   5.800   1.611
  671SOL    HW2 2913   1.396   5.718   1.666
  672SOL     OW 2914   0.686   0.072   1.677
  672SOL    HW1 2915   0.624   0.027   1.741
  672SOL    HW2 2916   0.716   0.005   1.609
  673SOL     OW 2917   6.213   6.829   6.362
  673SOL    HW1 2918   6.183   6.844   6.457
  673SOL    HW2 2919   6.138   6.790   6.309
  674SOL     OW 2920   5.383   0.541   4.186
  674SOL    HW1 2921   5.331   0.626   4.185
  674SOL    HW2 2922   5.411   0.517   4.093
  675SOL     OW 2923   0.578   4.456   2.042
  675SOL    HW1 2924   0.592   4.486   2.137
  675SOL    HW2 2925   0.534   4.366   2.042
  676SOL     OW 2926   2.699   6.010   6.821
  676SOL    HW1 2927   2.623   5.950   6.847
  676SOL    HW2 2928   2.702   6.089   6.883
  677SOL     OW 2929   5.707   0.962   1.455
  677SOL    HW1 2930   5.681   0.968   1.358
  677SOL    HW2 2931   5.766   1.039   1.479
  678SOL     OW 2932   0.800   5.097   4.207
  678SOL    HW1 2933   0.726   5.119   4.270
  678SOL    HW2 2934   0.883   5.075   4.259
  679SOL     OW 2935   4.592   1.562   5.610
  679SOL    HW1 2936   4.575   1.564   5.511
  679SOL    HW2 2937   4.534   1.629   5.655
  680SOL     OW 2938   5.812   6.353   3.829
  680SOL    HW1 2939   5.838   6.435   3.880
  680SOL    HW2 2940   5.712   6.346   3.825
  681SOL     OW 2941   4.282   4.891   2.654
  681SOL    HW1 2942   4.194   4.914   2.696
  681SOL    HW2 2943   4.342   4.971   2.655
  682SOL     OW 2944   6.885   1.307   3.282
  682SOL    HW1 2945   6.837   1.255   3.354
  682SOL    HW2 2946   6.859   1.270   3.192
  683SOL     OW 2947   3.126   4.436   0.506
  683SOL    HW1 2948   3.150   4.439   0.409
  683SOL    HW2 2949   3.202   4.470   0.561
  684SOL     OW 2950   6.446   1.375   6.362
  684SOL    HW1 2951   6.437   1.280   6.334
  684SOL    HW2 2952   6.507   1.423   6.299
  685SOL     OW 2953   3.296   6.605   3.522
  685SOL    HW1 2954   3.390   6.620   3.552
  685SOL    HW2 2955   3.240   6.580   3.602
  686SOL     OW 2956   3.651   0.181   5.486
  686SOL    HW1 2957   3.650   0.120   5.565
  686SOL    HW2 2958   3.607   0.137   5.408
  687SOL     OW 2959   0.132   0.599   4.539
  687SOL    HW1 2960   0.197   0.533   4.502
  687SOL    HW2 2961   0.160   0.691   4.512
  688SOL     OW 2962   5.550   3.051   6.993
  688SOL    HW1 2963   5.598   3.006   0.057
  688SOL    HW2 2964   5.471   3.101   0.018
  689SOL     OW 2965   2.567   5.428   0.351
  689SOL    HW1 2966   2.490   5.460   0.406
  689SOL    HW2 2967   2.652   5.446   0.400
  690SOL     OW 2968   5.819   3.470   4.145
  690SOL    HW1 2969   5.817   3.370   4.144
  690SOL    HW2 2970   5.779   3.506   4.061
  691SOL     OW 2971   5.644   1.177   2.294
  691SOL    HW1 2972   5.643   1.269   2.333
  691SOL    HW2 2973   5.703   1.118   2.350
  692SOL     OW 2974   1.294   0.095   3.512
  692SOL    HW1 2975   1.197   0.091   3.536
  692SOL    HW2 2976   1.312   0.033   3.436
  693SOL     OW 2977   5.755   4.543   2.676
  693SOL    HW1 2978   5.668   4.524   2.632
  693SOL    HW2 2979   5.746   4.624   2.733
  694SOL     OW 2980   4.224   5.189   4.215
  694SOL    HW1 2981   4.170   5.269   4.240
  694SOL    HW2 2982   4.166   5.125   4.164
  695SOL     OW 2983   4.520   6.877   3.422
  695SOL    HW1 2984   4.499   6.938   3.498
  695SOL    HW2 2985   4.612   6.840   3.433
  696SOL     OW 2986   5.996   4.026   2.073
  696SOL    HW1 2987   5.973   3.929   2.082
  696SOL    HW2 2988   6.096   4.036   2.076
  697SOL     OW 2989   0.463   6.450   2.557
  697SOL    HW1 2990   0.471   6.486   2.464
  697SOL    HW2 2991   0.554   6.429   2.592
  698SOL     OW 2992   5.582   6.449   6.163
  698SOL    HW1 2993   5.607   6.423   6.070
  698SOL    HW2 2994   5.558   6.367   6.215
  699SOL     OW 2995   3.731   3.475   0.834
  699SOL    HW1 2996   3.740   3.573   0.853
  699SOL    HW2 2997   3.822   3.432   0.833
  700SOL     OW 2998   3.523   6.885   5.581
  700SOL    HW1 2999   3.591   6.908   5.651
  700SOL    HW2 3000   3.431   6.895   5.619
  701SOL     OW 3001   4.715   4.623   2.200
  701SOL    HW1 3002   4.713   4.722   2.216
  701SOL    HW2 3003   4.723   4.575   2.287
  702SOL     OW 3004   4.182   0.262   4.497
  702SOL    HW1 3005   4.143   0.310   4.419
  702SOL    HW2 3006   4.275   0.295   4.514
  703SOL     OW 3007   3.489   3.237   0.527
  703SOL    HW1 3008   3.418   3.285   0.579
  703SOL    HW2 3009   3.498   3.144   0.562
  704SOL     OW 3010   3.906   1.076   6.954
  704SOL    HW1 3011   3.940   1.080   6.860
  704SOL    HW2 3012   3.942   0.993   6.998
  705SOL     OW 3013   0.151   6.049   5.593
  705SOL    HW1 3014   0.208   6.044   5.511
  705SOL    HW2 3015   0.200   6.098   5.665
  706SOL     OW 3016   4.051   0.265   4.961
  706SOL    HW1 3017   3.991   0.248   4.882
  706SOL    HW2 3018   3.996   0.291   5.040
  707SOL     OW 3019   3.194   5.089   4.643
  707SOL    HW1 3020   3.237   5.089   4.733
  707SOL    HW2 3021   3.097   5.069   4.652
  708SOL     OW 3022   3.252   5.952   3.521
  708SOL    HW1 3023   3.217   5.860   3.501
  708SOL    HW2 3024   3.269   5.960   3.619
  709SOL     OW 3025   2.166   0.234   2.003
  709SOL    HW1 3026   2.161   0.331   1.977
  709SOL    HW2 3027   2.184   0.226   2.101
  710SOL     OW 3028   4.980   3.331   3.033
  710SOL    HW1 3029   5.054   3.398   3.022
  710SOL    HW2 3030   4.953   3.296   2.944
  711SOL     OW 3031   6.986   1.582   0.878
  711SOL    HW1 3032   6.979   1.648   0.803
  711SOL    HW2 3033   0.069   1.582   0.913
  712SOL     OW 3034   5.433   4.172   0.157
  712SOL    HW1 3035   5.482   4.206   0.076
  712SOL    HW2 3036   5.337   4.159   0.134
  713SOL     OW 3037   4.138   3.141   6.390
  713SOL    HW1 3038   4.198   3.221   6.394
  713SOL    HW2 3039   4.043   3.171   6.401
  714SOL     OW 3040   4.403   6.500   3.061
  714SOL    HW1 3041   4.476   6.438   3.091
  714SOL    HW2 3042   4.417   6.590   3.101
  715SOL     OW 3043   6.476   4.531   5.268
  715SOL    HW1 3044   6.445   4.626   5.269
  715SOL    HW2 3045   6.530   4.512   5.350
  716SOL     OW 3046   3.321   1.763   3.517
  716SOL    HW1 3047   3.333   1.789   3.422
  716SOL    HW2 3048   3.377   1.682   3.537
  717SOL     OW 3049   4.957   5.194   3.725
  717SOL    HW1 3050   5.025   5.124   3.747
  717SOL    HW2 3051   4.896   5.161   3.652
  718SOL     OW 3052   5.988   2.259   5.307
  718SOL    HW1 3053   5.942   2.271   5.395
  718SOL    HW2 3054   6.086   2.265   5.320
  719SOL     OW 3055   4.716   5.780   2.795
  719SOL    HW1 3056   4.679   5.844   2.862
  719SOL    HW2 3057   4.807   5.811   2.766
  720SOL     OW 3058   2.867   1.403   1.663
  720SOL    HW1 3059   2.791   1.457   1.628
  720SOL    HW2 3060   2.832   1.319   1.705
  721SOL     OW 3061   6.988   3.069   1.855
  721SOL    HW1 3062   0.062   3.082   1.804
  721SOL    HW2 3063   7.002   3.000   1.925
  722SOL     OW 3064   5.504   6.220   1.640
  722SOL    HW1 3065   5.602   6.202   1.651
  722SOL    HW2 3066   5.486   6.316   1.661
  723SOL     OW 3067   2.067   0.845   4.446
  723SOL    HW1 3068   2.094   0.760   4.401
  723SOL    HW2 3069   1.991   0.887   4.395
  724SOL     OW 3070   1.446   2.183   4.380
  724SOL    HW1 3071   1.543   2.188   4.356
  724SOL    HW2 3072   1.436   2.190   4.480
  725SOL     OW 3073   1.654   4.532   3.094
  725SOL    HW1 3074   1.606   4.521   3.181
  725SOL    HW2 3075   1.604   4.486   3.021
  726SOL     OW 3076   2.328   3.723   0.518
  726SOL    HW1 3077   2.371   3.813   0.513
  726SOL    HW2 3078   2.287   3.711   0.608
  727SOL     OW 3079   3.915   5.168   4.396
  727SOL    HW1 3080   3.821   5.149   4.427
  727SOL    HW2 3081   3.968   5.083   4.400
  728SOL     OW 3082   6.069   3.056   3.559
  728SOL    HW1 3083   6.098   2.962   3.542
  728SOL    HW2 3084   6.134   3.101   3.620
  729SOL     OW 3085   0.946   4.913   0.202
  729SOL    HW1 3086   1.026   4.861   0.172
  729SOL    HW2 3087   0.877   4.913   0.130
  730SOL     OW 3088   4.186   1.641   3.120
  730SOL    HW1 3089   4.263   1.648   3.184
  730SOL    HW2 3090   4.221   1.629   3.027
  731SOL     OW 3091   4.674   4.985   5.115
  731SOL    HW1 3092   4.626   5.041   5.182
  731SOL    HW2 3093   4.739   5.041   5.064
  732SOL     OW 3094   4.417   0.807   4.171
  732SOL    HW1 3095   4.445   0.723   4.217
  732SOL    HW2 3096   4.487   0.876   4.182
  733SOL     OW 3097   0.048   5.147   4.193
  733SOL    HW1 3098   0.087   5.237   4.174
  733SOL    HW2 3099   6.991   5.125   4.123
  734SOL     OW 3100   6.061   6.063   3.128
  734SOL    HW1 3101   6.037   6.046   3.032
  734SOL    HW2 3102   5.997   6.130   3.166
  735SOL     OW 3103   4.325   0.449   2.420
  735SOL    HW1 3104   4.421   0.452   2.446
  735SOL    HW2 3105   4.307   0.367   2.366
  736SOL     OW 3106   1.703   2.158   3.835
  736SOL    HW1 3107   1.759   2.234   3.801
  736SOL    HW2 3108   1.641   2.191   3.906
  737SOL     OW 3109   3.343   1.050   6.324
  737SOL    HW1 3110   3.412   1.121   6.335
  737SOL    HW2 3111   3.255   1.091   6.301
  738SOL     OW 3112   1.521   5.202   0.364
  738SOL    HW1 3113   1.422   5.185   0.364
  738SOL    HW2 3114   1.569   5.114   0.369
  739SOL     OW 3115   1.533   0.540   3.650
  739SOL    HW1 3116   1.480   0.456   3.655
  739SOL    HW2 3117   1.563   0.554   3.555
  740SOL     OW 3118   5.205   2.844   3.036
  740SOL    HW1 3119   5.171   2.924   2.988
  740SOL    HW2 3120   5.250   2.783   2.971
  741SOL     OW 3121   2.952   1.548   3.111
  741SOL    HW1 3122   2.884   1.489   3.153
  741SOL    HW2 3123   2.911   1.637   3.091
  742SOL     OW 3124   2.083   0.232   2.613
  742SOL    HW1 3125   1.986   0.216   2.593
  742SOL    HW2 3126   2.123   0.148   2.651
  743SOL     OW 3127   0.007   6.551   2.731
  743SOL    HW1 3128   0.083   6.493   2.703
  743SOL    HW2 3129   0.039   6.621   2.794
  744SOL     OW 3130   4.858   1.934   1.013
  744SOL    HW1 3131   4.917   1.865   0.971
  744SOL    HW2 3132   4.772   1.892   1.040
  745SOL     OW 3133   2.099   6.666   5.176
  745SOL    HW1 3134   2.043   6.713   5.107
  745SOL    HW2 3135   2.139   6.733   5.238
  746SOL     OW 3136   6.491   5.657   5.047
  746SOL    HW1 3137   6.505   5.590   4.974
  746SOL    HW2 3138   6.435   5.617   5.119
  747SOL     OW 3139   4.217   5.312   2.566
  747SOL    HW1 3140   4.200   5.347   2.658
  747SOL    HW2 3141   4.300   5.255   2.566
  748SOL     OW 3142   5.972   4.093   1.460
  748SOL    HW1 3143   5.988   4.189   1.440
  748SOL    HW2 3144   5.875   4.078   1.480
  749SOL     OW 3145   4.705   4.274   4.723
  749SOL    HW1 3146   4.772   4.201   4.708
  749SOL    HW2 3147   4.623   4.235   4.765
  750SOL     OW 3148   2.323   1.883   3.477
  750SOL    HW1 3149   2.410   1.900   3.431
  750SOL    HW2 3150   2.318   1.939   3.560
  751SOL     OW 3151   4.439   0.610   0.460
  751SOL    HW1 3152   4.418   0.603   0.558
  751SOL    HW2 3153   4.527   0.566   0.442
  752SOL     OW 3154   3.233   3.201   4.203
  752SOL    HW1 3155   3.263   3.209   4.108
  752SOL    HW2 3156   3.140   3.238   4.212
  753SOL     OW 3157   3.628   4.128   3.662
  753SOL    HW1 3158   3.612   4.153   3.567
  753SOL    HW2 3159   3.727   4.117   3.677
  754SOL     OW 3160   5.033   0.088   6.840
  754SOL    HW1 3161   4.938   0.066   6.858
  754SOL    HW2 3162   5.041   0.185   6.815
  755SOL     OW 3163   4.840   4.733   5.140
  755SOL    HW1 3164   4.880   4.647   5.108
  755SOL    HW2 3165   4.901   4.775   5.207
  756SOL     OW 3166   3.458   5.787   5.760
  756SOL    HW1 3167   3.523   5.843   5.811
  756SOL    HW2 3168   3.483   5.788   5.663
  757SOL     OW 3169   1.369   0.075   1.848
  757SOL    HW1 3170   1.367   0.107   1.943
  757SOL    HW2 3171   1.350   0.152   1.787
  758SOL     OW 3172   3.885   1.265   4.565
  758SOL    HW1 3173   3.910   1.187   4.508
  758SOL    HW2 3174   3.941   1.344   4.540
  759SOL     OW 3175   0.154   2.967   3.615
  759SOL    HW1 3176   0.074   3.009   3.573
  759SOL    HW2 3177   0.133   2.872   3.639
  760SOL     OW 3178   6.823   5.426   3.941
  760SOL    HW1 3179   6.845   5.446   4.036
  760SOL    HW2 3180   6.829   5.510   3.886
  761SOL     OW 3181   4.398   4.868   5.927
  761SOL    HW1 3182   4.383   4.935   6.000
  761SOL    HW2 3183   4.494   4.868   5.901
  762SOL     OW 3184   3.763   5.642   3.513
  762SOL    HW1 3185   3.701   5.721   3.509
  762SOL    HW2 3186   3.768   5.600   3.423
  763SOL     OW 3187   5.379   1.202   0.830
  763SOL    HW1 3188   5.436   1.120   0.837
  763SOL    HW2 3189   5.433   1.283   0.851
  764SOL     OW 3190   5.276   6.576   5.082
  764SOL    HW1 3191   5.268   6.570   4.983
  764SOL    HW2 3192   5.188   6.604   5.121
  765SOL     OW 3193   5.665   6.249   0.601
  765SOL    HW1 3194   5.728   6.199   0.541
  765SOL    HW2 3195   5.593   6.291   0.545
  766SOL     OW 3196   2.495   2.268   4.105
  766SOL    HW1 3197   2.425   2.325   4.148
  766SOL    HW2 3198   2.452   2.191   4.059
  767SOL     OW 3199   6.940   6.115   3.560
  767SOL    HW1 3200   6.925   6.190   3.625
  767SOL    HW2 3201   0.000   6.054   3.596
  768SOL     OW 3202   2.182   5.670   2.179
  768SOL    HW1 3203   2.186   5.589   2.121
  768SOL    HW2 3204   2.268   5.721   2.171
  769SOL     OW 3205   3.642   1.261   5.392
  769SOL    HW1 3206   3.679   1.213   5.471
  769SOL    HW2 3207   3.683   1.226   5.308
  770SOL     OW 3208   0.762   4.761   5.500
  770SOL    HW1 3209   0.699   4.837   5.516
  770SOL    HW2 3210   0.709   4.677   5.490
  771SOL     OW 3211   1.480   4.742   2.679
  771SOL    HW1 3212   1.532   4.737   2.594
  771SOL    HW2 3213   1.413   4.668   2.682
  772SOL     OW 3214   5.700   5.190   0.420
  772SOL    HW1 3215   5.695   5.280   0.464
  772SOL    HW2 3216   5.640   5.126   0.467
  773SOL     OW 3217   1.708   4.735   4.297
  773SOL    HW1 3218   1.724   4.653   4.243
  773SOL    HW2 3219   1.785   4.798   4.287
  774SOL     OW 3220   1.947   2.007   3.805
  774SOL    HW1 3221   1.977   2.034   3.714
  774SOL    HW2 3222   1.859   2.050   3.825
  775SOL     OW 3223   1.175   4.222   2.620
  775SOL    HW1 3224   1.101   4.283   2.648
  775SOL    HW2 3225   1.262   4.270   2.624
  776SOL     OW 3226   3.417   5.460   6.274
  776SOL    HW1 3227   3.340   5.494   6.220
  776SOL    HW2 3228   3.415   5.502   6.365
  777SOL     OW 3229   1.877   3.728   6.633
  777SOL    HW1 3230   1.922   3.747   6.720
  777SOL    HW2 3231   1.779   3.717   6.647
  778SOL     OW 3232   3.688   5.605   6.705
  778SOL    HW1 3233   3.636   5.682   6.665
  778SOL    HW2 3234   3.655   5.519   6.666
  779SOL     OW 3235   5.860   1.747   3.326
  779SOL    HW1 3236   5.888   1.809   3.400
  779SOL    HW2 3237   5.905   1.659   3.339
  780SOL     OW 3238   6.473   1.402   4.244
  780SOL    HW1 3239   6.432   1.441   4.327
  780SOL    HW2 3240   6.401   1.365   4.186
  781SOL     OW 3241   0.742   4.919   6.359
  781SOL    HW1 3242   0.807   4.893   6.431
  781SOL    HW2 3243   0.667   4.972   6.399
  782SOL     OW 3244   2.118   4.248   5.613
  782SOL    HW1 3245   2.037   4.305   5.599
  782SOL    HW2 3246   2.195   4.306   5.639
  783SOL     OW 3247   6.686   4.681   6.251
  783SOL    HW1 3248   6.659   4.736   6.330
  783SOL    HW2 3249   6.765   4.724   6.207
  784SOL     OW 3250   2.086   5.408   6.561
  784SOL    HW1 3251   2.111   5.420   6.657
  784SOL    HW2 3252   2.165   5.425   6.503
  785SOL     OW 3253   0.497   0.473   4.061
  785SOL    HW1 3254   0.580   0.524   4.085
  785SOL    HW2 3255   0.434   0.474   4.138
  786SOL     OW 3256   5.817   0.811   4.773
  786SOL    HW1 3257   5.774   0.724   4.751
  786SOL    HW2 3258   5.780   0.882   4.714
  787SOL     OW 3259   1.998   6.817   0.941
  787SOL    HW1 3260   1.990   6.721   0.968
  787SOL    HW2 3261   2.066   6.863   0.998
  788SOL     OW 3262   2.245   2.690   2.369
  788SOL    HW1 3263   2.255   2.735   2.457
  788SOL    HW2 3264   2.317   2.622   2.357
  789SOL     OW 3265   3.904   5.277   2.279
  789SOL    HW1 3266   3.899   5.296   2.377
  789SOL    HW2 3267   3.862   5.188   2.261
  790SOL     OW 3268   0.024   3.570   2.122
  790SOL    HW1 3269   0.075   3.531   2.045
  790SOL    HW2 3270   0.049   3.522   2.206
  791SOL     OW 3271   3.267   1.222   3.645
  791SOL    HW1 3272   3.320   1.213   3.729
  791SOL    HW2 3273   3.170   1.207   3.665
  792SOL     OW 3274   2.322   0.446   0.946
  792SOL    HW1 3275   2.265   0.490   0.877
  792SOL    HW2 3276   2.408   0.417   0.905
  793SOL     OW 3277   1.919   5.446   4.995
  793SOL    HW1 3278   2.002   5.478   5.042
  793SOL    HW2 3279   1.941   5.366   4.940
  794SOL     OW 3280   3.651   3.769   2.078
  794SOL    HW1 3281   3.624   3.758   2.174
  794SOL    HW2 3282   3.705   3.852   2.067
  795SOL     OW 3283   4.563   0.147   5.400
  795SOL    HW1 3284   4.627   0.172   5.472
  795SOL    HW2 3285   4.590   0.060   5.359
  796SOL     OW 3286   1.108   2.435   6.571
  796SOL    HW1 3287   1.164   2.504   6.617
  796SOL    HW2 3288   1.065   2.475   6.491
  797SOL     OW 3289   3.436   6.907   1.198
  797SOL    HW1 3290   3.478   6.987   1.154
  797SOL    HW2 3291   3.441   6.829   1.137
  798SOL     OW 3292   4.896   4.218   1.408
  798SOL    HW1 3293   4.867   4.139   1.462
  798SOL    HW2 3294   4.979   4.195   1.357
  799SOL     OW 3295   3.595   2.674   5.809
  799SOL    HW1 3296   3.688   2.706   5.796
  799SOL    HW2 3297   3.539   2.747   5.848
  800SOL     OW 3298   5.467   2.882   2.737
  800SOL    HW1 3299   5.535   2.822   2.694
  800SOL    HW2 3300   5.413   2.927   2.666
  801SOL     OW 3301   1.891   5.519   6.839
  801SOL    HW1 3302   1.891   5.439   6.780
  801SOL    HW2 3303   1.938   5.498   6.925
  802SOL     OW 3304   4.314   2.640   6.378
  802SOL    HW1 3305   4.371   2.698   6.437
  802SOL    HW2 3306   4.354   2.636   6.287
  803SOL     OW 3307   2.556   2.527   3.513
  803SOL    HW1 3308   2.513   2.603   3.464
  803SOL    HW2 3309   2.541   2.442   3.462
  804SOL     OW 3310   4.951   0.055   2.756
  804SOL    HW1 3311   4.934   0.119   2.831
  804SOL    HW2 3312   4.994   0.102   2.680
  805SOL     OW 3313   3.341   1.480   3.871
  805SOL    HW1 3314   3.346   1.510   3.776
  805SOL    HW2 3315   3.260   1.519   3.914
  806SOL     OW 3316   3.784   6.336   6.127
  806SOL    HW1 3317   3.787   6.366   6.222
  806SOL    HW2 3318   3.766   6.238   6.123
  807SOL     OW 3319   1.652   5.938   6.435
  807SOL    HW1 3320   1.614   5.846   6.425
  807SOL    HW2 3321   1.630   5.992   6.354
  808SOL     OW 3322   5.246   2.322   5.866
  808SOL    HW1 3323   5.239   2.224   5.851
  808SOL    HW2 3324   5.192   2.370   5.797
  809SOL     OW 3325   3.400   6.668   6.273
  809SOL    HW1 3326   3.388   6.767   6.281
  809SOL    HW2 3327   3.394   6.641   6.177
  810SOL     OW 3328   3.985   3.856   0.231
  810SOL    HW1 3329   3.916   3.851   0.159
  810SOL    HW2 3330   3.985   3.771   0.284
  811SOL     OW 3331   5.528   5.814   4.206
  811SOL    HW1 3332   5.487   5.853   4.123
  811SOL    HW2 3333   5.520   5.880   4.281
  812SOL     OW 3334   1.154   3.231   1.133
  812SOL    HW1 3335   1.217   3.231   1.056
  812SOL    HW2 3336   1.205   3.247   1.218
  813SOL     OW 3337   3.195   1.824   4.913
  813SOL    HW1 3338   3.119   1.760   4.920
  813SOL    HW2 3339   3.266   1.798   4.978
  814SOL     OW 3340   0.507   4.759   1.600
  814SOL    HW1 3341   0.499   4.848   1.645
  814SOL    HW2 3342   0.438   4.697   1.636
  815SOL     OW 3343   4.670   1.117   3.942
  815SOL    HW1 3344   4.649   1.039   3.883
  815SOL    HW2 3345   4.602   1.123   4.015
  816SOL     OW 3346   4.988   3.940   6.331
  816SOL    HW1 3347   4.976   3.849   6.294
  816SOL    HW2 3348   4.901   3.990   6.327
  817SOL     OW 3349   6.927   5.355   6.307
  817SOL    HW1 3350   6.967   5.287   6.369
  817SOL    HW2 3351   6.904   5.438   6.359
  818SOL     OW 3352   6.819   1.078   5.455
  818SOL    HW1 3353   6.827   0.983   5.485
  818SOL    HW2 3354   6.764   1.082   5.371
  819SOL     OW 3355   5.554   3.449   1.751
  819SOL    HW1 3356   5.547   3.374   1.685
  819SOL    HW2 3357   5.650   3.465   1.773
  820SOL     OW 3358   2.442   1.896   5.696
  820SOL    HW1 3359   2.377   1.852   5.757
  820SOL    HW2 3360   2.462   1.835   5.619
  821SOL     OW 3361   4.999   3.588   6.388
  821SOL    HW1 3362   5.007   3.665   6.324
  821SOL    HW2 3363   4.940   3.518   6.348
  822SOL     OW 3364   6.951   4.706   3.363
  822SOL    HW1 3365   6.964   4.625   3.306
  822SOL    HW2 3366   6.917   4.782   3.307
  823SOL     OW 3367   2.270   2.805   4.391
  823SOL    HW1 3368   2.215   2.830   4.311
  823SOL    HW2 3369   2.270   2.881   4.456
  824SOL     OW 3370   5.379   0.498   6.483
  824SOL    HW1 3371   5.349   0.431   6.552
  824SOL    HW2 3372   5.398   0.585   6.528
  825SOL     OW 3373   6.238   5.356   0.824
  825SOL    HW1 3374   6.184   5.273   0.840
  825SOL    HW2 3375   6.336   5.333   0.829
  826SOL     OW 3376   3.895   2.015   0.373
  826SOL    HW1 3377   3.941   1.994   0.287
  826SOL    HW2 3378   3.822   2.081   0.356
  827SOL     OW 3379   3.658   3.281   5.067
  827SOL    HW1 3380   3.675   3.314   4.974
  827SOL    HW2 3381   3.572   3.230   5.069
  828SOL     OW 3382   0.992   6.510   5.948
  828SOL    HW1 3383   1.068   6.529   5.886
  828SOL    HW2 3384   0.997   6.572   6.026
  829SOL     OW 3385   3.860   3.377   1.656
  829SOL    HW1 3386   3.892   3.374   1.751
  829SOL    HW2 3387   3.760   3.375   1.655
  830SOL     OW 3388   6.754   3.973   5.523
  830SOL    HW1 3389   6.838   3.975   5.577
  830SOL    HW2 3390   6.675   3.988   5.582
  831SOL     OW 3391   5.847   1.329   3.184
  831SOL    HW1 3392   5.845   1.283   3.096
  831SOL    HW2 3393   5.755   1.361   3.207
  832SOL     OW 3394   3.002   2.207   4.753
  832SOL    HW1 3395   3.042   2.297   4.771
  832SOL    HW2 3396   2.931   2.187   4.821
  833SOL     OW 3397   4.207   2.862   0.238
  833SOL    HW1 3398   4.300   2.886   0.212
  833SOL    HW2 3399   4.145   2.885   0.163
  834SOL     OW 3400   5.903   3.075   0.549
  834SOL    HW1 3401   5.877   3.154   0.605
  834SOL    HW2 3402   5.894   3.098   0.452
  835SOL     OW 3403   6.746   6.585   5.455
  835SOL    HW1 3404   6.795   6.501   5.431
  835SOL    HW2 3405   6.798   6.635   5.524
  836SOL     OW 3406   5.868   0.328   3.649
  836SOL    HW1 3407   5.823   0.250   3.606
  836SOL    HW2 3408   5.845   0.331   3.746
  837SOL     OW 3409   1.361   0.398   6.406
  837SOL    HW1 3410   1.378   0.424   6.501
  837SOL    HW2 3411   1.438   0.426   6.349
  838SOL     OW 3412   1.514   5.770   3.215
  838SOL    HW1 3413   1.516   5.796   3.118
  838SOL    HW2 3414   1.493   5.672   3.222
  839SOL     OW 3415   1.223   2.361   0.319
  839SOL    HW1 3416   1.147   2.390   0.260
  839SOL    HW2 3417   1.298   2.328   0.262
  840SOL     OW 3418   4.422   5.416   0.349
  840SOL    HW1 3419   4.400   5.470   0.430
  840SOL    HW2 3420   4.522   5.414   0.337
  841SOL     OW 3421   2.810   5.172   6.389
  841SOL    HW1 3422   2.730   5.131   6.347
  841SOL    HW2 3423   2.790   5.266   6.415
  842SOL     OW 3424   4.361   6.527   0.694
  842SOL    HW1 3425   4.321   6.488   0.611
  842SOL    HW2 3426   4.422   6.460   0.736
  843SOL     OW 3427   1.359   0.609   2.051
  843SOL    HW1 3428   1.317   0.689   2.007
  843SOL    HW2 3429   1.447   0.635   2.090
  844SOL     OW 3430   6.615   6.757   1.432
  844SOL    HW1 3431   6.546   6.688   1.452
  844SOL    HW2 3432   6.684   6.757   1.504
  845SOL     OW 3433   3.932   1.418   1.864
  845SOL    HW1 3434   3.865   1.478   1.908
  845SOL    HW2 3435   3.928   1.328   1.908
  846SOL     OW 3436   1.453   1.415   1.192
  846SOL    HW1 3437   1.422   1.367   1.274
  846SOL    HW2 3438   1.553   1.418   1.191
  847SOL     OW 3439   2.435   3.397   1.126
  847SOL    HW1 3440   2.449   3.368   1.221
  847SOL    HW2 3441   2.385   3.484   1.125
  848SOL     OW 3442   6.640   6.156   0.776
  848SOL    HW1 3443   6.672   6.251   0.772
  848SOL    HW2 3444   6.541   6.154   0.762
  849SOL     OW 3445   5.295   2.924   6.280
  849SOL    HW1 3446   5.369   2.926   6.213
  849SOL    HW2 3447   5.333   2.940   6.371
  850SOL     OW 3448   1.856   1.230   4.496
  850SOL    HW1 3449   1.778   1.202   4.440
  850SOL    HW2 3450   1.917   1.289   4.443
  851SOL     OW 3451   4.885   2.473   6.033
  851SOL    HW1 3452   4.959   2.539   6.035
  851SOL    HW2 3453   4.910   2.398   5.971
  852SOL     OW 3454   6.759   5.170   1.962
  852SOL    HW1 3455   6.796   5.251   2.008
  852SOL    HW2 3456   6.684   5.197   1.902
  853SOL     OW 3457   3.156   3.171   0.646
  853SOL    HW1 3458   3.229   3.238   0.631
  853SOL    HW2 3459   3.196   3.081   0.660
  854SOL     OW 3460   0.284   6.943   5.869
  854SOL    HW1 3461   0.378   6.955   5.837
  854SOL    HW2 3462   0.232   0.017   5.854
  855SOL     OW 3463   4.796   1.853   0.095
  855SOL    HW1 3464   4.819   1.946   0.124
  855SOL    HW2 3465   4.820   1.788   0.168
  856SOL     OW 3466   2.057   5.626   1.369
  856SOL    HW1 3467   2.076   5.535   1.406
  856SOL    HW2 3468   2.110   5.695   1.419
  857SOL     OW 3469   6.922   6.075   5.245
  857SOL    HW1 3470   6.990   6.003   5.231
  857SOL    HW2 3471   6.874   6.093   5.159
  858SOL     OW 3472   3.402   3.912   0.236
  858SOL    HW1 3473   3.470   3.857   0.284
  858SOL    HW2 3474   3.406   3.893   0.138
  859SOL     OW 3475   4.512   5.512   5.359
  859SOL    HW1 3476   4.419   5.542   5.375
  859SOL    HW2 3477   4.548   5.468   5.442
  860SOL     OW 3478   4.437   2.924   5.988
  860SOL    HW1 3479   4.525   2.909   6.034
  860SOL    HW2 3480   4.377   2.978   6.047
  861SOL     OW 3481   1.015   5.651   2.669
  861SOL    HW1 3482   1.007   5.674   2.573
  861SOL    HW2 3483   1.111   5.629   2.690
  862SOL     OW 3484   1.022   4.216   3.821
  862SOL    HW1 3485   0.943   4.226   3.760
  862SOL    HW2 3486   1.026   4.122   3.855
  863SOL     OW 3487   5.462   0.967   1.631
  863SOL    HW1 3488   5.550   0.967   1.583
  863SOL    HW2 3489   5.390   0.996   1.568
  864SOL     OW 3490   5.773   5.472   3.024
  864SOL    HW1 3491   5.739   5.407   2.956
  864SOL    HW2 3492   5.812   5.422   3.101
  865SOL     OW 3493   1.133   5.190   4.684
  865SOL    HW1 3494   1.208   5.152   4.629
  865SOL    HW2 3495   1.056   5.126   4.683
  866SOL     OW 3496   3.710   6.874   1.382
  866SOL    HW1 3497   3.702   6.972   1.398
  866SOL    HW2 3498   3.668   6.824   1.457
  867SOL     OW 3499   6.172   3.575   5.199
  867SOL    HW1 3500   6.083   3.595   5.239
  867SOL    HW2 3501   6.161   3.506   5.127
  868SOL     OW 3502   0.724   1.772   2.246
  868SOL    HW1 3503   0.776   1.851   2.279
  868SOL    HW2 3504   0.787   1.698   2.225
  869SOL     OW 3505   0.270   3.119   2.303
  869SOL    HW1 3506   0.364   3.084   2.302
  869SOL    HW2 3507   0.207   3.042   2.308
  870SOL     OW 3508   3.734   5.060   2.253
  870SOL    HW1 3509   3.712   5.002   2.331
  870SOL    HW2 3510   3.651   5.082   2.202
  871SOL     OW 3511   4.473   1.678   3.629
  871SOL    HW1 3512   4.396   1.740   3.617
  871SOL    HW2 3513   4.440   1.585   3.645
  872SOL     OW 3514   1.306   2.062   4.896
  872SOL    HW1 3515   1.310   1.971   4.939
  872SOL    HW2 3516   1.211   2.084   4.874
  873SOL     OW 3517   3.994   6.848   6.411
  873SOL    HW1 3518   3.955   6.939   6.415
  873SOL    HW2 3519   4.080   6.850   6.361
  874SOL     OW 3520   6.219   3.797   1.904
  874SOL    HW1 3521   6.212   3.895   1.882
  874SOL    HW2 3522   6.262   3.749   1.828
  875SOL     OW 3523   5.260   6.026   2.503
  875SOL    HW1 3524   5.186   5.960   2.518
  875SOL    HW2 3525   5.249   6.102   2.567
  876SOL     OW 3526   6.429   1.045   6.484
  876SOL    HW1 3527   6.468   1.123   6.533
  876SOL    HW2 3528   6.459   1.046   6.389
  877SOL     OW 3529   1.319   3.185   6.778
  877SOL    HW1 3530   1.370   3.155   6.698
  877SOL    HW2 3531   1.368   3.261   6.821
  878SOL     OW 3532   3.951   6.585   4.249
  878SOL    HW1 3533   4.008   6.663   4.223
  878SOL    HW2 3534   3.980   6.504   4.197
  879SOL     OW 3535   5.716   6.859   6.282
  879SOL    HW1 3536   5.649   6.816   6.343
  879SOL    HW2 3537   5.668   6.903   6.206
  880SOL     OW 3538   3.255   3.527   3.017
  880SOL    HW1 3539   3.324   3.520   3.088
  880SOL    HW2 3540   3.164   3.527   3.059
  881SOL     OW 3541   4.186   2.111   0.320
  881SOL    HW1 3542   4.094   2.146   0.337
  881SOL    HW2 3543   4.251   2.159   0.378
  882SOL     OW 3544   1.840   3.082   3.220
  882SOL    HW1 3545   1.920   3.040   3.263
  882SOL    HW2 3546   1.817   3.032   3.136
  883SOL     OW 3547   2.386   6.386   2.949
  883SOL    HW1 3548   2.402   6.452   3.022
  883SOL    HW2 3549   2.450   6.403   2.874
  884SOL     OW 3550   2.649   3.303   6.224
  884SOL    HW1 3551   2.712   3.254   6.163
  884SOL    HW2 3552   2.633   3.248   6.306
  885SOL     OW 3553   4.013   2.874   6.284
  885SOL    HW1 3554   4.103   2.852   6.246
  885SOL    HW2 3555   4.011   2.971   6.310
  886SOL     OW 3556   3.639   0.996   6.956
  886SOL    HW1 3557   3.666   0.956   0.033
  886SOL    HW2 3558   3.705   1.067   6.930
  887SOL     OW 3559   4.461   0.991   5.473
  887SOL    HW1 3560   4.498   1.069   5.523
  887SOL    HW2 3561   4.361   1.001   5.466
  888SOL     OW 3562   0.204   6.550   1.627
  888SOL    HW1 3563   0.253   6.583   1.707
  888SOL    HW2 3564   0.268   6.536   1.551
  889SOL     OW 3565   0.085   3.784   0.404
  889SOL    HW1 3566   0.159   3.759   0.466
  889SOL    HW2 3567   7.008   3.763   0.446
  890SOL     OW 3568   2.170   6.191   4.508
  890SOL    HW1 3569   2.180   6.282   4.467
  890SOL    HW2 3570   2.112   6.198   4.589
  891SOL     OW 3571   5.090   4.744   2.301
  891SOL    HW1 3572   5.041   4.738   2.214
  891SOL    HW2 3573   5.059   4.670   2.362
  892SOL     OW 3574   2.571   4.333   0.753
  892SOL    HW1 3575   2.608   4.321   0.661
  892SOL    HW2 3576   2.499   4.265   0.769
  893SOL     OW 3577   1.519   5.372   2.819
  893SOL    HW1 3578   1.582   5.449   2.812
  893SOL    HW2 3579   1.485   5.366   2.913
  894SOL     OW 3580   1.030   4.434   0.952
  894SOL    HW1 3581   1.052   4.531   0.942
  894SOL    HW2 3582   0.944   4.424   1.001
  895SOL     OW 3583   6.911   5.072   3.994
  895SOL    HW1 3584   6.860   5.112   3.918
  895SOL    HW2 3585   6.965   4.995   3.961
  896SOL     OW 3586   0.262   0.873   6.502
  896SOL    HW1 3587   0.198   0.883   6.578
  896SOL    HW2 3588   0.298   0.779   6.501
  897SOL     OW 3589   5.145   1.089   0.905
  897SOL    HW1 3590   5.228   1.145   0.904
  897SOL    HW2 3591   5.064   1.148   0.904
  898SOL     OW 3592   3.780   0.712   2.583
  898SOL    HW1 3593   3.868   0.674   2.612
  898SOL    HW2 3594   3.795   0.795   2.530
  899SOL     OW 3595   6.536   6.012   6.815
  899SOL    HW1 3596   6.524   5.955   6.733
  899SOL    HW2 3597   6.487   6.099   6.803
  900SOL     OW 3598   5.178   5.319   0.454
  900SOL    HW1 3599   5.265   5.275   0.431
  900SOL    HW2 3600   5.159   5.307   0.551
  901SOL     OW 3601   1.137   0.411   3.545
  901SOL    HW1 3602   1.059   0.472   3.558
  901SOL    HW2 3603   1.219   0.455   3.583
  902SOL     OW 3604   6.640   2.920   1.495
  902SOL    HW1 3605   6.683   2.996   1.446
  902SOL    HW2 3606   6.637   2.941   1.592
  903SOL     OW 3607   0.137   1.193   1.203
  903SOL    HW1 3608   0.056   1.171   1.258
  903SOL    HW2 3609   0.171   1.283   1.229
  904SOL     OW 3610   2.622   0.955   3.083
  904SOL    HW1 3611   2.647   0.912   3.170
  904SOL    HW2 3612   2.542   1.013   3.098
  905SOL     OW 3613   6.255   2.129   6.033
  905SOL    HW1 3614   6.185   2.063   6.060
  905SOL    HW2 3615   6.300   2.097   5.949
  906SOL     OW 3616   5.126   2.914   0.496
  906SOL    HW1 3617   5.068   2.852   0.443
  906SOL    HW2 3618   5.208   2.936   0.443
  907SOL     OW 3619   5.283   4.375   6.402
  907SOL    HW1 3620   5.323   4.389   6.312
  907SOL    HW2 3621   5.321   4.292   6.443
  908SOL     OW 3622   0.727   4.222   3.669
  908SOL    HW1 3623   0.717   4.127   3.639
  908SOL    HW2 3624   0.794   4.268   3.611
  909SOL     OW 3625   5.420   5.862   6.001
  909SOL    HW1 3626   5.495   5.796   6.007
  909SOL    HW2 3627   5.333   5.815   6.013
  910SOL     OW 3628   3.336   4.668   0.369
  910SOL    HW1 3629   3.256   4.608   0.377
  910SOL    HW2 3630   3.414   4.626   0.415
  911SOL     OW 3631   1.084   4.272   5.299
  911SOL    HW1 3632   1.097   4.238   5.392
  911SOL    HW2 3633   1.174   4.289   5.257
  912SOL     OW 3634   4.960   1.604   4.624
  912SOL    HW1 3635   4.965   1.552   4.709
  912SOL    HW2 3636   4.867   1.640   4.613
  913SOL     OW 3637   4.788   6.703   3.020
  913SOL    HW1 3638   4.730   6.744   2.950
  913SOL    HW2 3639   4.864   6.765   3.040
  914SOL     OW 3640   3.177   6.473   6.144
  914SOL    HW1 3641   3.132   6.422   6.216
  914SOL    HW2 3642   3.261   6.426   6.117
  915SOL     OW 3643   5.536   5.699   1.439
  915SOL    HW1 3644   5.440   5.720   1.422
  915SOL    HW2 3645   5.548   5.600   1.447
  916SOL     OW 3646   1.186   3.222   2.936
  916SOL    HW1 3647   1.185   3.271   2.849
  916SOL    HW2 3648   1.280   3.194   2.957
  917SOL     OW 3649   0.599   6.758   6.681
  917SOL    HW1 3650   0.581   6.707   6.597
  917SOL    HW2 3651   0.593   6.856   6.663
  918SOL     OW 3652   3.514   6.319   0.041
  918SOL    HW1 3653   3.605   6.356   0.061
  918SOL    HW2 3654   3.449   6.394   0.030
  919SOL     OW 3655   4.515   0.811   5.884
  919SOL    HW1 3656   4.481   0.901   5.910
  919SOL    HW2 3657   4.493   0.793   5.788
  920SOL     OW 3658   3.106   4.847   1.709
  920SOL    HW1 3659   3.171   4.862   1.635
  920SOL    HW2 3660   3.131   4.902   1.788
  921SOL     OW 3661   4.816   5.843   4.947
  921SOL    HW1 3662   4.738   5.804   4.897
  921SOL    HW2 3663   4.806   5.826   5.044
  922SOL     OW 3664   3.453   3.690   3.397
  922SOL    HW1 3665   3.478   3.631   3.320
  922SOL    HW2 3666   3.354   3.706   3.396
  923SOL     OW 3667   2.536   3.482   5.645
  923SOL    HW1 3668   2.554   3.510   5.551
  923SOL    HW2 3669   2.457   3.532   5.680
  924SOL     OW 3670   0.465   3.258   1.041
  924SOL    HW1 3671   0.524   3.307   1.104
  924SOL    HW2 3672   0.477   3.295   0.948
  925SOL     OW 3673   0.644   1.093   6.605
  925SOL    HW1 3674   0.729   1.081   6.553
  925SOL    HW2 3675   0.653   1.173   6.664
  926SOL     OW 3676   1.966   1.853   1.399
  926SOL    HW1 3677   1.907   1.782   1.360
  926SOL    HW2 3678   1.963   1.848   1.498
  927SOL     OW 3679   6.709   3.459   4.476
  927SOL    HW1 3680   6.789   3.399   4.484
  927SOL    HW2 3681   6.626   3.404   4.486
  928SOL     OW 3682   2.980   5.210   5.575
  928SOL    HW1 3683   2.915   5.213   5.651
  928SOL    HW2 3684   2.942   5.155   5.501
  929SOL     OW 3685   0.716   1.546   4.683
  929SOL    HW1 3686   0.781   1.600   4.629
  929SOL    HW2 3687   0.686   1.599   4.762
  930SOL     OW 3688   5.921   5.525   4.669
  930SOL    HW1 3689   5.971   5.559   4.590
  930SOL    HW2 3690   5.823   5.521   4.648
  931SOL     OW 3691   5.948   0.452   3.430
  931SOL    HW1 3692   5.931   0.396   3.512
  931SOL    HW2 3693   5.910   0.407   3.350
  932SOL     OW 3694   3.518   0.538   3.461
  932SOL    HW1 3695   3.454   0.592   3.407
  932SOL    HW2 3696   3.525   0.578   3.553
  933SOL     OW 3697   0.969   5.526   1.650
  933SOL    HW1 3698   1.011   5.614   1.672
  933SOL    HW2 3699   0.973   5.511   1.551
  934SOL     OW 3700   1.787   2.833   0.137
  934SOL    HW1 3701   1.763   2.904   0.203
  934SOL    HW2 3702   1.826   2.754   0.185
  935SOL     OW 3703   5.672   2.773   5.651
  935SOL    HW1 3704   5.627   2.707   5.712
  935SOL    HW2 3705   5.723   2.839   5.706
  936SOL     OW 3706   2.020   0.740   5.951
  936SOL    HW1 3707   2.022   0.644   5.976
  936SOL    HW2 3708   2.099   0.787   5.990
  937SOL     OW 3709   3.255   2.531   6.173
  937SOL    HW1 3710   3.343   2.555   6.214
  937SOL    HW2 3711   3.265   2.450   6.115
  938SOL     OW 3712   5.038   6.443   4.821
  938SOL    HW1 3713   5.012   6.357   4.777
  938SOL    HW2 3714   4.959   6.482   4.868
  939SOL     OW 3715   1.393   0.118   5.279
  939SOL    HW1 3716   1.369   0.022   5.295
  939SOL    HW2 3717   1.489   0.133   5.303
  940SOL     OW 3718   1.796   5.579   0.594
  940SOL    HW1 3719   1.751   5.663   0.624
  940SOL    HW2 3720   1.735   5.501   0.610
  941SOL     OW 3721   3.939   6.690   1.020
  941SOL    HW1 3722   3.986   6.765   0.975
  941SOL    HW2 3723   3.980   6.674   1.110
  942SOL     OW 3724   6.734   5.136   7.000
  942SOL    HW1 3725   6.679   5.143   6.916
  942SOL    HW2 3726   6.718   5.217   0.046
  943SOL     OW 3727   3.539   5.749   1.110
  943SOL    HW1 3728   3.467   5.707   1.055
  943SOL    HW2 3729   3.615   5.776   1.050
  944SOL     OW 3730   6.915   6.007   3.140
  944SOL    HW1 3731   6.900   6.039   3.234
  944SOL    HW2 3732   6.941   5.911   3.141
  945SOL     OW 3733   1.015   5.686   6.669
  945SOL    HW1 3734   1.035   5.730   6.757
  945SOL    HW2 3735   1.072   5.726   6.598
  946SOL     OW 3736   5.661   1.938   3.975
  946SOL    HW1 3737   5.600   1.937   4.055
  946SOL    HW2 3738   5.751   1.969   4.003
  947SOL     OW 3739   3.985   3.903   2.588
  947SOL    HW1 3740   4.053   3.856   2.645
  947SOL    HW2 3741   4.024   3.919   2.497
  948SOL     OW 3742   3.505   1.231   3.817
  948SOL    HW1 3743   3.474   1.320   3.850
  948SOL    HW2 3744   3.511   1.167   3.893
  949SOL     OW 3745   2.947   0.248   5.760
  949SOL    HW1 3746   2.969   0.344   5.741
  949SOL    HW2 3747   2.849   0.240   5.780
  950SOL     OW 3748   6.824   0.050   1.813
  950SOL    HW1 3749   6.896   0.014   1.754
  950SOL    HW2 3750   6.804   6.994   1.885
  951SOL     OW 3751   1.140   0.175   3.064
  951SOL    HW1 3752   1.198   0.140   2.990
  951SOL    HW2 3753   1.049   0.133   3.057
  952SOL     OW 3754   3.678   1.595   3.356
  952SOL    HW1 3755   3.673   1.529   3.431
  952SOL    HW2 3756   3.773   1.619   3.339
  953SOL     OW 3757   0.822   5.413   5.883
  953SOL    HW1 3758   0.797   5.419   5.979
  953SOL    HW2 3759   0.822   5.504   5.842
  954SOL     OW 3760   4.524   6.337   2.473
  954SOL    HW1 3761   4.571   6.264   2.523
  954SOL    HW2 3762   4.487   6.403   2.538
  955SOL     OW 3763   2.461   5.061   0.990
  955SOL    HW1 3764   2.496   4.979   1.035
  955SOL    HW2 3765   2.506   5.072   0.902
  956SOL     OW 3766   3.737   0.483   0.999
  956SOL    HW1 3767   3.752   0.384   0.997
  956SOL    HW2 3768   3.673   0.509   0.927
  957SOL     OW 3769   5.919   6.502   3.482
  957SOL    HW1 3770   5.941   6.566   3.409
  957SOL    HW2 3771   5.832   6.456   3.461
  958SOL     OW 3772   5.606   6.044   2.129
  958SOL    HW1 3773   5.513   6.007   2.136
  958SOL    HW2 3774   5.643   6.057   2.221
  959SOL     OW 3775   4.995   0.292   2.904
  959SOL    HW1 3776   4.914   0.350   2.905
  959SOL    HW2 3777   5.076   0.348   2.887
  960SOL     OW 3778   1.779   6.130   6.014
  960SOL    HW1 3779   1.820   6.133   5.923
  960SOL    HW2 3780   1.851   6.133   6.083
  961SOL     OW 3781   4.399   1.278   3.700
  961SOL    HW1 3782   4.459   1.304   3.776
  961SOL    HW2 3783   4.384   1.179   3.702
  962SOL     OW 3784   0.276   6.896   4.437
  962SOL    HW1 3785   0.280   6.844   4.352
  962SOL    HW2 3786   0.361   6.947   4.448
  963SOL     OW 3787   5.803   2.996   1.676
  963SOL    HW1 3788   5.843   3.053   1.605
  963SOL    HW2 3789   5.868   2.924   1.703
  964SOL     OW 3790   3.389   6.615   4.806
  964SOL    HW1 3791   3.329   6.635   4.884
  964SOL    HW2 3792   3.467   6.678   4.807
  965SOL     OW 3793   4.706   2.101   3.947
  965SOL    HW1 3794   4.713   2.169   4.020
  965SOL    HW2 3795   4.796   2.059   3.932
  966SOL     OW 3796   5.273   0.937   3.516
  966SOL    HW1 3797   5.226   0.861   3.472
  966SOL    HW2 3798   5.274   1.016   3.454
  967SOL     OW 3799   3.989   5.028   5.942
  967SOL    HW1 3800   4.058   5.020   5.869
  967SOL    HW2 3801   3.910   5.078   5.908
  968SOL     OW 3802   3.688   0.644   1.208
  968SOL    HW1 3803   3.717   0.611   1.118
  968SOL    HW2 3804   3.643   0.733   1.198
  969SOL     OW 3805   2.815   3.577   6.784
  969SOL    HW1 3806   2.809   3.663   6.735
  969SOL    HW2 3807   2.849   3.506   6.723
  970SOL     OW 3808   4.371   6.780   5.249
  970SOL    HW1 3809   4.446   6.819   5.303
  970SOL    HW2 3810   4.289   6.834   5.262
  971SOL     OW 3811   5.290   3.225   3.591
  971SOL    HW1 3812   5.373   3.275   3.565
  971SOL    HW2 3813   5.243   3.275   3.665
  972SOL     OW 3814   0.599   2.181   0.850
  972SOL    HW1 3815   0.528   2.154   0.915
  972SOL    HW2 3816   0.683   2.203   0.900
  973SOL     OW 3817   6.910   2.768   4.637
  973SOL    HW1 3818   6.815   2.797   4.627
  973SOL    HW2 3819   6.934   2.768   4.734
  974SOL     OW 3820   0.408   3.198   1.983
  974SOL    HW1 3821   0.385   3.110   1.941
  974SOL    HW2 3822   0.421   3.267   1.911
  975SOL     OW 3823   2.754   0.451   2.067
  975SOL    HW1 3824   2.659   0.458   2.037
  975SOL    HW2 3825   2.810   0.410   1.995
  976SOL     OW 3826   0.312   2.631   3.901
  976SOL    HW1 3827   0.350   2.720   3.876
  976SOL    HW2 3828   0.259   2.640   3.986
  977SOL     OW 3829   6.073   1.103   2.308
  977SOL    HW1 3830   6.169   1.113   2.281
  977SOL    HW2 3831   6.028   1.192   2.306
  978SOL     OW 3832   4.758   3.008   0.736
  978SOL    HW1 3833   4.849   3.023   0.775
  978SOL    HW2 3834   4.742   3.074   0.663
  979SOL     OW 3835   0.421   4.822   6.368
  979SOL    HW1 3836   0.450   4.823   6.273
  979SOL    HW2 3837   0.452   4.906   6.413
  980SOL     OW 3838   4.326   1.117   4.463
  980SOL    HW1 3839   4.301   1.211   4.437
  980SOL    HW2 3840   4.310   1.056   4.386
  981SOL     OW 3841   1.012   5.896   5.531
  981SOL    HW1 3842   1.035   5.807   5.570
  981SOL    HW2 3843   1.018   5.891   5.431
  982SOL     OW 3844   0.152   0.884   6.769
  982SOL    HW1 3845   0.214   0.963   6.771
  982SOL    HW2 3846   0.164   0.831   6.854
  983SOL     OW 3847   0.337   3.624   2.888
  983SOL    HW1 3848   0.289   3.555   2.834
  983SOL    HW2 3849   0.428   3.591   2.912
  984SOL     OW 3850   0.404   3.405   3.760
  984SOL    HW1 3851   0.343   3.479   3.789
  984SOL    HW2 3852   0.425   3.346   3.839
  985SOL     OW 3853   5.731   5.779   4.896
  985SOL    HW1 3854   5.680   5.723   4.831
  985SOL    HW2 3855   5.723   5.739   4.987
  986SOL     OW 3856   3.564   5.713   1.743
  986SOL    HW1 3857   3.475   5.717   1.698
  986SOL    HW2 3858   3.561   5.765   1.828
  987SOL     OW 3859   4.620   4.522   4.651
  987SOL    HW1 3860   4.604   4.510   4.553
  987SOL    HW2 3861   4.642   4.434   4.693
  988SOL     OW 3862   3.011   4.789   2.025
  988SOL    HW1 3863   3.096   4.791   1.973
  988SOL    HW2 3864   2.955   4.711   1.997
  989SOL     OW 3865   0.229   2.762   1.032
  989SOL    HW1 3866   0.244   2.684   0.971
  989SOL    HW2 3867   0.310   2.820   1.032
  990SOL     OW 3868   3.602   0.271   5.114
  990SOL    HW1 3869   3.564   0.316   5.195
  990SOL    HW2 3870   3.701   0.266   5.122
  991SOL     OW 3871   0.793   5.868   3.948
  991SOL    HW1 3872   0.880   5.918   3.944
  991SOL    HW2 3873   0.718   5.933   3.963
  992SOL     OW 3874   6.539   2.676   0.172
  992SOL    HW1 3875   6.531   2.773   0.195
  992SOL    HW2 3876   6.586   2.628   0.247
  993SOL     OW 3877   1.956   4.815   6.632
  993SOL    HW1 3878   1.901   4.850   6.556
  993SOL    HW2 3879   2.040   4.775   6.597
  994SOL     OW 3880   2.810   0.252   1.635
  994SOL    HW1 3881   2.771   0.169   1.675
  994SOL    HW2 3882   2.740   0.300   1.582
  995SOL     OW 3883   5.709   3.960   5.280
  995SOL    HW1 3884   5.673   4.045   5.318
  995SOL    HW2 3885   5.695   3.958   5.181
  996SOL     OW 3886   4.131   6.445   5.191
  996SOL    HW1 3887   4.127   6.451   5.291
  996SOL    HW2 3888   4.082   6.521   5.150
  997SOL     OW 3889   1.479   6.470   3.352
  997SOL    HW1 3890   1.543   6.531   3.399
  997SOL    HW2 3891   1.477   6.382   3.400
  998SOL     OW 3892   4.527   6.883   0.460
  998SOL    HW1 3893   4.582   6.801   0.475
  998SOL    HW2 3894   4.440   6.874   0.507
  999SOL     OW 3895   5.419   3.003   2.201
  999SOL    HW1 3896   5.391   2.938   2.272
  999SOL    HW2 3897   5.511   2.980   2.169
 1000SOL     OW 3898   5.389   1.827   2.220
 1000SOL    HW1 3899   5.469   1.793   2.270
 1000SOL    HW2 3900   5.306   1.808   2.272
 1001SOL     OW 3901   2.726   6.671   2.761
 1001SOL    HW1 3902   2.824   6.672   2.782
 1001SOL    HW2 3903   2.688   6.761   2.782
 1002SOL     OW 3904   4.032   2.317   0.419
 1002SOL    HW1 3905   3.943   2.352   0.448
 1002SOL    HW2 3906   4.099   2.333   0.492
 1003SOL     OW 3907   0.690   0.803   3.461
 1003SOL    HW1 3908   0.705   0.822   3.558
 1003SOL    HW2 3909   0.698   0.704   3.445
 1004SOL     OW 3910   5.314   1.639   4.405
 1004SOL    HW1 3911   5.241   1.586   4.362
 1004SOL    HW2 3912   5.284   1.670   4.495
 1005SOL     OW 3913   0.568   5.311   1.653
 1005SOL    HW1 3914   0.580   5.356   1.565
 1005SOL    HW2 3915   0.638   5.344   1.717
 1006SOL     OW 3916   2.044   4.458   1.637
 1006SOL    HW1 3917   2.089   4.388   1.693
 1006SOL    HW2 3918   1.962   4.420   1.596
 1007SOL     OW 3919   4.907   1.019   6.406
 1007SOL    HW1 3920   4.816   1.047   6.437
 1007SOL    HW2 3921   4.898   0.965   6.322
 1008SOL     OW 3922   0.105   4.819   4.807
 1008SOL    HW1 3923   0.128   4.807   4.710
 1008SOL    HW2 3924   0.059   4.736   4.840
 1009SOL     OW 3925   6.474   5.745   6.656
 1009SOL    HW1 3926   6.412   5.698   6.719
 1009SOL    HW2 3927   6.459   5.711   6.563
 1010SOL     OW 3928   2.840   3.557   0.538
 1010SOL    HW1 3929   2.916   3.549   0.603
 1010SOL    HW2 3930   2.771   3.619   0.576
 1011SOL     OW 3931   6.882   4.909   2.316
 1011SOL    HW1 3932   6.973   4.868   2.306
 1011SOL    HW2 3933   6.881   5.000   2.275
 1012SOL     OW 3934   5.540   6.323   2.705
 1012SOL    HW1 3935   5.565   6.230   2.676
 1012SOL    HW2 3936   5.611   6.387   2.677
 1013SOL     OW 3937   0.946   0.480   6.087
 1013SOL    HW1 3938   0.903   0.565   6.115
 1013SOL    HW2 3939   1.039   0.474   6.125
 1014SOL     OW 3940   1.004   4.710   4.151
 1014SOL    HW1 3941   0.999   4.714   4.251
 1014SOL    HW2 3942   1.088   4.663   4.124
 1015SOL     OW 3943   2.644   6.389   6.718
 1015SOL    HW1 3944   2.707   6.402   6.642
 1015SOL    HW2 3945   2.632   6.476   6.766
 1016SOL     OW 3946   6.786   4.633   0.784
 1016SOL    HW1 3947   6.719   4.656   0.713
 1016SOL    HW2 3948   6.878   4.643   0.747
 1017SOL     OW 3949   2.221   1.115   2.587
 1017SOL    HW1 3950   2.271   1.122   2.673
 1017SOL    HW2 3951   2.151   1.044   2.595
 1018SOL     OW 3952   6.054   6.508   5.025
 1018SOL    HW1 3953   6.151   6.528   5.034
 1018SOL    HW2 3954   6.004   6.593   5.006
 1019SOL     OW 3955   6.174   4.025   1.240
 1019SOL    HW1 3956   6.212   3.947   1.290
 1019SOL    HW2 3957   6.107   4.072   1.298
 1020SOL     OW 3958   5.226   1.473   1.440
 1020SOL    HW1 3959   5.129   1.497   1.435
 1020SOL    HW2 3960   5.281   1.557   1.439
 1021SOL     OW 3961   1.474   6.829   0.767
 1021SOL    HW1 3962   1.401   6.898   0.769
 1021SOL    HW2 3963   1.549   6.860   0.709
 1022SOL     OW 3964   2.341   4.873   6.329
 1022SOL    HW1 3965   2.306   4.797   6.275
 1022SOL    HW2 3966   2.441   4.874   6.326
 1023SOL     OW 3967   0.950   1.593   2.193
 1023SOL    HW1 3968   0.920   1.521   2.131
 1023SOL    HW2 3969   1.006   1.659   2.144
 1024SOL     OW 3970   2.007   2.084   4.774
 1024SOL    HW1 3971   2.089   2.134   4.801
 1024SOL    HW2 3972   2.027   2.030   4.692
 1025SOL     OW 3973   4.370   4.382   1.234
 1025SOL    HW1 3974   4.387   4.424   1.323
 1025SOL    HW2 3975   4.360   4.283   1.246
 1026SOL     OW 3976   3.173   2.932   2.055
 1026SOL    HW1 3977   3.122   2.979   2.127
 1026SOL    HW2 3978   3.263   2.906   2.090
 1027SOL     OW 3979   6.460   6.790   0.127
 1027SOL    HW1 3980   6.532   6.733   0.166
 1027SOL    HW2 3981   6.469   6.884   0.162
 1028SOL     OW 3982   1.054   4.651   2.890
 1028SOL    HW1 3983   0.987   4.687   2.955
 1028SOL    HW2 3984   1.146   4.660   2.928
 1029SOL     OW 3985   0.893   0.522   5.249
 1029SOL    HW1 3986   0.906   0.614   5.213
 1029SOL    HW2 3987   0.865   0.527   5.345
 1030SOL     OW 3988   3.979   3.401   0.797
 1030SOL    HW1 3989   4.054   3.336   0.804
 1030SOL    HW2 3990   4.008   3.490   0.832
 1031SOL     OW 3991   4.123   3.072   0.623
 1031SOL    HW1 3992   4.144   3.021   0.706
 1031SOL    HW2 3993   4.205   3.118   0.590
 1032SOL     OW 3994   1.672   1.204   1.059
 1032SOL    HW1 3995   1.678   1.278   0.992
 1032SOL    HW2 3996   1.624   1.126   1.019
 1033SOL     OW 3997   6.768   0.098   2.142
 1033SOL    HW1 3998   6.787   0.179   2.087
 1033SOL    HW2 3999   6.694   0.117   2.206
 1034SOL     OW 4000   2.526   0.965   5.153
 1034SOL    HW1 4001   2.461   1.040   5.139
 1034SOL    HW2 4002   2.615   1.003   5.180
 1035SOL     OW 4003   1.564   0.411   0.164
 1035SOL    HW1 4004   1.653   0.364   0.161
 1035SOL    HW2 4005   1.555   0.458   0.252
 1036SOL     OW 4006   4.748   1.412   2.108
 1036SOL    HW1 4007   4.733   1.366   2.195
 1036SOL    HW2 4008   4.845   1.432   2.097
 1037SOL     OW 4009   1.875   3.666   2.974
 1037SOL    HW1 4010   1.812   3.652   2.897
 1037SOL    HW2 4011   1.836   3.734   3.036
 1038SOL     OW 4012   1.908   6.005   0.087
 1038SOL    HW1 4013   1.928   5.917   0.130
 1038SOL    HW2 4014   1.931   6.002   7.001
 1039SOL     OW 4015   3.094   3.880   2.961
 1039SOL    HW1 4016   3.028   3.808   2.945
 1039SOL    HW2 4017   3.129   3.875   3.054
 1040SOL     OW 4018   3.748   1.491   2.940
 1040SOL    HW1 4019   3.847   1.506   2.948
 1040SOL    HW2 4020   3.701   1.543   3.012
 1041SOL     OW 4021   6.644   6.546   6.536
 1041SOL    HW1 4022   6.676   6.516   6.446
 1041SOL    HW2 4023   6.568   6.610   6.525
 1042SOL     OW 4024   5.429   3.846   3.969
 1042SOL    HW1 4025   5.372   3.910   3.916
 1042SOL    HW2 4026   5.376   3.763   3.987
 1043SOL     OW 4027   2.615   1.922   3.860
 1043SOL    HW1 4028   2.652   1.947   3.949
 1043SOL    HW2 4029   2.515   1.924   3.864
 1044SOL     OW 4030   5.864   4.387   1.974
 1044SOL    HW1 4031   5.943   4.435   2.013
 1044SOL    HW2 4032   5.895   4.320   1.907
 1045SOL     OW 4033   2.273   0.471   2.556
 1045SOL    HW1 4034   2.319   0.433   2.476
 1045SOL    HW2 4035   2.189   0.419   2.574
 1046SOL     OW 4036   2.921   2.550   0.791
 1046SOL    HW1 4037   2.975   2.585   0.714
 1046SOL    HW2 4038   2.907   2.624   0.857
 1047SOL     OW 4039   3.462   0.898   3.334
 1047SOL    HW1 4040   3.466   0.920   3.431
 1047SOL    HW2 4041   3.553   0.909   3.294
 1048SOL     OW 4042   0.870   0.124   1.875
 1048SOL    HW1 4043   0.910   0.033   1.870
 1048SOL    HW2 4044   0.809   0.138   1.796
 1049SOL     OW 4045   3.576   6.732   0.458
 1049SOL    HW1 4046   3.533   6.711   0.370
 1049SOL    HW2 4047   3.525   6.688   0.532
 1050SOL     OW 4048   2.159   1.516   4.704
 1050SOL    HW1 4049   2.214   1.592   4.738
 1050SOL    HW2 4050   2.105   1.547   4.626
 1051SOL     OW 4051   1.769   2.015   5.390
 1051SOL    HW1 4052   1.828   2.094   5.373
 1051SOL    HW2 4053   1.820   1.946   5.442
 1052SOL     OW 4054   4.309   1.951   6.902
 1052SOL    HW1 4055   4.237   1.986   6.961
 1052SOL    HW2 4056   4.390   2.008   6.911
 1053SOL     OW 4057   5.085   2.813   4.093
 1053SOL    HW1 4058   5.084   2.723   4.050
 1053SOL    HW2 4059   5.016   2.871   4.050
 1054SOL     OW 4060   4.665   5.409   6.519
 1054SOL    HW1 4061   4.716   5.326   6.544
 1054SOL    HW2 4062   4.569   5.399   6.547
 1055SOL     OW 4063   5.258   5.701   6.552
 1055SOL    HW1 4064   5.275   5.765   6.478
 1055SOL    HW2 4065   5.311   5.617   6.537
 1056SOL     OW 4066   3.778   3.976   0.442
 1056SOL    HW1 4067   3.854   3.977   0.378
 1056SOL    HW2 4068   3.711   3.907   0.413
 1057SOL     OW 4069   3.320   3.263   6.539
 1057SOL    HW1 4070   3.258   3.323   6.589
 1057SOL    HW2 4071   3.306   3.276   6.440
 1058SOL     OW 4072   3.085   2.148   2.140
 1058SOL    HW1 4073   3.004   2.207   2.142
 1058SOL    HW2 4074   3.117   2.138   2.046
 1059SOL     OW 4075   2.134   6.095   2.314
 1059SOL    HW1 4076   2.096   6.051   2.233
 1059SOL    HW2 4077   2.214   6.149   2.290
 1060SOL     OW 4078   5.977   0.385   5.465
 1060SOL    HW1 4079   5.976   0.286   5.478
 1060SOL    HW2 4080   6.031   0.428   5.538
 1061SOL     OW 4081   6.982   3.939   6.425
 1061SOL    HW1 4082   0.033   4.000   6.375
 1061SOL    HW2 4083   0.015   3.850   6.439
 1062SOL     OW 4084   2.972   4.990   5.393
 1062SOL    HW1 4085   2.878   5.012   5.420
 1062SOL    HW2 4086   2.972   4.906   5.339
 1063SOL     OW 4087   3.019   6.237   3.882
 1063SOL    HW1 4088   2.983   6.330   3.878
 1063SOL    HW2 4089   2.949   6.175   3.916
 1064SOL     OW 4090   0.715   3.790   0.606
 1064SOL    HW1 4091   0.779   3.793   0.682
 1064SOL    HW2 4092   0.749   3.849   0.532
 1065SOL     OW 4093   6.208   1.048   5.037
 1065SOL    HW1 4094   6.177   1.119   4.973
 1065SOL    HW2 4095   6.306   1.061   5.056
 1066SOL     OW 4096   4.628   6.132   0.974
 1066SOL    HW1 4097   4.530   6.124   0.993
 1066SOL    HW2 4098   4.648   6.090   0.885
 1067SOL     OW 4099   2.967   1.329   6.955
 1067SOL    HW1 4100   2.921   1.341   6.867
 1067SOL    HW2 4101   2.998   1.235   6.964
 1068SOL     OW 4102   5.896   2.653   1.902
 1068SOL    HW1 4103   5.921   2.597   1.982
 1068SOL    HW2 4104   5.797   2.649   1.890
 1069SOL     OW 4105   6.959   2.778   2.629
 1069SOL    HW1 4106   6.928   2.857   2.575
 1069SOL    HW2 4107   6.926   2.788   2.723
 1070SOL     OW 4108   0.848   0.697   2.471
 1070SOL    HW1 4109   0.912   0.746   2.412
 1070SOL    HW2 4110   0.843   0.743   2.560
 1071SOL     OW 4111   0.649   2.825   6.333
 1071SOL    HW1 4112   0.581   2.848   6.263
 1071SOL    HW2 4113   0.740   2.847   6.299
 1072SOL     OW 4114   2.163   1.340   1.909
 1072SOL    HW1 4115   2.250   1.344   1.860
 1072SOL    HW2 4116   2.173   1.281   1.989
 1073SOL     OW 4117   5.627   2.217   3.045
 1073SOL    HW1 4118   5.702   2.203   2.979
 1073SOL    HW2 4119   5.631   2.147   3.115
 1074SOL     OW 4120   3.158   5.176   1.613
 1074SOL    HW1 4121   3.184   5.151   1.520
 1074SOL    HW2 4122   3.240   5.174   1.672
 1075SOL     OW 4123   6.152   4.098   4.906
 1075SOL    HW1 4124   6.162   4.000   4.891
 1075SOL    HW2 4125   6.229   4.146   4.863
 1076SOL     OW 4126   2.166   4.163   5.196
 1076SOL    HW1 4127   2.212   4.105   5.129
 1076SOL    HW2 4128   2.101   4.108   5.249
 1077SOL     OW 4129   6.814   6.375   0.389
 1077SOL    HW1 4130   6.873   6.441   0.343
 1077SOL    HW2 4131   6.856   6.284   0.385
 1078SOL     OW 4132   5.579   6.370   4.552
 1078SOL    HW1 4133   5.621   6.358   4.462
 1078SOL    HW2 4134   5.636   6.429   4.608
 1079SOL     OW 4135   0.919   6.638   1.052
 1079SOL    HW1 4136   0.881   6.619   0.961
 1079SOL    HW2 4137   0.973   6.559   1.082
 1080SOL     OW 4138   4.473   5.837   0.351
 1080SOL    HW1 4139   4.570   5.811   0.349
 1080SOL    HW2 4140   4.434   5.810   0.439
 1081SOL     OW 4141   0.064   6.249   3.351
 1081SOL    HW1 4142   0.016   6.268   3.266
 1081SOL    HW2 4143   0.003   6.266   3.429
 1082SOL     OW 4144   4.466   6.903   0.017
 1082SOL    HW1 4145   4.367   6.890   0.011
 1082SOL    HW2 4146   4.489   6.943   0.106
 1083SOL     OW 4147   5.860   4.117   2.314
 1083SOL    HW1 4148   5.925   4.128   2.238
 1083SOL    HW2 4149   5.834   4.207   2.349
 1084SOL     OW 4150   4.961   0.681   5.188
 1084SOL    HW1 4151   4.941   0.620   5.112
 1084SOL    HW2 4152   5.000   0.766   5.153
 1085SOL     OW 4153   1.470   3.075   5.195
 1085SOL    HW1 4154   1.409   3.059   5.118
 1085SOL    HW2 4155   1.435   3.149   5.251
 1086SOL     OW 4156   5.851   5.035   1.856
 1086SOL    HW1 4157   5.785   5.107   1.877
 1086SOL    HW2 4158   5.838   4.958   1.919
 1087SOL     OW 4159   3.750   0.432   6.135
 1087SOL    HW1 4160   3.718   0.458   6.226
 1087SOL    HW2 4161   3.785   0.513   6.088
 1088SOL     OW 4162   6.882   5.194   4.454
 1088SOL    HW1 4163   6.874   5.113   4.512
 1088SOL    HW2 4164   6.878   5.167   4.358
 1089SOL     OW 4165   5.935   5.385   4.102
 1089SOL    HW1 4166   6.033   5.365   4.092
 1089SOL    HW2 4167   5.883   5.334   4.035
 1090SOL     OW 4168   5.553   2.687   5.110
 1090SOL    HW1 4169   5.630   2.736   5.069
 1090SOL    HW2 4170   5.561   2.689   5.209
 1091SOL     OW 4171   2.002   3.429   2.900
 1091SOL    HW1 4172   1.969   3.517   2.933
 1091SOL    HW2 4173   1.989   3.360   2.971
 1092SOL     OW 4174   0.911   6.493   0.584
 1092SOL    HW1 4175   0.939   6.400   0.604
 1092SOL    HW2 4176   0.910   6.547   0.668
 1093SOL     OW 4177   1.558   0.664   3.120
 1093SOL    HW1 4178   1.571   0.652   3.219
 1093SOL    HW2 4179   1.503   0.746   3.104
 1094SOL     OW 4180   0.277   6.938   2.897
 1094SOL    HW1 4181   0.183   6.911   2.876
 1094SOL    HW2 4182   0.340   6.884   2.841
 1095SOL     OW 4183   6.193   3.739   0.594
 1095SOL    HW1 4184   6.225   3.773   0.506
 1095SOL    HW2 4185   6.093   3.730   0.593
 1096SOL     OW 4186   1.986   6.058   2.083
 1096SOL    HW1 4187   1.908   5.995   2.084
 1096SOL    HW2 4188   2.035   6.050   1.997
 1097SOL     OW 4189   2.891   6.321   4.409
 1097SOL    HW1 4190   2.834   6.241   4.423
 1097SOL    HW2 4191   2.941   6.312   4.323
 1098SOL     OW 4192   6.616   4.142   0.120
 1098SOL    HW1 4193   6.553   4.099   0.185
 1098SOL    HW2 4194   6.589   4.117   0.026
 1099SOL     OW 4195   5.470   0.636   6.204
 1099SOL    HW1 4196   5.409   0.672   6.275
 1099SOL    HW2 4197   5.442   0.671   6.115
 1100SOL     OW 4198   4.713   1.678   4.740
 1100SOL    HW1 4199   4.661   1.595   4.719
 1100SOL    HW2 4200   4.649   1.753   4.758
 1101SOL     OW 4201   4.948   2.482   6.521
 1101SOL    HW1 4202   5.047   2.470   6.528
 1101SOL    HW2 4203   4.920   2.560   6.578
 1102SOL     OW 4204   2.886   0.669   3.727
 1102SOL    HW1 4205   2.951   0.612   3.677
 1102SOL    HW2 4206   2.793   0.649   3.694
 1103SOL     OW 4207   3.264   5.988   0.932
 1103SOL    HW1 4208   3.258   5.888   0.926
 1103SOL    HW2 4209   3.358   6.017   0.918
 1104SOL     OW 4210   6.819   1.942   4.042
 1104SOL    HW1 4211   6.844   1.979   3.953
 1104SOL    HW2 4212   6.895   1.954   4.106
 1105SOL     OW 4213   4.883   0.726   6.505
 1105SOL    HW1 4214   4.841   0.736   6.414
 1105SOL    HW2 4215   4.961   0.665   6.499
 1106SOL     OW 4216   6.086   1.824   1.460
 1106SOL    HW1 4217   6.087   1.732   1.501
 1106SOL    HW2 4218   5.997   1.866   1.475
 1107SOL     OW 4219   1.047   1.698   0.438
 1107SOL    HW1 4220   1.046   1.701   0.338
 1107SOL    HW2 4221   0.960   1.731   0.473
 1108SOL     OW 4222   2.409   1.443   3.493
 1108SOL    HW1 4223   2.387   1.492   3.408
 1108SOL    HW2 4224   2.439   1.509   3.562
 1109SOL     OW 4225   5.009   1.569   5.360
 1109SOL    HW1 4226   4.976   1.477   5.378
 1109SOL    HW2 4227   5.039   1.576   5.265
 1110SOL     OW 4228   1.273   0.856   2.417
 1110SOL    HW1 4229   1.227   0.838   2.505
 1110SOL    HW2 4230   1.205   0.853   2.343
 1111SOL     OW 4231   5.638   3.103   6.160
 1111SOL    HW1 4232   5.618   3.191   6.203
 1111SOL    HW2 4233   5.682   3.043   6.227
 1112SOL     OW 4234   5.959   0.704   2.684
 1112SOL    HW1 4235   5.899   0.644   2.736
 1112SOL    HW2 4236   6.018   0.754   2.747
 1113SOL     OW 4237   6.475   2.796   3.170
 1113SOL    HW1 4238   6.447   2.892   3.166
 1113SOL    HW2 4239   6.504   2.765   3.080
 1114SOL     OW 4240   3.595   3.289   4.545
 1114SOL    HW1 4241   3.556   3.216   4.601
 1114SOL    HW2 4242   3.525   3.358   4.527
 1115SOL     OW 4243   1.779   4.970   5.712
 1115SOL    HW1 4244   1.832   5.055   5.703
 1115SOL    HW2 4245   1.683   4.990   5.690
 1116SOL     OW 4246   4.134   0.129   0.321
 1116SOL    HW1 4247   4.146   0.220   0.361
 1116SOL    HW2 4248   4.162   0.131   0.224
 1117SOL     OW 4249   1.739   2.479   1.885
 1117SOL    HW1 4250   1.821   2.423   1.882
 1117SOL    HW2 4251   1.753   2.562   1.832
 1118SOL     OW 4252   4.720   6.677   0.449
 1118SOL    HW1 4253   4.747   6.712   0.539
 1118SOL    HW2 4254   4.771   6.594   0.429
 1119SOL     OW 4255   3.121   5.345   3.846
 1119SOL    HW1 4256   3.215   5.317   3.829
 1119SOL    HW2 4257   3.059   5.290   3.790
 1120SOL     OW 4258   6.736   3.397   1.309
 1120SOL    HW1 4259   6.669   3.472   1.313
 1120SOL    HW2 4260   6.729   3.342   1.392
 1121SOL     OW 4261   6.366   4.601   5.650
 1121SOL    HW1 4262   6.288   4.538   5.646
 1121SOL    HW2 4263   6.445   4.559   5.605
 1122SOL     OW 4264   5.959   1.337   1.998
 1122SOL    HW1 4265   6.023   1.326   1.923
 1122SOL    HW2 4266   5.866   1.319   1.966
 1123SOL     OW 4267   4.144   1.831   4.615
 1123SOL    HW1 4268   4.085   1.776   4.674
 1123SOL    HW2 4269   4.160   1.783   4.529
 1124SOL     OW 4270   2.221   2.912   3.762
 1124SOL    HW1 4271   2.282   2.851   3.813
 1124SOL    HW2 4272   2.219   3.002   3.806
 1125SOL     OW 4273   1.287   3.029   3.709
 1125SOL    HW1 4274   1.197   2.985   3.708
 1125SOL    HW2 4275   1.276   3.128   3.715
 1126SOL     OW 4276   4.221   4.723   4.052
 1126SOL    HW1 4277   4.240   4.686   3.961
 1126SOL    HW2 4278   4.122   4.718   4.070
 1127SOL     OW 4279   6.215   6.828   1.107
 1127SOL    HW1 4280   6.205   6.778   1.193
 1127SOL    HW2 4281   6.167   6.778   1.034
 1128SOL     OW 4282   4.161   1.357   4.760
 1128SOL    HW1 4283   4.082   1.359   4.822
 1128SOL    HW2 4284   4.133   1.390   4.670
 1129SOL     OW 4285   1.121   0.842   0.189
 1129SOL    HW1 4286   1.194   0.902   0.157
 1129SOL    HW2 4287   1.105   0.858   0.287
 1130SOL     OW 4288   1.858   5.345   2.053
 1130SOL    HW1 4289   1.779   5.357   1.993
 1130SOL    HW2 4290   1.862   5.251   2.084
 1131SOL     OW 4291   1.738   5.227   3.673
 1131SOL    HW1 4292   1.702   5.310   3.630
 1131SOL    HW2 4293   1.829   5.207   3.635
 1132SOL     OW 4294   1.111   1.609   2.921
 1132SOL    HW1 4295   1.142   1.666   2.845
 1132SOL    HW2 4296   1.155   1.639   3.005
 1133SOL     OW 4297   1.212   6.383   6.650
 1133SOL    HW1 4298   1.292   6.359   6.704
 1133SOL    HW2 4299   1.241   6.416   6.560
 1134SOL     OW 4300   4.575   5.740   0.674
 1134SOL    HW1 4301   4.649   5.678   0.701
 1134SOL    HW2 4302   4.494   5.686   0.649
 1135SOL     OW 4303   1.752   0.234   3.199
 1135SOL    HW1 4304   1.748   0.274   3.290
 1135SOL    HW2 4305   1.789   0.302   3.135
 1136SOL     OW 4306   1.767   5.025   2.368
 1136SOL    HW1 4307   1.696   5.077   2.415
 1136SOL    HW2 4308   1.857   5.048   2.406
 1137SOL     OW 4309   0.845   5.477   4.337
 1137SOL    HW1 4310   0.779   5.422   4.389
 1137SOL    HW2 4311   0.870   5.427   4.254
 1138SOL     OW 4312   1.671   3.637   5.251
 1138SOL    HW1 4313   1.766   3.652   5.278
 1138SOL    HW2 4314   1.650   3.693   5.171
 1139SOL     OW 4315   2.580   5.583   5.327
 1139SOL    HW1 4316   2.609   5.587   5.232
 1139SOL    HW2 4317   2.615   5.663   5.376
 1140SOL     OW 4318   1.955   2.309   1.845
 1140SOL    HW1 4319   1.968   2.229   1.903
 1140SOL    HW2 4320   2.034   2.369   1.854
 1141SOL     OW 4321   6.254   5.046   5.261
 1141SOL    HW1 4322   6.236   5.139   5.231
 1141SOL    HW2 4323   6.340   5.043   5.312
 1142SOL     OW 4324   1.280   5.584   2.704
 1142SOL    HW1 4325   1.269   5.485   2.697
 1142SOL    HW2 4326   1.362   5.612   2.653
 1143SOL     OW 4327   6.852   4.354   1.841
 1143SOL    HW1 4328   6.826   4.293   1.916
 1143SOL    HW2 4329   6.923   4.417   1.871
 1144SOL     OW 4330   4.774   4.201   0.604
 1144SOL    HW1 4331   4.718   4.161   0.676
 1144SOL    HW2 4332   4.859   4.237   0.644
 1145SOL     OW 4333   6.276   0.378   0.531
 1145SOL    HW1 4334   6.282   0.442   0.608
 1145SOL    HW2 4335   6.250   0.428   0.449
 1146SOL     OW 4336   1.452   1.100   1.223
 1146SOL    HW1 4337   1.524   1.162   1.190
 1146SOL    HW2 4338   1.467   1.082   1.320
 1147SOL     OW 4339   1.973   6.535   1.042
 1147SOL    HW1 4340   2.065   6.506   1.068
 1147SOL    HW2 4341   1.908   6.461   1.059
 1148SOL     OW 4342   3.804   5.884   2.316
 1148SOL    HW1 4343   3.713   5.850   2.337
 1148SOL    HW2 4344   3.852   5.905   2.401
 1149SOL     OW 4345   4.875   2.859   1.487
 1149SOL    HW1 4346   4.895   2.764   1.463
 1149SOL    HW2 4347   4.794   2.863   1.545
 1150SOL     OW 4348   0.900   2.756   1.167
 1150SOL    HW1 4349   0.975   2.718   1.221
 1150SOL    HW2 4350   0.936   2.803   1.086
 1151SOL     OW 4351   5.524   5.384   4.429
 1151SOL    HW1 4352   5.575   5.298   4.432
 1151SOL    HW2 4353   5.561   5.443   4.358
 1152SOL     OW 4354   3.482   6.613   6.032
 1152SOL    HW1 4355   3.464   6.516   6.015
 1152SOL    HW2 4356   3.580   6.627   6.043
 1153SOL     OW 4357   5.930   6.855   1.228
 1153SOL    HW1 4358   5.878   6.939   1.237
 1153SOL    HW2 4359   6.025   6.877   1.206
 1154SOL     OW 4360   1.750   3.186   0.672
 1154SOL    HW1 4361   1.815   3.189   0.597
 1154SOL    HW2 4362   1.681   3.116   0.654
 1155SOL     OW 4363   3.651   5.819   3.303
 1155SOL    HW1 4364   3.744   5.857   3.312
 1155SOL    HW2 4365   3.656   5.731   3.256
 1156SOL     OW 4366   2.850   1.266   2.053
 1156SOL    HW1 4367   2.898   1.188   2.093
 1156SOL    HW2 4368   2.799   1.236   1.972
 1157SOL     OW 4369   2.606   2.004   0.496
 1157SOL    HW1 4370   2.560   1.963   0.574
 1157SOL    HW2 4371   2.675   2.070   0.528
 1158SOL     OW 4372   5.337   4.557   3.803
 1158SOL    HW1 4373   5.417   4.512   3.763
 1158SOL    HW2 4374   5.260   4.494   3.805
 1159SOL     OW 4375   5.851   4.474   0.563
 1159SOL    HW1 4376   5.842   4.382   0.601
 1159SOL    HW2 4377   5.761   4.507   0.535
 1160SOL     OW 4378   4.760   2.225   0.394
 1160SOL    HW1 4379   4.851   2.193   0.419
 1160SOL    HW2 4380   4.714   2.155   0.339
 1161SOL     OW 4381   6.517   5.217   0.859
 1161SOL    HW1 4382   6.466   5.201   0.944
 1161SOL    HW2 4383   6.503   5.140   0.797
 1162SOL     OW 4384   2.777   2.322   4.553
 1162SOL    HW1 4385   2.855   2.261   4.553
 1162SOL    HW2 4386   2.728   2.315   4.465
 1163SOL     OW 4387   5.386   2.080   1.768
 1163SOL    HW1 4388   5.368   2.178   1.777
 1163SOL    HW2 4389   5.439   2.048   1.847
 1164SOL     OW 4390   4.435   2.107   5.502
 1164SOL    HW1 4391   4.338   2.088   5.518
 1164SOL    HW2 4392   4.454   2.203   5.522
 1165SOL     OW 4393   4.676   0.058   3.283
 1165SOL    HW1 4394   4.682   0.046   3.184
 1165SOL    HW2 4395   4.617   6.998   3.321
 1166SOL     OW 4396   3.385   4.263   6.233
 1166SOL    HW1 4397   3.454   4.247   6.304
 1166SOL    HW2 4398   3.329   4.342   6.258
 1167SOL     OW 4399   5.047   4.370   3.221
 1167SOL    HW1 4400   4.973   4.427   3.185
 1167SOL    HW2 4401   5.116   4.429   3.263
 1168SOL     OW 4402   0.576   0.265   1.492
 1168SOL    HW1 4403   0.620   0.216   1.567
 1168SOL    HW2 4404   0.627   0.249   1.407
 1169SOL     OW 4405   4.830   1.786   5.333
 1169SOL    HW1 4406   4.858   1.833   5.250
 1169SOL    HW2 4407   4.895   1.713   5.354
 1170SOL     OW 4408   5.000   4.999   2.664
 1170SOL    HW1 4409   4.998   5.085   2.715
 1170SOL    HW2 4410   4.946   4.931   2.714
 1171SOL     OW 4411   0.028   6.256   0.940
 1171SOL    HW1 4412   0.053   6.181   1.002
 1171SOL    HW2 4413   6.942   6.278   0.952
 1172SOL     OW 4414   6.007   2.998   6.594
 1172SOL    HW1 4415   6.098   2.968   6.566
 1172SOL    HW2 4416   6.004   3.008   6.694
 1173SOL     OW 4417   3.880   2.647   0.711
 1173SOL    HW1 4418   3.833   2.702   0.781
 1173SOL    HW2 4419   3.818   2.633   0.634
 1174SOL     OW 4420   2.427   4.854   0.292
 1174SOL    HW1 4421   2.407   4.909   0.373
 1174SOL    HW2 4422   2.403   4.758   0.310
 1175SOL     OW 4423   2.985   3.345   4.189
 1175SOL    HW1 4424   2.980   3.444   4.174
 1175SOL    HW2 4425   2.966   3.297   4.103
 1176SOL     OW 4426   5.420   3.003   6.514
 1176SOL    HW1 4427   5.406   3.071   6.585
 1176SOL    HW2 4428   5.517   2.984   6.504
 1177SOL     OW 4429   1.287   1.823   4.994
 1177SOL    HW1 4430   1.286   1.738   5.047
 1177SOL    HW2 4431   1.214   1.821   4.925
 1178SOL     OW 4432   4.533   6.628   0.270
 1178SOL    HW1 4433   4.571   6.669   0.187
 1178SOL    HW2 4434   4.581   6.664   0.350
 1179SOL     OW 4435   0.203   5.833   0.251
 1179SOL    HW1 4436   0.164   5.852   0.341
 1179SOL    HW2 4437   0.275   5.764   0.259
 1180SOL     OW 4438   3.732   5.975   0.686
 1180SOL    HW1 4439   3.785   6.059   0.675
 1180SOL    HW2 4440   3.643   5.986   0.640
 1181SOL     OW 4441   6.968   6.440   6.492
 1181SOL    HW1 4442   6.939   6.361   6.437
 1181SOL    HW2 4443   6.934   6.524   6.451
 1182SOL     OW 4444   4.852   3.813   2.999
 1182SOL    HW1 4445   4.806   3.900   2.980
 1182SOL    HW2 4446   4.920   3.826   3.070
 1183SOL     OW 4447   1.809   4.257   6.904
 1183SOL    HW1 4448   1.752   4.317   6.960
 1183SOL    HW2 4449   1.754   4.216   6.831
 1184SOL     OW 4450   0.011   0.574   5.504
 1184SOL    HW1 4451   7.008   0.592   5.601
 1184SOL    HW2 4452   6.952   0.510   5.471
 1185SOL     OW 4453   6.179   1.540   6.814
 1185SOL    HW1 4454   6.233   1.621   6.792
 1185SOL    HW2 4455   6.223   1.490   6.888
 1186SOL     OW 4456   5.417   6.982   4.719
 1186SOL    HW1 4457   5.419   0.069   4.695
 1186SOL    HW2 4458   5.476   6.966   4.798
 1187SOL     OW 4459   6.387   1.568   6.037
 1187SOL    HW1 4460   6.312   1.615   5.991
 1187SOL    HW2 4461   6.351   1.494   6.093
 1188SOL     OW 4462   3.452   1.646   6.654
 1188SOL    HW1 4463   3.460   1.744   6.634
 1188SOL    HW2 4464   3.441   1.596   6.568
 1189SOL     OW 4465   5.534   3.384   3.548
 1189SOL    HW1 4466   5.548   3.483   3.540
 1189SOL    HW2 4467   5.590   3.348   3.623
 1190SOL     OW 4468   3.037   0.001   3.811
 1190SOL    HW1 4469   2.994   6.953   3.741
 1190SOL    HW2 4470   3.045   6.960   3.896
 1191SOL     OW 4471   3.777   6.507   2.913
 1191SOL    HW1 4472   3.694   6.470   2.870
 1191SOL    HW2 4473   3.752   6.558   2.995
 1192SOL     OW 4474   6.008   5.814   3.492
 1192SOL    HW1 4475   5.992   5.743   3.560
 1192SOL    HW2 4476   5.922   5.857   3.466
 1193SOL     OW 4477   6.900   5.969   4.777
 1193SOL    HW1 4478   6.856   6.027   4.708
 1193SOL    HW2 4479   6.856   5.982   4.865
 1194SOL     OW 4480   3.670   6.846   0.879
 1194SOL    HW1 4481   3.584   6.802   0.904
 1194SOL    HW2 4482   3.663   6.883   0.786
 1195SOL     OW 4483   4.972   2.342   3.318
 1195SOL    HW1 4484   5.049   2.392   3.359
 1195SOL    HW2 4485   4.948   2.384   3.231
 1196SOL     OW 4486   0.126   6.763   5.110
 1196SOL    HW1 4487   0.218   6.743   5.079
 1196SOL    HW2 4488   0.060   6.738   5.039
 1197SOL     OW 4489   1.889   6.238   0.457
 1197SOL    HW1 4490   1.940   6.165   0.412
 1197SOL    HW2 4491   1.950   6.316   0.474
 1198SOL     OW 4492   1.648   2.546   6.977
 1198SOL    HW1 4493   1.616   2.614   6.911
 1198SOL    HW2 4494   1.748   2.540   6.972
 1199SOL     OW 4495   6.163   3.621   2.142
 1199SOL    HW1 4496   6.185   3.547   2.079
 1199SOL    HW2 4497   6.165   3.708   2.092
 1200SOL     OW 4498   3.512   4.013   2.869
 1200SOL    HW1 4499   3.594   3.990   2.816
 1200SOL    HW2 4500   3.431   4.005   2.811
 1201SOL     OW 4501   1.129   1.869   4.755
 1201SOL    HW1 4502   1.114   1.954   4.705
 1201SOL    HW2 4503   1.140   1.794   4.691
 1202SOL     OW 4504   1.210   5.464   5.070
 1202SOL    HW1 4505   1.259   5.493   5.151
 1202SOL    HW2 4506   1.250   5.507   4.989
 1203SOL     OW 4507   3.705   6.309   5.520
 1203SOL    HW1 4508   3.803   6.301   5.503
 1203SOL    HW2 4509   3.675   6.402   5.500
 1204SOL     OW 4510   1.898   6.959   3.081
 1204SOL    HW1 4511   1.816   6.903   3.076
 1204SOL    HW2 4512   1.912   7.006   2.994
 1205SOL     OW 4513   5.864   3.802   2.068
 1205SOL    HW1 4514   5.865   3.789   2.168
 1205SOL    HW2 4515   5.780   3.850   2.042
 1206SOL     OW 4516   3.449   3.511   4.627
 1206SOL    HW1 4517   3.422   3.495   4.722
 1206SOL    HW2 4518   3.398   3.589   4.590
 1207SOL     OW 4519   1.324   6.214   2.768
 1207SOL    HW1 4520   1.302   6.165   2.852
 1207SOL    HW2 4521   1.385   6.158   2.712
 1208SOL     OW 4522   3.292   3.591   6.330
 1208SOL    HW1 4523   3.239   3.650   6.268
 1208SOL    HW2 4524   3.257   3.497   6.324
 1209SOL     OW 4525   3.744   6.552   5.206
 1209SOL    HW1 4526   3.747   6.558   5.305
 1209SOL    HW2 4527   3.692   6.471   5.179
 1210SOL     OW 4528   3.577   1.228   2.733
 1210SOL    HW1 4529   3.524   1.208   2.650
 1210SOL    HW2 4530   3.650   1.293   2.710
 1211SOL     OW 4531   0.772   2.864   0.360
 1211SOL    HW1 4532   0.721   2.950   0.367
 1211SOL    HW2 4533   0.792   2.845   0.264
 1212SOL     OW 4534   1.324   0.325   0.342
 1212SOL    HW1 4535   1.376   0.242   0.361
 1212SOL    HW2 4536   1.277   0.315   0.254
 1213SOL     OW 4537   5.529   3.241   1.559
 1213SOL    HW1 4538   5.435   3.273   1.544
 1213SOL    HW2 4539   5.539   3.149   1.521
 1214SOL     OW 4540   0.128   2.781   1.903
 1214SOL    HW1 4541   0.129   2.839   1.984
 1214SOL    HW2 4542   0.133   2.685   1.931
 1215SOL     OW 4543   1.908   6.066   2.928
 1215SOL    HW1 4544   1.909   5.966   2.919
 1215SOL    HW2 4545   1.998   6.102   2.906
 1216SOL     OW 4546   3.842   6.966   1.771
 1216SOL    HW1 4547   3.833   0.037   1.713
 1216SOL    HW2 4548   3.751   6.935   1.798
 1217SOL     OW 4549   2.801   4.403   6.743
 1217SOL    HW1 4550   2.880   4.379   6.798
 1217SOL    HW2 4551   2.723   4.347   6.770
 1218SOL     OW 4552   2.627   5.007   3.682
 1218SOL    HW1 4553   2.558   5.011   3.754
 1218SOL    HW2 4554   2.639   5.098   3.642
 1219SOL     OW 4555   3.570   5.887   1.954
 1219SOL    HW1 4556   3.665   5.894   1.926
 1219SOL    HW2 4557   3.538   5.977   1.984
 1220SOL     OW 4558   0.844   4.697   2.112
 1220SOL    HW1 4559   0.788   4.644   2.176
 1220SOL    HW2 4560   0.809   4.685   2.019
 1221SOL     OW 4561   4.524   4.411   6.220
 1221SOL    HW1 4562   4.537   4.356   6.138
 1221SOL    HW2 4563   4.426   4.432   6.230
 1222SOL     OW 4564   6.537   0.692   6.396
 1222SOL    HW1 4565   6.637   0.687   6.401
 1222SOL    HW2 4566   6.511   0.747   6.317
 1223SOL     OW 4567   3.651   6.588   1.115
 1223SOL    HW1 4568   3.747   6.606   1.093
 1223SOL    HW2 4569   3.642   6.564   1.211
 1224SOL     OW 4570   3.291   1.102   1.880
 1224SOL    HW1 4571   3.293   1.049   1.966
 1224SOL    HW2 4572   3.376   1.085   1.829
 1225SOL     OW 4573   2.971   3.419   5.893
 1225SOL    HW1 4574   2.995   3.517   5.888
 1225SOL    HW2 4575   2.892   3.402   5.834
 1226SOL     OW 4576   2.051   5.149   0.297
 1226SOL    HW1 4577   2.038   5.056   0.332
 1226SOL    HW2 4578   2.014   5.156   0.204
 1227SOL     OW 4579   0.885   3.548   6.023
 1227SOL    HW1 4580   0.880   3.604   6.106
 1227SOL    HW2 4581   0.911   3.455   6.047
 1228SOL     OW 4582   3.929   1.855   0.134
 1228SOL    HW1 4583   4.009   1.910   0.108
 1228SOL    HW2 4584   3.910   1.789   0.061
 1229SOL     OW 4585   3.013   4.138   6.413
 1229SOL    HW1 4586   2.970   4.163   6.326
 1229SOL    HW2 4587   3.105   4.102   6.396
 1230SOL     OW 4588   4.555   0.548   3.737
 1230SOL    HW1 4589   4.651   0.549   3.763
 1230SOL    HW2 4590   4.504   0.490   3.801
 1231SOL     OW 4591   0.954   3.658   4.031
 1231SOL    HW1 4592   0.858   3.668   4.004
 1231SOL    HW2 4593   1.005   3.613   3.958
 1232SOL     OW 4594   2.181   2.870   3.053
 1232SOL    HW1 4595   2.141   2.921   2.978
 1232SOL    HW2 4596   2.163   2.917   3.140
 1233SOL     OW 4597   0.969   2.708   4.199
 1233SOL    HW1 4598   0.884   2.761   4.200
 1233SOL    HW2 4599   1.028   2.737   4.274
 1234SOL     OW 4600   6.404   4.561   4.294
 1234SOL    HW1 4601   6.475   4.616   4.251
 1234SOL    HW2 4602   6.379   4.485   4.233
 1235SOL     OW 4603   6.792   5.629   3.731
 1235SOL    HW1 4604   6.803   5.683   3.814
 1235SOL    HW2 4605   6.731   5.677   3.668
 1236SOL     OW 4606   5.569   0.960   6.325
 1236SOL    HW1 4607   5.583   0.861   6.327
 1236SOL    HW2 4608   5.639   1.002   6.267
 1237SOL     OW 4609   1.995   4.704   5.920
 1237SOL    HW1 4610   2.061   4.762   5.873
 1237SOL    HW2 4611   1.912   4.695   5.864
 1238SOL     OW 4612   1.711   1.419   0.889
 1238SOL    HW1 4613   1.807   1.431   0.866
 1238SOL    HW2 4614   1.666   1.508   0.894
 1239SOL     OW 4615   1.147   0.374   5.893
 1239SOL    HW1 4616   1.069   0.431   5.916
 1239SOL    HW2 4617   1.128   0.323   5.809
 1240SOL     OW 4618   4.655   5.480   1.384
 1240SOL    HW1 4619   4.636   5.392   1.342
 1240SOL    HW2 4620   4.749   5.481   1.419
 1241SOL     OW 4621   0.190   1.814   4.591
 1241SOL    HW1 4622   0.149   1.794   4.502
 1241SOL    HW2 4623   0.117   1.828   4.659
 1242SOL     OW 4624   2.170   2.276   6.554
 1242SOL    HW1 4625   2.091   2.334   6.537
 1242SOL    HW2 4626   2.242   2.299   6.488
 1243SOL     OW 4627   2.464   5.046   4.778
 1243SOL    HW1 4628   2.527   5.072   4.851
 1243SOL    HW2 4629   2.442   4.948   4.785
 1244SOL     OW 4630   0.145   1.972   2.639
 1244SOL    HW1 4631   0.178   1.993   2.547
 1244SOL    HW2 4632   0.186   2.036   2.704
 1245SOL     OW 4633   2.927   2.801   5.604
 1245SOL    HW1 4634   3.012   2.849   5.625
 1245SOL    HW2 4635   2.904   2.813   5.508
 1246SOL     OW 4636   1.194   6.739   1.311
 1246SOL    HW1 4637   1.235   6.755   1.221
 1246SOL    HW2 4638   1.153   6.648   1.313
 1247SOL     OW 4639   1.259   6.502   6.423
 1247SOL    HW1 4640   1.186   6.481   6.358
 1247SOL    HW2 4641   1.289   6.597   6.411
 1248SOL     OW 4642   2.347   6.603   3.697
 1248SOL    HW1 4643   2.423   6.552   3.738
 1248SOL    HW2 4644   2.379   6.652   3.616
 1249SOL     OW 4645   5.721   2.774   2.858
 1249SOL    HW1 4646   5.757   2.864   2.831
 1249SOL    HW2 4647   5.684   2.779   2.950
 1250SOL     OW 4648   0.076   3.715   4.162
 1250SOL    HW1 4649   0.034   3.642   4.217
 1250SOL    HW2 4650   0.010   3.750   4.097
 1251SOL     OW 4651   3.476   0.669   6.459
 1251SOL    HW1 4652   3.403   0.628   6.512
 1251SOL    HW2 4653   3.517   0.745   6.510
 1252SOL     OW 4654   3.164   4.032   0.278
 1252SOL    HW1 4655   3.101   3.989   0.343
 1252SOL    HW2 4656   3.244   3.973   0.266
 1253SOL     OW 4657   4.534   0.697   2.709
 1253SOL    HW1 4658   4.459   0.763   2.701
 1253SOL    HW2 4659   4.524   0.645   2.793
 1254SOL     OW 4660   5.558   1.163   3.438
 1254SOL    HW1 4661   5.514   1.205   3.358
 1254SOL    HW2 4662   5.647   1.126   3.411
 1255SOL     OW 4663   6.165   0.444   1.253
 1255SOL    HW1 4664   6.183   0.529   1.203
 1255SOL    HW2 4665   6.233   0.376   1.227
 1256SOL     OW 4666   4.808   2.426   3.891
 1256SOL    HW1 4667   4.753   2.374   3.826
 1256SOL    HW2 4668   4.754   2.504   3.924
 1257SOL     OW 4669   6.070   0.700   4.267
 1257SOL    HW1 4670   6.015   0.679   4.186
 1257SOL    HW2 4671   6.079   0.800   4.277
 1258SOL     OW 4672   6.985   5.373   3.379
 1258SOL    HW1 4673   0.067   5.386   3.344
 1258SOL    HW2 4674   6.944   5.292   3.337
 1259SOL     OW 4675   5.217   2.216   4.770
 1259SOL    HW1 4676   5.164   2.261   4.841
 1259SOL    HW2 4677   5.158   2.196   4.692
 1260SOL     OW 4678   0.253   1.544   5.173
 1260SOL    HW1 4679   0.238   1.472   5.241
 1260SOL    HW2 4680   0.311   1.510   5.100
 1261SOL     OW 4681   6.707   3.672   0.906
 1261SOL    HW1 4682   6.785   3.610   0.896
 1261SOL    HW2 4683   6.672   3.668   1.000
 1262SOL     OW 4684   5.043   6.409   2.264
 1262SOL    HW1 4685   5.019   6.379   2.357
 1262SOL    HW2 4686   5.055   6.329   2.206
 1263SOL     OW 4687   0.145   2.426   3.467
 1263SOL    HW1 4688   0.210   2.439   3.392
 1263SOL    HW2 4689   0.192   2.438   3.554
 1264SOL     OW 4690   0.704   2.532   5.190
 1264SOL    HW1 4691   0.713   2.472   5.270
 1264SOL    HW2 4692   0.706   2.477   5.107
 1265SOL     OW 4693   5.625   0.274   5.464
 1265SOL    HW1 4694   5.691   0.245   5.533
 1265SOL    HW2 4695   5.579   0.358   5.494
 1266SOL     OW 4696   2.960   1.669   5.011
 1266SOL    HW1 4697   2.982   1.581   5.052
 1266SOL    HW2 4698   2.979   1.742   5.078
 1267SOL     OW 4699   3.205   6.921   2.294
 1267SOL    HW1 4700   3.150   6.842   2.265
 1267SOL    HW2 4701   3.144   6.997   2.316
 1268SOL     OW 4702   4.053   2.262   5.353
 1268SOL    HW1 4703   4.020   2.169   5.361
 1268SOL    HW2 4704   4.020   2.317   5.430
 1269SOL     OW 4705   5.350   1.981   3.686
 1269SOL    HW1 4706   5.316   2.075   3.681
 1269SOL    HW2 4707   5.305   1.933   3.761
 1270SOL     OW 4708   6.453   5.477   3.036
 1270SOL    HW1 4709   6.400   5.451   2.955
 1270SOL    HW2 4710   6.390   5.492   3.113
 1271SOL     OW 4711   1.576   1.091   1.772
 1271SOL    HW1 4712   1.614   1.184   1.768
 1271SOL    HW2 4713   1.579   1.058   1.866
 1272SOL     OW 4714   6.058   2.714   0.796
 1272SOL    HW1 4715   6.137   2.653   0.802
 1272SOL    HW2 4716   6.013   2.719   0.886
 1273SOL     OW 4717   1.721   4.356   5.892
 1273SOL    HW1 4718   1.715   4.447   5.851
 1273SOL    HW2 4719   1.722   4.286   5.819
 1274SOL     OW 4720   0.065   4.105   4.177
 1274SOL    HW1 4721   0.148   4.157   4.157
 1274SOL    HW2 4722   6.996   4.166   4.171
 1275SOL     OW 4723   1.982   1.588   2.932
 1275SOL    HW1 4724   1.957   1.634   2.848
 1275SOL    HW2 4725   1.908   1.595   2.998
 1276SOL     OW 4726   5.583   4.371   3.857
 1276SOL    HW1 4727   5.609   4.280   3.888
 1276SOL    HW2 4728   5.609   4.383   3.761
 1277SOL     OW 4729   1.421   5.778   6.665
 1277SOL    HW1 4730   1.377   5.795   6.576
 1277SOL    HW2 4731   1.362   5.721   6.721
 1278SOL     OW 4732   0.377   6.043   2.642
 1278SOL    HW1 4733   0.393   6.091   2.556
 1278SOL    HW2 4734   0.340   6.107   2.710
 1279SOL     OW 4735   2.663   3.366   0.735
 1279SOL    HW1 4736   2.742   3.319   0.696
 1279SOL    HW2 4737   2.586   3.362   0.670
 1280SOL     OW 4738   2.603   2.486   3.788
 1280SOL    HW1 4739   2.599   2.386   3.778
 1280SOL    HW2 4740   2.601   2.528   3.697
 1281SOL     OW 4741   5.180   6.312   5.410
 1281SOL    HW1 4742   5.206   6.254   5.488
 1281SOL    HW2 4743   5.262   6.346   5.365
 1282SOL     OW 4744   0.516   3.009   1.305
 1282SOL    HW1 4745   0.490   2.921   1.343
 1282SOL    HW2 4746   0.529   3.001   1.206
 1283SOL     OW 4747   0.203   1.242   4.490
 1283SOL    HW1 4748   0.276   1.207   4.431
 1283SOL    HW2 4749   0.176   1.333   4.459
 1284SOL     OW 4750   3.725   1.879   1.809
 1284SOL    HW1 4751   3.714   1.976   1.792
 1284SOL    HW2 4752   3.735   1.830   1.723
 1285SOL     OW 4753   4.083   1.458   4.498
 1285SOL    HW1 4754   4.046   1.540   4.453
 1285SOL    HW2 4755   4.163   1.425   4.446
 1286SOL     OW 4756   4.709   1.050   2.121
 1286SOL    HW1 4757   4.687   1.084   2.030
 1286SOL    HW2 4758   4.809   1.050   2.133
 1287SOL     OW 4759   4.834   4.826   6.205
 1287SOL    HW1 4760   4.919   4.867   6.238
 1287SOL    HW2 4761   4.854   4.768   6.125
 1288SOL     OW 4762   4.279   4.292   6.551
 1288SOL    HW1 4763   4.368   4.322   6.586
 1288SOL    HW2 4764   4.284   4.196   6.524
 1289SOL     OW 4765   0.461   6.774   0.505
 1289SOL    HW1 4766   0.555   6.801   0.523
 1289SOL    HW2 4767   0.459   6.680   0.471
 1290SOL     OW 4768   1.472   6.431   5.280
 1290SOL    HW1 4769   1.498   6.503   5.345
 1290SOL    HW2 4770   1.447   6.473   5.192
 1291SOL     OW 4771   5.526   5.401   3.583
 1291SOL    HW1 4772   5.615   5.364   3.611
 1291SOL    HW2 4773   5.512   5.384   3.486
 1292SOL     OW 4774   0.451   6.811   2.735
 1292SOL    HW1 4775   0.542   6.784   2.767
 1292SOL    HW2 4776   0.439   6.779   2.641
 1293SOL     OW 4777   5.175   0.232   1.309
 1293SOL    HW1 4778   5.122   0.291   1.248
 1293SOL    HW2 4779   5.126   0.146   1.323
 1294SOL     OW 4780   2.190   4.429   5.314
 1294SOL    HW1 4781   2.168   4.343   5.268
 1294SOL    HW2 4782   2.192   4.503   5.247
 1295SOL     OW 4783   6.826   4.527   0.212
 1295SOL    HW1 4784   6.825   4.573   0.301
 1295SOL    HW2 4785   6.920   4.525   0.177
 1296SOL     OW 4786   4.660   0.568   5.916
 1296SOL    HW1 4787   4.626   0.660   5.893
 1296SOL    HW2 4788   4.749   0.576   5.962
 1297SOL     OW 4789   6.347   6.836   6.750
 1297SOL    HW1 4790   6.285   6.910   6.779
 1297SOL    HW2 4791   6.387   6.793   6.830
 1298SOL     OW 4792   5.332   0.265   3.180
 1298SOL    HW1 4793   5.348   0.213   3.096
 1298SOL    HW2 4794   5.276   0.345   3.159
 1299SOL     OW 4795   1.053   4.128   4.522
 1299SOL    HW1 4796   0.994   4.075   4.462
 1299SOL    HW2 4797   1.144   4.136   4.482
 1300SOL     OW 4798   1.361   5.710   0.197
 1300SOL    HW1 4799   1.320   5.798   0.174
 1300SOL    HW2 4800   1.295   5.654   0.247
 1301SOL     OW 4801   6.375   1.116   0.412
 1301SOL    HW1 4802   6.457   1.082   0.457
 1301SOL    HW2 4803   6.399   1.196   0.356
 1302SOL     OW 4804   6.872   6.936   5.160
 1302SOL    HW1 4805   6.948   6.871   5.145
 1302SOL    HW2 4806   6.842   6.931   5.255
 1303SOL     OW 4807   3.364   6.715   1.569
 1303SOL    HW1 4808   3.313   6.794   1.603
 1303SOL    HW2 4809   3.448   6.746   1.526
 1304SOL     OW 4810   0.139   0.458   0.399
 1304SOL    HW1 4811   0.182   0.513   0.471
 1304SOL    HW2 4812   0.045   0.487   0.386
 1305SOL     OW 4813   4.271   4.026   6.138
 1305SOL    HW1 4814   4.194   3.978   6.095
 1305SOL    HW2 4815   4.254   4.035   6.236
 1306SOL     OW 4816   2.988   6.588   4.237
 1306SOL    HW1 4817   3.058   6.525   4.203
 1306SOL    HW2 4818   3.032   6.669   4.276
 1307SOL     OW 4819   2.164   3.245   4.325
 1307SOL    HW1 4820   2.229   3.319   4.345
 1307SOL    HW2 4821   2.159   3.183   4.404
 1308SOL     OW 4822   6.798   3.571   5.861
 1308SOL    HW1 4823   6.878   3.631   5.862
 1308SOL    HW2 4824   6.747   3.585   5.775
 1309SOL     OW 4825   5.850   3.963   6.448
 1309SOL    HW1 4826   5.779   3.926   6.507
 1309SOL    HW2 4827   5.938   3.959   6.494
 1310SOL     OW 4828   1.937   3.346   3.177
 1310SOL    HW1 4829   1.991   3.366   3.258
 1310SOL    HW2 4830   1.899   3.254   3.184
 1311SOL     OW 4831   5.446   5.180   0.499
 1311SOL    HW1 4832   5.471   5.261   0.552
 1311SOL    HW2 4833   5.380   5.125   0.550
 1312SOL     OW 4834   2.532   1.330   6.478
 1312SOL    HW1 4835   2.579   1.283   6.553
 1312SOL    HW2 4836   2.600   1.365   6.414
 1313SOL     OW 4837   5.592   5.056   1.634
 1313SOL    HW1 4838   5.602   5.015   1.725
 1313SOL    HW2 4839   5.495   5.063   1.611
 1314SOL     OW 4840   1.974   1.108   3.311
 1314SOL    HW1 4841   2.038   1.185   3.309
 1314SOL    HW2 4842   2.012   1.034   3.366
 1315SOL     OW 4843   6.200   0.586   3.418
 1315SOL    HW1 4844   6.107   0.549   3.429
 1315SOL    HW2 4845   6.266   0.519   3.452
 1316SOL     OW 4846   5.253   6.895   6.056
 1316SOL    HW1 4847   5.291   6.818   6.108
 1316SOL    HW2 4848   5.239   6.867   5.961
 1317SOL     OW 4849   3.857   2.993   4.798
 1317SOL    HW1 4850   3.856   3.018   4.895
 1317SOL    HW2 4851   3.910   2.909   4.785
 1318SOL     OW 4852   1.768   1.772   6.318
 1318SOL    HW1 4853   1.749   1.870   6.319
 1318SOL    HW2 4854   1.700   1.725   6.261
 1319SOL     OW 4855   6.971   1.365   0.325
 1319SOL    HW1 4856   6.918   1.369   0.409
 1319SOL    HW2 4857   6.989   1.269   0.302
 1320SOL     OW 4858   2.822   3.142   6.090
 1320SOL    HW1 4859   2.819   3.046   6.119
 1320SOL    HW2 4860   2.812   3.146   5.991
 1321SOL     OW 4861   6.871   2.507   1.110
 1321SOL    HW1 4862   6.899   2.600   1.132
 1321SOL    HW2 4863   6.948   2.445   1.120
 1322SOL     OW 4864   2.731   2.473   0.065
 1322SOL    HW1 4865   2.753   2.421   0.147
 1322SOL    HW2 4866   2.647   2.525   0.081
 1323SOL     OW 4867   4.085   0.311   1.675
 1323SOL    HW1 4868   4.087   0.320   1.575
 1323SOL    HW2 4869   3.990   0.300   1.705
 1324SOL     OW 4870   2.094   4.172   5.912
 1324SOL    HW1 4871   2.081   4.271   5.906
 1324SOL    HW2 4872   2.041   4.126   5.840
 1325SOL     OW 4873   4.085   6.555   4.771
 1325SOL    HW1 4874   4.096   6.474   4.828
 1325SOL    HW2 4875   4.073   6.527   4.676
 1326SOL     OW 4876   4.968   1.099   4.710
 1326SOL    HW1 4877   4.965   1.161   4.632
 1326SOL    HW2 4878   5.020   1.141   4.784
 1327SOL     OW 4879   5.053   5.870   2.517
 1327SOL    HW1 4880   4.993   5.791   2.502
 1327SOL    HW2 4881   5.042   5.903   2.611
 1328SOL     OW 4882   2.388   1.809   6.034
 1328SOL    HW1 4883   2.350   1.721   6.061
 1328SOL    HW2 4884   2.340   1.883   6.082
 1329SOL     OW 4885   1.462   3.023   3.926
 1329SOL    HW1 4886   1.422   3.019   4.018
 1329SOL    HW2 4887   1.392   3.054   3.861
 1330SOL     OW 4888   6.468   3.223   2.946
 1330SOL    HW1 4889   6.567   3.220   2.935
 1330SOL    HW2 4890   6.438   3.319   2.952
 1331SOL     OW 4891   4.357   2.353   3.386
 1331SOL    HW1 4892   4.364   2.304   3.472
 1331SOL    HW2 4893   4.445   2.397   3.366
 1332SOL     OW 4894   2.260   5.751   0.107
 1332SOL    HW1 4895   2.166   5.717   0.106
 1332SOL    HW2 4896   2.259   5.850   0.112
 1333SOL     OW 4897   3.531   3.379   2.759
 1333SOL    HW1 4898   3.551   3.436   2.679
 1333SOL    HW2 4899   3.587   3.410   2.836
 1334SOL     OW 4900   6.893   4.035   1.526
 1334SOL    HW1 4901   6.875   4.102   1.454
 1334SOL    HW2 4902   6.874   3.943   1.492
 1335SOL     OW 4903   6.960   3.386   3.061
 1335SOL    HW1 4904   6.967   3.471   3.009
 1335SOL    HW2 4905   0.038   3.338   3.060
 1336SOL     OW 4906   2.235   6.840   5.365
 1336SOL    HW1 4907   2.321   6.879   5.332
 1336SOL    HW2 4908   2.161   6.906   5.352
 1337SOL     OW 4909   0.406   0.112   2.062
 1337SOL    HW1 4910   0.344   0.047   2.019
 1337SOL    HW2 4911   0.385   0.205   2.031
 1338SOL     OW 4912   0.049   4.065   4.725
 1338SOL    HW1 4913   0.035   4.018   4.638
 1338SOL    HW2 4914   0.129   4.125   4.717
 1339SOL     OW 4915   5.741   1.295   6.611
 1339SOL    HW1 4916   5.780   1.216   6.659
 1339SOL    HW2 4917   5.696   1.264   6.528
 1340SOL     OW 4918   3.190   2.856   1.277
 1340SOL    HW1 4919   3.135   2.786   1.324
 1340SOL    HW2 4920   3.250   2.901   1.342
 1341SOL     OW 4921   5.399   5.529   6.206
 1341SOL    HW1 4922   5.419   5.433   6.227
 1341SOL    HW2 4923   5.458   5.559   6.131
 1342SOL     OW 4924   1.770   5.972   1.400
 1342SOL    HW1 4925   1.775   5.951   1.303
 1342SOL    HW2 4926   1.814   6.060   1.418
 1343SOL     OW 4927   4.942   5.985   2.732
 1343SOL    HW1 4928   4.883   6.063   2.755
 1343SOL    HW2 4929   5.026   5.990   2.786
 1344SOL     OW 4930   1.016   0.473   4.560
 1344SOL    HW1 4931   1.066   0.440   4.480
 1344SOL    HW2 4932   0.934   0.523   4.530
 1345SOL     OW 4933   1.916   6.793   5.755
 1345SOL    HW1 4934   1.963   6.724   5.699
 1345SOL    HW2 4935   1.858   6.850   5.697
 1346SOL     OW 4936   3.064   5.255   4.298
 1346SOL    HW1 4937   2.996   5.211   4.356
 1346SOL    HW2 4938   3.050   5.227   4.203
 1347SOL     OW 4939   1.860   0.559   6.339
 1347SOL    HW1 4940   1.932   0.601   6.393
 1347SOL    HW2 4941   1.775   0.559   6.392
 1348SOL     OW 4942   1.436   6.598   5.045
 1348SOL    HW1 4943   1.435   6.513   4.992
 1348SOL    HW2 4944   1.513   6.655   5.015
 1349SOL     OW 4945   5.377   3.940   4.237
 1349SOL    HW1 4946   5.406   3.904   4.149
 1349SOL    HW2 4947   5.347   4.035   4.226
 1350SOL     OW 4948   4.572   4.807   6.464
 1350SOL    HW1 4949   4.618   4.810   6.553
 1350SOL    HW2 4950   4.594   4.721   6.418
 1351SOL     OW 4951   0.197   2.059   6.354
 1351SOL    HW1 4952   0.116   2.081   6.299
 1351SOL    HW2 4953   0.252   2.142   6.367
 1352SOL     OW 4954   0.086   0.952   2.497
 1352SOL    HW1 4955   0.154   0.992   2.436
 1352SOL    HW2 4956   0.024   1.023   2.531
 1353SOL     OW 4957   6.373   1.729   6.819
 1353SOL    HW1 4958   6.330   1.781   6.893
 1353SOL    HW2 4959   6.381   1.787   6.738
 1354SOL     OW 4960   4.982   4.876   3.033
 1354SOL    HW1 4961   5.067   4.923   3.008
 1354SOL    HW2 4962   4.975   4.870   3.132
 1355SOL     OW 4963   4.259   3.470   5.211
 1355SOL    HW1 4964   4.211   3.496   5.127
 1355SOL    HW2 4965   4.328   3.400   5.189
 1356SOL     OW 4966   2.877   3.115   6.636
 1356SOL    HW1 4967   2.929   3.119   6.721
 1356SOL    HW2 4968   2.906   3.035   6.583
 1357SOL     OW 4969   0.887   2.691   5.564
 1357SOL    HW1 4970   0.891   2.597   5.530
 1357SOL    HW2 4971   0.911   2.692   5.662
 1358SOL     OW 4972   2.684   0.019   6.438
 1358SOL    HW1 4973   2.718   6.968   6.510
 1358SOL    HW2 4974   2.608   6.986   6.391
 1359SOL     OW 4975   6.116   4.590   0.084
 1359SOL    HW1 4976   6.056   4.574   0.162
 1359SOL    HW2 4977   6.201   4.632   0.116
 1360SOL     OW 4978   2.691   1.794   6.660
 1360SOL    HW1 4979   2.737   1.748   6.736
 1360SOL    HW2 4980   2.693   1.893   6.675
 1361SOL     OW 4981   6.725   5.411   5.207
 1361SOL    HW1 4982   6.803   5.356   5.238
 1361SOL    HW2 4983   6.644   5.353   5.199
 1362SOL     OW 4984   3.401   3.960   4.201
 1362SOL    HW1 4985   3.492   4.001   4.191
 1362SOL    HW2 4986   3.402   3.867   4.164
 1363SOL     OW 4987   0.607   6.343   3.260
 1363SOL    HW1 4988   0.587   6.259   3.210
 1363SOL    HW2 4989   0.526   6.372   3.310
 1364SOL     OW 4990   4.020   4.268   0.258
 1364SOL    HW1 4991   3.961   4.337   0.214
 1364SOL    HW2 4992   4.082   4.230   0.190
 1365SOL     OW 4993   6.063   2.481   6.486
 1365SOL    HW1 4994   6.008   2.541   6.428
 1365SOL    HW2 4995   6.042   2.385   6.464
 1366SOL     OW 4996   2.032   6.991   5.264
 1366SOL    HW1 4997   2.033   0.080   5.254
 1366SOL    HW2 4998   1.973   6.952   5.193
 1367SOL     OW 4999   2.702   1.935   2.611
 1367SOL    HW1 5000   2.779   1.882   2.576
 1367SOL    HW2 5001   2.620   1.878   2.612
 1368SOL     OW 5002   6.948   0.529   3.096
 1368SOL    HW1 5003   6.926   0.588   3.174
 1368SOL    HW2 5004   6.894   0.445   3.102
 1369SOL     OW 5005   0.306   0.533   2.275
 1369SOL    HW1 5006   0.238   0.578   2.333
 1369SOL    HW2 5007   0.321   0.589   2.193
 1370SOL     OW 5008   1.926   0.907   2.408
 1370SOL    HW1 5009   1.976   0.822   2.425
 1370SOL    HW2 5010   1.929   0.965   2.489
 1371SOL     OW 5011   2.987   0.528   6.408
 1371SOL    HW1 5012   2.974   0.428   6.407
 1371SOL    HW2 5013   3.065   0.552   6.351
 1372SOL     OW 5014   2.502   1.817   1.711
 1372SOL    HW1 5015   2.430   1.749   1.726
 1372SOL    HW2 5016   2.513   1.873   1.793
 1373SOL     OW 5017   1.695   6.037   0.240
 1373SOL    HW1 5018   1.761   6.032   0.164
 1373SOL    HW2 5019   1.654   6.128   0.243
 1374SOL     OW 5020   4.794   4.093   5.682
 1374SOL    HW1 5021   4.739   4.016   5.715
 1374SOL    HW2 5022   4.891   4.073   5.698
 1375SOL     OW 5023   0.756   3.976   4.126
 1375SOL    HW1 5024   0.710   3.915   4.190
 1375SOL    HW2 5025   0.688   4.032   4.078
 1376SOL     OW 5026   5.205   0.605   1.960
 1376SOL    HW1 5027   5.233   0.652   2.043
 1376SOL    HW2 5028   5.119   0.558   1.975
 1377SOL     OW 5029   0.747   4.591   4.630
 1377SOL    HW1 5030   0.730   4.517   4.566
 1377SOL    HW2 5031   0.663   4.644   4.643
 1378SOL     OW 5032   2.078   2.412   0.232
 1378SOL    HW1 5033   2.024   2.444   0.154
 1378SOL    HW2 5034   2.025   2.422   0.316
 1379SOL     OW 5035   4.227   5.844   1.737
 1379SOL    HW1 5036   4.150   5.902   1.711
 1379SOL    HW2 5037   4.288   5.833   1.658
 1380SOL     OW 5038   5.908   4.793   2.750
 1380SOL    HW1 5039   5.977   4.864   2.737
 1380SOL    HW2 5040   5.952   4.710   2.784
 1381SOL     OW 5041   4.690   0.026   2.506
 1381SOL    HW1 5042   4.593   0.050   2.512
 1381SOL    HW2 5043   4.712   6.972   2.580
 1382SOL     OW 5044   0.441   4.194   0.260
 1382SOL    HW1 5045   0.474   4.220   0.169
 1382SOL    HW2 5046   0.354   4.145   0.251
 1383SOL     OW 5047   2.784   0.146   0.957
 1383SOL    HW1 5048   2.841   0.075   0.916
 1383SOL    HW2 5049   2.822   0.236   0.936
 1384SOL     OW 5050   1.502   1.921   2.170
 1384SOL    HW1 5051   1.601   1.916   2.183
 1384SOL    HW2 5052   1.474   1.852   2.103
 1385SOL     OW 5053   4.911   3.751   4.245
 1385SOL    HW1 5054   4.876   3.705   4.327
 1385SOL    HW2 5055   5.009   3.769   4.256
 1386SOL     OW 5056   2.656   2.182   3.716
 1386SOL    HW1 5057   2.728   2.183   3.786
 1386SOL    HW2 5058   2.699   2.179   3.625
 1387SOL     OW 5059   3.472   0.700   3.700
 1387SOL    HW1 5060   3.518   0.786   3.723
 1387SOL    HW2 5061   3.397   0.685   3.765
 1388SOL     OW 5062   4.929   1.964   3.902
 1388SOL    HW1 5063   4.961   2.055   3.878
 1388SOL    HW2 5064   5.002   1.915   3.951
 1389SOL     OW 5065   0.199   0.255   3.499
 1389SOL    HW1 5066   0.278   0.314   3.512
 1389SOL    HW2 5067   0.228   0.166   3.464
 1390SOL     OW 5068   5.204   2.065   2.639
 1390SOL    HW1 5069   5.233   2.042   2.545
 1390SOL    HW2 5070   5.126   2.008   2.664
 1391SOL     OW 5071   5.773   1.030   5.204
 1391SOL    HW1 5072   5.773   1.126   5.176
 1391SOL    HW2 5073   5.829   0.977   5.140
 1392SOL     OW 5074   3.417   6.761   5.316
 1392SOL    HW1 5075   3.482   6.820   5.363
 1392SOL    HW2 5076   3.333   6.812   5.297
 1393SOL     OW 5077   5.310   0.618   6.917
 1393SOL    HW1 5078   5.260   0.535   6.891
 1393SOL    HW2 5079   5.304   0.630   0.005
 1394SOL     OW 5080   4.148   0.891   4.253
 1394SOL    HW1 5081   4.076   0.824   4.233
 1394SOL    HW2 5082   4.234   0.858   4.215
 1395SOL     OW 5083   0.724   5.047   2.567
 1395SOL    HW1 5084   0.730   4.985   2.489
 1395SOL    HW2 5085   0.684   5.134   2.536
 1396SOL     OW 5086   1.315   1.304   3.602
 1396SOL    HW1 5087   1.271   1.320   3.691
 1396SOL    HW2 5088   1.286   1.375   3.538
 1397SOL     OW 5089   2.262   4.501   5.578
 1397SOL    HW1 5090   2.354   4.538   5.561
 1397SOL    HW2 5091   2.225   4.465   5.493
 1398SOL     OW 5092   2.826   6.952   6.715
 1398SOL    HW1 5093   2.896   6.923   6.780
 1398SOL    HW2 5094   2.842   6.909   6.626
 1399SOL     OW 5095   3.570   6.987   0.179
 1399SOL    HW1 5096   3.604   6.972   0.086
 1399SOL    HW2 5097   3.619   6.927   0.242
 1400SOL     OW 5098   0.608   1.105   5.864
 1400SOL    HW1 5099   0.552   1.032   5.824
 1400SOL    HW2 5100   0.704   1.080   5.860
 1401SOL     OW 5101   5.063   0.232   1.880
 1401SOL    HW1 5102   5.008   0.258   1.960
 1401SOL    HW2 5103   5.159   0.225   1.906
 1402SOL     OW 5104   5.482   4.666   1.941
 1402SOL    HW1 5105   5.429   4.647   2.024
 1402SOL    HW2 5106   5.420   4.670   1.862
 1403SOL     OW 5107   3.041   3.185   6.848
 1403SOL    HW1 5108   3.069   3.281   6.854
 1403SOL    HW2 5109   3.082   3.134   6.924
 1404SOL     OW 5110   4.065   6.035   0.287
 1404SOL    HW1 5111   4.144   6.075   0.240
 1404SOL    HW2 5112   4.001   6.001   0.219
 1405SOL     OW 5113   0.987   3.650   6.810
 1405SOL    HW1 5114   0.990   3.562   6.858
 1405SOL    HW2 5115   1.007   3.724   6.874
 1406SOL     OW 5116   2.316   2.626   6.687
 1406SOL    HW1 5117   2.328   2.725   6.683
 1406SOL    HW2 5118   2.354   2.584   6.605
 1407SOL     OW 5119   6.800   2.511   1.967
 1407SOL    HW1 5120   6.776   2.519   1.870
 1407SOL    HW2 5121   6.798   2.602   2.009
 1408SOL     OW 5122   5.930   6.417   0.725
 1408SOL    HW1 5123   5.936   6.429   0.625
 1408SOL    HW2 5124   5.842   6.376   0.749
 1409SOL     OW 5125   5.914   2.172   5.754
 1409SOL    HW1 5126   5.888   2.121   5.836
 1409SOL    HW2 5127   5.900   2.114   5.673
 1410SOL     OW 5128   2.885   0.682   0.699
 1410SOL    HW1 5129   2.795   0.674   0.741
 1410SOL    HW2 5130   2.911   0.594   0.659
 1411SOL     OW 5131   3.948   6.241   6.963
 1411SOL    HW1 5132   3.981   6.204   6.876
 1411SOL    HW2 5133   4.012   6.217   0.025
 1412SOL     OW 5134   2.302   1.514   0.287
 1412SOL    HW1 5135   2.214   1.512   0.335
 1412SOL    HW2 5136   2.297   1.579   0.211
 1413SOL     OW 5137   2.331   1.603   5.070
 1413SOL    HW1 5138   2.408   1.583   5.010
 1413SOL    HW2 5139   2.340   1.696   5.106
 1414SOL     OW 5140   0.472   4.793   2.008
 1414SOL    HW1 5141   0.451   4.890   2.001
 1414SOL    HW2 5142   0.409   4.741   1.950
 1415SOL     OW 5143   3.747   1.871   5.432
 1415SOL    HW1 5144   3.703   1.851   5.345
 1415SOL    HW2 5145   3.731   1.966   5.457
 1416SOL     OW 5146   4.861   0.420   5.105
 1416SOL    HW1 5147   4.868   0.490   5.033
 1416SOL    HW2 5148   4.933   0.352   5.092
 1417SOL     OW 5149   3.869   3.620   4.266
 1417SOL    HW1 5150   3.822   3.705   4.289
 1417SOL    HW2 5151   3.952   3.611   4.321
 1418SOL     OW 5152   3.237   3.795   5.608
 1418SOL    HW1 5153   3.276   3.729   5.544
 1418SOL    HW2 5154   3.299   3.873   5.617
 1419SOL     OW 5155   0.091   5.267   2.025
 1419SOL    HW1 5156   0.085   5.186   1.966
 1419SOL    HW2 5157   0.134   5.241   2.112
 1420SOL     OW 5158   2.899   6.373   3.431
 1420SOL    HW1 5159   2.980   6.335   3.475
 1420SOL    HW2 5160   2.926   6.449   3.372
 1421SOL     OW 5161   1.649   5.333   0.577
 1421SOL    HW1 5162   1.601   5.301   0.495
 1421SOL    HW2 5163   1.706   5.259   0.613
 1422SOL     OW 5164   1.369   3.881   6.845
 1422SOL    HW1 5165   1.361   3.851   6.750
 1422SOL    HW2 5166   1.427   3.817   6.895
 1423SOL     OW 5167   4.801   0.965   4.907
 1423SOL    HW1 5168   4.846   1.017   4.835
 1423SOL    HW2 5169   4.714   0.929   4.874
 1424SOL     OW 5170   6.146   2.815   1.254
 1424SOL    HW1 5171   6.220   2.835   1.318
 1424SOL    HW2 5172   6.101   2.900   1.228
 1425SOL     OW 5173   6.046   6.464   3.119
 1425SOL    HW1 5174   5.999   6.386   3.160
 1425SOL    HW2 5175   6.077   6.526   3.190
 1426SOL     OW 5176   3.599   1.456   0.693
 1426SOL    HW1 5177   3.647   1.486   0.610
 1426SOL    HW2 5178   3.571   1.361   0.682
 1427SOL     OW 5179   1.244   0.781   3.883
 1427SOL    HW1 5180   1.302   0.732   3.818
 1427SOL    HW2 5181   1.216   0.868   3.843
 1428SOL     OW 5182   1.874   3.878   3.834
 1428SOL    HW1 5183   1.815   3.925   3.900
 1428SOL    HW2 5184   1.950   3.834   3.883
 1429SOL     OW 5185   6.379   0.664   1.607
 1429SOL    HW1 5186   6.404   0.629   1.697
 1429SOL    HW2 5187   6.461   0.671   1.550
 1430SOL     OW 5188   2.185   4.108   4.516
 1430SOL    HW1 5189   2.201   4.089   4.419
 1430SOL    HW2 5190   2.158   4.024   4.563
 1431SOL     OW 5191   3.579   2.233   0.637
 1431SOL    HW1 5192   3.580   2.144   0.683
 1431SOL    HW2 5193   3.497   2.240   0.581
 1432SOL     OW 5194   3.768   0.300   2.637
 1432SOL    HW1 5195   3.702   0.249   2.582
 1432SOL    HW2 5196   3.720   0.351   2.708
 1433SOL     OW 5197   2.909   2.090   4.348
 1433SOL    HW1 5198   2.982   2.078   4.415
 1433SOL    HW2 5199   2.927   2.032   4.268
 1434SOL     OW 5200   5.362   3.840   0.570
 1434SOL    HW1 5201   5.438   3.779   0.594
 1434SOL    HW2 5202   5.384   3.889   0.485
 1435SOL     OW 5203   0.328   6.058   3.989
 1435SOL    HW1 5204   0.279   5.971   3.977
 1435SOL    HW2 5205   0.322   6.111   3.905
 1436SOL     OW 5206   5.597   1.108   0.331
 1436SOL    HW1 5207   5.551   1.196   0.325
 1436SOL    HW2 5208   5.538   1.042   0.376
 1437SOL     OW 5209   4.443   1.389   0.828
 1437SOL    HW1 5210   4.439   1.395   0.729
 1437SOL    HW2 5211   4.411   1.475   0.868
 1438SOL     OW 5212   2.134   6.798   2.989
 1438SOL    HW1 5213   2.231   6.807   3.009
 1438SOL    HW2 5214   2.085   6.879   3.022
 1439SOL     OW 5215   0.353   5.392   4.700
 1439SOL    HW1 5216   0.274   5.334   4.683
 1439SOL    HW2 5217   0.387   5.376   4.793
 1440SOL     OW 5218   3.353   3.442   2.165
 1440SOL    HW1 5219   3.332   3.453   2.263
 1440SOL    HW2 5220   3.279   3.391   2.121
 1441SOL     OW 5221   0.443   1.752   5.850
 1441SOL    HW1 5222   0.393   1.667   5.837
 1441SOL    HW2 5223   0.469   1.762   5.946
 1442SOL     OW 5224   5.495   5.956   0.124
 1442SOL    HW1 5225   5.455   5.935   0.035
 1442SOL    HW2 5226   5.533   5.872   0.164
 1443SOL     OW 5227   1.393   3.323   4.191
 1443SOL    HW1 5228   1.479   3.333   4.141
 1443SOL    HW2 5229   1.413   3.300   4.286
 1444SOL     OW 5230   5.252   6.808   4.321
 1444SOL    HW1 5231   5.287   6.737   4.382
 1444SOL    HW2 5232   5.287   6.793   4.228
 1445SOL     OW 5233   0.069   2.295   0.528
 1445SOL    HW1 5234   0.153   2.338   0.493
 1445SOL    HW2 5235   7.001   2.328   0.475
 1446SOL     OW 5236   2.768   5.706   2.239
 1446SOL    HW1 5237   2.695   5.646   2.269
 1446SOL    HW2 5238   2.845   5.652   2.205
 1447SOL     OW 5239   6.677   0.778   4.438
 1447SOL    HW1 5240   6.682   0.867   4.482
 1447SOL    HW2 5241   6.589   0.735   4.459
 1448SOL     OW 5242   5.555   0.711   0.659
 1448SOL    HW1 5243   5.576   0.808   0.669
 1448SOL    HW2 5244   5.500   0.680   0.737
 1449SOL     OW 5245   4.684   5.484   0.309
 1449SOL    HW1 5246   4.693   5.436   0.222
 1449SOL    HW2 5247   4.713   5.579   0.298
 1450SOL     OW 5248   5.407   1.338   3.941
 1450SOL    HW1 5249   5.438   1.314   3.849
 1450SOL    HW2 5250   5.484   1.373   3.994
 1451SOL     OW 5251   0.961   6.875   1.830
 1451SOL    HW1 5252   0.922   6.808   1.893
 1451SOL    HW2 5253   1.061   6.866   1.830
 1452SOL     OW 5254   2.301   0.181   6.277
 1452SOL    HW1 5255   2.286   0.266   6.225
 1452SOL    HW2 5256   2.323   0.204   6.372
 1453SOL     OW 5257   5.867   4.564   4.303
 1453SOL    HW1 5258   5.871   4.630   4.227
 1453SOL    HW2 5259   5.931   4.593   4.375
 1454SOL     OW 5260   5.634   3.726   0.830
 1454SOL    HW1 5261   5.655   3.821   0.854
 1454SOL    HW2 5262   5.619   3.719   0.732
 1455SOL     OW 5263   1.789   1.994   1.944
 1455SOL    HW1 5264   1.733   2.059   1.892
 1455SOL    HW2 5265   1.741   1.968   2.028
 1456SOL     OW 5266   5.325   5.551   5.092
 1456SOL    HW1 5267   5.355   5.624   5.153
 1456SOL    HW2 5268   5.356   5.463   5.128
 1457SOL     OW 5269   2.055   0.952   4.696
 1457SOL    HW1 5270   2.077   0.914   4.606
 1457SOL    HW2 5271   1.971   1.005   4.690
 1458SOL     OW 5272   0.138   5.385   6.976
 1458SOL    HW1 5273   0.160   5.294   6.941
 1458SOL    HW2 5274   0.139   5.384   0.065
 1459SOL     OW 5275   2.679   6.973   1.794
 1459SOL    HW1 5276   2.601   6.913   1.811
 1459SOL    HW2 5277   2.763   6.928   1.824
 1460SOL     OW 5278   0.412   0.466   6.747
 1460SOL    HW1 5279   0.453   0.393   6.693
 1460SOL    HW2 5280   0.483   0.527   6.780
 1461SOL     OW 5281   4.990   4.181   2.774
 1461SOL    HW1 5282   5.048   4.161   2.696
 1461SOL    HW2 5283   4.909   4.123   2.772
 1462SOL     OW 5284   5.476   0.321   5.036
 1462SOL    HW1 5285   5.413   0.277   5.100
 1462SOL    HW2 5286   5.561   0.270   5.033
 1463SOL     OW 5287   0.748   2.139   5.196
 1463SOL    HW1 5288   0.820   2.184   5.248
 1463SOL    HW2 5289   0.670   2.121   5.256
 1464SOL     OW 5290   0.795   0.906   0.960
 1464SOL    HW1 5291   0.696   0.917   0.948
 1464SOL    HW2 5292   0.839   0.996   0.956
 1465SOL     OW 5293   1.739   1.121   3.434
 1465SOL    HW1 5294   1.827   1.111   3.387
 1465SOL    HW2 5295   1.704   1.213   3.420
 1466SOL     OW 5296   5.963   5.661   4.007
 1466SOL    HW1 5297   5.914   5.578   4.035
 1466SOL    HW2 5298   5.897   5.736   3.997
 1467SOL     OW 5299   0.075   3.919   4.409
 1467SOL    HW1 5300   0.085   3.821   4.389
 1467SOL    HW2 5301   0.093   3.972   4.325
 1468SOL     OW 5302   4.591   0.083   2.823
 1468SOL    HW1 5303   4.575   0.112   2.917
 1468SOL    HW2 5304   4.606   6.995   2.820
 1469SOL     OW 5305   0.319   0.920   2.277
 1469SOL    HW1 5306   0.384   0.844   2.273
 1469SOL    HW2 5307   0.340   0.977   2.356
 1470SOL     OW 5308   0.313   0.111   2.658
 1470SOL    HW1 5309   0.342   0.206   2.659
 1470SOL    HW2 5310   0.337   0.068   2.745
 1471SOL     OW 5311   6.112   1.172   1.048
 1471SOL    HW1 5312   6.194   1.214   1.088
 1471SOL    HW2 5313   6.042   1.163   1.118
 1472SOL     OW 5314   4.796   5.297   5.317
 1472SOL    HW1 5315   4.831   5.206   5.339
 1472SOL    HW2 5316   4.700   5.290   5.290
 1473SOL     OW 5317   6.863   3.313   4.146
 1473SOL    HW1 5318   6.847   3.230   4.200
 1473SOL    HW2 5319   6.959   3.316   4.118
 1474SOL     OW 5320   4.398   5.901   2.880
 1474SOL    HW1 5321   4.344   5.981   2.853
 1474SOL    HW2 5322   4.484   5.932   2.921
 1475SOL     OW 5323   6.100   6.759   2.618
 1475SOL    HW1 5324   6.192   6.741   2.584
 1475SOL    HW2 5325   6.105   6.822   2.696
 1476SOL     OW 5326   0.653   2.290   1.418
 1476SOL    HW1 5327   0.619   2.295   1.512
 1476SOL    HW2 5328   0.739   2.340   1.411
 1477SOL     OW 5329   2.720   6.511   4.616
 1477SOL    HW1 5330   2.744   6.549   4.705
 1477SOL    HW2 5331   2.689   6.417   4.627
 1478SOL     OW 5332   0.147   3.410   1.307
 1478SOL    HW1 5333   0.169   3.313   1.310
 1478SOL    HW2 5334   0.148   3.448   1.400
 1479SOL     OW 5335   1.657   5.404   0.202
 1479SOL    HW1 5336   1.624   5.328   0.259
 1479SOL    HW2 5337   1.755   5.394   0.186
 1480SOL     OW 5338   3.100   0.820   0.655
 1480SOL    HW1 5339   3.105   0.832   0.556
 1480SOL    HW2 5340   3.011   0.780   0.679
 1481SOL     OW 5341   6.831   3.398   0.344
 1481SOL    HW1 5342   6.795   3.486   0.312
 1481SOL    HW2 5343   6.863   3.345   0.265
 1482SOL     OW 5344   5.983   0.535   6.161
 1482SOL    HW1 5345   5.896   0.548   6.209
 1482SOL    HW2 5346   6.057   0.531   6.228
 1483SOL     OW 5347   6.820   2.726   0.110
 1483SOL    HW1 5348   6.842   2.629   0.095
 1483SOL    HW2 5349   6.720   2.736   0.117
 1484SOL     OW 5350   6.072   6.614   3.677
 1484SOL    HW1 5351   6.108   6.695   3.630
 1484SOL    HW2 5352   6.004   6.570   3.620
 1485SOL     OW 5353   5.265   3.639   4.015
 1485SOL    HW1 5354   5.303   3.554   4.051
 1485SOL    HW2 5355   5.190   3.669   4.074
 1486SOL     OW 5356   5.338   3.095   1.294
 1486SOL    HW1 5357   5.320   3.171   1.231
 1486SOL    HW2 5358   5.340   3.009   1.243
 1487SOL     OW 5359   0.705   0.157   5.525
 1487SOL    HW1 5360   0.763   0.172   5.444
 1487SOL    HW2 5361   0.640   0.232   5.533
 1488SOL     OW 5362   5.082   2.192   4.538
 1488SOL    HW1 5363   4.995   2.158   4.504
 1488SOL    HW2 5364   5.105   2.278   4.492
 1489SOL     OW 5365   3.211   4.939   4.965
 1489SOL    HW1 5366   3.254   5.028   4.952
 1489SOL    HW2 5367   3.142   4.924   4.894
 1490SOL     OW 5368   2.427   2.812   0.446
 1490SOL    HW1 5369   2.379   2.758   0.515
 1490SOL    HW2 5370   2.510   2.765   0.418
 1491SOL     OW 5371   0.525   1.968   4.443
 1491SOL    HW1 5372   0.496   1.963   4.539
 1491SOL    HW2 5373   0.462   2.026   4.392
 1492SOL     OW 5374   0.313   2.321   1.651
 1492SOL    HW1 5375   0.400   2.371   1.650
 1492SOL    HW2 5376   0.331   2.224   1.668
 1493SOL     OW 5377   6.200   2.942   4.757
 1493SOL    HW1 5378   6.298   2.945   4.780
 1493SOL    HW2 5379   6.174   3.028   4.713
 1494SOL     OW 5380   5.351   1.692   3.989
 1494SOL    HW1 5381   5.350   1.651   3.898
 1494SOL    HW2 5382   5.418   1.644   4.046
 1495SOL     OW 5383   1.528   4.014   2.024
 1495SOL    HW1 5384   1.507   3.957   1.944
 1495SOL    HW2 5385   1.613   4.063   2.008
 1496SOL     OW 5386   1.109   0.544   2.388
 1496SOL    HW1 5387   1.103   0.540   2.487
 1496SOL    HW2 5388   1.107   0.640   2.358
 1497SOL     OW 5389   5.880   5.271   6.057
 1497SOL    HW1 5390   5.810   5.317   6.112
 1497SOL    HW2 5391   5.836   5.221   5.982
 1498SOL     OW 5392   2.992   5.334   0.154
 1498SOL    HW1 5393   2.930   5.281   0.211
 1498SOL    HW2 5394   3.085   5.300   0.164
 1499SOL     OW 5395   0.446   4.180   4.411
 1499SOL    HW1 5396   0.502   4.216   4.336
 1499SOL    HW2 5397   0.504   4.135   4.478
 1500SOL     OW 5398   3.692   6.795   5.886
 1500SOL    HW1 5399   3.647   6.731   5.824
 1500SOL    HW2 5400   3.749   6.744   5.952
 1501SOL     OW 5401   3.781   0.217   0.935
 1501SOL    HW1 5402   3.851   0.199   0.866
 1501SOL    HW2 5403   3.795   0.156   1.013
 1502SOL     OW 5404   0.535   0.560   6.242
 1502SOL    HW1 5405   0.575   0.469   6.232
 1502SOL    HW2 5406   0.593   0.628   6.197
 1503SOL     OW 5407   3.483   3.862   5.018
 1503SOL    HW1 5408   3.520   3.770   5.003
 1503SOL    HW2 5409   3.385   3.855   5.037
 1504SOL     OW 5410   2.593   6.744   3.540
 1504SOL    HW1 5411   2.626   6.825   3.589
 1504SOL    HW2 5412   2.511   6.768   3.488
 1505SOL     OW 5413   5.535   6.715   3.002
 1505SOL    HW1 5414   5.624   6.695   3.043
 1505SOL    HW2 5415   5.498   6.632   2.961
 1506SOL     OW 5416   0.633   6.072   3.932
 1506SOL    HW1 5417   0.686   6.152   3.905
 1506SOL    HW2 5418   0.549   6.102   3.977
 1507SOL     OW 5419   1.920   1.533   0.019
 1507SOL    HW1 5420   1.954   1.627   0.029
 1507SOL    HW2 5421   1.983   1.481   6.972
 1508SOL     OW 5422   4.863   6.210   1.133
 1508SOL    HW1 5423   4.771   6.183   1.104
 1508SOL    HW2 5424   4.872   6.199   1.232
 1509SOL     OW 5425   5.682   1.550   6.683
 1509SOL    HW1 5426   5.718   1.613   6.614
 1509SOL    HW2 5427   5.692   1.456   6.650
 1510SOL     OW 5428   6.456   1.522   2.537
 1510SOL    HW1 5429   6.530   1.468   2.496
 1510SOL    HW2 5430   6.371   1.469   2.533
 1511SOL     OW 5431   0.255   2.893   0.063
 1511SOL    HW1 5432   0.213   2.858   0.147
 1511SOL    HW2 5433   0.250   2.821   7.003
 1512SOL     OW 5434   5.993   0.954   2.104
 1512SOL    HW1 5435   6.047   0.960   2.020
 1512SOL    HW2 5436   6.026   1.022   2.170
 1513SOL     OW 5437   2.372   0.828   2.900
 1513SOL    HW1 5438   2.393   0.923   2.876
 1513SOL    HW2 5439   2.413   0.767   2.833
 1514SOL     OW 5440   4.420   1.097   5.925
 1514SOL    HW1 5441   4.340   1.118   5.869
 1514SOL    HW2 5442   4.500   1.145   5.888
 1515SOL     OW 5443   5.676   5.460   5.814
 1515SOL    HW1 5444   5.758   5.503   5.776
 1515SOL    HW2 5445   5.695   5.364   5.835
 1516SOL     OW 5446   6.285   1.715   1.916
 1516SOL    HW1 5447   6.287   1.627   1.963
 1516SOL    HW2 5448   6.196   1.728   1.872
 1517SOL     OW 5449   3.393   5.099   2.473
 1517SOL    HW1 5450   3.319   5.053   2.522
 1517SOL    HW2 5451   3.424   5.040   2.398
 1518SOL     OW 5452   0.529   4.776   1.165
 1518SOL    HW1 5453   0.565   4.857   1.117
 1518SOL    HW2 5454   0.431   4.769   1.148
 1519SOL     OW 5455   0.319   3.845   0.944
 1519SOL    HW1 5456   0.366   3.823   1.030
 1519SOL    HW2 5457   0.387   3.872   0.876
 1520SOL     OW 5458   1.460   3.764   2.644
 1520SOL    HW1 5459   1.469   3.863   2.632
 1520SOL    HW2 5460   1.513   3.717   2.574
 1521SOL     OW 5461   2.353   5.444   5.352
 1521SOL    HW1 5462   2.447   5.477   5.361
 1521SOL    HW2 5463   2.354   5.345   5.338
 1522SOL     OW 5464   1.657   2.033   6.249
 1522SOL    HW1 5465   1.648   2.123   6.293
 1522SOL    HW2 5466   1.567   1.989   6.247
 1523SOL     OW 5467   5.899   0.705   1.451
 1523SOL    HW1 5468   5.999   0.711   1.451
 1523SOL    HW2 5469   5.860   0.794   1.475
 1524SOL     OW 5470   0.520   1.762   1.059
 1524SOL    HW1 5471   0.606   1.807   1.034
 1524SOL    HW2 5472   0.519   1.668   1.023
 1525SOL     OW 5473   4.989   1.291   5.336
 1525SOL    HW1 5474   5.076   1.279   5.290
 1525SOL    HW2 5475   4.925   1.220   5.306
 1526SOL     OW 5476   5.796   2.279   6.930
 1526SOL    HW1 5477   5.802   2.255   0.017
 1526SOL    HW2 5478   5.835   2.370   6.916
 1527SOL     OW 5479   3.059   1.125   5.461
 1527SOL    HW1 5480   3.080   1.041   5.512
 1527SOL    HW2 5481   3.078   1.109   5.364
 1528SOL     OW 5482   5.036   5.715   3.806
 1528SOL    HW1 5483   5.031   5.633   3.750
 1528SOL    HW2 5484   5.016   5.796   3.750
 1529SOL     OW 5485   1.894   6.880   5.050
 1529SOL    HW1 5486   1.914   6.855   4.956
 1529SOL    HW2 5487   1.822   6.821   5.086
 1530SOL     OW 5488   2.966   6.462   1.539
 1530SOL    HW1 5489   2.945   6.556   1.512
 1530SOL    HW2 5490   2.936   6.399   1.467
 1531SOL     OW 5491   5.921   1.322   6.376
 1531SOL    HW1 5492   5.834   1.295   6.417
 1531SOL    HW2 5493   5.996   1.278   6.425
 1532SOL     OW 5494   2.996   1.848   5.200
 1532SOL    HW1 5495   3.009   1.933   5.150
 1532SOL    HW2 5496   3.086   1.809   5.222
 1533SOL     OW 5497   4.614   3.068   0.260
 1533SOL    HW1 5498   4.617   3.167   0.250
 1533SOL    HW2 5499   4.705   3.035   0.287
 1534SOL     OW 5500   0.263   6.892   0.261
 1534SOL    HW1 5501   0.260   6.957   0.336
 1534SOL    HW2 5502   0.274   6.941   0.174
 1535SOL     OW 5503   5.169   4.718   4.388
 1535SOL    HW1 5504   5.157   4.656   4.311
 1535SOL    HW2 5505   5.260   4.705   4.428
 1536SOL     OW 5506   3.349   6.001   2.911
 1536SOL    HW1 5507   3.343   6.022   2.813
 1536SOL    HW2 5508   3.258   6.006   2.952
 1537SOL     OW 5509   2.409   6.078   4.488
 1537SOL    HW1 5510   2.314   6.108   4.496
 1537SOL    HW2 5511   2.447   6.061   4.579
 1538SOL     OW 5512   3.559   6.233   0.364
 1538SOL    HW1 5513   3.500   6.310   0.389
 1538SOL    HW2 5514   3.547   6.159   0.429
 1539SOL     OW 5515   2.287   6.615   2.491
 1539SOL    HW1 5516   2.368   6.590   2.439
 1539SOL    HW2 5517   2.310   6.621   2.588
 1540SOL     OW 5518   5.869   0.523   4.986
 1540SOL    HW1 5519   5.932   0.592   5.023
 1540SOL    HW2 5520   5.799   0.502   5.055
 1541SOL     OW 5521   5.397   1.682   1.996
 1541SOL    HW1 5522   5.309   1.651   1.960
 1541SOL    HW2 5523   5.383   1.733   2.081
 1542SOL     OW 5524   6.963   5.496   1.260
 1542SOL    HW1 5525   0.035   5.438   1.257
 1542SOL    HW2 5526   6.984   5.581   1.307
 1543SOL     OW 5527   3.506   3.523   3.186
 1543SOL    HW1 5528   3.511   3.430   3.222
 1543SOL    HW2 5529   3.562   3.530   3.103
 1544SOL     OW 5530   3.612   3.257   1.607
 1544SOL    HW1 5531   3.593   3.200   1.528
 1544SOL    HW2 5532   3.566   3.345   1.597
 1545SOL     OW 5533   0.639   6.663   5.400
 1545SOL    HW1 5534   0.680   6.598   5.463
 1545SOL    HW2 5535   0.547   6.686   5.432
 1546SOL     OW 5536   6.992   6.592   6.863
 1546SOL    HW1 5537   6.948   6.637   6.785
 1546SOL    HW2 5538   6.973   6.644   6.946
 1547SOL     OW 5539   3.127   6.025   0.113
 1547SOL    HW1 5540   3.223   6.022   0.142
 1547SOL    HW2 5541   3.099   5.935   0.081
 1548SOL     OW 5542   6.701   3.934   3.372
 1548SOL    HW1 5543   6.606   3.941   3.341
 1548SOL    HW2 5544   6.755   3.886   3.303
 1549SOL     OW 5545   6.277   2.037   0.899
 1549SOL    HW1 5546   6.329   2.038   0.984
 1549SOL    HW2 5547   6.250   1.943   0.877
 1550SOL     OW 5548   2.499   4.969   2.447
 1550SOL    HW1 5549   2.524   4.973   2.350
 1550SOL    HW2 5550   2.408   5.009   2.459
 1551SOL     OW 5551   0.681   2.833   1.617
 1551SOL    HW1 5552   0.648   2.844   1.523
 1551SOL    HW2 5553   0.759   2.771   1.618
 1552SOL     OW 5554   1.639   6.868   1.969
 1552SOL    HW1 5555   1.712   6.829   2.025
 1552SOL    HW2 5556   1.550   6.836   2.001
 1553SOL     OW 5557   6.120   1.663   5.489
 1553SOL    HW1 5558   6.104   1.575   5.534
 1553SOL    HW2 5559   6.218   1.675   5.475
 1554SOL     OW 5560   2.673   2.855   0.872
 1554SOL    HW1 5561   2.749   2.893   0.819
 1554SOL    HW2 5562   2.595   2.841   0.813
 1555SOL     OW 5563   4.345   1.250   1.071
 1555SOL    HW1 5564   4.376   1.307   0.995
 1555SOL    HW2 5565   4.245   1.249   1.073
 1556SOL     OW 5566   3.376   2.582   0.555
 1556SOL    HW1 5567   3.391   2.620   0.464
 1556SOL    HW2 5568   3.321   2.498   0.548
 1557SOL     OW 5569   1.725   2.927   1.316
 1557SOL    HW1 5570   1.746   3.007   1.261
 1557SOL    HW2 5571   1.722   2.846   1.257
 1558SOL     OW 5572   4.829   2.602   6.740
 1558SOL    HW1 5573   4.910   2.546   6.758
 1558SOL    HW2 5574   4.747   2.543   6.740
 1559SOL     OW 5575   2.711   6.058   3.369
 1559SOL    HW1 5576   2.687   6.013   3.283
 1559SOL    HW2 5577   2.697   6.157   3.361
 1560SOL     OW 5578   4.326   2.998   1.341
 1560SOL    HW1 5579   4.269   2.925   1.379
 1560SOL    HW2 5580   4.422   2.972   1.348
 1561SOL     OW 5581   6.349   6.347   0.433
 1561SOL    HW1 5582   6.293   6.344   0.350
 1561SOL    HW2 5583   6.373   6.254   0.460
 1562SOL     OW 5584   2.699   6.991   2.925
 1562SOL    HW1 5585   2.707   0.078   2.945
 1562SOL    HW2 5586   2.721   6.975   2.829
 1563SOL     OW 5587   2.118   3.800   3.941
 1563SOL    HW1 5588   2.161   3.886   3.913
 1563SOL    HW2 5589   2.132   3.787   4.040
 1564SOL     OW 5590   1.190   1.740   3.168
 1564SOL    HW1 5591   1.178   1.804   3.244
 1564SOL    HW2 5592   1.286   1.738   3.140
 1565SOL     OW 5593   5.231   1.522   5.491
 1565SOL    HW1 5594   5.158   1.525   5.423
 1565SOL    HW2 5595   5.274   1.431   5.490
 1566SOL     OW 5596   0.787   3.340   3.742
 1566SOL    HW1 5597   0.753   3.248   3.725
 1566SOL    HW2 5598   0.770   3.398   3.663
 1567SOL     OW 5599   5.403   0.489   4.628
 1567SOL    HW1 5600   5.475   0.484   4.559
 1567SOL    HW2 5601   5.315   0.467   4.587
 1568SOL     OW 5602   2.297   4.237   0.783
 1568SOL    HW1 5603   2.206   4.262   0.751
 1568SOL    HW2 5604   2.291   4.153   0.838
 1569SOL     OW 5605   2.235   1.103   2.130
 1569SOL    HW1 5606   2.301   1.039   2.091
 1569SOL    HW2 5607   2.280   1.159   2.200
 1570SOL     OW 5608   2.818   6.316   6.507
 1570SOL    HW1 5609   2.812   6.305   6.407
 1570SOL    HW2 5610   2.837   6.227   6.549
 1571SOL     OW 5611   0.309   1.342   4.724
 1571SOL    HW1 5612   0.265   1.347   4.634
 1571SOL    HW2 5613   0.252   1.287   4.786
 1572SOL     OW 5614   1.705   6.612   3.463
 1572SOL    HW1 5615   1.769   6.689   3.456
 1572SOL    HW2 5616   1.742   6.543   3.526
 1573SOL     OW 5617   5.464   6.467   0.466
 1573SOL    HW1 5618   5.369   6.468   0.435
 1573SOL    HW2 5619   5.494   6.560   0.485
 1574SOL     OW 5620   0.162   3.798   3.329
 1574SOL    HW1 5621   0.218   3.878   3.308
 1574SOL    HW2 5622   0.182   3.725   3.264
 1575SOL     OW 5623   6.908   2.464   0.331
 1575SOL    HW1 5624   6.840   2.537   0.337
 1575SOL    HW2 5625   6.993   2.500   0.292
 1576SOL     OW 5626   1.662   5.764   2.335
 1576SOL    HW1 5627   1.749   5.716   2.322
 1576SOL    HW2 5628   1.602   5.708   2.392
 1577SOL     OW 5629   4.203   5.803   4.091
 1577SOL    HW1 5630   4.114   5.847   4.080
 1577SOL    HW2 5631   4.196   5.732   4.162
 1578SOL     OW 5632   5.245   1.891   1.553
 1578SOL    HW1 5633   5.268   1.947   1.633
 1578SOL    HW2 5634   5.189   1.945   1.490
 1579SOL     OW 5635   1.249   3.004   2.235
 1579SOL    HW1 5636   1.173   3.013   2.171
 1579SOL    HW2 5637   1.303   2.923   2.211
 1580SOL     OW 5638   3.228   3.971   3.873
 1580SOL    HW1 5639   3.235   3.872   3.869
 1580SOL    HW2 5640   3.318   4.010   3.895
 1581SOL     OW 5641   5.031   4.759   5.351
 1581SOL    HW1 5642   4.985   4.672   5.365
 1581SOL    HW2 5643   5.080   4.785   5.434
 1582SOL     OW 5644   4.229   6.185   4.568
 1582SOL    HW1 5645   4.250   6.089   4.586
 1582SOL    HW2 5646   4.130   6.200   4.573
 1583SOL     OW 5647   0.717   5.219   4.748
 1583SOL    HW1 5648   0.652   5.292   4.728
 1583SOL    HW2 5649   0.767   5.241   4.832
 1584SOL     OW 5650   6.933   4.143   7.005
 1584SOL    HW1 5651   6.972   4.063   0.040
 1584SOL    HW2 5652   6.861   4.182   0.051
 1585SOL     OW 5653   5.034   6.412   4.230
 1585SOL    HW1 5654   4.988   6.347   4.169
 1585SOL    HW2 5655   4.987   6.501   4.224
 1586SOL     OW 5656   2.359   5.786   3.610
 1586SOL    HW1 5657   2.290   5.855   3.587
 1586SOL    HW2 5658   2.447   5.813   3.573
 1587SOL     OW 5659   3.776   6.397   0.333
 1587SOL    HW1 5660   3.745   6.452   0.410
 1587SOL    HW2 5661   3.709   6.325   0.314
 1588SOL     OW 5662   6.371   2.267   3.683
 1588SOL    HW1 5663   6.353   2.271   3.584
 1588SOL    HW2 5664   6.285   2.254   3.732
 1589SOL     OW 5665   0.078   1.485   4.218
 1589SOL    HW1 5666   0.083   1.517   4.123
 1589SOL    HW2 5667   6.999   1.509   4.256
 1590SOL     OW 5668   5.502   0.637   3.889
 1590SOL    HW1 5669   5.592   0.594   3.896
 1590SOL    HW2 5670   5.492   0.678   3.798
 1591SOL     OW 5671   0.367   5.650   0.314
 1591SOL    HW1 5672   0.307   5.574   0.339
 1591SOL    HW2 5673   0.424   5.675   0.393
 1592SOL     OW 5674   6.736   4.024   4.853
 1592SOL    HW1 5675   6.771   4.116   4.870
 1592SOL    HW2 5676   6.667   4.027   4.781
 1593SOL     OW 5677   3.302   5.738   1.608
 1593SOL    HW1 5678   3.282   5.832   1.636
 1593SOL    HW2 5679   3.351   5.739   1.521
 1594SOL     OW 5680   5.303   1.355   2.751
 1594SOL    HW1 5681   5.286   1.376   2.655
 1594SOL    HW2 5682   5.217   1.327   2.795
 1595SOL     OW 5683   0.097   3.667   6.785
 1595SOL    HW1 5684   0.109   3.766   6.771
 1595SOL    HW2 5685   0.019   3.651   6.846
 1596SOL     OW 5686   5.114   4.559   4.174
 1596SOL    HW1 5687   5.040   4.553   4.107
 1596SOL    HW2 5688   5.186   4.618   4.139
 1597SOL     OW 5689   4.096   6.738   1.260
 1597SOL    HW1 5690   4.186   6.696   1.248
 1597SOL    HW2 5691   4.061   6.716   1.351
 1598SOL     OW 5692   0.940   4.825   6.016
 1598SOL    HW1 5693   0.903   4.883   5.943
 1598SOL    HW2 5694   0.870   4.810   6.085
 1599SOL     OW 5695   5.055   5.457   3.687
 1599SOL    HW1 5696   5.029   5.367   3.722
 1599SOL    HW2 5697   5.126   5.496   3.744
 1600SOL     OW 5698   4.372   0.750   1.565
 1600SOL    HW1 5699   4.379   0.657   1.602
 1600SOL    HW2 5700   4.461   0.795   1.570
 1601SOL     OW 5701   6.372   0.549   4.624
 1601SOL    HW1 5702   6.332   0.625   4.675
 1601SOL    HW2 5703   6.416   0.583   4.541
 1602SOL     OW 5704   4.166   5.783   3.053
 1602SOL    HW1 5705   4.192   5.818   3.144
 1602SOL    HW2 5706   4.249   5.765   3.000
 1603SOL     OW 5707   3.321   4.923   1.904
 1603SOL    HW1 5708   3.391   4.855   1.928
 1603SOL    HW2 5709   3.365   5.006   1.870
 1604SOL     OW 5710   4.126   5.400   2.179
 1604SOL    HW1 5711   4.040   5.363   2.215
 1604SOL    HW2 5712   4.149   5.352   2.094
 1605SOL     OW 5713   4.904   4.743   0.575
 1605SOL    HW1 5714   4.872   4.835   0.550
 1605SOL    HW2 5715   4.947   4.700   0.495
 1606SOL     OW 5716   4.081   5.901   5.165
 1606SOL    HW1 5717   4.178   5.922   5.177
 1606SOL    HW2 5718   4.048   5.943   5.081
 1607SOL     OW 5719   4.854   3.712   3.955
 1607SOL    HW1 5720   4.840   3.613   3.962
 1607SOL    HW2 5721   4.877   3.748   4.045
 1608SOL     OW 5722   6.298   3.111   3.327
 1608SOL    HW1 5723   6.278   3.026   3.377
 1608SOL    HW2 5724   6.280   3.097   3.230
 1609SOL     OW 5725   2.074   0.243   0.772
 1609SOL    HW1 5726   2.040   0.149   0.779
 1609SOL    HW2 5727   2.017   0.303   0.829
 1610SOL     OW 5728   5.608   6.232   1.041
 1610SOL    HW1 5729   5.596   6.328   1.019
 1610SOL    HW2 5730   5.643   6.183   0.960
 1611SOL     OW 5731   0.444   4.225   6.765
 1611SOL    HW1 5732   0.444   4.125   6.759
 1611SOL    HW2 5733   0.504   4.254   6.840
 1612SOL     OW 5734   5.064   1.094   1.677
 1612SOL    HW1 5735   5.150   1.096   1.625
 1612SOL    HW2 5736   5.081   1.056   1.768
 1613SOL     OW 5737   0.283   6.179   2.412
 1613SOL    HW1 5738   0.239   6.099   2.372
 1613SOL    HW2 5739   0.336   6.227   2.342
 1614SOL     OW 5740   5.874   1.665   5.422
 1614SOL    HW1 5741   5.849   1.760   5.404
 1614SOL    HW2 5742   5.970   1.661   5.449
 1615SOL     OW 5743   6.819   3.249   5.007
 1615SOL    HW1 5744   6.831   3.313   4.931
 1615SOL    HW2 5745   6.798   3.301   5.091
 1616SOL     OW 5746   0.768   1.672   3.320
 1616SOL    HW1 5747   0.728   1.759   3.350
 1616SOL    HW2 5748   0.698   1.602   3.319
 1617SOL     OW 5749   6.850   5.402   4.236
 1617SOL    HW1 5750   6.854   5.472   4.307
 1617SOL    HW2 5751   6.792   5.327   4.267
 1618SOL     OW 5752   3.109   5.377   3.127
 1618SOL    HW1 5753   3.062   5.304   3.079
 1618SOL    HW2 5754   3.053   5.409   3.203
 1619SOL     OW 5755   0.625   3.366   6.429
 1619SOL    HW1 5756   0.618   3.333   6.523
 1619SOL    HW2 5757   0.716   3.344   6.393
 1620SOL     OW 5758   2.782   6.977   4.719
 1620SOL    HW1 5759   2.765   0.063   4.740
 1620SOL    HW2 5760   2.708   6.942   4.661
 1621SOL     OW 5761   5.483   4.727   1.096
 1621SOL    HW1 5762   5.551   4.799   1.101
 1621SOL    HW2 5763   5.465   4.690   1.188
 1622SOL     OW 5764   6.767   3.066   3.177
 1622SOL    HW1 5765   6.865   3.064   3.158
 1622SOL    HW2 5766   6.719   3.110   3.101
 1623SOL     OW 5767   0.702   2.558   3.860
 1623SOL    HW1 5768   0.625   2.540   3.800
 1623SOL    HW2 5769   0.753   2.473   3.876
 1624SOL     OW 5770   4.466   2.866   0.455
 1624SOL    HW1 5771   4.493   2.895   0.363
 1624SOL    HW2 5772   4.430   2.944   0.506
 1625SOL     OW 5773   0.919   6.088   0.493
 1625SOL    HW1 5774   0.942   6.166   0.552
 1625SOL    HW2 5775   0.905   6.120   0.400
 1626SOL     OW 5776   2.519   1.845   2.307
 1626SOL    HW1 5777   2.512   1.786   2.227
 1626SOL    HW2 5778   2.517   1.788   2.390
 1627SOL     OW 5779   4.582   1.584   5.991
 1627SOL    HW1 5780   4.582   1.650   5.916
 1627SOL    HW2 5781   4.661   1.523   5.982
 1628SOL     OW 5782   5.272   6.158   1.093
 1628SOL    HW1 5783   5.232   6.250   1.101
 1628SOL    HW2 5784   5.233   6.112   1.013
 1629SOL     OW 5785   1.785   0.004   3.406
 1629SOL    HW1 5786   1.731   0.068   3.461
 1629SOL    HW2 5787   1.792   0.038   3.312
 1630SOL     OW 5788   0.270   4.607   6.456
 1630SOL    HW1 5789   0.323   4.539   6.506
 1630SOL    HW2 5790   0.321   4.693   6.453
 1631SOL     OW 5791   5.010   3.981   0.281
 1631SOL    HW1 5792   5.000   3.973   0.182
 1631SOL    HW2 5793   4.928   4.022   0.319
 1632SOL     OW 5794   6.042   6.370   2.292
 1632SOL    HW1 5795   6.130   6.326   2.273
 1632SOL    HW2 5796   6.042   6.406   2.385
 1633SOL     OW 5797   6.252   3.969   4.449
 1633SOL    HW1 5798   6.270   3.906   4.525
 1633SOL    HW2 5799   6.338   4.009   4.418
 1634SOL     OW 5800   1.547   3.927   6.504
 1634SOL    HW1 5801   1.478   3.871   6.551
 1634SOL    HW2 5802   1.562   3.891   6.413
 1635SOL     OW 5803   2.854   0.417   3.998
 1635SOL    HW1 5804   2.894   0.505   4.025
 1635SOL    HW2 5805   2.928   0.350   3.984
 1636SOL     OW 5806   0.345   6.215   1.670
 1636SOL    HW1 5807   0.268   6.278   1.676
 1636SOL    HW2 5808   0.425   6.256   1.715
 1637SOL     OW 5809   1.247   1.518   1.948
 1637SOL    HW1 5810   1.206   1.485   1.863
 1637SOL    HW2 5811   1.181   1.507   2.023
 1638SOL     OW 5812   5.438   2.360   3.550
 1638SOL    HW1 5813   5.500   2.316   3.486
 1638SOL    HW2 5814   5.490   2.409   3.620
 1639SOL     OW 5815   4.667   2.317   1.107
 1639SOL    HW1 5816   4.627   2.254   1.173
 1639SOL    HW2 5817   4.603   2.392   1.088
 1640SOL     OW 5818   6.464   0.872   0.050
 1640SOL    HW1 5819   6.492   0.791   0.101
 1640SOL    HW2 5820   6.366   0.887   0.061
 1641SOL     OW 5821   5.357   1.037   3.031
 1641SOL    HW1 5822   5.357   1.103   3.106
 1641SOL    HW2 5823   5.398   0.951   3.061
 1642SOL     OW 5824   0.072   3.168   5.486
 1642SOL    HW1 5825   7.008   3.195   5.546
 1642SOL    HW2 5826   0.036   3.143   5.396
 1643SOL     OW 5827   2.301   5.335   4.134
 1643SOL    HW1 5828   2.235   5.269   4.169
 1643SOL    HW2 5829   2.273   5.428   4.159
 1644SOL     OW 5830   5.850   1.929   1.481
 1644SOL    HW1 5831   5.783   1.933   1.406
 1644SOL    HW2 5832   5.816   1.867   1.552
 1645SOL     OW 5833   2.566   0.776   4.704
 1645SOL    HW1 5834   2.524   0.771   4.795
 1645SOL    HW2 5835   2.503   0.822   4.641
 1646SOL     OW 5836   0.304   5.316   1.730
 1646SOL    HW1 5837   0.399   5.312   1.700
 1646SOL    HW2 5838   0.287   5.404   1.775
 1647SOL     OW 5839   6.112   3.194   4.698
 1647SOL    HW1 5840   6.174   3.264   4.732
 1647SOL    HW2 5841   6.043   3.235   4.639
 1648SOL     OW 5842   5.233   6.305   2.049
 1648SOL    HW1 5843   5.253   6.266   2.139
 1648SOL    HW2 5844   5.250   6.237   1.978
 1649SOL     OW 5845   3.693   0.793   2.887
 1649SOL    HW1 5846   3.632   0.858   2.932
 1649SOL    HW2 5847   3.649   0.756   2.806
 1650SOL     OW 5848   2.517   2.566   4.878
 1650SOL    HW1 5849   2.436   2.586   4.823
 1650SOL    HW2 5850   2.501   2.592   4.973
 1651SOL     OW 5851   1.263   2.088   4.018
 1651SOL    HW1 5852   1.190   2.097   4.086
 1651SOL    HW2 5853   1.282   1.991   4.002
 1652SOL     OW 5854   6.696   4.188   1.668
 1652SOL    HW1 5855   6.745   4.269   1.698
 1652SOL    HW2 5856   6.756   4.130   1.613
 1653SOL     OW 5857   6.517   4.421   2.005
 1653SOL    HW1 5858   6.585   4.488   1.976
 1653SOL    HW2 5859   6.490   4.365   1.927
 1654SOL     OW 5860   0.351   3.828   1.942
 1654SOL    HW1 5861   0.271   3.840   2.001
 1654SOL    HW2 5862   0.383   3.916   1.909
 1655SOL     OW 5863   0.069   0.750   6.169
 1655SOL    HW1 5864   0.155   0.709   6.140
 1655SOL    HW2 5865   0.006   0.679   6.199
 1656SOL     OW 5866   2.140   3.967   2.619
 1656SOL    HW1 5867   2.161   3.898   2.688
 1656SOL    HW2 5868   2.214   4.034   2.615
 1657SOL     OW 5869   0.426   0.930   6.156
 1657SOL    HW1 5870   0.515   0.930   6.202
 1657SOL    HW2 5871   0.390   1.023   6.153
 1658SOL     OW 5872   5.263   6.804   5.788
 1658SOL    HW1 5873   5.199   6.755   5.728
 1658SOL    HW2 5874   5.283   6.894   5.748
 1659SOL     OW 5875   3.681   0.475   6.401
 1659SOL    HW1 5876   3.617   0.437   6.467
 1659SOL    HW2 5877   3.658   0.571   6.383
 1660SOL     OW 5878   2.602   0.914   1.970
 1660SOL    HW1 5879   2.522   0.883   2.022
 1660SOL    HW2 5880   2.682   0.862   1.999
 1661SOL     OW 5881   4.797   4.825   3.539
 1661SOL    HW1 5882   4.855   4.761   3.589
 1661SOL    HW2 5883   4.724   4.775   3.493
 1662SOL     OW 5884   0.080   1.767   3.563
 1662SOL    HW1 5885   0.068   1.833   3.488
 1662SOL    HW2 5886   7.001   1.735   3.593
 1663SOL     OW 5887   5.657   3.952   1.016
 1663SOL    HW1 5888   5.642   3.857   1.041
 1663SOL    HW2 5889   5.680   4.005   1.098
 1664SOL     OW 5890   1.403   1.722   6.124
 1664SOL    HW1 5891   1.485   1.720   6.068
 1664SOL    HW2 5892   1.329   1.768   6.074
 1665SOL     OW 5893   2.229   3.925   6.778
 1665SOL    HW1 5894   2.292   3.881   6.712
 1665SOL    HW2 5895   2.181   3.999   6.732
 1666SOL     OW 5896   5.495   6.243   5.699
 1666SOL    HW1 5897   5.568   6.272   5.637
 1666SOL    HW2 5898   5.536   6.190   5.774
 1667SOL     OW 5899   6.749   5.068   0.940
 1667SOL    HW1 5900   6.686   5.129   0.987
 1667SOL    HW2 5901   6.804   5.120   0.875
 1668SOL     OW 5902   6.259   3.443   1.946
 1668SOL    HW1 5903   6.357   3.437   1.926
 1668SOL    HW2 5904   6.207   3.426   1.863
 1669SOL     OW 5905   6.179   2.896   5.073
 1669SOL    HW1 5906   6.138   2.834   5.140
 1669SOL    HW2 5907   6.164   2.860   4.981
 1670SOL     OW 5908   2.895   4.300   5.298
 1670SOL    HW1 5909   2.871   4.385   5.252
 1670SOL    HW2 5910   2.906   4.227   5.231
 1671SOL     OW 5911   5.718   2.169   0.669
 1671SOL    HW1 5912   5.768   2.230   0.608
 1671SOL    HW2 5913   5.676   2.223   0.743
 1672SOL     OW 5914   0.082   2.191   1.365
 1672SOL    HW1 5915   0.127   2.102   1.354
 1672SOL    HW2 5916   0.068   2.233   1.276
 1673SOL     OW 5917   1.590   0.596   5.117
 1673SOL    HW1 5918   1.520   0.528   5.098
 1673SOL    HW2 5919   1.667   0.553   5.164
 1674SOL     OW 5920   4.969   2.142   3.501
 1674SOL    HW1 5921   4.956   2.198   3.420
 1674SOL    HW2 5922   4.924   2.184   3.580
 1675SOL     OW 5923   5.318   0.716   2.214
 1675SOL    HW1 5924   5.231   0.765   2.226
 1675SOL    HW2 5925   5.394   0.778   2.234
 1676SOL     OW 5926   0.996   2.411   4.303
 1676SOL    HW1 5927   1.092   2.434   4.319
 1676SOL    HW2 5928   0.950   2.489   4.262
 1677SOL     OW 5929   3.383   4.094   2.401
 1677SOL    HW1 5930   3.467   4.096   2.455
 1677SOL    HW2 5931   3.336   4.182   2.409
 1678SOL     OW 5932   6.832   6.731   6.644
 1678SOL    HW1 5933   6.763   6.798   6.671
 1678SOL    HW2 5934   6.789   6.659   6.589
 1679SOL     OW 5935   6.201   1.619   0.480
 1679SOL    HW1 5936   6.168   1.571   0.398
 1679SOL    HW2 5937   6.143   1.697   0.499
 1680SOL     OW 5938   6.031   2.500   2.929
 1680SOL    HW1 5939   6.054   2.588   2.888
 1680SOL    HW2 5940   6.086   2.428   2.887
 1681SOL     OW 5941   3.665   6.227   4.589
 1681SOL    HW1 5942   3.757   6.227   4.549
 1681SOL    HW2 5943   3.608   6.292   4.540
 1682SOL     OW 5944   3.974   1.093   4.953
 1682SOL    HW1 5945   4.064   1.050   4.943
 1682SOL    HW2 5946   3.904   1.022   4.964
 1683SOL     OW 5947   1.092   2.742   2.986
 1683SOL    HW1 5948   1.071   2.836   3.014
 1683SOL    HW2 5949   1.131   2.743   2.894
 1684SOL     OW 5950   2.884   5.159   1.358
 1684SOL    HW1 5951   2.932   5.080   1.320
 1684SOL    HW2 5952   2.894   5.159   1.457
 1685SOL     OW 5953   0.204   1.585   5.594
 1685SOL    HW1 5954   0.116   1.625   5.621
 1685SOL    HW2 5955   0.250   1.645   5.529
 1686SOL     OW 5956   3.437   5.155   1.758
 1686SOL    HW1 5957   3.468   5.247   1.781
 1686SOL    HW2 5958   3.510   5.090   1.777
 1687SOL     OW 5959   4.515   4.403   0.516
 1687SOL    HW1 5960   4.605   4.442   0.499
 1687SOL    HW2 5961   4.524   4.316   0.565
 1688SOL     OW 5962   3.194   0.480   3.078
 1688SOL    HW1 5963   3.231   0.573   3.073
 1688SOL    HW2 5964   3.095   0.484   3.092
 1689SOL     OW 5965   3.955   0.461   2.025
 1689SOL    HW1 5966   3.862   0.494   2.010
 1689SOL    HW2 5967   3.985   0.489   2.116
 1690SOL     OW 5968   6.653   5.011   4.083
 1690SOL    HW1 5969   6.650   4.978   4.178
 1690SOL    HW2 5970   6.749   5.021   4.055
 1691SOL     OW 5971   4.050   2.609   5.384
 1691SOL    HW1 5972   4.098   2.676   5.440
 1691SOL    HW2 5973   4.107   2.580   5.308
 1692SOL     OW 5974   6.165   5.179   2.682
 1692SOL    HW1 5975   6.240   5.164   2.618
 1692SOL    HW2 5976   6.163   5.104   2.749
 1693SOL     OW 5977   5.307   6.870   5.372
 1693SOL    HW1 5978   5.356   6.903   5.453
 1693SOL    HW2 5979   5.212   6.851   5.396
 1694SOL     OW 5980   4.660   1.085   6.507
 1694SOL    HW1 5981   4.582   1.105   6.565
 1694SOL    HW2 5982   4.645   1.125   6.416
 1695SOL     OW 5983   4.752   0.264   4.742
 1695SOL    HW1 5984   4.818   0.311   4.684
 1695SOL    HW2 5985   4.687   0.330   4.780
 1696SOL     OW 5986   5.247   6.773   1.005
 1696SOL    HW1 5987   5.235   6.718   0.922
 1696SOL    HW2 5988   5.344   6.778   1.028
 1697SOL     OW 5989   4.248   3.244   1.623
 1697SOL    HW1 5990   4.289   3.163   1.662
 1697SOL    HW2 5991   4.320   3.304   1.588
 1698SOL     OW 5992   4.322   1.235   1.892
 1698SOL    HW1 5993   4.401   1.295   1.878
 1698SOL    HW2 5994   4.248   1.287   1.936
 1699SOL     OW 5995   1.851   0.779   1.062
 1699SOL    HW1 5996   1.846   0.876   1.087
 1699SOL    HW2 5997   1.904   0.730   1.132
 1700SOL     OW 5998   5.387   3.257   2.697
 1700SOL    HW1 5999   5.368   3.281   2.792
 1700SOL    HW2 6000   5.470   3.305   2.666
 1701SOL     OW 6001   0.892   5.468   5.521
 1701SOL    HW1 6002   0.870   5.565   5.511
 1701SOL    HW2 6003   0.873   5.421   5.434
 1702SOL     OW 6004   1.853   2.579   6.621
 1702SOL    HW1 6005   1.908   2.516   6.567
 1702SOL    HW2 6006   1.761   2.542   6.631
 1703SOL     OW 6007   1.401   2.012   2.392
 1703SOL    HW1 6008   1.462   1.995   2.315
 1703SOL    HW2 6009   1.391   2.110   2.406
 1704SOL     OW 6010   3.427   3.007   6.626
 1704SOL    HW1 6011   3.396   3.092   6.582
 1704SOL    HW2 6012   3.479   3.030   6.708
 1705SOL     OW 6013   5.020   3.159   0.464
 1705SOL    HW1 6014   5.051   3.078   0.514
 1705SOL    HW2 6015   5.091   3.230   0.469
 1706SOL     OW 6016   5.413   0.670   5.946
 1706SOL    HW1 6017   5.501   0.632   5.917
 1706SOL    HW2 6018   5.394   0.753   5.892
 1707SOL     OW 6019   3.516   1.412   2.251
 1707SOL    HW1 6020   3.501   1.384   2.156
 1707SOL    HW2 6021   3.473   1.501   2.266
 1708SOL     OW 6022   2.532   4.563   1.955
 1708SOL    HW1 6023   2.631   4.551   1.958
 1708SOL    HW2 6024   2.510   4.649   1.909
 1709SOL     OW 6025   5.310   4.212   1.622
 1709SOL    HW1 6026   5.224   4.209   1.673
 1709SOL    HW2 6027   5.307   4.288   1.556
 1710SOL     OW 6028   4.738   2.811   2.223
 1710SOL    HW1 6029   4.651   2.763   2.221
 1710SOL    HW2 6030   4.753   2.858   2.136
 1711SOL     OW 6031   4.185   5.447   6.880
 1711SOL    HW1 6032   4.230   5.431   6.968
 1711SOL    HW2 6033   4.179   5.360   6.830
 1712SOL     OW 6034   0.438   2.131   2.279
 1712SOL    HW1 6035   0.382   2.100   2.356
 1712SOL    HW2 6036   0.480   2.052   2.235
 1713SOL     OW 6037   2.883   1.776   2.170
 1713SOL    HW1 6038   2.901   1.678   2.160
 1713SOL    HW2 6039   2.884   1.819   2.080
 1714SOL     OW 6040   2.811   4.222   1.305
 1714SOL    HW1 6041   2.885   4.289   1.311
 1714SOL    HW2 6042   2.802   4.174   1.392
 1715SOL     OW 6043   1.416   6.303   1.123
 1715SOL    HW1 6044   1.429   6.338   1.216
 1715SOL    HW2 6045   1.504   6.301   1.076
 1716SOL     OW 6046   5.058   1.299   2.922
 1716SOL    HW1 6047   5.057   1.200   2.935
 1716SOL    HW2 6048   4.964   1.333   2.917
 1717SOL     OW 6049   3.618   5.998   4.015
 1717SOL    HW1 6050   3.580   5.995   3.922
 1717SOL    HW2 6051   3.555   5.956   4.078
 1718SOL     OW 6052   1.795   3.357   1.625
 1718SOL    HW1 6053   1.785   3.259   1.639
 1718SOL    HW2 6054   1.856   3.395   1.695
 1719SOL     OW 6055   1.198   4.889   3.496
 1719SOL    HW1 6056   1.168   4.797   3.471
 1719SOL    HW2 6057   1.289   4.906   3.457
 1720SOL     OW 6058   1.118   2.859   5.157
 1720SOL    HW1 6059   1.100   2.797   5.081
 1720SOL    HW2 6060   1.174   2.936   5.125
 1721SOL     OW 6061   2.242   2.838   0.244
 1721SOL    HW1 6062   2.181   2.889   0.306
 1721SOL    HW2 6063   2.333   2.832   0.285
 1722SOL     OW 6064   3.131   1.997   3.465
 1722SOL    HW1 6065   3.141   1.898   3.454
 1722SOL    HW2 6066   3.133   2.041   3.375
 1723SOL     OW 6067   6.597   4.765   1.371
 1723SOL    HW1 6068   6.648   4.847   1.346
 1723SOL    HW2 6069   6.596   4.701   1.295
 1724SOL     OW 6070   5.943   3.487   0.649
 1724SOL    HW1 6071   5.937   3.587   0.655
 1724SOL    HW2 6072   6.039   3.459   0.658
 1725SOL     OW 6073   1.740   6.625   6.212
 1725SOL    HW1 6074   1.822   6.646   6.158
 1725SOL    HW2 6075   1.747   6.533   6.249
 1726SOL     OW 6076   5.132   5.023   3.889
 1726SOL    HW1 6077   5.109   4.985   3.979
 1726SOL    HW2 6078   5.226   5.057   3.890
 1727SOL     OW 6079   3.030   3.096   3.588
 1727SOL    HW1 6080   3.000   3.186   3.617
 1727SOL    HW2 6081   3.050   3.097   3.490
 1728SOL     OW 6082   5.347   1.976   4.689
 1728SOL    HW1 6083   5.265   1.994   4.743
 1728SOL    HW2 6084   5.428   1.992   4.746
 1729SOL     OW 6085   1.721   3.271   2.926
 1729SOL    HW1 6086   1.788   3.281   2.853
 1729SOL    HW2 6087   1.703   3.174   2.943
 1730SOL     OW 6088   2.583   0.516   4.603
 1730SOL    HW1 6089   2.567   0.602   4.652
 1730SOL    HW2 6090   2.574   0.439   4.666
 1731SOL     OW 6091   5.680   4.448   3.597
 1731SOL    HW1 6092   5.753   4.509   3.627
 1731SOL    HW2 6093   5.622   4.494   3.530
 1732SOL     OW 6094   4.099   3.478   5.000
 1732SOL    HW1 6095   4.091   3.395   4.944
 1732SOL    HW2 6096   4.011   3.499   5.041
 1733SOL     OW 6097   1.335   2.086   6.937
 1733SOL    HW1 6098   1.435   2.078   6.945
 1733SOL    HW2 6099   1.312   2.138   6.855
 1734SOL     OW 6100   0.860   4.097   1.818
 1734SOL    HW1 6101   0.770   4.133   1.795
 1734SOL    HW2 6102   0.869   4.091   1.918
 1735SOL     OW 6103   3.268   5.598   5.730
 1735SOL    HW1 6104   3.340   5.654   5.770
 1735SOL    HW2 6105   3.270   5.607   5.630
 1736SOL     OW 6106   4.876   1.864   5.763
 1736SOL    HW1 6107   4.914   1.803   5.693
 1736SOL    HW2 6108   4.786   1.897   5.733
 1737SOL     OW 6109   2.841   1.106   6.354
 1737SOL    HW1 6110   2.821   1.074   6.446
 1737SOL    HW2 6111   2.827   1.205   6.349
 1738SOL     OW 6112   1.259   3.971   2.109
 1738SOL    HW1 6113   1.354   4.002   2.114
 1738SOL    HW2 6114   1.202   4.030   2.166
 1739SOL     OW 6115   4.597   5.183   2.373
 1739SOL    HW1 6116   4.591   5.234   2.287
 1739SOL    HW2 6117   4.692   5.158   2.390
 1740SOL     OW 6118   6.986   2.045   4.669
 1740SOL    HW1 6119   0.053   2.092   4.711
 1740SOL    HW2 6120   6.915   2.031   4.737
 1741SOL     OW 6121   1.294   3.110   4.635
 1741SOL    HW1 6122   1.228   3.035   4.645
 1741SOL    HW2 6123   1.373   3.077   4.584
 1742SOL     OW 6124   5.699   0.188   6.960
 1742SOL    HW1 6125   5.632   0.261   6.948
 1742SOL    HW2 6126   5.780   0.224   7.007
 1743SOL     OW 6127   1.009   2.317   1.569
 1743SOL    HW1 6128   0.996   2.372   1.486
 1743SOL    HW2 6129   0.928   2.260   1.584
 1744SOL     OW 6130   3.357   1.841   5.141
 1744SOL    HW1 6131   3.451   1.817   5.167
 1744SOL    HW2 6132   3.340   1.937   5.162
 1745SOL     OW 6133   6.367   6.339   0.916
 1745SOL    HW1 6134   6.457   6.380   0.901
 1745SOL    HW2 6135   6.299   6.383   0.858
 1746SOL     OW 6136   2.647   5.295   2.608
 1746SOL    HW1 6137   2.694   5.206   2.610
 1746SOL    HW2 6138   2.572   5.292   2.542
 1747SOL     OW 6139   2.764   6.895   2.192
 1747SOL    HW1 6140   2.800   6.988   2.191
 1747SOL    HW2 6141   2.840   6.831   2.208
 1748SOL     OW 6142   6.819   1.504   3.972
 1748SOL    HW1 6143   6.906   1.552   3.983
 1748SOL    HW2 6144   6.818   1.456   3.884
 1749SOL     OW 6145   6.499   5.041   2.810
 1749SOL    HW1 6146   6.583   5.025   2.862
 1749SOL    HW2 6147   6.422   4.997   2.856
 1750SOL     OW 6148   3.002   1.034   1.058
 1750SOL    HW1 6149   2.987   1.083   0.973
 1750SOL    HW2 6150   3.097   1.046   1.087
 1751SOL     OW 6151   6.392   4.497   4.779
 1751SOL    HW1 6152   6.335   4.515   4.860
 1751SOL    HW2 6153   6.462   4.567   4.772
 1752SOL     OW 6154   6.175   0.816   2.560
 1752SOL    HW1 6155   6.106   0.825   2.489
 1752SOL    HW2 6156   6.172   0.723   2.598
 1753SOL     OW 6157   6.294   1.543   1.421
 1753SOL    HW1 6158   6.301   1.562   1.323
 1753SOL    HW2 6159   6.384   1.553   1.463
 1754SOL     OW 6160   2.675   5.270   3.551
 1754SOL    HW1 6161   2.719   5.273   3.461
 1754SOL    HW2 6162   2.610   5.345   3.559
 1755SOL     OW 6163   6.161   6.085   5.546
 1755SOL    HW1 6164   6.100   6.010   5.572
 1755SOL    HW2 6165   6.149   6.105   5.449
 1756SOL     OW 6166   4.458   6.372   1.661
 1756SOL    HW1 6167   4.503   6.368   1.572
 1756SOL    HW2 6168   4.523   6.405   1.730
 1757SOL     OW 6169   2.921   5.180   4.876
 1757SOL    HW1 6170   2.923   5.243   4.798
 1757SOL    HW2 6171   2.934   5.231   4.961
 1758SOL     OW 6172   0.505   6.118   4.204
 1758SOL    HW1 6173   0.573   6.045   4.205
 1758SOL    HW2 6174   0.431   6.094   4.142
 1759SOL     OW 6175   1.745   5.304   6.316
 1759SOL    HW1 6176   1.817   5.276   6.253
 1759SOL    HW2 6177   1.659   5.260   6.290
 1760SOL     OW 6178   5.971   1.695   3.714
 1760SOL    HW1 6179   5.905   1.761   3.680
 1760SOL    HW2 6180   5.996   1.717   3.808
 1761SOL     OW 6181   5.685   2.320   3.733
 1761SOL    HW1 6182   5.669   2.234   3.683
 1761SOL    HW2 6183   5.782   2.328   3.756
 1762SOL     OW 6184   0.764   1.699   5.828
 1762SOL    HW1 6185   0.703   1.767   5.787
 1762SOL    HW2 6186   0.709   1.629   5.874
 1763SOL     OW 6187   1.574   4.640   3.573
 1763SOL    HW1 6188   1.629   4.578   3.630
 1763SOL    HW2 6189   1.630   4.718   3.545
 1764SOL     OW 6190   1.151   5.669   3.405
 1764SOL    HW1 6191   1.174   5.725   3.485
 1764SOL    HW2 6192   1.167   5.722   3.322
 1765SOL     OW 6193   5.627   4.055   1.821
 1765SOL    HW1 6194   5.640   3.981   1.756
 1765SOL    HW2 6195   5.560   4.120   1.785
 1766SOL     OW 6196   4.184   4.982   3.815
 1766SOL    HW1 6197   4.124   4.911   3.779
 1766SOL    HW2 6198   4.178   5.064   3.757
 1767SOL     OW 6199   1.416   4.172   1.252
 1767SOL    HW1 6200   1.352   4.100   1.226
 1767SOL    HW2 6201   1.369   4.260   1.251
 1768SOL     OW 6202   3.680   4.865   2.921
 1768SOL    HW1 6203   3.746   4.794   2.896
 1768SOL    HW2 6204   3.597   4.854   2.866
 1769SOL     OW 6205   5.528   0.076   1.002
 1769SOL    HW1 6206   5.544   0.119   1.092
 1769SOL    HW2 6207   5.512   6.989   1.014
 1770SOL     OW 6208   2.250   4.574   0.592
 1770SOL    HW1 6209   2.201   4.660   0.609
 1770SOL    HW2 6210   2.293   4.542   0.676
 1771SOL     OW 6211   0.977   3.053   5.946
 1771SOL    HW1 6212   0.927   3.074   5.863
 1771SOL    HW2 6213   1.070   3.091   5.941
 1772SOL     OW 6214   2.550   4.578   2.585
 1772SOL    HW1 6215   2.527   4.551   2.492
 1772SOL    HW2 6216   2.648   4.600   2.591
 1773SOL     OW 6217   2.190   6.840   4.813
 1773SOL    HW1 6218   2.131   6.762   4.833
 1773SOL    HW2 6219   2.139   6.909   4.761
 1774SOL     OW 6220   5.441   5.707   2.248
 1774SOL    HW1 6221   5.391   5.754   2.176
 1774SOL    HW2 6222   5.492   5.630   2.209
 1775SOL     OW 6223   1.567   6.591   0.878
 1775SOL    HW1 6224   1.618   6.621   0.959
 1775SOL    HW2 6225   1.530   6.671   0.830
 1776SOL     OW 6226   4.833   3.146   5.972
 1776SOL    HW1 6227   4.912   3.170   6.029
 1776SOL    HW2 6228   4.801   3.055   5.996
 1777SOL     OW 6229   4.970   5.559   0.046
 1777SOL    HW1 6230   4.905   5.488   0.020
 1777SOL    HW2 6231   4.994   5.549   0.143
 1778SOL     OW 6232   0.100   0.303   2.967
 1778SOL    HW1 6233   0.041   0.349   3.033
 1778SOL    HW2 6234   0.044   0.257   2.898
 1779SOL     OW 6235   6.965   0.221   4.536
 1779SOL    HW1 6236   0.008   0.202   4.619
 1779SOL    HW2 6237   6.925   0.135   4.503
 1780SOL     OW 6238   2.958   7.000   4.434
 1780SOL    HW1 6239   2.891   0.063   4.429
 1780SOL    HW2 6240   3.041   0.022   4.479
 1781SOL     OW 6241   5.091   1.398   6.141
 1781SOL    HW1 6242   5.189   1.396   6.162
 1781SOL    HW2 6243   5.073   1.348   6.057
 1782SOL     OW 6244   4.909   0.448   2.501
 1782SOL    HW1 6245   4.826   0.444   2.446
 1782SOL    HW2 6246   4.987   0.468   2.442
 1783SOL     OW 6247   1.620   3.285   0.198
 1783SOL    HW1 6248   1.545   3.323   0.252
 1783SOL    HW2 6249   1.697   3.264   0.258
 1784SOL     OW 6250   2.111   5.892   1.406
 1784SOL    HW1 6251   2.193   5.898   1.349
 1784SOL    HW2 6252   2.030   5.909   1.350
 1785SOL     OW 6253   1.860   5.407   4.373
 1785SOL    HW1 6254   1.865   5.438   4.278
 1785SOL    HW2 6255   1.765   5.413   4.404
 1786SOL     OW 6256   0.329   5.783   1.903
 1786SOL    HW1 6257   0.397   5.710   1.895
 1786SOL    HW2 6258   0.370   5.871   1.880
 1787SOL     OW 6259   2.379   2.542   6.093
 1787SOL    HW1 6260   2.438   2.602   6.146
 1787SOL    HW2 6261   2.291   2.587   6.077
 1788SOL     OW 6262   3.504   4.320   0.612
 1788SOL    HW1 6263   3.500   4.247   0.544
 1788SOL    HW2 6264   3.444   4.297   0.689
 1789SOL     OW 6265   5.805   2.199   2.297
 1789SOL    HW1 6266   5.779   2.145   2.216
 1789SOL    HW2 6267   5.902   2.185   2.315
 1790SOL     OW 6268   2.476   1.959   4.826
 1790SOL    HW1 6269   2.398   2.021   4.836
 1790SOL    HW2 6270   2.445   1.865   4.827
 1791SOL     OW 6271   6.338   0.552   3.825
 1791SOL    HW1 6272   6.376   0.460   3.831
 1791SOL    HW2 6273   6.241   0.546   3.800
 1792SOL     OW 6274   6.842   2.359   5.741
 1792SOL    HW1 6275   6.834   2.446   5.791
 1792SOL    HW2 6276   6.874   2.378   5.648
 1793SOL     OW 6277   0.405   1.462   4.962
 1793SOL    HW1 6278   0.459   1.539   4.929
 1793SOL    HW2 6279   0.358   1.418   4.886
 1794SOL     OW 6280   6.771   1.795   6.562
 1794SOL    HW1 6281   6.850   1.847   6.529
 1794SOL    HW2 6282   6.714   1.854   6.619
 1795SOL     OW 6283   5.224   4.659   0.668
 1795SOL    HW1 6284   5.164   4.730   0.630
 1795SOL    HW2 6285   5.268   4.609   0.593
 1796SOL     OW 6286   6.177   0.043   6.834
 1796SOL    HW1 6287   6.245   0.116   6.848
 1796SOL    HW2 6288   6.087   0.084   6.820
 1797SOL     OW 6289   3.171   6.355   5.199
 1797SOL    HW1 6290   3.160   6.268   5.150
 1797SOL    HW2 6291   3.266   6.363   5.229
 1798SOL     OW 6292   2.302   3.718   6.114
 1798SOL    HW1 6293   2.274   3.784   6.044
 1798SOL    HW2 6294   2.401   3.706   6.109
 1799SOL     OW 6295   3.385   1.652   2.270
 1799SOL    HW1 6296   3.462   1.714   2.258
 1799SOL    HW2 6297   3.334   1.644   2.184
 1800SOL     OW 6298   5.899   2.350   5.551
 1800SOL    HW1 6299   5.802   2.362   5.529
 1800SOL    HW2 6300   5.909   2.281   5.623
 1801SOL     OW 6301   0.350   1.718   2.335
 1801SOL    HW1 6302   0.292   1.643   2.367
 1801SOL    HW2 6303   0.299   1.804   2.343
 1802SOL     OW 6304   6.418   4.796   4.550
 1802SOL    HW1 6305   6.485   4.722   4.546
 1802SOL    HW2 6306   6.367   4.799   4.464
 1803SOL     OW 6307   0.080   6.385   3.896
 1803SOL    HW1 6308   6.998   6.354   3.874
 1803SOL    HW2 6309   0.144   6.349   3.829
 1804SOL     OW 6310   0.846   2.914   6.581
 1804SOL    HW1 6311   0.840   3.011   6.603
 1804SOL    HW2 6312   0.798   2.861   6.651
 1805SOL     OW 6313   6.630   4.877   5.732
 1805SOL    HW1 6314   6.679   4.801   5.690
 1805SOL    HW2 6315   6.697   4.947   5.760
 1806SOL     OW 6316   0.478   1.586   1.561
 1806SOL    HW1 6317   0.477   1.590   1.661
 1806SOL    HW2 6318   0.384   1.587   1.527
 1807SOL     OW 6319   6.330   2.149   2.162
 1807SOL    HW1 6320   6.418   2.121   2.123
 1807SOL    HW2 6321   6.339   2.240   2.202
 1808SOL     OW 6322   6.336   0.598   6.551
 1808SOL    HW1 6323   6.361   0.614   6.646
 1808SOL    HW2 6324   6.416   0.612   6.492
 1809SOL     OW 6325   4.610   0.300   5.137
 1809SOL    HW1 6326   4.709   0.295   5.119
 1809SOL    HW2 6327   4.590   0.255   5.224
 1810SOL     OW 6328   1.000   1.632   5.010
 1810SOL    HW1 6329   1.072   1.624   5.079
 1810SOL    HW2 6330   1.022   1.575   4.931
 1811SOL     OW 6331   3.176   5.721   2.087
 1811SOL    HW1 6332   3.195   5.811   2.046
 1811SOL    HW2 6333   3.260   5.666   2.086
 1812SOL     OW 6334   4.329   0.780   6.468
 1812SOL    HW1 6335   4.376   0.699   6.503
 1812SOL    HW2 6336   4.387   0.826   6.401
 1813SOL     OW 6337   5.482   3.450   2.130
 1813SOL    HW1 6338   5.451   3.497   2.213
 1813SOL    HW2 6339   5.577   3.420   2.141
 1814SOL     OW 6340   6.482   5.711   0.648
 1814SOL    HW1 6341   6.551   5.780   0.626
 1814SOL    HW2 6342   6.517   5.651   0.720
 1815SOL     OW 6343   6.299   5.277   1.142
 1815SOL    HW1 6344   6.228   5.347   1.142
 1815SOL    HW2 6345   6.316   5.246   1.236
 1816SOL     OW 6346   3.650   4.992   4.453
 1816SOL    HW1 6347   3.574   5.048   4.488
 1816SOL    HW2 6348   3.657   5.004   4.354
 1817SOL     OW 6349   6.884   2.739   3.336
 1817SOL    HW1 6350   6.892   2.673   3.410
 1817SOL    HW2 6351   6.971   2.788   3.325
 1818SOL     OW 6352   2.166   1.773   0.799
 1818SOL    HW1 6353   2.214   1.694   0.837
 1818SOL    HW2 6354   2.183   1.778   0.700
 1819SOL     OW 6355   1.084   3.603   1.231
 1819SOL    HW1 6356   1.156   3.662   1.268
 1819SOL    HW2 6357   1.050   3.544   1.304
 1820SOL     OW 6358   3.951   6.952   5.089
 1820SOL    HW1 6359   3.991   6.945   4.998
 1820SOL    HW2 6360   3.885   6.877   5.102
 1821SOL     OW 6361   4.086   1.316   2.811
 1821SOL    HW1 6362   4.068   1.346   2.905
 1821SOL    HW2 6363   4.182   1.333   2.789
 1822SOL     OW 6364   1.975   3.904   4.670
 1822SOL    HW1 6365   1.932   3.984   4.711
 1822SOL    HW2 6366   1.906   3.833   4.655
 1823SOL     OW 6367   3.716   6.899   4.009
 1823SOL    HW1 6368   3.740   6.950   4.092
 1823SOL    HW2 6369   3.799   6.861   3.968
 1824SOL     OW 6370   4.746   2.735   1.940
 1824SOL    HW1 6371   4.725   2.829   1.913
 1824SOL    HW2 6372   4.844   2.720   1.933
 1825SOL     OW 6373   1.121   3.672   0.291
 1825SOL    HW1 6374   1.077   3.584   0.310
 1825SOL    HW2 6375   1.195   3.658   0.225
 1826SOL     OW 6376   3.571   3.430   0.372
 1826SOL    HW1 6377   3.555   3.339   0.411
 1826SOL    HW2 6378   3.557   3.500   0.442
 1827SOL     OW 6379   5.307   4.812   0.884
 1827SOL    HW1 6380   5.371   4.758   0.938
 1827SOL    HW2 6381   5.291   4.766   0.796
 1828SOL     OW 6382   2.637   5.109   4.989
 1828SOL    HW1 6383   2.731   5.079   4.972
 1828SOL    HW2 6384   2.638   5.204   5.020
 1829SOL     OW 6385   1.849   6.353   2.151
 1829SOL    HW1 6386   1.761   6.330   2.192
 1829SOL    HW2 6387   1.919   6.354   2.222
 1830SOL     OW 6388   4.669   1.479   6.383
 1830SOL    HW1 6389   4.575   1.453   6.359
 1830SOL    HW2 6390   4.689   1.451   6.477
 1831SOL     OW 6391   3.358   4.772   0.112
 1831SOL    HW1 6392   3.288   4.741   0.048
 1831SOL    HW2 6393   3.331   4.747   0.205
 1832SOL     OW 6394   1.753   3.144   5.826
 1832SOL    HW1 6395   1.807   3.175   5.747
 1832SOL    HW2 6396   1.811   3.091   5.888
 1833SOL     OW 6397   5.861   1.050   0.593
 1833SOL    HW1 6398   5.852   1.148   0.611
 1833SOL    HW2 6399   5.949   1.032   0.551
 1834SOL     OW 6400   2.047   4.189   6.374
 1834SOL    HW1 6401   2.117   4.186   6.302
 1834SOL    HW2 6402   1.981   4.115   6.360
 1835SOL     OW 6403   6.628   0.051   0.154
 1835SOL    HW1 6404   6.581   0.031   0.240
 1835SOL    HW2 6405   6.704   0.114   0.171
 1836SOL     OW 6406   5.961   1.432   4.090
 1836SOL    HW1 6407   5.886   1.375   4.056
 1836SOL    HW2 6408   5.971   1.513   4.033
 1837SOL     OW 6409   0.857   2.013   0.470
 1837SOL    HW1 6410   0.803   2.083   0.517
 1837SOL    HW2 6411   0.943   2.053   0.438
 1838SOL     OW 6412   5.203   0.497   1.030
 1838SOL    HW1 6413   5.132   0.476   1.097
 1838SOL    HW2 6414   5.220   0.417   0.973
 1839SOL     OW 6415   0.154   1.550   6.268
 1839SOL    HW1 6416   0.116   1.605   6.194
 1839SOL    HW2 6417   0.100   1.466   6.279
 1840SOL     OW 6418   3.017   0.389   5.194
 1840SOL    HW1 6419   3.028   0.305   5.140
 1840SOL    HW2 6420   2.952   0.449   5.148
 1841SOL     OW 6421   2.360   0.082   1.864
 1841SOL    HW1 6422   2.290   0.150   1.888
 1841SOL    HW2 6423   2.366   0.015   1.938
 1842SOL     OW 6424   0.066   4.690   1.396
 1842SOL    HW1 6425   7.005   4.684   1.327
 1842SOL    HW2 6426   0.129   4.613   1.385
 1843SOL     OW 6427   3.070   1.014   6.656
 1843SOL    HW1 6428   3.153   1.038   6.604
 1843SOL    HW2 6429   3.091   1.014   6.753
 1844SOL     OW 6430   4.972   3.478   0.555
 1844SOL    HW1 6431   4.981   3.526   0.468
 1844SOL    HW2 6432   4.928   3.538   0.622
 1845SOL     OW 6433   1.003   2.679   4.665
 1845SOL    HW1 6434   1.000   2.703   4.763
 1845SOL    HW2 6435   1.085   2.719   4.624
 1846SOL     OW 6436   3.756   1.681   2.472
 1846SOL    HW1 6437   3.712   1.633   2.548
 1846SOL    HW2 6438   3.687   1.704   2.403
 1847SOL     OW 6439   3.107   5.880   6.766
 1847SOL    HW1 6440   3.137   5.968   6.731
 1847SOL    HW2 6441   3.042   5.838   6.702
 1848SOL     OW 6442   3.062   6.145   4.668
 1848SOL    HW1 6443   3.160   6.167   4.672
 1848SOL    HW2 6444   3.011   6.225   4.637
 1849SOL     OW 6445   4.836   2.963   2.434
 1849SOL    HW1 6446   4.935   2.972   2.435
 1849SOL    HW2 6447   4.806   2.921   2.348
 1850SOL     OW 6448   4.667   1.573   0.970
 1850SOL    HW1 6449   4.629   1.482   0.953
 1850SOL    HW2 6450   4.646   1.633   0.893
 1851SOL     OW 6451   0.834   4.887   4.009
 1851SOL    HW1 6452   0.808   4.951   4.080
 1851SOL    HW2 6453   0.890   4.814   4.048
 1852SOL     OW 6454   0.760   0.126   3.392
 1852SOL    HW1 6455   0.823   0.185   3.340
 1852SOL    HW2 6456   0.746   0.041   3.342
 1853SOL     OW 6457   0.666   1.844   5.443
 1853SOL    HW1 6458   0.757   1.885   5.431
 1853SOL    HW2 6459   0.625   1.877   5.528
 1854SOL     OW 6460   0.327   0.108   4.128
 1854SOL    HW1 6461   0.334   0.175   4.202
 1854SOL    HW2 6462   0.418   0.079   4.100
 1855SOL     OW 6463   6.573   1.288   5.086
 1855SOL    HW1 6464   6.611   1.344   5.160
 1855SOL    HW2 6465   6.547   1.347   5.010
 1856SOL     OW 6466   5.147   4.091   6.500
 1856SOL    HW1 6467   5.093   4.035   6.438
 1856SOL    HW2 6468   5.241   4.058   6.503
 1857SOL     OW 6469   4.693   0.830   6.722
 1857SOL    HW1 6470   4.642   0.915   6.703
 1857SOL    HW2 6471   4.753   0.809   6.645
 1858SOL     OW 6472   5.564   2.262   4.528
 1858SOL    HW1 6473   5.485   2.297   4.579
 1858SOL    HW2 6474   5.534   2.230   4.438
 1859SOL     OW 6475   6.340   6.417   2.587
 1859SOL    HW1 6476   6.243   6.436   2.599
 1859SOL    HW2 6477   6.352   6.347   2.516
 1860SOL     OW 6478   2.278   0.910   6.996
 1860SOL    HW1 6479   2.377   0.925   6.995
 1860SOL    HW2 6480   2.259   0.815   6.971
 1861SOL     OW 6481   6.538   6.294   5.289
 1861SOL    HW1 6482   6.605   6.290   5.363
 1861SOL    HW2 6483   6.474   6.217   5.299
 1862SOL     OW 6484   3.926   5.418   5.843
 1862SOL    HW1 6485   3.995   5.394   5.912
 1862SOL    HW2 6486   3.921   5.517   5.835
 1863SOL     OW 6487   6.710   1.285   1.485
 1863SOL    HW1 6488   6.674   1.344   1.413
 1863SOL    HW2 6489   6.642   1.274   1.557
 1864SOL     OW 6490   2.165   6.133   2.883
 1864SOL    HW1 6491   2.143   6.231   2.886
 1864SOL    HW2 6492   2.257   6.118   2.919
 1865SOL     OW 6493   6.368   2.516   5.534
 1865SOL    HW1 6494   6.456   2.482   5.500
 1865SOL    HW2 6495   6.351   2.607   5.496
 1866SOL     OW 6496   0.445   3.896   5.079
 1866SOL    HW1 6497   0.479   3.802   5.066
 1866SOL    HW2 6498   0.358   3.906   5.031
 1867SOL     OW 6499   1.161   0.835   1.462
 1867SOL    HW1 6500   1.174   0.883   1.375
 1867SOL    HW2 6501   1.063   0.834   1.485
 1868SOL     OW 6502   5.494   3.576   5.817
 1868SOL    HW1 6503   5.557   3.652   5.803
 1868SOL    HW2 6504   5.410   3.609   5.858
 1869SOL     OW 6505   5.020   0.542   5.527
 1869SOL    HW1 6506   5.094   0.496   5.479
 1869SOL    HW2 6507   4.933   0.498   5.505
 1870SOL     OW 6508   5.701   0.858   5.662
 1870SOL    HW1 6509   5.773   0.869   5.593
 1870SOL    HW2 6510   5.737   0.882   5.752
 1871SOL     OW 6511   2.417   4.874   6.746
 1871SOL    HW1 6512   2.461   4.793   6.784
 1871SOL    HW2 6513   2.481   4.921   6.685
 1872SOL     OW 6514   2.493   3.529   0.871
 1872SOL    HW1 6515   2.448   3.466   0.935
 1872SOL    HW2 6516   2.569   3.481   0.826
 1873SOL     OW 6517   6.058   1.740   2.491
 1873SOL    HW1 6518   5.976   1.763   2.438
 1873SOL    HW2 6519   6.033   1.731   2.587
 1874SOL     OW 6520   2.207   5.037   6.587
 1874SOL    HW1 6521   2.145   5.072   6.517
 1874SOL    HW2 6522   2.232   4.943   6.567
 1875SOL     OW 6523   1.322   6.368   2.177
 1875SOL    HW1 6524   1.266   6.342   2.256
 1875SOL    HW2 6525   1.287   6.453   2.138
 1876SOL     OW 6526   1.133   4.770   6.264
 1876SOL    HW1 6527   1.113   4.674   6.285
 1876SOL    HW2 6528   1.086   4.796   6.180
 1877SOL     OW 6529   0.885   0.909   3.068
 1877SOL    HW1 6530   0.910   0.817   3.099
 1877SOL    HW2 6531   0.898   0.974   3.143
 1878SOL     OW 6532   5.939   4.140   4.067
 1878SOL    HW1 6533   6.019   4.175   4.116
 1878SOL    HW2 6534   5.915   4.050   4.104
 1879SOL     OW 6535   3.939   6.571   5.478
 1879SOL    HW1 6536   4.002   6.647   5.494
 1879SOL    HW2 6537   3.845   6.600   5.497
 1880SOL     OW 6538   1.923   3.284   4.563
 1880SOL    HW1 6539   2.007   3.299   4.616
 1880SOL    HW2 6540   1.938   3.315   4.469
 1881SOL     OW 6541   1.864   1.796   3.493
 1881SOL    HW1 6542   1.951   1.775   3.449
 1881SOL    HW2 6543   1.789   1.765   3.435
 1882SOL     OW 6544   3.796   6.328   0.812
 1882SOL    HW1 6545   3.796   6.280   0.724
 1882SOL    HW2 6546   3.849   6.412   0.804
 1883SOL     OW 6547   2.085   3.182   2.340
 1883SOL    HW1 6548   1.998   3.206   2.297
 1883SOL    HW2 6549   2.161   3.222   2.288
 1884SOL     OW 6550   4.977   0.591   6.853
 1884SOL    HW1 6551   4.974   0.553   6.946
 1884SOL    HW2 6552   4.886   0.622   6.826
 1885SOL     OW 6553   0.260   1.574   0.945
 1885SOL    HW1 6554   0.286   1.629   0.866
 1885SOL    HW2 6555   0.327   1.501   0.957
 1886SOL     OW 6556   3.498   2.854   4.905
 1886SOL    HW1 6557   3.585   2.806   4.895
 1886SOL    HW2 6558   3.446   2.815   4.981
 1887SOL     OW 6559   0.980   6.077   5.041
 1887SOL    HW1 6560   0.894   6.054   4.997
 1887SOL    HW2 6561   0.977   6.172   5.072
 1888SOL     OW 6562   2.207   1.573   6.069
 1888SOL    HW1 6563   2.212   1.537   6.162
 1888SOL    HW2 6564   2.134   1.641   6.064
 1889SOL     OW 6565   3.596   3.613   6.977
 1889SOL    HW1 6566   3.519   3.550   6.984
 1889SOL    HW2 6567   3.586   3.668   6.894
 1890SOL     OW 6568   6.183   5.965   6.558
 1890SOL    HW1 6569   6.228   6.007   6.479
 1890SOL    HW2 6570   6.111   5.903   6.525
 1891SOL     OW 6571   5.290   3.646   6.361
 1891SOL    HW1 6572   5.191   3.650   6.360
 1891SOL    HW2 6573   5.328   3.737   6.378
 1892SOL     OW 6574   4.087   0.460   3.082
 1892SOL    HW1 6575   4.105   0.519   3.161
 1892SOL    HW2 6576   4.001   0.487   3.038
 1893SOL     OW 6577   3.096   2.146   6.794
 1893SOL    HW1 6578   3.133   2.061   6.757
 1893SOL    HW2 6579   2.998   2.136   6.808
 1894SOL     OW 6580   4.766   3.228   0.549
 1894SOL    HW1 6581   4.769   3.318   0.592
 1894SOL    HW2 6582   4.853   3.211   0.501
 1895SOL     OW 6583   4.765   5.683   3.296
 1895SOL    HW1 6584   4.825   5.740   3.240
 1895SOL    HW2 6585   4.748   5.597   3.249
 1896SOL     OW 6586   6.510   1.439   4.865
 1896SOL    HW1 6587   6.554   1.528   4.859
 1896SOL    HW2 6588   6.442   1.431   4.792
 1897SOL     OW 6589   5.218   5.691   3.079
 1897SOL    HW1 6590   5.222   5.597   3.113
 1897SOL    HW2 6591   5.274   5.698   2.996
 1898SOL     OW 6592   5.763   6.520   0.128
 1898SOL    HW1 6593   5.681   6.463   0.133
 1898SOL    HW2 6594   5.742   6.603   0.075
 1899SOL     OW 6595   2.239   2.807   3.499
 1899SOL    HW1 6596   2.256   2.848   3.588
 1899SOL    HW2 6597   2.160   2.746   3.505
 1900SOL     OW 6598   2.720   5.356   1.439
 1900SOL    HW1 6599   2.771   5.302   1.372
 1900SOL    HW2 6600   2.756   5.339   1.530
 1901SOL     OW 6601   0.817   1.175   6.129
 1901SOL    HW1 6602   0.811   1.185   6.030
 1901SOL    HW2 6603   0.900   1.125   6.153
 1902SOL     OW 6604   1.704   2.248   4.458
 1902SOL    HW1 6605   1.754   2.332   4.479
 1902SOL    HW2 6606   1.707   2.187   4.538
 1903SOL     OW 6607   6.445   5.691   3.900
 1903SOL    HW1 6608   6.511   5.757   3.864
 1903SOL    HW2 6609   6.373   5.740   3.950
 1904SOL     OW 6610   0.762   0.570   4.190
 1904SOL    HW1 6611   0.736   0.660   4.155
 1904SOL    HW2 6612   0.809   0.580   4.277
 1905SOL     OW 6613   6.133   3.160   5.526
 1905SOL    HW1 6614   6.097   3.118   5.443
 1905SOL    HW2 6615   6.095   3.114   5.606
 1906SOL     OW 6616   2.516   6.490   5.308
 1906SOL    HW1 6617   2.582   6.561   5.334
 1906SOL    HW2 6618   2.547   6.401   5.343
 1907SOL     OW 6619   4.419   6.759   3.159
 1907SOL    HW1 6620   4.480   6.765   3.237
 1907SOL    HW2 6621   4.350   6.832   3.165
 1908SOL     OW 6622   4.861   4.982   0.487
 1908SOL    HW1 6623   4.916   5.040   0.427
 1908SOL    HW2 6624   4.815   5.040   0.555
 1909SOL     OW 6625   5.218   5.687   3.461
 1909SOL    HW1 6626   5.226   5.589   3.474
 1909SOL    HW2 6627   5.274   5.716   3.383
 1910SOL     OW 6628   4.945   3.987   4.354
 1910SOL    HW1 6629   4.958   3.927   4.433
 1910SOL    HW2 6630   4.960   3.936   4.270
 1911SOL     OW 6631   0.930   2.374   5.615
 1911SOL    HW1 6632   1.017   2.407   5.652
 1911SOL    HW2 6633   0.927   2.274   5.619
 1912SOL     OW 6634   3.065   6.417   2.332
 1912SOL    HW1 6635   3.008   6.389   2.409
 1912SOL    HW2 6636   3.007   6.442   2.254
 1913SOL     OW 6637   2.684   4.020   6.776
 1913SOL    HW1 6638   2.674   3.921   6.768
 1913SOL    HW2 6639   2.767   4.049   6.728
 1914SOL     OW 6640   4.454   1.302   4.815
 1914SOL    HW1 6641   4.480   1.227   4.754
 1914SOL    HW2 6642   4.360   1.328   4.798
 1915SOL     OW 6643   2.748   6.648   5.414
 1915SOL    HW1 6644   2.821   6.713   5.436
 1915SOL    HW2 6645   2.722   6.597   5.496
 1916SOL     OW 6646   3.317   6.323   2.393
 1916SOL    HW1 6647   3.315   6.349   2.489
 1916SOL    HW2 6648   3.228   6.344   2.351
 1917SOL     OW 6649   3.515   4.040   3.895
 1917SOL    HW1 6650   3.546   4.055   3.801
 1917SOL    HW2 6651   3.582   4.079   3.958
 1918SOL     OW 6652   0.578   6.192   5.587
 1918SOL    HW1 6653   0.636   6.140   5.524
 1918SOL    HW2 6654   0.544   6.131   5.659
 1919SOL     OW 6655   5.743   0.781   2.095
 1919SOL    HW1 6656   5.804   0.859   2.080
 1919SOL    HW2 6657   5.793   0.696   2.077
 1920SOL     OW 6658   6.779   6.098   4.544
 1920SOL    HW1 6659   6.807   6.194   4.539
 1920SOL    HW2 6660   6.679   6.093   4.542
 1921SOL     OW 6661   2.325   6.337   0.356
 1921SOL    HW1 6662   2.237   6.384   0.367
 1921SOL    HW2 6663   2.374   6.375   0.278
 1922SOL     OW 6664   3.737   4.403   0.190
 1922SOL    HW1 6665   3.680   4.461   0.132
 1922SOL    HW2 6666   3.744   4.443   0.282
 1923SOL     OW 6667   1.826   3.129   0.937
 1923SOL    HW1 6668   1.841   3.030   0.942
 1923SOL    HW2 6669   1.800   3.154   0.844
 1924SOL     OW 6670   0.612   3.487   1.460
 1924SOL    HW1 6671   0.676   3.525   1.528
 1924SOL    HW2 6672   0.558   3.561   1.421
 1925SOL     OW 6673   3.039   4.139   0.558
 1925SOL    HW1 6674   3.041   4.233   0.592
 1925SOL    HW2 6675   3.126   4.094   0.579
 1926SOL     OW 6676   0.828   0.519   3.918
 1926SOL    HW1 6677   0.812   0.519   4.017
 1926SOL    HW2 6678   0.813   0.427   3.881
 1927SOL     OW 6679   5.287   3.370   1.553
 1927SOL    HW1 6680   5.264   3.414   1.466
 1927SOL    HW2 6681   5.258   3.429   1.629
 1928SOL     OW 6682   0.149   5.221   4.682
 1928SOL    HW1 6683   0.062   5.268   4.695
 1928SOL    HW2 6684   0.150   5.136   4.733
 1929SOL     OW 6685   0.847   4.872   3.046
 1929SOL    HW1 6686   0.803   4.962   3.055
 1929SOL    HW2 6687   0.933   4.872   3.097
 1930SOL     OW 6688   6.678   5.432   5.733
 1930SOL    HW1 6689   6.688   5.417   5.832
 1930SOL    HW2 6690   6.616   5.509   5.717
 1931SOL     OW 6691   2.099   2.224   4.382
 1931SOL    HW1 6692   2.053   2.300   4.427
 1931SOL    HW2 6693   2.044   2.141   4.390
 1932SOL     OW 6694   5.612   3.416   2.549
 1932SOL    HW1 6695   5.661   3.419   2.462
 1932SOL    HW2 6696   5.666   3.463   2.620
 1933SOL     OW 6697   3.313   5.013   0.337
 1933SOL    HW1 6698   3.343   5.101   0.300
 1933SOL    HW2 6699   3.239   4.976   0.281
 1934SOL     OW 6700   0.263   6.235   2.811
 1934SOL    HW1 6701   0.230   6.300   2.743
 1934SOL    HW2 6702   0.252   6.274   2.902
 1935SOL     OW 6703   1.223   0.916   3.316
 1935SOL    HW1 6704   1.201   0.936   3.220
 1935SOL    HW2 6705   1.293   0.980   3.348
 1936SOL     OW 6706   0.405   5.660   5.101
 1936SOL    HW1 6707   0.452   5.642   5.188
 1936SOL    HW2 6708   0.454   5.731   5.050
 1937SOL     OW 6709   4.641   1.769   3.043
 1937SOL    HW1 6710   4.574   1.818   2.987
 1937SOL    HW2 6711   4.728   1.819   3.040
 1938SOL     OW 6712   5.511   0.123   3.724
 1938SOL    HW1 6713   5.584   0.134   3.656
 1938SOL    HW2 6714   5.456   0.207   3.727
 1939SOL     OW 6715   2.768   0.233   4.722
 1939SOL    HW1 6716   2.850   0.290   4.726
 1939SOL    HW2 6717   2.690   0.282   4.762
 1940SOL     OW 6718   6.411   6.265   6.762
 1940SOL    HW1 6719   6.505   6.284   6.734
 1940SOL    HW2 6720   6.352   6.262   6.682
 1941SOL     OW 6721   4.518   4.811   2.427
 1941SOL    HW1 6722   4.434   4.861   2.449
 1941SOL    HW2 6723   4.580   4.871   2.377
 1942SOL     OW 6724   0.118   3.842   2.452
 1942SOL    HW1 6725   0.109   3.905   2.529
 1942SOL    HW2 6726   0.041   3.855   2.390
 1943SOL     OW 6727   3.355   5.298   3.266
 1943SOL    HW1 6728   3.370   5.368   3.336
 1943SOL    HW2 6729   3.269   5.317   3.218
 1944SOL     OW 6730   0.137   6.408   1.991
 1944SOL    HW1 6731   0.118   6.324   1.941
 1944SOL    HW2 6732   0.054   6.440   2.036
 1945SOL     OW 6733   2.984   4.803   2.752
 1945SOL    HW1 6734   3.020   4.765   2.837
 1945SOL    HW2 6735   2.896   4.761   2.732
 1946SOL     OW 6736   2.026   6.737   6.858
 1946SOL    HW1 6737   1.989   6.644   6.855
 1946SOL    HW2 6738   1.964   6.796   6.910
 1947SOL     OW 6739   4.385   0.705   3.393
 1947SOL    HW1 6740   4.309   0.717   3.328
 1947SOL    HW2 6741   4.415   0.610   3.392
 1948SOL     OW 6742   6.451   3.147   5.448
 1948SOL    HW1 6743   6.430   3.073   5.384
 1948SOL    HW2 6744   6.374   3.158   5.511
 1949SOL     OW 6745   4.734   3.795   6.518
 1949SOL    HW1 6746   4.827   3.770   6.545
 1949SOL    HW2 6747   4.737   3.875   6.459
 1950SOL     OW 6748   3.201   5.547   0.534
 1950SOL    HW1 6749   3.205   5.638   0.493
 1950SOL    HW2 6750   3.288   5.500   0.519
 1951SOL     OW 6751   5.939   2.787   0.166
 1951SOL    HW1 6752   5.891   2.788   0.254
 1951SOL    HW2 6753   5.882   2.829   0.096
 1952SOL     OW 6754   3.381   2.929   4.225
 1952SOL    HW1 6755   3.309   2.997   4.239
 1952SOL    HW2 6756   3.410   2.892   4.313
 1953SOL     OW 6757   0.749   2.238   4.175
 1953SOL    HW1 6758   0.673   2.174   4.165
 1953SOL    HW2 6759   0.828   2.190   4.212
 1954SOL     OW 6760   2.296   1.680   4.283
 1954SOL    HW1 6761   2.248   1.662   4.369
 1954SOL    HW2 6762   2.257   1.761   4.239
 1955SOL     OW 6763   6.166   5.528   2.269
 1955SOL    HW1 6764   6.198   5.567   2.183
 1955SOL    HW2 6765   6.179   5.429   2.268
 1956SOL     OW 6766   4.719   6.187   3.005
 1956SOL    HW1 6767   4.680   6.219   2.918
 1956SOL    HW2 6768   4.721   6.262   3.070
 1957SOL     OW 6769   2.304   6.200   5.173
 1957SOL    HW1 6770   2.360   6.126   5.136
 1957SOL    HW2 6771   2.362   6.260   5.229
 1958SOL     OW 6772   3.787   3.721   6.392
 1958SOL    HW1 6773   3.862   3.786   6.404
 1958SOL    HW2 6774   3.706   3.770   6.359
 1959SOL     OW 6775   2.561   0.378   0.785
 1959SOL    HW1 6776   2.656   0.404   0.799
 1959SOL    HW2 6777   2.553   0.321   0.704
 1960SOL     OW 6778   5.117   5.477   2.716
 1960SOL    HW1 6779   5.029   5.505   2.756
 1960SOL    HW2 6780   5.189   5.540   2.747
 1961SOL     OW 6781   5.162   4.981   5.541
 1961SOL    HW1 6782   5.198   4.906   5.597
 1961SOL    HW2 6783   5.170   5.067   5.592
 1962SOL     OW 6784   0.051   6.703   4.433
 1962SOL    HW1 6785   0.017   6.642   4.361
 1962SOL    HW2 6786   0.069   6.794   4.394
 1963SOL     OW 6787   2.645   1.188   3.630
 1963SOL    HW1 6788   2.655   1.282   3.597
 1963SOL    HW2 6789   2.645   1.125   3.553
 1964SOL     OW 6790   6.507   3.222   2.475
 1964SOL    HW1 6791   6.470   3.315   2.464
 1964SOL    HW2 6792   6.459   3.176   2.549
 1965SOL     OW 6793   2.516   6.309   3.295
 1965SOL    HW1 6794   2.568   6.353   3.367
 1965SOL    HW2 6795   2.477   6.223   3.329
 1966SOL     OW 6796   6.666   6.999   6.669
 1966SOL    HW1 6797   6.623   0.016   6.583
 1966SOL    HW2 6798   6.612   0.022   6.746
 1967SOL     OW 6799   5.747   2.849   5.041
 1967SOL    HW1 6800   5.800   2.856   4.957
 1967SOL    HW2 6801   5.702   2.936   5.059
 1968SOL     OW 6802   4.148   5.496   4.827
 1968SOL    HW1 6803   4.083   5.551   4.880
 1968SOL    HW2 6804   4.099   5.439   4.762
 1969SOL     OW 6805   6.521   1.393   1.740
 1969SOL    HW1 6806   6.510   1.488   1.710
 1969SOL    HW2 6807   6.434   1.345   1.731
 1970SOL     OW 6808   1.792   0.654   3.723
 1970SOL    HW1 6809   1.777   0.751   3.740
 1970SOL    HW2 6810   1.713   0.615   3.677
 1971SOL     OW 6811   6.994   1.310   6.271
 1971SOL    HW1 6812   0.048   1.284   6.343
 1971SOL    HW2 6813   6.991   1.238   6.202
 1972SOL     OW 6814   1.122   6.861   3.795
 1972SOL    HW1 6815   1.168   6.882   3.709
 1972SOL    HW2 6816   1.032   6.822   3.777
 1973SOL     OW 6817   2.507   3.280   0.494
 1973SOL    HW1 6818   2.457   3.198   0.523
 1973SOL    HW2 6819   2.444   3.341   0.446
 1974SOL     OW 6820   6.507   6.467   4.412
 1974SOL    HW1 6821   6.461   6.379   4.406
 1974SOL    HW2 6822   6.475   6.516   4.494
 1975SOL     OW 6823   2.822   6.854   3.353
 1975SOL    HW1 6824   2.844   6.946   3.321
 1975SOL    HW2 6825   2.724   6.847   3.371
 1976SOL     OW 6826   6.549   4.473   6.119
 1976SOL    HW1 6827   6.569   4.569   6.139
 1976SOL    HW2 6828   6.499   4.433   6.196
 1977SOL     OW 6829   3.345   2.128   5.211
 1977SOL    HW1 6830   3.268   2.174   5.167
 1977SOL    HW2 6831   3.395   2.194   5.267
 1978SOL     OW 6832   6.820   2.641   5.147
 1978SOL    HW1 6833   6.903   2.643   5.202
 1978SOL    HW2 6834   6.757   2.712   5.180
 1979SOL     OW 6835   6.518   3.984   2.348
 1979SOL    HW1 6836   6.556   4.033   2.427
 1979SOL    HW2 6837   6.459   4.045   2.296
 1980SOL     OW 6838   2.591   0.708   2.487
 1980SOL    HW1 6839   2.646   0.645   2.432
 1980SOL    HW2 6840   2.573   0.791   2.435
 1981SOL     OW 6841   5.330   3.250   2.293
 1981SOL    HW1 6842   5.389   3.317   2.248
 1981SOL    HW2 6843   5.358   3.158   2.266
 1982SOL     OW 6844   0.150   0.007   5.411
 1982SOL    HW1 6845   0.067   6.963   5.419
 1982SOL    HW2 6846   0.173   0.018   5.315
 1983SOL     OW 6847   0.892   4.515   1.357
 1983SOL    HW1 6848   0.991   4.509   1.373
 1983SOL    HW2 6849   0.869   4.608   1.330
 1984SOL     OW 6850   4.642   1.046   5.277
 1984SOL    HW1 6851   4.621   1.019   5.183
 1984SOL    HW2 6852   4.588   0.991   5.340
 1985SOL     OW 6853   1.690   5.834   1.619
 1985SOL    HW1 6854   1.707   5.880   1.532
 1985SOL    HW2 6855   1.769   5.779   1.644
 1986SOL     OW 6856   6.829   2.796   0.560
 1986SOL    HW1 6857   6.902   2.857   0.528
 1986SOL    HW2 6858   6.852   2.761   0.650
 1987SOL     OW 6859   2.552   3.574   6.913
 1987SOL    HW1 6860   2.569   3.651   6.975
 1987SOL    HW2 6861   2.638   3.545   6.872
 1988SOL     OW 6862   4.876   3.256   1.029
 1988SOL    HW1 6863   4.953   3.305   0.987
 1988SOL    HW2 6864   4.911   3.178   1.082
 1989SOL     OW 6865   1.833   2.370   3.789
 1989SOL    HW1 6866   1.797   2.432   3.719
 1989SOL    HW2 6867   1.883   2.422   3.857
 1990SOL     OW 6868   1.002   0.807   3.440
 1990SOL    HW1 6869   0.912   0.821   3.398
 1990SOL    HW2 6870   1.071   0.858   3.388
 1991SOL     OW 6871   4.406   6.251   2.887
 1991SOL    HW1 6872   4.431   6.220   2.979
 1991SOL    HW2 6873   4.306   6.257   2.880
 1992SOL     OW 6874   2.644   5.393   5.621
 1992SOL    HW1 6875   2.624   5.366   5.526
 1992SOL    HW2 6876   2.559   5.398   5.673
 1993SOL     OW 6877   2.981   3.179   3.952
 1993SOL    HW1 6878   2.998   3.253   3.887
 1993SOL    HW2 6879   2.954   3.097   3.901
 1994SOL     OW 6880   6.053   2.215   2.399
 1994SOL    HW1 6881   6.107   2.135   2.372
 1994SOL    HW2 6882   6.115   2.288   2.431
 1995SOL     OW 6883   3.671   2.075   1.412
 1995SOL    HW1 6884   3.586   2.024   1.397
 1995SOL    HW2 6885   3.691   2.079   1.510
 1996SOL     OW 6886   2.459   4.458   5.112
 1996SOL    HW1 6887   2.485   4.390   5.181
 1996SOL    HW2 6888   2.513   4.541   5.126
 1997SOL     OW 6889   5.882   5.983   4.266
 1997SOL    HW1 6890   5.840   6.068   4.299
 1997SOL    HW2 6891   5.827   5.946   4.192
 1998SOL     OW 6892   2.908   4.843   5.176
 1998SOL    HW1 6893   2.902   4.750   5.140
 1998SOL    HW2 6894   3.004   4.871   5.181
 1999SOL     OW 6895   2.132   1.560   2.147
 1999SOL    HW1 6896   2.052   1.618   2.133
 1999SOL    HW2 6897   2.187   1.557   2.063
 2000SOL     OW 6898   2.953   1.158   5.152
 2000SOL    HW1 6899   2.964   1.079   5.092
 2000SOL    HW2 6900   2.860   1.158   5.189
 2001SOL     OW 6901   2.426   2.890   6.670
 2001SOL    HW1 6902   2.493   2.950   6.713
 2001SOL    HW2 6903   2.454   2.870   6.576
 2002SOL     OW 6904   1.313   4.992   4.547
 2002SOL    HW1 6905   1.397   5.021   4.502
 2002SOL    HW2 6906   1.315   4.892   4.560
 2003SOL     OW 6907   6.695   4.032   3.675
 2003SOL    HW1 6908   6.777   4.078   3.709
 2003SOL    HW2 6909   6.715   3.992   3.585
 2004SOL     OW 6910   3.351   0.053   6.956
 2004SOL    HW1 6911   3.392   6.974   6.942
 2004SOL    HW2 6912   3.302   0.054   0.033
 2005SOL     OW 6913   2.844   6.186   5.035
 2005SOL    HW1 6914   2.817   6.230   5.120
 2005SOL    HW2 6915   2.767   6.136   4.997
 2006SOL     OW 6916   4.761   6.765   3.278
 2006SOL    HW1 6917   4.827   6.839   3.288
 2006SOL    HW2 6918   4.773   6.720   3.190
 2007SOL     OW 6919   6.573   5.461   6.960
 2007SOL    HW1 6920   6.504   5.494   0.014
 2007SOL    HW2 6921   6.663   5.493   6.990
 2008SOL     OW 6922   0.164   5.591   5.750
 2008SOL    HW1 6923   0.186   5.494   5.737
 2008SOL    HW2 6924   0.113   5.625   5.671
 2009SOL     OW 6925   0.902   0.373   7.001
 2009SOL    HW1 6926   0.942   0.331   6.920
 2009SOL    HW2 6927   0.956   0.454   0.016
 2010SOL     OW 6928   2.186   0.739   0.943
 2010SOL    HW1 6929   2.127   0.661   0.963
 2010SOL    HW2 6930   2.131   0.814   0.906
 2011SOL     OW 6931   6.737   1.979   4.838
 2011SOL    HW1 6932   6.708   2.065   4.880
 2011SOL    HW2 6933   6.677   1.956   4.762
 2012SOL     OW 6934   0.049   3.203   1.129
 2012SOL    HW1 6935   0.088   3.289   1.095
 2012SOL    HW2 6936   7.004   3.162   1.057
 2013SOL     OW 6937   3.998   2.040   1.459
 2013SOL    HW1 6938   4.007   2.089   1.373
 2013SOL    HW2 6939   3.935   1.963   1.448
 2014SOL     OW 6940   3.682   5.551   3.230
 2014SOL    HW1 6941   3.692   5.452   3.237
 2014SOL    HW2 6942   3.723   5.583   3.144
 2015SOL     OW 6943   3.396   5.838   0.137
 2015SOL    HW1 6944   3.410   5.933   0.166
 2015SOL    HW2 6945   3.475   5.807   0.084
 2016SOL     OW 6946   6.121   5.846   4.191
 2016SOL    HW1 6947   6.064   5.912   4.239
 2016SOL    HW2 6948   6.063   5.786   4.136
 2017SOL     OW 6949   2.134   5.280   2.505
 2017SOL    HW1 6950   2.156   5.248   2.597
 2017SOL    HW2 6951   2.037   5.307   2.501
 2018SOL     OW 6952   0.462   4.202   6.216
 2018SOL    HW1 6953   0.525   4.128   6.238
 2018SOL    HW2 6954   0.492   4.286   6.262
 2019SOL     OW 6955   5.539   1.182   2.843
 2019SOL    HW1 6956   5.456   1.234   2.825
 2019SOL    HW2 6957   5.521   1.115   2.915
 2020SOL     OW 6958   2.363   5.159   3.401
 2020SOL    HW1 6959   2.314   5.230   3.351
 2020SOL    HW2 6960   2.412   5.199   3.477
 2021SOL     OW 6961   2.026   6.126   1.577
 2021SOL    HW1 6962   2.057   6.108   1.483
 2021SOL    HW2 6963   2.076   6.067   1.640
 2022SOL     OW 6964   3.365   5.343   1.403
 2022SOL    HW1 6965   3.313   5.356   1.487
 2022SOL    HW2 6966   3.458   5.377   1.416
 2023SOL     OW 6967   6.419   2.004   5.821
 2023SOL    HW1 6968   6.447   1.912   5.792
 2023SOL    HW2 6969   6.370   2.049   5.746
 2024SOL     OW 6970   5.900   0.223   3.063
 2024SOL    HW1 6971   5.850   0.227   2.976
 2024SOL    HW2 6972   5.998   0.209   3.044
 2025SOL     OW 6973   6.220   0.897   0.963
 2025SOL    HW1 6974   6.227   0.996   0.978
 2025SOL    HW2 6975   6.195   0.879   0.868
 2026SOL     OW 6976   2.388   1.841   5.193
 2026SOL    HW1 6977   2.434   1.810   5.276
 2026SOL    HW2 6978   2.370   1.939   5.200
 2027SOL     OW 6979   6.841   0.305   1.954
 2027SOL    HW1 6980   6.851   0.221   1.900
 2027SOL    HW2 6981   6.822   0.382   1.893
 2028SOL     OW 6982   3.646   3.728   5.811
 2028SOL    HW1 6983   3.581   3.705   5.883
 2028SOL    HW2 6984   3.685   3.644   5.773
 2029SOL     OW 6985   2.127   0.803   0.216
 2029SOL    HW1 6986   2.027   0.804   0.223
 2029SOL    HW2 6987   2.158   0.877   0.157
 2030SOL     OW 6988   1.608   2.531   2.974
 2030SOL    HW1 6989   1.604   2.471   3.053
 2030SOL    HW2 6990   1.704   2.546   2.949
 2031SOL     OW 6991   6.361   0.156   2.947
 2031SOL    HW1 6992   6.326   0.063   2.938
 2031SOL    HW2 6993   6.371   0.197   2.856
 2032SOL     OW 6994   4.485   5.891   2.181
 2032SOL    HW1 6995   4.582   5.870   2.191
 2032SOL    HW2 6996   4.466   5.915   2.086
 2033SOL     OW 6997   0.353   5.191   6.269
 2033SOL    HW1 6998   0.389   5.281   6.246
 2033SOL    HW2 6999   0.288   5.162   6.199
 2034SOL     OW 7000   2.218   5.441   3.639
 2034SOL    HW1 7001   2.258   5.519   3.687
 2034SOL    HW2 7002   2.235   5.450   3.541
 2035SOL     OW 7003   0.530   2.212   3.036
 2035SOL    HW1 7004   0.547   2.184   2.941
 2035SOL    HW2 7005   0.557   2.307   3.048
 2036SOL     OW 7006   0.811   4.764   0.921
 2036SOL    HW1 7007   0.766   4.683   0.959
 2036SOL    HW2 7008   0.819   4.755   0.822
 2037SOL     OW 7009   0.113   1.931   6.794
 2037SOL    HW1 7010   0.054   1.897   6.720
 2037SOL    HW2 7011   0.202   1.885   6.788
 2038SOL     OW 7012   1.451   0.041   4.823
 2038SOL    HW1 7013   1.373   0.019   4.764
 2038SOL    HW2 7014   1.450   0.138   4.846
 2039SOL     OW 7015   0.832   5.128   1.567
 2039SOL    HW1 7016   0.824   5.039   1.522
 2039SOL    HW2 7017   0.828   5.115   1.666
 2040SOL     OW 7018   3.540   3.883   4.523
 2040SOL    HW1 7019   3.568   3.787   4.519
 2040SOL    HW2 7020   3.621   3.942   4.514
 2041SOL     OW 7021   4.800   2.821   6.597
 2041SOL    HW1 7022   4.810   2.731   6.640
 2041SOL    HW2 7023   4.842   2.891   6.655
 2042SOL     OW 7024   3.232   5.737   0.324
 2042SOL    HW1 7025   3.182   5.817   0.359
 2042SOL    HW2 7026   3.300   5.768   0.257
 2043SOL     OW 7027   4.382   5.418   2.307
 2043SOL    HW1 7028   4.459   5.387   2.251
 2043SOL    HW2 7029   4.300   5.367   2.281
 2044SOL     OW 7030   6.633   0.833   2.386
 2044SOL    HW1 7031   6.605   0.929   2.393
 2044SOL    HW2 7032   6.671   0.816   2.295
 2045SOL     OW 7033   3.251   6.476   6.593
 2045SOL    HW1 7034   3.285   6.476   6.687
 2045SOL    HW2 7035   3.325   6.500   6.531
 2046SOL     OW 7036   6.186   6.636   5.773
 2046SOL    HW1 7037   6.249   6.559   5.763
 2046SOL    HW2 7038   6.229   6.718   5.735
 2047SOL     OW 7039   4.850   3.002   0.018
 2047SOL    HW1 7040   4.853   3.004   0.118
 2047SOL    HW2 7041   4.828   2.909   6.998
 2048SOL     OW 7042   4.671   6.405   5.554
 2048SOL    HW1 7043   4.688   6.458   5.471
 2048SOL    HW2 7044   4.625   6.319   5.529
 2049SOL     OW 7045   4.871   5.380   6.814
 2049SOL    HW1 7046   4.929   5.400   6.736
 2049SOL    HW2 7047   4.811   5.302   6.791
 2050SOL     OW 7048   5.628   0.492   3.500
 2050SOL    HW1 7049   5.714   0.442   3.492
 2050SOL    HW2 7050   5.647   0.590   3.509
 2051SOL     OW 7051   3.174   5.370   1.021
 2051SOL    HW1 7052   3.115   5.378   0.941
 2051SOL    HW2 7053   3.244   5.441   1.019
 2052SOL     OW 7054   2.052   2.725   1.085
 2052SOL    HW1 7055   2.042   2.757   1.180
 2052SOL    HW2 7056   2.140   2.756   1.049
 2053SOL     OW 7057   4.906   1.209   0.953
 2053SOL    HW1 7058   4.816   1.174   0.929
 2053SOL    HW2 7059   4.907   1.240   1.048
 2054SOL     OW 7060   0.636   3.351   1.217
 2054SOL    HW1 7061   0.619   3.390   1.307
 2054SOL    HW2 7062   0.713   3.287   1.222
 2055SOL     OW 7063   6.514   1.139   3.979
 2055SOL    HW1 7064   6.585   1.156   4.046
 2055SOL    HW2 7065   6.549   1.158   3.887
 2056SOL     OW 7066   0.798   0.027   2.318
 2056SOL    HW1 7067   0.730   0.036   2.391
 2056SOL    HW2 7068   0.751   0.011   2.231
 2057SOL     OW 7069   5.498   2.841   3.999
 2057SOL    HW1 7070   5.502   2.743   4.015
 2057SOL    HW2 7071   5.414   2.879   4.038
 2058SOL     OW 7072   0.519   1.080   1.637
 2058SOL    HW1 7073   0.617   1.082   1.654
 2058SOL    HW2 7074   0.476   1.012   1.697
 2059SOL     OW 7075   1.348   0.878   6.874
 2059SOL    HW1 7076   1.270   0.823   6.903
 2059SOL    HW2 7077   1.432   0.824   6.882
 2060SOL     OW 7078   0.595   5.136   2.830
 2060SOL    HW1 7079   0.661   5.108   2.759
 2060SOL    HW2 7080   0.516   5.178   2.787
 2061SOL     OW 7081   1.352   0.756   0.920
 2061SOL    HW1 7082   1.316   0.742   0.828
 2061SOL    HW2 7083   1.451   0.741   0.920
 2062SOL     OW 7084   4.405   0.379   3.899
 2062SOL    HW1 7085   4.341   0.456   3.903
 2062SOL    HW2 7086   4.390   0.320   3.978
 2063SOL     OW 7087   2.346   2.109   1.216
 2063SOL    HW1 7088   2.325   2.094   1.119
 2063SOL    HW2 7089   2.344   2.023   1.265
 2064SOL     OW 7090   0.966   1.924   1.175
 2064SOL    HW1 7091   1.054   1.933   1.128
 2064SOL    HW2 7092   0.980   1.932   1.274
 2065SOL     OW 7093   0.046   3.372   2.335
 2065SOL    HW1 7094   0.116   3.416   2.392
 2065SOL    HW2 7095   6.966   3.393   2.371
 2066SOL     OW 7096   1.470   5.946   2.710
 2066SOL    HW1 7097   1.540   5.954   2.639
 2066SOL    HW2 7098   1.513   5.950   2.800
 2067SOL     OW 7099   0.600   0.055   7.005
 2067SOL    HW1 7100   0.533   6.994   0.016
 2067SOL    HW2 7101   0.667   0.062   0.068
 2068SOL     OW 7102   2.023   1.985   5.074
 2068SOL    HW1 7103   1.924   1.990   5.087
 2068SOL    HW2 7104   2.061   1.917   5.137
 2069SOL     OW 7105   1.013   2.102   1.985
 2069SOL    HW1 7106   1.048   2.148   1.904
 2069SOL    HW2 7107   0.929   2.052   1.962
 2070SOL     OW 7108   0.006   1.219   2.864
 2070SOL    HW1 7109   6.991   1.206   2.769
 2070SOL    HW2 7110   7.002   1.314   2.891
 2071SOL     OW 7111   2.481   6.353   5.641
 2071SOL    HW1 7112   2.467   6.296   5.560
 2071SOL    HW2 7113   2.500   6.293   5.720
 2072SOL     OW 7114   5.274   5.064   2.299
 2072SOL    HW1 7115   5.361   5.073   2.347
 2072SOL    HW2 7116   5.205   5.030   2.361
 2073SOL     OW 7117   3.207   7.001   5.299
 2073SOL    HW1 7118   3.229   0.043   5.382
 2073SOL    HW2 7119   3.252   0.033   5.220
 2074SOL     OW 7120   5.748   2.570   2.700
 2074SOL    HW1 7121   5.663   2.542   2.655
 2074SOL    HW2 7122   5.730   2.652   2.755
 2075SOL     OW 7123   3.751   2.980   5.978
 2075SOL    HW1 7124   3.682   2.985   5.905
 2075SOL    HW2 7125   3.822   3.048   5.961
 2076SOL     OW 7126   5.503   0.116   0.711
 2076SOL    HW1 7127   5.550   0.031   0.687
 2076SOL    HW2 7128   5.522   0.139   0.806
 2077SOL     OW 7129   4.264   1.000   3.961
 2077SOL    HW1 7130   4.330   1.009   3.887
 2077SOL    HW2 7131   4.310   1.011   4.049
 2078SOL     OW 7132   4.189   5.920   4.762
 2078SOL    HW1 7133   4.288   5.917   4.769
 2078SOL    HW2 7134   4.157   5.848   4.701
 2079SOL     OW 7135   6.283   6.748   4.090
 2079SOL    HW1 7136   6.246   6.703   4.171
 2079SOL    HW2 7137   6.324   6.836   4.117
 2080SOL     OW 7138   2.724   1.770   3.651
 2080SOL    HW1 7139   2.680   1.821   3.725
 2080SOL    HW2 7140   2.708   1.815   3.564
 2081SOL     OW 7141   1.350   6.256   4.127
 2081SOL    HW1 7142   1.400   6.188   4.073
 2081SOL    HW2 7143   1.282   6.211   4.184
 2082SOL     OW 7144   4.765   0.702   2.123
 2082SOL    HW1 7145   4.767   0.734   2.217
 2082SOL    HW2 7146   4.763   0.781   2.061
 2083SOL     OW 7147   3.978   4.319   6.160
 2083SOL    HW1 7148   3.959   4.237   6.106
 2083SOL    HW2 7149   3.892   4.364   6.184
 2084SOL     OW 7150   6.850   2.639   3.052
 2084SOL    HW1 7151   6.809   2.556   3.089
 2084SOL    HW2 7152   6.931   2.663   3.105
 2085SOL     OW 7153   5.970   6.656   6.598
 2085SOL    HW1 7154   6.021   6.741   6.586
 2085SOL    HW2 7155   6.020   6.596   6.661
 2086SOL     OW 7156   3.689   5.143   0.188
 2086SOL    HW1 7157   3.787   5.127   0.193
 2086SOL    HW2 7158   3.642   5.060   0.157
 2087SOL     OW 7159   5.701   6.079   3.347
 2087SOL    HW1 7160   5.769   6.081   3.420
 2087SOL    HW2 7161   5.611   6.099   3.384
 2088SOL     OW 7162   2.619   6.606   1.476
 2088SOL    HW1 7163   2.568   6.685   1.443
 2088SOL    HW2 7164   2.602   6.595   1.574
 2089SOL     OW 7165   2.186   1.134   0.328
 2089SOL    HW1 7166   2.279   1.168   0.343
 2089SOL    HW2 7167   2.150   1.099   0.413
 2090SOL     OW 7168   3.296   3.714   3.873
 2090SOL    HW1 7169   3.340   3.690   3.959
 2090SOL    HW2 7170   3.349   3.676   3.797
 2091SOL     OW 7171   2.696   4.495   0.930
 2091SOL    HW1 7172   2.650   4.430   0.869
 2091SOL    HW2 7173   2.710   4.452   1.019
 2092SOL     OW 7174   0.401   6.055   1.140
 2092SOL    HW1 7175   0.432   6.068   1.234
 2092SOL    HW2 7176   0.302   6.041   1.139
 2093SOL     OW 7177   1.278   2.303   1.606
 2093SOL    HW1 7178   1.300   2.218   1.654
 2093SOL    HW2 7179   1.179   2.318   1.609
 2094SOL     OW 7180   5.966   0.709   1.779
 2094SOL    HW1 7181   6.040   0.727   1.843
 2094SOL    HW2 7182   5.904   0.788   1.777
 2095SOL     OW 7183   6.600   4.920   5.192
 2095SOL    HW1 7184   6.671   4.875   5.138
 2095SOL    HW2 7185   6.544   4.851   5.237
 2096SOL     OW 7186   4.717   4.202   3.820
 2096SOL    HW1 7187   4.759   4.111   3.822
 2096SOL    HW2 7188   4.690   4.228   3.912
 2097SOL     OW 7189   6.451   3.638   6.032
 2097SOL    HW1 7190   6.459   3.688   5.946
 2097SOL    HW2 7191   6.394   3.557   6.018
 2098SOL     OW 7192   4.360   0.254   4.140
 2098SOL    HW1 7193   4.310   0.321   4.195
 2098SOL    HW2 7194   4.390   0.179   4.199
 2099SOL     OW 7195   2.764   1.882   3.390
 2099SOL    HW1 7196   2.810   1.965   3.421
 2099SOL    HW2 7197   2.832   1.809   3.380
 2100SOL     OW 7198   4.038   4.900   6.376
 2100SOL    HW1 7199   3.981   4.825   6.410
 2100SOL    HW2 7200   4.134   4.882   6.398
 2101SOL     OW 7201   6.494   0.046   1.825
 2101SOL    HW1 7202   6.543   0.121   1.869
 2101SOL    HW2 7203   6.513   0.048   1.727
 2102SOL     OW 7204   6.936   5.112   1.526
 2102SOL    HW1 7205   6.885   5.057   1.591
 2102SOL    HW2 7206   6.982   5.187   1.574
 2103SOL     OW 7207   3.642   3.506   6.347
 2103SOL    HW1 7208   3.702   3.584   6.367
 2103SOL    HW2 7209   3.565   3.506   6.410
 2104SOL     OW 7210   1.519   4.715   5.618
 2104SOL    HW1 7211   1.443   4.730   5.682
 2104SOL    HW2 7212   1.511   4.623   5.579
 2105SOL     OW 7213   5.609   6.357   2.058
 2105SOL    HW1 7214   5.558   6.395   2.135
 2105SOL    HW2 7215   5.636   6.263   2.079
 2106SOL     OW 7216   5.682   5.813   6.427
 2106SOL    HW1 7217   5.688   5.759   6.511
 2106SOL    HW2 7218   5.688   5.910   6.449
 2107SOL     OW 7219   2.623   5.005   0.519
 2107SOL    HW1 7220   2.687   4.941   0.477
 2107SOL    HW2 7221   2.594   5.072   0.450
 2108SOL     OW 7222   6.166   4.236   6.593
 2108SOL    HW1 7223   6.165   4.332   6.564
 2108SOL    HW2 7224   6.214   4.181   6.524
 2109SOL     OW 7225   5.483   5.869   2.501
 2109SOL    HW1 7226   5.393   5.912   2.494
 2109SOL    HW2 7227   5.498   5.811   2.421
 2110SOL     OW 7228   1.505   4.907   5.399
 2110SOL    HW1 7229   1.516   4.897   5.498
 2110SOL    HW2 7230   1.441   4.838   5.366
 2111SOL     OW 7231   1.871   2.125   0.062
 2111SOL    HW1 7232   1.772   2.119   0.052
 2111SOL    HW2 7233   1.896   2.108   0.157
 2112SOL     OW 7234   5.085   3.903   0.521
 2112SOL    HW1 7235   5.060   3.922   0.426
 2112SOL    HW2 7236   5.180   3.874   0.525
 2113SOL     OW 7237   6.566   2.032   3.192
 2113SOL    HW1 7238   6.588   2.012   3.288
 2113SOL    HW2 7239   6.592   1.954   3.135
 2114SOL     OW 7240   1.412   3.384   6.989
 2114SOL    HW1 7241   1.488   3.360   0.038
 2114SOL    HW2 7242   1.396   3.483   6.993
 2115SOL     OW 7243   3.495   5.397   1.897
 2115SOL    HW1 7244   3.463   5.487   1.926
 2115SOL    HW2 7245   3.593   5.401   1.879
 2116SOL     OW 7246   0.906   3.940   4.368
 2116SOL    HW1 7247   0.950   3.853   4.346
 2116SOL    HW2 7248   0.856   3.974   4.288
 2117SOL     OW 7249   6.956   5.686   6.152
 2117SOL    HW1 7250   6.859   5.702   6.135
 2117SOL    HW2 7251   6.970   5.665   6.248
 2118SOL     OW 7252   6.952   3.812   2.208
 2118SOL    HW1 7253   6.969   3.718   2.178
 2118SOL    HW2 7254   6.862   3.842   2.177
 2119SOL     OW 7255   4.126   6.215   0.674
 2119SOL    HW1 7256   4.187   6.230   0.752
 2119SOL    HW2 7257   4.139   6.123   0.638
 2120SOL     OW 7258   6.419   4.000   1.952
 2120SOL    HW1 7259   6.406   4.049   2.038
 2120SOL    HW2 7260   6.429   3.902   1.971
 2121SOL     OW 7261   0.457   3.620   5.002
 2121SOL    HW1 7262   0.377   3.665   4.960
 2121SOL    HW2 7263   0.433   3.589   5.094
 2122SOL     OW 7264   4.107   5.230   5.447
 2122SOL    HW1 7265   4.015   5.244   5.411
 2122SOL    HW2 7266   4.114   5.139   5.488
 2123SOL     OW 7267   4.600   5.118   3.381
 2123SOL    HW1 7268   4.577   5.075   3.468
 2123SOL    HW2 7269   4.537   5.085   3.310
 2124SOL     OW 7270   2.810   2.326   1.269
 2124SOL    HW1 7271   2.770   2.401   1.321
 2124SOL    HW2 7272   2.869   2.362   1.198
 2125SOL     OW 7273   5.010   5.612   0.715
 2125SOL    HW1 7274   4.960   5.548   0.657
 2125SOL    HW2 7275   5.011   5.580   0.809
 2126SOL     OW 7276   3.084   1.260   1.608
 2126SOL    HW1 7277   3.079   1.178   1.666
 2126SOL    HW2 7278   3.001   1.313   1.618
 2127SOL     OW 7279   5.624   2.788   4.728
 2127SOL    HW1 7280   5.558   2.721   4.693
 2127SOL    HW2 7281   5.666   2.837   4.651
 2128SOL     OW 7282   0.310   3.856   4.114
 2128SOL    HW1 7283   0.240   3.792   4.147
 2128SOL    HW2 7284   0.270   3.947   4.104
 2129SOL     OW 7285   4.485   2.383   5.151
 2129SOL    HW1 7286   4.490   2.475   5.112
 2129SOL    HW2 7287   4.461   2.318   5.078
 2130SOL     OW 7288   5.304   0.559   3.443
 2130SOL    HW1 7289   5.213   0.529   3.470
 2130SOL    HW2 7290   5.314   0.549   3.344
 2131SOL     OW 7291   5.243   1.809   6.792
 2131SOL    HW1 7292   5.313   1.739   6.800
 2131SOL    HW2 7293   5.194   1.798   6.706
 2132SOL     OW 7294   1.862   3.607   0.716
 2132SOL    HW1 7295   1.856   3.660   0.631
 2132SOL    HW2 7296   1.775   3.561   0.733
 2133SOL     OW 7297   2.419   4.038   6.418
 2133SOL    HW1 7298   2.341   4.079   6.370
 2133SOL    HW2 7299   2.493   4.021   6.353
 2134SOL     OW 7300   0.110   6.577   0.593
 2134SOL    HW1 7301   0.122   6.481   0.569
 2134SOL    HW2 7302   0.163   6.597   0.676
 2135SOL     OW 7303   6.785   5.005   5.487
 2135SOL    HW1 7304   6.778   4.910   5.517
 2135SOL    HW2 7305   6.768   5.066   5.565
 2136SOL     OW 7306   1.370   5.603   6.900
 2136SOL    HW1 7307   1.391   5.644   6.989
 2136SOL    HW2 7308   1.455   5.582   6.853
 2137SOL     OW 7309   1.334   6.758   3.519
 2137SOL    HW1 7310   1.327   6.796   3.426
 2137SOL    HW2 7311   1.244   6.728   3.549
 2138SOL     OW 7312   5.121   2.112   2.012
 2138SOL    HW1 7313   5.125   2.211   1.998
 2138SOL    HW2 7314   5.030   2.078   1.987
 2139SOL     OW 7315   2.897   6.456   5.741
 2139SOL    HW1 7316   2.937   6.411   5.661
 2139SOL    HW2 7317   2.821   6.515   5.711
 2140SOL     OW 7318   2.134   1.578   3.798
 2140SOL    HW1 7319   2.054   1.633   3.825
 2140SOL    HW2 7320   2.167   1.526   3.877
 2141SOL     OW 7321   6.761   3.301   3.357
 2141SOL    HW1 7322   6.849   3.318   3.402
 2141SOL    HW2 7323   6.775   3.245   3.276
 2142SOL     OW 7324   1.495   2.611   2.041
 2142SOL    HW1 7325   1.572   2.557   2.010
 2142SOL    HW2 7326   1.421   2.607   1.974
 2143SOL     OW 7327   0.104   5.374   5.537
 2143SOL    HW1 7328   0.063   5.285   5.558
 2143SOL    HW2 7329   0.036   5.431   5.491
 2144SOL     OW 7330   6.092   4.743   3.107
 2144SOL    HW1 7331   6.110   4.676   3.036
 2144SOL    HW2 7332   6.173   4.757   3.163
 2145SOL     OW 7333   4.283   1.583   2.872
 2145SOL    HW1 7334   4.217   1.636   2.819
 2145SOL    HW2 7335   4.370   1.579   2.824
 2146SOL     OW 7336   1.694   1.781   6.597
 2146SOL    HW1 7337   1.658   1.805   6.507
 2146SOL    HW2 7338   1.766   1.845   6.622
 2147SOL     OW 7339   5.726   6.543   5.171
 2147SOL    HW1 7340   5.643   6.599   5.169
 2147SOL    HW2 7341   5.804   6.597   5.140
 2148SOL     OW 7342   0.535   2.133   4.785
 2148SOL    HW1 7343   0.495   2.192   4.855
 2148SOL    HW2 7344   0.466   2.112   4.715
 2149SOL     OW 7345   0.679   6.197   0.040
 2149SOL    HW1 7346   0.688   6.237   6.959
 2149SOL    HW2 7347   0.604   6.130   0.040
 2150SOL     OW 7348   1.758   2.611   0.782
 2150SOL    HW1 7349   1.743   2.628   0.685
 2150SOL    HW2 7350   1.703   2.532   0.811
 2151SOL     OW 7351   0.563   4.905   6.769
 2151SOL    HW1 7352   0.531   4.965   6.695
 2151SOL    HW2 7353   0.660   4.883   6.753
 2152SOL     OW 7354   4.804   6.094   3.821
 2152SOL    HW1 7355   4.787   5.998   3.844
 2152SOL    HW2 7356   4.867   6.099   3.743
 2153SOL     OW 7357   4.892   0.033   3.684
 2153SOL    HW1 7358   4.828   0.103   3.652
 2153SOL    HW2 7359   4.890   0.029   3.784
 2154SOL     OW 7360   2.767   6.680   2.480
 2154SOL    HW1 7361   2.856   6.708   2.442
 2154SOL    HW2 7362   2.773   6.681   2.580
 2155SOL     OW 7363   4.374   0.981   1.137
 2155SOL    HW1 7364   4.360   0.948   1.043
 2155SOL    HW2 7365   4.358   1.079   1.140
 2156SOL     OW 7366   5.825   2.195   5.034
 2156SOL    HW1 7367   5.817   2.186   5.133
 2156SOL    HW2 7368   5.787   2.282   5.004
 2157SOL     OW 7369   4.314   6.368   4.369
 2157SOL    HW1 7370   4.294   6.284   4.419
 2157SOL    HW2 7371   4.312   6.350   4.271
 2158SOL     OW 7372   2.846   6.705   0.819
 2158SOL    HW1 7373   2.756   6.737   0.791
 2158SOL    HW2 7374   2.875   6.632   0.757
 2159SOL     OW 7375   0.229   1.156   5.896
 2159SOL    HW1 7376   0.289   1.190   5.825
 2159SOL    HW2 7377   0.217   1.057   5.884
 2160SOL     OW 7378   5.549   6.766   6.567
 2160SOL    HW1 7379   5.627   6.776   6.628
 2160SOL    HW2 7380   5.468   6.742   6.620
 2161SOL     OW 7381   1.661   4.009   0.585
 2161SOL    HW1 7382   1.571   4.052   0.576
 2161SOL    HW2 7383   1.695   4.023   0.678
 2162SOL     OW 7384   1.969   0.421   0.508
 2162SOL    HW1 7385   2.031   0.491   0.475
 2162SOL    HW2 7386   2.016   0.364   0.576
 2163SOL     OW 7387   1.022   2.925   3.764
 2163SOL    HW1 7388   1.019   2.861   3.688
 2163SOL    HW2 7389   0.975   2.886   3.843
 2164SOL     OW 7390   2.233   3.872   2.083
 2164SOL    HW1 7391   2.268   3.956   2.124
 2164SOL    HW2 7392   2.201   3.810   2.155
 2165SOL     OW 7393   6.039   1.267   5.145
 2165SOL    HW1 7394   5.960   1.323   5.120
 2165SOL    HW2 7395   6.082   1.230   5.062
 2166SOL     OW 7396   0.338   2.943   1.817
 2166SOL    HW1 7397   0.251   2.895   1.822
 2166SOL    HW2 7398   0.400   2.894   1.755
 2167SOL     OW 7399   1.198   2.409   3.117
 2167SOL    HW1 7400   1.262   2.476   3.080
 2167SOL    HW2 7401   1.246   2.348   3.181
 2168SOL     OW 7402   1.728   2.325   3.459
 2168SOL    HW1 7403   1.686   2.397   3.515
 2168SOL    HW2 7404   1.680   2.239   3.475
 2169SOL     OW 7405   6.783   0.417   0.894
 2169SOL    HW1 7406   6.798   0.508   0.933
 2169SOL    HW2 7407   6.820   0.348   0.955
 2170SOL     OW 7408   1.393   3.148   6.527
 2170SOL    HW1 7409   1.487   3.119   6.513
 2170SOL    HW2 7410   1.337   3.123   6.448
 2171SOL     OW 7411   6.845   6.027   1.411
 2171SOL    HW1 7412   6.802   5.995   1.496
 2171SOL    HW2 7413   6.887   6.117   1.427
 2172SOL     OW 7414   2.675   2.363   4.808
 2172SOL    HW1 7415   2.627   2.449   4.828
 2172SOL    HW2 7416   2.739   2.378   4.733
 2173SOL     OW 7417   4.672   0.634   4.787
 2173SOL    HW1 7418   4.631   0.551   4.825
 2173SOL    HW2 7419   4.611   0.712   4.804
 2174SOL     OW 7420   5.378   0.085   6.165
 2174SOL    HW1 7421   5.314   0.024   6.119
 2174SOL    HW2 7422   5.412   0.041   6.248
 2175SOL     OW 7423   3.383   3.313   6.026
 2175SOL    HW1 7424   3.350   3.360   5.944
 2175SOL    HW2 7425   3.468   3.355   6.057
 2176SOL     OW 7426   6.159   1.885   3.102
 2176SOL    HW1 7427   6.158   1.985   3.099
 2176SOL    HW2 7428   6.069   1.850   3.078
 2177SOL     OW 7429   0.806   0.936   5.106
 2177SOL    HW1 7430   0.896   0.928   5.062
 2177SOL    HW2 7431   0.769   1.027   5.089
 2178SOL     OW 7432   1.610   2.629   2.573
 2178SOL    HW1 7433   1.601   2.652   2.476
 2178SOL    HW2 7434   1.670   2.550   2.584
 2179SOL     OW 7435   1.094   4.193   0.230
 2179SOL    HW1 7436   1.143   4.277   0.254
 2179SOL    HW2 7437   1.019   4.215   0.167
 2180SOL     OW 7438   0.326   5.557   2.751
 2180SOL    HW1 7439   0.273   5.541   2.668
 2180SOL    HW2 7440   0.279   5.517   2.829
 2181SOL     OW 7441   4.008   4.781   4.234
 2181SOL    HW1 7442   4.018   4.689   4.270
 2181SOL    HW2 7443   4.000   4.846   4.310
 2182SOL     OW 7444   6.909   6.292   1.388
 2182SOL    HW1 7445   6.826   6.281   1.334
 2182SOL    HW2 7446   6.951   6.381   1.366
 2183SOL     OW 7447   3.234   3.109   0.042
 2183SOL    HW1 7448   3.277   3.146   0.124
 2183SOL    HW2 7449   3.293   3.040   0.001
 2184SOL     OW 7450   6.218   1.802   0.208
 2184SOL    HW1 7451   6.172   1.872   0.263
 2184SOL    HW2 7452   6.153   1.764   0.142
 2185SOL     OW 7453   0.874   1.761   6.067
 2185SOL    HW1 7454   0.833   1.753   5.976
 2185SOL    HW2 7455   0.897   1.670   6.101
 2186SOL     OW 7456   6.889   6.314   5.393
 2186SOL    HW1 7457   6.826   6.292   5.467
 2186SOL    HW2 7458   6.896   6.235   5.332
 2187SOL     OW 7459   5.870   4.732   1.336
 2187SOL    HW1 7460   5.926   4.760   1.258
 2187SOL    HW2 7461   5.812   4.808   1.364
 2188SOL     OW 7462   3.101   0.810   0.941
 2188SOL    HW1 7463   3.047   0.876   0.993
 2188SOL    HW2 7464   3.101   0.835   0.844
 2189SOL     OW 7465   2.027   0.649   2.472
 2189SOL    HW1 7466   2.110   0.607   2.436
 2189SOL    HW2 7467   1.997   0.601   2.554
 2190SOL     OW 7468   6.203   4.701   2.304
 2190SOL    HW1 7469   6.225   4.798   2.316
 2190SOL    HW2 7470   6.228   4.672   2.212
 2191SOL     OW 7471   3.618   6.742   6.580
 2191SOL    HW1 7472   3.689   6.752   6.510
 2191SOL    HW2 7473   3.557   6.667   6.555
 2192SOL     OW 7474   4.792   2.284   1.802
 2192SOL    HW1 7475   4.813   2.330   1.888
 2192SOL    HW2 7476   4.861   2.308   1.733
 2193SOL     OW 7477   2.001   0.550   4.594
 2193SOL    HW1 7478   2.005   0.495   4.511
 2193SOL    HW2 7479   1.906   0.561   4.622
 2194SOL     OW 7480   0.371   4.408   5.215
 2194SOL    HW1 7481   0.415   4.318   5.217
 2194SOL    HW2 7482   0.298   4.410   5.282
 2195SOL     OW 7483   0.008   3.674   4.985
 2195SOL    HW1 7484   6.935   3.725   4.965
 2195SOL    HW2 7485   0.076   3.737   5.024
 2196SOL     OW 7486   4.192   0.413   6.909
 2196SOL    HW1 7487   4.178   0.357   6.991
 2196SOL    HW2 7488   4.135   0.377   6.834
 2197SOL     OW 7489   3.517   5.346   6.660
 2197SOL    HW1 7490   3.537   5.321   6.755
 2197SOL    HW2 7491   3.588   5.310   6.600
 2198SOL     OW 7492   1.363   1.161   6.891
 2198SOL    HW1 7493   1.348   1.065   6.868
 2198SOL    HW2 7494   1.424   1.202   6.822
 2199SOL     OW 7495   3.960   6.606   3.867
 2199SOL    HW1 7496   3.968   6.685   3.927
 2199SOL    HW2 7497   4.048   6.587   3.825
 2200SOL     OW 7498   2.476   2.597   4.406
 2200SOL    HW1 7499   2.513   2.585   4.313
 2200SOL    HW2 7500   2.412   2.673   4.407
 2201SOL     OW 7501   5.377   3.898   4.859
 2201SOL    HW1 7502   5.327   3.814   4.875
 2201SOL    HW2 7503   5.399   3.906   4.762
 2202SOL     OW 7504   3.550   6.643   3.616
 2202SOL    HW1 7505   3.576   6.705   3.690
 2202SOL    HW2 7506   3.631   6.593   3.585
 2203SOL     OW 7507   2.212   5.439   1.021
 2203SOL    HW1 7508   2.280   5.367   1.034
 2203SOL    HW2 7509   2.120   5.399   1.024
 2204SOL     OW 7510   5.195   3.084   0.976
 2204SOL    HW1 7511   5.116   3.046   1.025
 2204SOL    HW2 7512   5.259   3.011   0.956
 2205SOL     OW 7513   5.825   5.690   0.913
 2205SOL    HW1 7514   5.850   5.758   0.982
 2205SOL    HW2 7515   5.885   5.610   0.921
 2206SOL     OW 7516   3.686   2.447   5.682
 2206SOL    HW1 7517   3.685   2.541   5.717
 2206SOL    HW2 7518   3.775   2.405   5.701
 2207SOL     OW 7519   4.745   5.747   1.714
 2207SOL    HW1 7520   4.693   5.722   1.795
 2207SOL    HW2 7521   4.831   5.696   1.712
 2208SOL     OW 7522   6.851   6.389   2.881
 2208SOL    HW1 7523   6.876   6.294   2.864
 2208SOL    HW2 7524   6.910   6.450   2.827
 2209SOL     OW 7525   2.807   5.289   3.297
 2209SOL    HW1 7526   2.758   5.300   3.210
 2209SOL    HW2 7527   2.856   5.374   3.318
 2210SOL     OW 7528   5.118   6.893   1.764
 2210SOL    HW1 7529   5.182   6.872   1.837
 2210SOL    HW2 7530   5.044   6.825   1.764
 2211SOL     OW 7531   1.182   1.735   1.298
 2211SOL    HW1 7532   1.090   1.702   1.274
 2211SOL    HW2 7533   1.173   1.821   1.349
 2212SOL     OW 7534   3.038   5.459   6.429
 2212SOL    HW1 7535   3.050   5.555   6.452
 2212SOL    HW2 7536   2.951   5.426   6.468
 2213SOL     OW 7537   3.533   1.460   4.466
 2213SOL    HW1 7538   3.495   1.368   4.465
 2213SOL    HW2 7539   3.499   1.510   4.546
 2214SOL     OW 7540   4.010   4.239   6.603
 2214SOL    HW1 7541   3.993   4.148   6.640
 2214SOL    HW2 7542   4.104   4.266   6.622
 2215SOL     OW 7543   5.423   5.525   0.144
 2215SOL    HW1 7544   5.367   5.567   0.073
 2215SOL    HW2 7545   5.497   5.587   0.170
 2216SOL     OW 7546   0.500   5.979   6.928
 2216SOL    HW1 7547   0.488   6.019   6.837
 2216SOL    HW2 7548   0.568   5.905   6.924
 2217SOL     OW 7549   4.263   1.501   3.439
 2217SOL    HW1 7550   4.338   1.518   3.376
 2217SOL    HW2 7551   4.258   1.403   3.459
 2218SOL     OW 7552   6.558   5.640   5.586
 2218SOL    HW1 7553   6.458   5.649   5.586
 2218SOL    HW2 7554   6.591   5.637   5.491
 2219SOL     OW 7555   5.235   2.009   0.401
 2219SOL    HW1 7556   5.290   2.069   0.459
 2219SOL    HW2 7557   5.203   1.930   0.454
 2220SOL     OW 7558   6.763   6.418   4.500
 2220SOL    HW1 7559   6.704   6.458   4.429
 2220SOL    HW2 7560   6.707   6.395   4.580
 2221SOL     OW 7561   5.650   0.977   4.634
 2221SOL    HW1 7562   5.683   1.070   4.616
 2221SOL    HW2 7563   5.562   0.964   4.589
 2222SOL     OW 7564   3.588   1.101   3.583
 2222SOL    HW1 7565   3.572   1.158   3.502
 2222SOL    HW2 7566   3.571   1.154   3.666
 2223SOL     OW 7567   0.961   0.205   5.380
 2223SOL    HW1 7568   0.888   0.183   5.315
 2223SOL    HW2 7569   0.983   0.124   5.434
 2224SOL     OW 7570   5.250   4.612   6.536
 2224SOL    HW1 7571   5.256   4.519   6.501
 2224SOL    HW2 7572   5.155   4.636   6.552
 2225SOL     OW 7573   6.411   6.540   1.122
 2225SOL    HW1 7574   6.390   6.630   1.083
 2225SOL    HW2 7575   6.359   6.470   1.072
 2226SOL     OW 7576   2.417   3.342   0.076
 2226SOL    HW1 7577   2.438   3.259   0.127
 2226SOL    HW2 7578   2.476   3.416   0.107
 2227SOL     OW 7579   3.927   2.025   1.985
 2227SOL    HW1 7580   3.843   2.077   2.003
 2227SOL    HW2 7581   3.956   2.040   1.891
 2228SOL     OW 7582   5.352   6.348   6.607
 2228SOL    HW1 7583   5.369   6.331   6.704
 2228SOL    HW2 7584   5.421   6.411   6.571
 2229SOL     OW 7585   2.989   3.630   4.107
 2229SOL    HW1 7586   3.036   3.608   4.192
 2229SOL    HW2 7587   3.054   3.634   4.032
 2230SOL     OW 7588   6.356   0.512   6.091
 2230SOL    HW1 7589   6.381   0.420   6.064
 2230SOL    HW2 7590   6.385   0.577   6.021
 2231SOL     OW 7591   1.707   0.078   6.152
 2231SOL    HW1 7592   1.749   0.065   6.242
 2231SOL    HW2 7593   1.632   0.014   6.140
 2232SOL     OW 7594   1.646   1.096   6.130
 2232SOL    HW1 7595   1.648   1.151   6.214
 2232SOL    HW2 7596   1.603   1.007   6.150
 2233SOL     OW 7597   3.165   4.737   0.902
 2233SOL    HW1 7598   3.188   4.800   0.827
 2233SOL    HW2 7599   3.069   4.710   0.894
 2234SOL     OW 7600   4.991   2.364   1.622
 2234SOL    HW1 7601   4.977   2.445   1.565
 2234SOL    HW2 7602   5.088   2.340   1.623
 2235SOL     OW 7603   0.694   2.078   2.586
 2235SOL    HW1 7604   0.722   2.076   2.682
 2235SOL    HW2 7605   0.637   1.997   2.567
 2236SOL     OW 7606   3.113   5.226   5.279
 2236SOL    HW1 7607   3.070   5.142   5.315
 2236SOL    HW2 7608   3.210   5.209   5.261
 2237SOL     OW 7609   6.184   6.455   6.277
 2237SOL    HW1 7610   6.250   6.517   6.233
 2237SOL    HW2 7611   6.105   6.508   6.309
 2238SOL     OW 7612   5.764   3.735   2.342
 2238SOL    HW1 7613   5.700   3.659   2.343
 2238SOL    HW2 7614   5.720   3.817   2.380
 2239SOL     OW 7615   3.946   0.101   2.658
 2239SOL    HW1 7616   3.895   0.022   2.691
 2239SOL    HW2 7617   3.882   0.176   2.637
 2240SOL     OW 7618   4.859   5.102   2.388
 2240SOL    HW1 7619   4.890   5.044   2.463
 2240SOL    HW2 7620   4.894   5.195   2.402
 2241SOL     OW 7621   0.632   1.779   3.009
 2241SOL    HW1 7622   0.565   1.728   3.063
 2241SOL    HW2 7623   0.604   1.780   2.913
 2242SOL     OW 7624   5.625   2.491   4.326
 2242SOL    HW1 7625   5.596   2.397   4.308
 2242SOL    HW2 7626   5.586   2.523   4.412
 2243SOL     OW 7627   2.564   0.222   0.553
 2243SOL    HW1 7628   2.604   0.132   0.567
 2243SOL    HW2 7629   2.464   0.215   0.551
 2244SOL     OW 7630   2.982   1.819   1.061
 2244SOL    HW1 7631   2.921   1.779   0.993
 2244SOL    HW2 7632   2.974   1.918   1.059
 2245SOL     OW 7633   0.429   0.837   7.010
 2245SOL    HW1 7634   0.426   0.851   6.911
 2245SOL    HW2 7635   0.403   0.743   0.021
 2246SOL     OW 7636   5.080   1.302   5.870
 2246SOL    HW1 7637   5.072   1.211   5.828
 2246SOL    HW2 7638   5.025   1.367   5.819
 2247SOL     OW 7639   2.800   3.493   1.962
 2247SOL    HW1 7640   2.743   3.471   1.883
 2247SOL    HW2 7641   2.864   3.566   1.938
 2248SOL     OW 7642   4.932   2.887   4.549
 2248SOL    HW1 7643   5.009   2.843   4.594
 2248SOL    HW2 7644   4.849   2.873   4.604
 2249SOL     OW 7645   2.421   6.149   3.974
 2249SOL    HW1 7646   2.440   6.141   3.876
 2249SOL    HW2 7647   2.506   6.140   4.026
 2250SOL     OW 7648   4.443   5.904   5.965
 2250SOL    HW1 7649   4.397   5.968   6.026
 2250SOL    HW2 7650   4.501   5.954   5.901
 2251SOL     OW 7651   4.108   6.905   4.855
 2251SOL    HW1 7652   4.124   6.807   4.861
 2251SOL    HW2 7653   4.181   6.947   4.801
 2252SOL     OW 7654   4.126   1.154   2.400
 2252SOL    HW1 7655   4.080   1.130   2.486
 2252SOL    HW2 7656   4.112   1.251   2.381
 2253SOL     OW 7657   0.572   3.707   2.063
 2253SOL    HW1 7658   0.482   3.722   2.022
 2253SOL    HW2 7659   0.630   3.656   1.998
 2254SOL     OW 7660   3.247   3.046   2.932
 2254SOL    HW1 7661   3.274   3.142   2.936
 2254SOL    HW2 7662   3.288   3.002   2.853
 2255SOL     OW 7663   1.391   2.439   6.434
 2255SOL    HW1 7664   1.370   2.535   6.417
 2255SOL    HW2 7665   1.305   2.387   6.439
 2256SOL     OW 7666   5.586   0.430   1.421
 2256SOL    HW1 7667   5.512   0.496   1.412
 2256SOL    HW2 7668   5.657   0.467   1.480
 2257SOL     OW 7669   0.403   0.031   5.553
 2257SOL    HW1 7670   0.424   0.125   5.580
 2257SOL    HW2 7671   0.308   0.027   5.522
 2258SOL     OW 7672   2.073   6.696   3.886
 2258SOL    HW1 7673   2.074   6.605   3.846
 2258SOL    HW2 7674   2.154   6.747   3.856
 2259SOL     OW 7675   5.912   0.394   4.535
 2259SOL    HW1 7676   5.993   0.451   4.524
 2259SOL    HW2 7677   5.925   0.334   4.614
 2260SOL     OW 7678   1.272   3.749   1.049
 2260SOL    HW1 7679   1.350   3.704   1.006
 2260SOL    HW2 7680   1.195   3.685   1.054
 2261SOL     OW 7681   4.937   4.548   6.138
 2261SOL    HW1 7682   4.882   4.593   6.067
 2261SOL    HW2 7683   5.033   4.549   6.112
 2262SOL     OW 7684   0.013   6.846   4.035
 2262SOL    HW1 7685   0.097   6.829   3.984
 2262SOL    HW2 7686   0.012   6.941   4.066
 2263SOL     OW 7687   2.034   4.424   6.837
 2263SOL    HW1 7688   1.944   4.380   6.844
 2263SOL    HW2 7689   2.082   4.389   6.756
 2264SOL     OW 7690   2.160   0.410   6.381
 2264SOL    HW1 7691   2.236   0.391   6.444
 2264SOL    HW2 7692   2.167   0.504   6.348
 2265SOL     OW 7693   0.012   6.663   3.809
 2265SOL    HW1 7694   6.985   6.709   3.890
 2265SOL    HW2 7695   0.030   6.567   3.830
 2266SOL     OW 7696   4.627   3.209   6.237
 2266SOL    HW1 7697   4.683   3.165   6.167
 2266SOL    HW2 7698   4.580   3.288   6.197
 2267SOL     OW 7699   5.795   2.966   4.567
 2267SOL    HW1 7700   5.798   2.915   4.482
 2267SOL    HW2 7701   5.772   3.061   4.549
 2268SOL     OW 7702   1.039   6.437   4.863
 2268SOL    HW1 7703   1.084   6.458   4.949
 2268SOL    HW2 7704   0.943   6.465   4.868
 2269SOL     OW 7705   2.012   2.580   5.625
 2269SOL    HW1 7706   2.087   2.554   5.686
 2269SOL    HW2 7707   2.024   2.674   5.595
 2270SOL     OW 7708   5.088   2.086   6.229
 2270SOL    HW1 7709   5.106   2.183   6.210
 2270SOL    HW2 7710   4.990   2.074   6.247
 2271SOL     OW 7711   4.116   5.863   5.644
 2271SOL    HW1 7712   4.191   5.827   5.587
 2271SOL    HW2 7713   4.076   5.789   5.698
 2272SOL     OW 7714   5.937   1.292   6.084
 2272SOL    HW1 7715   6.030   1.327   6.095
 2272SOL    HW2 7716   5.892   1.288   6.173
 2273SOL     OW 7717   0.887   2.743   3.924
 2273SOL    HW1 7718   0.835   2.667   3.885
 2273SOL    HW2 7719   0.929   2.713   4.010
 2274SOL     OW 7720   1.246   0.951   0.606
 2274SOL    HW1 7721   1.329   1.003   0.587
 2274SOL    HW2 7722   1.190   1.002   0.672
 2275SOL     OW 7723   5.825   3.653   3.336
 2275SOL    HW1 7724   5.911   3.704   3.326
 2275SOL    HW2 7725   5.840   3.557   3.310
 2276SOL     OW 7726   1.822   1.655   1.284
 2276SOL    HW1 7727   1.763   1.699   1.216
 2276SOL    HW2 7728   1.805   1.557   1.284
 2277SOL     OW 7729   3.969   3.053   3.304
 2277SOL    HW1 7730   3.881   3.016   3.332
 2277SOL    HW2 7731   4.003   3.117   3.373
 2278SOL     OW 7732   6.929   2.731   3.999
 2278SOL    HW1 7733   7.010   2.739   4.057
 2278SOL    HW2 7734   6.951   2.760   3.906
 2279SOL     OW 7735   1.272   4.825   5.706
 2279SOL    HW1 7736   1.243   4.888   5.778
 2279SOL    HW2 7737   1.214   4.838   5.626
 2280SOL     OW 7738   5.106   2.295   5.399
 2280SOL    HW1 7739   5.072   2.356   5.470
 2280SOL    HW2 7740   5.036   2.226   5.379
 2281SOL     OW 7741   5.120   6.941   2.228
 2281SOL    HW1 7742   5.169   6.980   2.150
 2281SOL    HW2 7743   5.186   6.902   2.292
 2282SOL     OW 7744   3.717   5.664   5.848
 2282SOL    HW1 7745   3.707   5.660   5.749
 2282SOL    HW2 7746   3.640   5.617   5.891
 2283SOL     OW 7747   0.019   0.672   4.844
 2283SOL    HW1 7748   0.049   0.630   4.759
 2283SOL    HW2 7749   6.949   0.729   4.827
 2284SOL     OW 7750   1.897   3.563   6.395
 2284SOL    HW1 7751   1.809   3.560   6.348
 2284SOL    HW2 7752   1.883   3.594   6.489
 2285SOL     OW 7753   1.474   4.363   6.665
 2285SOL    HW1 7754   1.460   4.440   6.727
 2285SOL    HW2 7755   1.519   4.288   6.713
 2286SOL     OW 7756   4.585   4.350   2.863
 2286SOL    HW1 7757   4.526   4.423   2.831
 2286SOL    HW2 7758   4.609   4.366   2.959
 2287SOL     OW 7759   1.323   1.285   4.431
 2287SOL    HW1 7760   1.279   1.223   4.366
 2287SOL    HW2 7761   1.298   1.379   4.410
 2288SOL     OW 7762   6.737   5.431   2.717
 2288SOL    HW1 7763   6.703   5.522   2.693
 2288SOL    HW2 7764   6.673   5.361   2.685
 2289SOL     OW 7765   0.447   5.392   0.479
 2289SOL    HW1 7766   0.439   5.343   0.392
 2289SOL    HW2 7767   0.544   5.399   0.504
 2290SOL     OW 7768   0.867   5.328   6.388
 2290SOL    HW1 7769   0.944   5.391   6.396
 2290SOL    HW2 7770   0.875   5.256   6.457
 2291SOL     OW 7771   2.281   1.732   0.093
 2291SOL    HW1 7772   2.317   1.785   0.170
 2291SOL    HW2 7773   2.356   1.710   0.030
 2292SOL     OW 7774   2.201   1.229   4.193
 2292SOL    HW1 7775   2.296   1.259   4.189
 2292SOL    HW2 7776   2.144   1.302   4.231
 2293SOL     OW 7777   5.610   3.898   2.484
 2293SOL    HW1 7778   5.624   3.988   2.526
 2293SOL    HW2 7779   5.558   3.840   2.547
 2294SOL     OW 7780   4.428   6.383   0.311
 2294SOL    HW1 7781   4.453   6.477   0.286
 2294SOL    HW2 7782   4.488   6.350   0.383
 2295SOL     OW 7783   0.869   1.350   2.046
 2295SOL    HW1 7784   0.854   1.377   1.950
 2295SOL    HW2 7785   0.896   1.254   2.050
 2296SOL     OW 7786   3.157   6.263   0.428
 2296SOL    HW1 7787   3.211   6.222   0.502
 2296SOL    HW2 7788   3.064   6.227   0.430
 2297SOL     OW 7789   4.527   6.521   6.916
 2297SOL    HW1 7790   4.591   6.574   6.970
 2297SOL    HW2 7791   4.574   6.443   6.875
 2298SOL     OW 7792   4.068   3.001   0.009
 2298SOL    HW1 7793   3.994   3.067   0.017
 2298SOL    HW2 7794   4.039   2.926   6.960
 2299SOL     OW 7795   4.459   0.254   0.490
 2299SOL    HW1 7796   4.450   0.280   0.586
 2299SOL    HW2 7797   4.553   0.225   0.472
 2300SOL     OW 7798   1.160   4.682   0.937
 2300SOL    HW1 7799   1.164   4.725   1.028
 2300SOL    HW2 7800   1.212   4.737   0.872
 2301SOL     OW 7801   3.958   3.703   1.730
 2301SOL    HW1 7802   3.999   3.771   1.790
 2301SOL    HW2 7803   3.875   3.666   1.773
 2302SOL     OW 7804   2.239   5.051   2.414
 2302SOL    HW1 7805   2.188   5.133   2.443
 2302SOL    HW2 7806   2.174   4.976   2.399
 2303SOL     OW 7807   6.921   2.878   5.638
 2303SOL    HW1 7808   6.853   2.951   5.641
 2303SOL    HW2 7809   6.987   2.891   5.712
 2304SOL     OW 7810   2.089   1.282   4.855
 2304SOL    HW1 7811   2.118   1.354   4.792
 2304SOL    HW2 7812   2.154   1.276   4.931
 2305SOL     OW 7813   4.282   4.577   1.819
 2305SOL    HW1 7814   4.380   4.587   1.833
 2305SOL    HW2 7815   4.263   4.493   1.769
 2306SOL     OW 7816   0.078   4.312   0.512
 2306SOL    HW1 7817   0.132   4.231   0.533
 2306SOL    HW2 7818   0.026   4.297   0.428
 2307SOL     OW 7819   0.643   1.698   2.689
 2307SOL    HW1 7820   0.557   1.747   2.703
 2307SOL    HW2 7821   0.628   1.600   2.699
 2308SOL     OW 7822   0.748   6.712   0.517
 2308SOL    HW1 7823   0.793   6.757   0.439
 2308SOL    HW2 7824   0.786   6.620   0.529
 2309SOL     OW 7825   2.775   5.083   6.028
 2309SOL    HW1 7826   2.829   5.145   5.972
 2309SOL    HW2 7827   2.835   5.016   6.072
 2310SOL     OW 7828   5.643   1.465   3.286
 2310SOL    HW1 7829   5.571   1.534   3.292
 2310SOL    HW2 7830   5.684   1.451   3.376
 2311SOL     OW 7831   2.421   0.453   2.303
 2311SOL    HW1 7832   2.519   0.437   2.316
 2311SOL    HW2 7833   2.407   0.510   2.223
 2312SOL     OW 7834   2.387   1.184   2.374
 2312SOL    HW1 7835   2.463   1.247   2.391
 2312SOL    HW2 7836   2.335   1.171   2.458
 2313SOL     OW 7837   5.165   3.968   1.761
 2313SOL    HW1 7838   5.249   3.920   1.787
 2313SOL    HW2 7839   5.136   4.027   1.837
 2314SOL     OW 7840   6.624   6.563   2.916
 2314SOL    HW1 7841   6.601   6.601   2.826
 2314SOL    HW2 7842   6.700   6.498   2.905
 2315SOL     OW 7843   4.429   5.946   4.876
 2315SOL    HW1 7844   4.462   6.039   4.864
 2315SOL    HW2 7845   4.374   5.941   4.960
 2316SOL     OW 7846   3.179   1.600   5.645
 2316SOL    HW1 7847   3.216   1.664   5.577
 2316SOL    HW2 7848   3.129   1.527   5.598
 2317SOL     OW 7849   0.164   4.936   2.834
 2317SOL    HW1 7850   0.077   4.977   2.863
 2317SOL    HW2 7851   0.187   4.968   2.742
 2318SOL     OW 7852   0.983   4.481   4.362
 2318SOL    HW1 7853   0.949   4.411   4.425
 2318SOL    HW2 7854   1.075   4.458   4.332
 2319SOL     OW 7855   2.016   5.199   3.587
 2319SOL    HW1 7856   2.060   5.287   3.570
 2319SOL    HW2 7857   1.970   5.167   3.505
 2320SOL     OW 7858   0.660   1.819   5.115
 2320SOL    HW1 7859   0.644   1.834   5.213
 2320SOL    HW2 7860   0.753   1.846   5.092
 2321SOL     OW 7861   1.717   4.451   5.298
 2321SOL    HW1 7862   1.707   4.544   5.333
 2321SOL    HW2 7863   1.747   4.454   5.202
 2322SOL     OW 7864   1.654   3.723   1.711
 2322SOL    HW1 7865   1.571   3.752   1.759
 2322SOL    HW2 7866   1.629   3.659   1.638
 2323SOL     OW 7867   2.587   5.124   0.747
 2323SOL    HW1 7868   2.636   5.210   0.735
 2323SOL    HW2 7869   2.592   5.070   0.663
 2324SOL     OW 7870   6.734   5.103   2.585
 2324SOL    HW1 7871   6.674   5.027   2.563
 2324SOL    HW2 7872   6.757   5.153   2.502
 2325SOL     OW 7873   6.165   5.285   2.117
 2325SOL    HW1 7874   6.065   5.287   2.123
 2325SOL    HW2 7875   6.193   5.240   2.033
 2326SOL     OW 7876   1.813   0.202   6.991
 2326SOL    HW1 7877   1.773   0.203   0.072
 2326SOL    HW2 7878   1.809   0.295   6.952
 2327SOL     OW 7879   0.145   6.848   2.293
 2327SOL    HW1 7880   0.115   6.766   2.343
 2327SOL    HW2 7881   0.158   6.826   2.197
 2328SOL     OW 7882   2.138   3.587   2.491
 2328SOL    HW1 7883   2.203   3.663   2.500
 2328SOL    HW2 7884   2.119   3.571   2.395
 2329SOL     OW 7885   0.369   5.013   3.036
 2329SOL    HW1 7886   0.459   5.053   3.019
 2329SOL    HW2 7887   0.323   4.998   2.948
 2330SOL     OW 7888   6.188   3.180   1.016
 2330SOL    HW1 7889   6.259   3.188   1.086
 2330SOL    HW2 7890   6.230   3.165   0.927
 2331SOL     OW 7891   5.245   5.692   1.437
 2331SOL    HW1 7892   5.232   5.700   1.536
 2331SOL    HW2 7893   5.234   5.596   1.409
 2332SOL     OW 7894   5.998   6.730   5.960
 2332SOL    HW1 7895   5.956   6.817   5.932
 2332SOL    HW2 7896   6.064   6.701   5.890
 2333SOL     OW 7897   0.541   4.385   2.392
 2333SOL    HW1 7898   0.468   4.359   2.455
 2333SOL    HW2 7899   0.584   4.303   2.355
 2334SOL     OW 7900   2.804   1.781   6.378
 2334SOL    HW1 7901   2.783   1.813   6.470
 2334SOL    HW2 7902   2.795   1.857   6.314
 2335SOL     OW 7903   6.854   1.633   3.626
 2335SOL    HW1 7904   6.861   1.554   3.687
 2335SOL    HW2 7905   6.767   1.680   3.644
 2336SOL     OW 7906   1.458   1.580   3.491
 2336SOL    HW1 7907   1.361   1.598   3.479
 2336SOL    HW2 7908   1.485   1.602   3.584
 2337SOL     OW 7909   4.205   1.538   1.497
 2337SOL    HW1 7910   4.280   1.536   1.562
 2337SOL    HW2 7911   4.119   1.520   1.544
 2338SOL     OW 7912   0.081   3.975   3.772
 2338SOL    HW1 7913   0.062   4.005   3.679
 2338SOL    HW2 7914   0.040   3.885   3.787
 2339SOL     OW 7915   3.105   3.186   3.331
 2339SOL    HW1 7916   3.045   3.168   3.253
 2339SOL    HW2 7917   3.097   3.282   3.357
 2340SOL     OW 7918   2.263   4.426   6.994
 2340SOL    HW1 7919   2.183   4.386   6.949
 2340SOL    HW2 7920   2.310   4.487   6.930
 2341SOL     OW 7921   2.340   4.258   4.072
 2341SOL    HW1 7922   2.434   4.271   4.039
 2341SOL    HW2 7923   2.319   4.325   4.142
 2342SOL     OW 7924   3.354   0.996   3.945
 2342SOL    HW1 7925   3.264   1.024   3.912
 2342SOL    HW2 7926   3.362   1.017   4.042
 2343SOL     OW 7927   1.071   6.916   1.544
 2343SOL    HW1 7928   1.032   6.878   1.627
 2343SOL    HW2 7929   1.047   6.859   1.466
 2344SOL     OW 7930   5.521   4.002   0.373
 2344SOL    HW1 7931   5.538   4.070   0.444
 2344SOL    HW2 7932   5.529   4.044   0.283
 2345SOL     OW 7933   3.529   6.115   4.887
 2345SOL    HW1 7934   3.520   6.108   4.987
 2345SOL    HW2 7935   3.494   6.203   4.857
 2346SOL     OW 7936   4.452   3.541   6.697
 2346SOL    HW1 7937   4.474   3.443   6.700
 2346SOL    HW2 7938   4.455   3.579   6.790
 2347SOL     OW 7939   1.632   2.085   1.556
 2347SOL    HW1 7940   1.620   2.112   1.651
 2347SOL    HW2 7941   1.727   2.102   1.528
 2348SOL     OW 7942   0.157   5.099   2.238
 2348SOL    HW1 7943   0.120   5.105   2.330
 2348SOL    HW2 7944   0.174   5.004   2.214
 2349SOL     OW 7945   0.870   4.340   5.144
 2349SOL    HW1 7946   0.789   4.297   5.184
 2349SOL    HW2 7947   0.949   4.323   5.203
 2350SOL     OW 7948   5.601   3.209   6.758
 2350SOL    HW1 7949   5.574   3.143   6.828
 2350SOL    HW2 7950   5.659   3.280   6.798
 2351SOL     OW 7951   2.499   5.571   2.341
 2351SOL    HW1 7952   2.495   5.541   2.436
 2351SOL    HW2 7953   2.417   5.541   2.293
 2352SOL     OW 7954   0.228   2.427   3.209
 2352SOL    HW1 7955   0.305   2.468   3.160
 2352SOL    HW2 7956   0.143   2.472   3.181
 2353SOL     OW 7957   3.469   5.229   4.566
 2353SOL    HW1 7958   3.523   5.301   4.609
 2353SOL    HW2 7959   3.375   5.261   4.552
 2354SOL     OW 7960   2.363   2.715   3.912
 2354SOL    HW1 7961   2.305   2.645   3.870
 2354SOL    HW2 7962   2.459   2.692   3.897
 2355SOL     OW 7963   2.392   6.056   4.854
 2355SOL    HW1 7964   2.425   5.976   4.803
 2355SOL    HW2 7965   2.300   6.080   4.821
 2356SOL     OW 7966   6.539   3.021   6.587
 2356SOL    HW1 7967   6.542   2.953   6.660
 2356SOL    HW2 7968   6.622   3.015   6.531
 2357SOL     OW 7969   2.359   6.685   2.759
 2357SOL    HW1 7970   2.429   6.650   2.821
 2357SOL    HW2 7971   2.273   6.696   2.809
 2358SOL     OW 7972   3.381   4.375   5.757
 2358SOL    HW1 7973   3.310   4.369   5.688
 2358SOL    HW2 7974   3.364   4.307   5.828
 2359SOL     OW 7975   1.710   6.896   4.786
 2359SOL    HW1 7976   1.627   6.951   4.774
 2359SOL    HW2 7977   1.704   6.813   4.731
 2360SOL     OW 7978   6.449   4.040   0.344
 2360SOL    HW1 7979   6.491   3.962   0.391
 2360SOL    HW2 7980   6.351   4.041   0.361
 2361SOL     OW 7981   3.389   1.499   0.357
 2361SOL    HW1 7982   3.291   1.479   0.363
 2361SOL    HW2 7983   3.441   1.414   0.361
 2362SOL     OW 7984   3.171   6.060   3.263
 2362SOL    HW1 7985   3.230   6.123   3.214
 2362SOL    HW2 7986   3.187   6.069   3.362
 2363SOL     OW 7987   3.827   0.316   4.174
 2363SOL    HW1 7988   3.825   0.388   4.244
 2363SOL    HW2 7989   3.813   0.357   4.084
 2364SOL     OW 7990   1.096   2.503   0.955
 2364SOL    HW1 7991   1.107   2.512   1.054
 2364SOL    HW2 7992   1.170   2.551   0.909
 2365SOL     OW 7993   5.054   2.496   6.864
 2365SOL    HW1 7994   5.095   2.406   6.848
 2365SOL    HW2 7995   5.125   2.565   6.865
 2366SOL     OW 7996   4.351   5.596   0.556
 2366SOL    HW1 7997   4.280   5.619   0.489
 2366SOL    HW2 7998   4.311   5.543   0.630
 2367SOL     OW 7999   2.336   3.292   6.076
 2367SOL    HW1 8000   2.370   3.374   6.030
 2367SOL    HW2 8001   2.412   3.229   6.092
 2368SOL     OW 8002   6.224   5.898   2.438
 2368SOL    HW1 8003   6.258   5.886   2.345
 2368SOL    HW2 8004   6.286   5.852   2.503
 2369SOL     OW 8005   2.598   0.869   3.348
 2369SOL    HW1 8006   2.527   0.919   3.397
 2369SOL    HW2 8007   2.688   0.906   3.371
 2370SOL     OW 8008   6.297   2.526   6.112
 2370SOL    HW1 8009   6.290   2.433   6.149
 2370SOL    HW2 8010   6.207   2.569   6.113
 2371SOL     OW 8011   2.660   6.568   1.766
 2371SOL    HW1 8012   2.690   6.488   1.714
 2371SOL    HW2 8013   2.734   6.635   1.771
 2372SOL     OW 8014   6.571   2.876   2.718
 2372SOL    HW1 8015   6.524   2.791   2.743
 2372SOL    HW2 8016   6.504   2.950   2.711
 2373SOL     OW 8017   2.633   3.540   6.494
 2373SOL    HW1 8018   2.723   3.581   6.480
 2373SOL    HW2 8019   2.607   3.489   6.412
 2374SOL     OW 8020   5.859   3.139   4.856
 2374SOL    HW1 8021   5.906   3.099   4.776
 2374SOL    HW2 8022   5.889   3.234   4.867
 2375SOL     OW 8023   2.956   6.443   4.954
 2375SOL    HW1 8024   2.967   6.495   5.039
 2375SOL    HW2 8025   2.884   6.375   4.965
 2376SOL     OW 8026   6.321   2.820   4.496
 2376SOL    HW1 8027   6.238   2.867   4.526
 2376SOL    HW2 8028   6.358   2.766   4.572
 2377SOL     OW 8029   3.791   3.030   3.680
 2377SOL    HW1 8030   3.782   2.988   3.770
 2377SOL    HW2 8031   3.786   2.959   3.609
 2378SOL     OW 8032   5.402   2.758   0.354
 2378SOL    HW1 8033   5.401   2.691   0.279
 2378SOL    HW2 8034   5.419   2.711   0.440
 2379SOL     OW 8035   0.024   6.809   6.351
 2379SOL    HW1 8036   0.092   6.841   6.285
 2379SOL    HW2 8037   0.030   6.864   6.435
 2380SOL     OW 8038   6.332   2.123   2.647
 2380SOL    HW1 8039   6.306   2.088   2.557
 2380SOL    HW2 8040   6.431   2.118   2.657
 2381SOL     OW 8041   1.660   6.845   3.009
 2381SOL    HW1 8042   1.633   6.824   2.915
 2381SOL    HW2 8043   1.661   6.761   3.063
 2382SOL     OW 8044   1.603   3.713   5.750
 2382SOL    HW1 8045   1.592   3.684   5.655
 2382SOL    HW2 8046   1.620   3.812   5.753
 2383SOL     OW 8047   5.783   5.980   1.927
 2383SOL    HW1 8048   5.721   6.011   1.998
 2383SOL    HW2 8049   5.878   5.998   1.955
 2384SOL     OW 8050   4.235   1.748   1.838
 2384SOL    HW1 8051   4.328   1.711   1.830
 2384SOL    HW2 8052   4.235   1.845   1.815
 2385SOL     OW 8053   0.382   2.346   6.893
 2385SOL    HW1 8054   0.419   2.371   6.803
 2385SOL    HW2 8055   0.308   2.280   6.881
 2386SOL     OW 8056   4.134   5.395   3.964
 2386SOL    HW1 8057   4.220   5.444   3.949
 2386SOL    HW2 8058   4.130   5.315   3.904
 2387SOL     OW 8059   1.522   1.507   2.578
 2387SOL    HW1 8060   1.599   1.444   2.580
 2387SOL    HW2 8061   1.550   1.593   2.537
 2388SOL     OW 8062   6.993   1.811   4.365
 2388SOL    HW1 8063   6.949   1.858   4.441
 2388SOL    HW2 8064   6.965   1.716   4.363
 2389SOL     OW 8065   3.698   6.279   2.517
 2389SOL    HW1 8066   3.643   6.199   2.494
 2389SOL    HW2 8067   3.794   6.252   2.528
 2390SOL     OW 8068   3.108   4.397   1.331
 2390SOL    HW1 8069   3.205   4.374   1.320
 2390SOL    HW2 8070   3.092   4.430   1.424
 2391SOL     OW 8071   3.894   5.708   5.482
 2391SOL    HW1 8072   3.924   5.699   5.387
 2391SOL    HW2 8073   3.850   5.796   5.495
 2392SOL     OW 8074   4.007   1.067   6.706
 2392SOL    HW1 8075   4.004   1.159   6.668
 2392SOL    HW2 8076   4.099   1.029   6.694
 2393SOL     OW 8077   3.375   5.357   5.273
 2393SOL    HW1 8078   3.437   5.404   5.337
 2393SOL    HW2 8079   3.399   5.260   5.270
 2394SOL     OW 8080   7.003   4.614   5.836
 2394SOL    HW1 8081   0.092   4.605   5.832
 2394SOL    HW2 8082   6.972   4.667   5.758
 2395SOL     OW 8083   4.253   6.838   6.264
 2395SOL    HW1 8084   4.306   6.780   6.202
 2395SOL    HW2 8085   4.315   6.897   6.315
 2396SOL     OW 8086   3.375   5.292   0.729
 2396SOL    HW1 8087   3.350   5.201   0.696
 2396SOL    HW2 8088   3.408   5.285   0.824
 2397SOL     OW 8089   6.962   3.745   3.821
 2397SOL    HW1 8090   7.002   3.654   3.832
 2397SOL    HW2 8091   6.892   3.759   3.891
 2398SOL     OW 8092   4.739   4.076   5.354
 2398SOL    HW1 8093   4.685   3.992   5.357
 2398SOL    HW2 8094   4.776   4.096   5.444
 2399SOL     OW 8095   3.994   2.129   1.714
 2399SOL    HW1 8096   3.968   2.224   1.702
 2399SOL    HW2 8097   4.014   2.088   1.625
 2400SOL     OW 8098   1.870   5.367   0.762
 2400SOL    HW1 8099   1.920   5.295   0.713
 2400SOL    HW2 8100   1.887   5.455   0.718
 2401SOL     OW 8101   0.019   6.142   6.052
 2401SOL    HW1 8102   0.026   6.054   6.005
 2401SOL    HW2 8103   0.087   6.146   6.126
 2402SOL     OW 8104   6.523   6.498   3.829
 2402SOL    HW1 8105   6.541   6.445   3.746
 2402SOL    HW2 8106   6.424   6.499   3.847
 2403SOL     OW 8107   0.164   1.220   4.989
 2403SOL    HW1 8108   0.155   1.133   4.941
 2403SOL    HW2 8109   0.109   1.217   5.073
 2404SOL     OW 8110   1.427   0.875   0.234
 2404SOL    HW1 8111   1.520   0.877   0.197
 2404SOL    HW2 8112   1.427   0.829   0.323
 2405SOL     OW 8113   3.149   3.768   1.377
 2405SOL    HW1 8114   3.182   3.768   1.283
 2405SOL    HW2 8115   3.076   3.835   1.387
 2406SOL     OW 8116   4.594   0.943   1.331
 2406SOL    HW1 8117   4.523   0.978   1.270
 2406SOL    HW2 8118   4.621   0.851   1.303
 2407SOL     OW 8119   5.435   0.399   3.695
 2407SOL    HW1 8120   5.491   0.426   3.617
 2407SOL    HW2 8121   5.389   0.480   3.732
 2408SOL     OW 8122   4.428   4.514   2.199
 2408SOL    HW1 8123   4.400   4.439   2.140
 2408SOL    HW2 8124   4.522   4.540   2.178
 2409SOL     OW 8125   0.997   4.628   0.319
 2409SOL    HW1 8126   0.901   4.605   0.303
 2409SOL    HW2 8127   1.034   4.676   0.240
 2410SOL     OW 8128   3.078   3.187   2.761
 2410SOL    HW1 8129   3.084   3.107   2.820
 2410SOL    HW2 8130   3.166   3.233   2.758
 2411SOL     OW 8131   4.457   0.074   4.317
 2411SOL    HW1 8132   4.522   0.125   4.373
 2411SOL    HW2 8133   4.440   6.995   4.358
 2412SOL     OW 8134   4.072   3.613   0.955
 2412SOL    HW1 8135   4.156   3.668   0.948
 2412SOL    HW2 8136   4.093   3.527   1.001
 2413SOL     OW 8137   4.212   0.096   2.710
 2413SOL    HW1 8138   4.115   0.112   2.695
 2413SOL    HW2 8139   4.250   0.172   2.764
 2414SOL     OW 8140   5.537   3.167   4.256
 2414SOL    HW1 8141   5.495   3.077   4.258
 2414SOL    HW2 8142   5.467   3.237   4.266
 2415SOL     OW 8143   4.494   0.933   3.120
 2415SOL    HW1 8144   4.546   0.848   3.116
 2415SOL    HW2 8145   4.397   0.914   3.107
 2416SOL     OW 8146   5.551   1.910   6.730
 2416SOL    HW1 8147   5.609   1.835   6.761
 2416SOL    HW2 8148   5.601   1.996   6.734
 2417SOL     OW 8149   3.114   4.278   5.446
 2417SOL    HW1 8150   3.170   4.217   5.388
 2417SOL    HW2 8151   3.039   4.315   5.392
 2418SOL     OW 8152   3.302   3.303   2.896
 2418SOL    HW1 8153   3.268   3.379   2.951
 2418SOL    HW2 8154   3.387   3.331   2.851
 2419SOL     OW 8155   0.324   0.544   2.991
 2419SOL    HW1 8156   0.336   0.598   2.907
 2419SOL    HW2 8157   0.261   0.469   2.973
 2420SOL     OW 8158   2.005   0.030   1.983
 2420SOL    HW1 8159   1.990   6.999   1.893
 2420SOL    HW2 8160   2.059   0.113   1.973
 2421SOL     OW 8161   3.481   1.541   3.156
 2421SOL    HW1 8162   3.395   1.590   3.170
 2421SOL    HW2 8163   3.535   1.543   3.240
 2422SOL     OW 8164   4.991   1.749   0.785
 2422SOL    HW1 8165   4.973   1.703   0.698
 2422SOL    HW2 8166   5.050   1.693   0.842
 2423SOL     OW 8167   1.944   5.051   2.590
 2423SOL    HW1 8168   2.028   4.997   2.601
 2423SOL    HW2 8169   1.867   5.001   2.628
 2424SOL     OW 8170   6.768   0.448   0.388
 2424SOL    HW1 8171   6.752   0.537   0.345
 2424SOL    HW2 8172   6.823   0.460   0.471
 2425SOL     OW 8173   6.746   6.760   4.420
 2425SOL    HW1 8174   6.803   6.678   4.421
 2425SOL    HW2 8175   6.672   6.748   4.354
 2426SOL     OW 8176   2.373   4.737   4.134
 2426SOL    HW1 8177   2.409   4.830   4.141
 2426SOL    HW2 8178   2.299   4.725   4.199
 2427SOL     OW 8179   6.151   0.049   5.714
 2427SOL    HW1 8180   6.180   0.126   5.658
 2427SOL    HW2 8181   6.182   6.974   5.673
 2428SOL     OW 8182   5.615   0.993   0.687
 2428SOL    HW1 8183   5.538   1.043   0.646
 2428SOL    HW2 8184   5.701   1.032   0.655
 2429SOL     OW 8185   5.211   4.897   2.535
 2429SOL    HW1 8186   5.125   4.932   2.572
 2429SOL    HW2 8187   5.192   4.822   2.472
 2430SOL     OW 8188   5.070   6.889   2.972
 2430SOL    HW1 8189   5.050   6.921   2.879
 2430SOL    HW2 8190   5.031   6.952   3.038
 2431SOL     OW 8191   4.499   6.658   2.464
 2431SOL    HW1 8192   4.590   6.700   2.465
 2431SOL    HW2 8193   4.494   6.591   2.390
 2432SOL     OW 8194   2.323   5.976   2.515
 2432SOL    HW1 8195   2.244   5.987   2.455
 2432SOL    HW2 8196   2.349   6.065   2.552
 2433SOL     OW 8197   4.634   0.600   1.051
 2433SOL    HW1 8198   4.686   0.527   1.007
 2433SOL    HW2 8199   4.634   0.682   0.994
 2434SOL     OW 8200   3.434   2.858   4.499
 2434SOL    HW1 8201   3.343   2.901   4.498
 2434SOL    HW2 8202   3.428   2.768   4.541
 2435SOL     OW 8203   6.195   5.984   5.939
 2435SOL    HW1 8204   6.117   5.942   5.894
 2435SOL    HW2 8205   6.207   5.945   6.030
 2436SOL     OW 8206   2.706   4.853   0.784
 2436SOL    HW1 8207   2.691   4.840   0.686
 2436SOL    HW2 8208   2.804   4.842   0.805
 2437SOL     OW 8209   6.819   0.654   5.275
 2437SOL    HW1 8210   6.855   0.563   5.257
 2437SOL    HW2 8211   6.827   0.676   5.372
 2438SOL     OW 8212   3.082   3.401   0.875
 2438SOL    HW1 8213   3.153   3.336   0.900
 2438SOL    HW2 8214   3.034   3.432   0.958
 2439SOL     OW 8215   5.993   4.626   6.140
 2439SOL    HW1 8216   5.897   4.599   6.137
 2439SOL    HW2 8217   6.016   4.675   6.055
 2440SOL     OW 8218   5.923   4.786   5.409
 2440SOL    HW1 8219   5.964   4.837   5.333
 2440SOL    HW2 8220   5.988   4.717   5.441
 2441SOL     OW 8221   6.121   2.293   0.593
 2441SOL    HW1 8222   6.175   2.294   0.677
 2441SOL    HW2 8223   6.065   2.209   0.591
 2442SOL     OW 8224   6.790   2.072   5.174
 2442SOL    HW1 8225   6.755   2.147   5.117
 2442SOL    HW2 8226   6.888   2.083   5.188
 2443SOL     OW 8227   2.644   4.959   5.214
 2443SOL    HW1 8228   2.604   5.005   5.135
 2443SOL    HW2 8229   2.737   4.930   5.193
 2444SOL     OW 8230   3.870   2.789   5.833
 2444SOL    HW1 8231   3.970   2.799   5.837
 2444SOL    HW2 8232   3.830   2.824   5.918
 2445SOL     OW 8233   1.091   0.297   0.840
 2445SOL    HW1 8234   1.087   0.214   0.896
 2445SOL    HW2 8235   1.186   0.314   0.814
 2446SOL     OW 8236   5.056   3.318   6.113
 2446SOL    HW1 8237   5.067   3.245   6.181
 2446SOL    HW2 8238   5.145   3.357   6.091
 2447SOL     OW 8239   0.629   3.330   6.681
 2447SOL    HW1 8240   0.634   3.429   6.685
 2447SOL    HW2 8241   0.551   3.298   6.735
 2448SOL     OW 8242   0.262   6.818   4.714
 2448SOL    HW1 8243   0.311   6.836   4.628
 2448SOL    HW2 8244   0.219   6.727   4.709
 2449SOL     OW 8245   0.518   2.741   4.995
 2449SOL    HW1 8246   0.618   2.737   5.004
 2449SOL    HW2 8247   0.477   2.663   5.042
 2450SOL     OW 8248   2.482   3.246   1.438
 2450SOL    HW1 8249   2.544   3.208   1.506
 2450SOL    HW2 8250   2.419   3.309   1.482
 2451SOL     OW 8251   2.021   5.382   3.829
 2451SOL    HW1 8252   1.969   5.307   3.788
 2451SOL    HW2 8253   2.088   5.416   3.763
 2452SOL     OW 8254   2.167   2.304   4.838
 2452SOL    HW1 8255   2.214   2.232   4.889
 2452SOL    HW2 8256   2.135   2.374   4.901
 2453SOL     OW 8257   0.624   3.625   0.967
 2453SOL    HW1 8258   0.629   3.723   0.944
 2453SOL    HW2 8259   0.705   3.599   1.020
 2454SOL     OW 8260   1.394   0.191   2.089
 2454SOL    HW1 8261   1.313   0.224   2.137
 2454SOL    HW2 8262   1.475   0.239   2.125
 2455SOL     OW 8263   5.455   3.449   1.292
 2455SOL    HW1 8264   5.410   3.386   1.229
 2455SOL    HW2 8265   5.551   3.422   1.304
 2456SOL     OW 8266   2.692   6.895   1.244
 2456SOL    HW1 8267   2.736   6.828   1.184
 2456SOL    HW2 8268   2.618   6.850   1.295
 2457SOL     OW 8269   5.982   5.961   1.048
 2457SOL    HW1 8270   5.894   5.947   1.093
 2457SOL    HW2 8271   6.056   5.949   1.114
 2458SOL     OW 8272   0.634   6.333   1.699
 2458SOL    HW1 8273   0.623   6.350   1.601
 2458SOL    HW2 8274   0.718   6.282   1.715
 2459SOL     OW 8275   1.277   1.281   0.384
 2459SOL    HW1 8276   1.363   1.247   0.421
 2459SOL    HW2 8277   1.247   1.222   0.309
 2460SOL     OW 8278   2.579   4.630   1.435
 2460SOL    HW1 8279   2.677   4.617   1.426
 2460SOL    HW2 8280   2.546   4.582   1.516
 2461SOL     OW 8281   4.802   1.255   3.191
 2461SOL    HW1 8282   4.792   1.353   3.178
 2461SOL    HW2 8283   4.803   1.209   3.102
 2462SOL     OW 8284   2.947   3.879   6.048
 2462SOL    HW1 8285   2.929   3.915   5.956
 2462SOL    HW2 8286   2.948   3.954   6.114
 2463SOL     OW 8287   1.036   2.702   4.946
 2463SOL    HW1 8288   1.064   2.613   4.982
 2463SOL    HW2 8289   0.946   2.726   4.983
 2464SOL     OW 8290   0.763   3.236   0.498
 2464SOL    HW1 8291   0.781   3.326   0.537
 2464SOL    HW2 8292   0.749   3.170   0.572
 2465SOL     OW 8293   6.421   4.660   2.913
 2465SOL    HW1 8294   6.383   4.569   2.929
 2465SOL    HW2 8295   6.488   4.656   2.838
 2466SOL     OW 8296   3.371   1.738   1.747
 2466SOL    HW1 8297   3.303   1.785   1.803
 2466SOL    HW2 8298   3.347   1.641   1.741
 2467SOL     OW 8299   0.777   0.959   4.657
 2467SOL    HW1 8300   0.816   0.940   4.567
 2467SOL    HW2 8301   0.815   1.044   4.693
 2468SOL     OW 8302   6.555   4.838   6.831
 2468SOL    HW1 8303   6.603   4.875   6.910
 2468SOL    HW2 8304   6.456   4.846   6.846
 2469SOL     OW 8305   2.833   2.796   5.887
 2469SOL    HW1 8306   2.742   2.759   5.908
 2469SOL    HW2 8307   2.871   2.747   5.809
 2470SOL     OW 8308   5.558   3.001   1.446
 2470SOL    HW1 8309   5.574   2.903   1.434
 2470SOL    HW2 8310   5.473   3.026   1.400
 2471SOL     OW 8311   0.234   1.576   2.796
 2471SOL    HW1 8312   0.166   1.537   2.858
 2471SOL    HW2 8313   0.232   1.526   2.709
 2472SOL     OW 8314   6.100   0.468   3.731
 2472SOL    HW1 8315   6.011   0.454   3.688
 2472SOL    HW2 8316   6.108   0.410   3.813
 2473SOL     OW 8317   0.580   5.892   5.434
 2473SOL    HW1 8318   0.541   5.804   5.410
 2473SOL    HW2 8319   0.627   5.931   5.355
 2474SOL     OW 8320   6.363   6.716   4.541
 2474SOL    HW1 8321   6.309   6.720   4.625
 2474SOL    HW2 8322   6.402   6.805   4.523
 2475SOL     OW 8323   4.288   2.482   6.132
 2475SOL    HW1 8324   4.343   2.449   6.055
 2475SOL    HW2 8325   4.204   2.523   6.098
 2476SOL     OW 8326   0.607   1.452   3.306
 2476SOL    HW1 8327   0.563   1.404   3.231
 2476SOL    HW2 8328   0.656   1.387   3.363
 2477SOL     OW 8329   4.508   4.513   2.462
 2477SOL    HW1 8330   4.440   4.519   2.389
 2477SOL    HW2 8331   4.539   4.605   2.486
 2478SOL     OW 8332   6.897   0.471   2.155
 2478SOL    HW1 8333   6.895   0.394   2.090
 2478SOL    HW2 8334   6.964   0.452   2.226
 2479SOL     OW 8335   1.169   3.241   0.176
 2479SOL    HW1 8336   1.260   3.204   0.161
 2479SOL    HW2 8337   1.104   3.166   0.187
 2480SOL     OW 8338   6.584   5.131   1.730
 2480SOL    HW1 8339   6.650   5.060   1.706
 2480SOL    HW2 8340   6.578   5.198   1.656
 2481SOL     OW 8341   4.231   4.755   2.432
 2481SOL    HW1 8342   4.303   4.779   2.367
 2481SOL    HW2 8343   4.245   4.803   2.518
 2482SOL     OW 8344   4.229   2.208   4.823
 2482SOL    HW1 8345   4.207   2.117   4.856
 2482SOL    HW2 8346   4.212   2.275   4.895
 2483SOL     OW 8347   1.066   3.459   6.999
 2483SOL    HW1 8348   1.122   3.383   0.021
 2483SOL    HW2 8349   1.048   3.523   0.063
 2484SOL     OW 8350   3.770   4.150   5.783
 2484SOL    HW1 8351   3.726   4.121   5.698
 2484SOL    HW2 8352   3.796   4.246   5.776
 2485SOL     OW 8353   0.731   5.818   6.884
 2485SOL    HW1 8354   0.781   5.876   6.819
 2485SOL    HW2 8355   0.678   5.750   6.834
 2486SOL     OW 8356   0.662   5.481   3.418
 2486SOL    HW1 8357   0.563   5.477   3.412
 2486SOL    HW2 8358   0.696   5.554   3.359
 2487SOL     OW 8359   3.387   1.287   1.565
 2487SOL    HW1 8360   3.400   1.268   1.467
 2487SOL    HW2 8361   3.290   1.301   1.584
 2488SOL     OW 8362   3.221   5.757   6.437
 2488SOL    HW1 8363   3.260   5.665   6.439
 2488SOL    HW2 8364   3.133   5.757   6.485
 2489SOL     OW 8365   6.989   5.415   4.579
 2489SOL    HW1 8366   6.950   5.328   4.550
 2489SOL    HW2 8367   6.916   5.483   4.588
 2490SOL     OW 8368   5.796   3.361   1.547
 2490SOL    HW1 8369   5.832   3.373   1.639
 2490SOL    HW2 8370   5.700   3.334   1.552
 2491SOL     OW 8371   6.670   3.898   2.876
 2491SOL    HW1 8372   6.730   3.942   2.810
 2491SOL    HW2 8373   6.624   3.968   2.931
 2492SOL     OW 8374   4.292   1.276   6.763
 2492SOL    HW1 8375   4.318   1.209   6.832
 2492SOL    HW2 8376   4.218   1.334   6.799
 2493SOL     OW 8377   6.211   0.466   5.303
 2493SOL    HW1 8378   6.229   0.390   5.241
 2493SOL    HW2 8379   6.145   0.437   5.373
 2494SOL     OW 8380   4.965   5.055   0.824
 2494SOL    HW1 8381   4.969   4.966   0.869
 2494SOL    HW2 8382   4.879   5.063   0.774
 2495SOL     OW 8383   0.268   1.473   2.508
 2495SOL    HW1 8384   0.181   1.438   2.472
 2495SOL    HW2 8385   0.341   1.408   2.488
 2496SOL     OW 8386   2.107   4.805   0.694
 2496SOL    HW1 8387   2.185   4.865   0.707
 2496SOL    HW2 8388   2.052   4.802   0.778
 2497SOL     OW 8389   5.729   0.542   6.277
 2497SOL    HW1 8390   5.726   0.479   6.355
 2497SOL    HW2 8391   5.638   0.582   6.264
 2498SOL     OW 8392   0.669   3.246   4.679
 2498SOL    HW1 8393   0.654   3.286   4.769
 2498SOL    HW2 8394   0.756   3.279   4.642
 2499SOL     OW 8395   5.161   0.960   0.383
 2499SOL    HW1 8396   5.143   0.953   0.481
 2499SOL    HW2 8397   5.250   0.919   0.362
 2500SOL     OW 8398   5.020   3.732   6.161
 2500SOL    HW1 8399   5.112   3.761   6.136
 2500SOL    HW2 8400   4.981   3.677   6.088
 2501SOL     OW 8401   6.691   4.785   1.000
 2501SOL    HW1 8402   6.707   4.747   0.909
 2501SOL    HW2 8403   6.693   4.885   0.996
 2502SOL     OW 8404   1.046   0.158   3.546
 2502SOL    HW1 8405   1.084   0.250   3.559
 2502SOL    HW2 8406   0.965   0.164   3.488
 2503SOL     OW 8407   5.477   6.492   4.854
 2503SOL    HW1 8408   5.519   6.447   4.774
 2503SOL    HW2 8409   5.526   6.464   4.937
 2504SOL     OW 8410   2.579   4.590   3.176
 2504SOL    HW1 8411   2.480   4.580   3.169
 2504SOL    HW2 8412   2.624   4.518   3.123
 2505SOL     OW 8413   4.986   4.382   4.746
 2505SOL    HW1 8414   5.023   4.442   4.676
 2505SOL    HW2 8415   4.889   4.366   4.730
 2506SOL     OW 8416   0.596   0.806   0.406
 2506SOL    HW1 8417   0.548   0.719   0.402
 2506SOL    HW2 8418   0.671   0.800   0.472
 2507SOL     OW 8419   6.462   6.387   0.013
 2507SOL    HW1 8420   6.442   6.348   6.934
 2507SOL    HW2 8421   6.537   6.454   0.004
 2508SOL     OW 8422   1.406   2.139   2.027
 2508SOL    HW1 8423   1.446   2.063   2.076
 2508SOL    HW2 8424   1.324   2.171   2.074
 2509SOL     OW 8425   6.067   0.033   3.952
 2509SOL    HW1 8426   6.007   6.989   4.009
 2509SOL    HW2 8427   6.136   6.985   3.910
 2510SOL     OW 8428   4.253   5.882   2.325
 2510SOL    HW1 8429   4.201   5.797   2.329
 2510SOL    HW2 8430   4.342   5.864   2.282
 2511SOL     OW 8431   0.687   6.140   3.553
 2511SOL    HW1 8432   0.704   6.050   3.594
 2511SOL    HW2 8433   0.727   6.143   3.461
 2512SOL     OW 8434   5.729   3.675   4.301
 2512SOL    HW1 8435   5.766   3.593   4.256
 2512SOL    HW2 8436   5.629   3.673   4.298
 2513SOL     OW 8437   0.123   4.906   0.892
 2513SOL    HW1 8438   0.158   4.836   0.955
 2513SOL    HW2 8439   0.059   4.965   0.941
 2514SOL     OW 8440   6.709   2.050   3.783
 2514SOL    HW1 8441   6.678   1.955   3.775
 2514SOL    HW2 8442   6.637   2.106   3.824
 2515SOL     OW 8443   1.097   4.119   6.934
 2515SOL    HW1 8444   1.172   4.153   6.991
 2515SOL    HW2 8445   1.117   4.140   6.838
 2516SOL     OW 8446   4.700   6.853   3.918
 2516SOL    HW1 8447   4.678   6.948   3.941
 2516SOL    HW2 8448   4.795   6.834   3.945
 2517SOL     OW 8449   2.457   5.438   0.663
 2517SOL    HW1 8450   2.455   5.523   0.715
 2517SOL    HW2 8451   2.549   5.399   0.667
 2518SOL     OW 8452   2.332   2.296   0.207
 2518SOL    HW1 8453   2.341   2.264   0.112
 2518SOL    HW2 8454   2.241   2.336   0.220
 2519SOL     OW 8455   6.048   4.435   4.691
 2519SOL    HW1 8456   6.070   4.513   4.632
 2519SOL    HW2 8457   6.065   4.460   4.786
 2520SOL     OW 8458   3.920   5.251   0.673
 2520SOL    HW1 8459   3.842   5.199   0.638
 2520SOL    HW2 8460   3.994   5.188   0.696
 2521SOL     OW 8461   5.730   6.307   5.944
 2521SOL    HW1 8462   5.807   6.251   5.976
 2521SOL    HW2 8463   5.764   6.376   5.880
 2522SOL     OW 8464   2.261   4.645   5.155
 2522SOL    HW1 8465   2.211   4.701   5.089
 2522SOL    HW2 8466   2.308   4.571   5.107
 2523SOL     OW 8467   0.673   2.249   6.289
 2523SOL    HW1 8468   0.686   2.176   6.223
 2523SOL    HW2 8469   0.575   2.263   6.305
 2524SOL     OW 8470   1.665   6.856   4.396
 2524SOL    HW1 8471   1.657   6.947   4.354
 2524SOL    HW2 8472   1.587   6.800   4.370
 2525SOL     OW 8473   2.713   4.693   2.233
 2525SOL    HW1 8474   2.740   4.660   2.142
 2525SOL    HW2 8475   2.683   4.788   2.226
 2526SOL     OW 8476   1.476   2.671   4.511
 2526SOL    HW1 8477   1.502   2.604   4.580
 2526SOL    HW2 8478   1.510   2.641   4.421
 2527SOL     OW 8479   6.897   6.631   4.199
 2527SOL    HW1 8480   6.938   6.716   4.166
 2527SOL    HW2 8481   6.835   6.594   4.130
 2528SOL     OW 8482   5.503   5.126   1.056
 2528SOL    HW1 8483   5.568   5.054   1.033
 2528SOL    HW2 8484   5.553   5.209   1.080
 2529SOL     OW 8485   5.259   4.518   5.233
 2529SOL    HW1 8486   5.259   4.497   5.135
 2529SOL    HW2 8487   5.166   4.510   5.269
 2530SOL     OW 8488   1.195   6.238   3.052
 2530SOL    HW1 8489   1.147   6.166   3.001
 2530SOL    HW2 8490   1.253   6.195   3.122
 2531SOL     OW 8491   5.663   2.345   6.524
 2531SOL    HW1 8492   5.600   2.334   6.447
 2531SOL    HW2 8493   5.756   2.351   6.489
 2532SOL     OW 8494   0.803   5.680   5.809
 2532SOL    HW1 8495   0.764   5.752   5.867
 2532SOL    HW2 8496   0.885   5.715   5.763
 2533SOL     OW 8497   5.543   0.588   4.959
 2533SOL    HW1 8498   5.491   0.503   4.963
 2533SOL    HW2 8499   5.567   0.608   4.864
 2534SOL     OW 8500   6.737   1.145   3.439
 2534SOL    HW1 8501   6.746   1.103   3.530
 2534SOL    HW2 8502   6.661   1.102   3.390
 2535SOL     OW 8503   2.783   0.733   2.063
 2535SOL    HW1 8504   2.780   0.633   2.057
 2535SOL    HW2 8505   2.854   0.760   2.129
 2536SOL     OW 8506   0.653   0.335   3.563
 2536SOL    HW1 8507   0.661   0.268   3.489
 2536SOL    HW2 8508   0.731   0.325   3.625
 2537SOL     OW 8509   2.327   6.238   2.206
 2537SOL    HW1 8510   2.412   6.266   2.251
 2537SOL    HW2 8511   2.278   6.319   2.174
 2538SOL     OW 8512   0.239   5.454   5.137
 2538SOL    HW1 8513   0.179   5.470   5.216
 2538SOL    HW2 8514   0.278   5.542   5.107
 2539SOL     OW 8515   1.536   0.413   5.463
 2539SOL    HW1 8516   1.563   0.396   5.368
 2539SOL    HW2 8517   1.554   0.331   5.517
 2540SOL     OW 8518   5.001   2.329   2.411
 2540SOL    HW1 8519   4.929   2.311   2.344
 2540SOL    HW2 8520   5.068   2.255   2.408
 2541SOL     OW 8521   1.389   1.553   0.011
 2541SOL    HW1 8522   1.362   1.637   6.974
 2541SOL    HW2 8523   1.308   1.508   0.048
 2542SOL     OW 8524   4.165   1.933   2.938
 2542SOL    HW1 8525   4.261   1.906   2.936
 2542SOL    HW2 8526   4.157   2.025   2.976
 2543SOL     OW 8527   6.104   6.748   5.381
 2543SOL    HW1 8528   6.152   6.660   5.385
 2543SOL    HW2 8529   6.009   6.733   5.357
 2544SOL     OW 8530   0.144   0.020   0.720
 2544SOL    HW1 8531   0.171   6.939   0.692
 2544SOL    HW2 8532   0.226   0.076   0.734
 2545SOL     OW 8533   6.883   1.557   0.148
 2545SOL    HW1 8534   6.919   1.481   0.203
 2545SOL    HW2 8535   6.850   1.629   0.209
 2546SOL     OW 8536   6.198   3.377   2.392
 2546SOL    HW1 8537   6.288   3.413   2.367
 2546SOL    HW2 8538   6.127   3.442   2.364
 2547SOL     OW 8539   5.577   3.568   1.056
 2547SOL    HW1 8540   5.602   3.623   0.976
 2547SOL    HW2 8541   5.486   3.595   1.087
 2548SOL     OW 8542   6.802   0.359   5.512
 2548SOL    HW1 8543   6.718   0.395   5.471
 2548SOL    HW2 8544   6.844   0.292   5.450
 2549SOL     OW 8545   2.869   5.140   0.302
 2549SOL    HW1 8546   2.890   5.099   0.213
 2549SOL    HW2 8547   2.775   5.119   0.327
 2550SOL     OW 8548   3.991   0.583   0.992
 2550SOL    HW1 8549   3.899   0.542   0.998
 2550SOL    HW2 8550   4.022   0.607   1.084
 2551SOL     OW 8551   3.478   4.514   1.402
 2551SOL    HW1 8552   3.447   4.424   1.373
 2551SOL    HW2 8553   3.518   4.508   1.493
 2552SOL     OW 8554   2.560   5.091   1.801
 2552SOL    HW1 8555   2.468   5.116   1.771
 2552SOL    HW2 8556   2.599   5.025   1.736
 2553SOL     OW 8557   4.420   1.836   0.178
 2553SOL    HW1 8558   4.487   1.762   0.179
 2553SOL    HW2 8559   4.329   1.798   0.194
 2554SOL     OW 8560   0.896   5.805   0.706
 2554SOL    HW1 8561   0.922   5.872   0.775
 2554SOL    HW2 8562   0.923   5.837   0.615
 2555SOL     OW 8563   0.961   6.387   5.483
 2555SOL    HW1 8564   0.922   6.296   5.481
 2555SOL    HW2 8565   1.058   6.382   5.459
 2556SOL     OW 8566   5.700   0.499   0.749
 2556SOL    HW1 8567   5.722   0.517   0.845
 2556SOL    HW2 8568   5.667   0.583   0.706
 2557SOL     OW 8569   2.468   1.312   0.370
 2557SOL    HW1 8570   2.535   1.247   0.334
 2557SOL    HW2 8571   2.411   1.346   0.295
 2558SOL     OW 8572   5.525   2.622   1.198
 2558SOL    HW1 8573   5.609   2.594   1.246
 2558SOL    HW2 8574   5.525   2.581   1.106
 2559SOL     OW 8575   6.365   5.258   3.532
 2559SOL    HW1 8576   6.348   5.180   3.592
 2559SOL    HW2 8577   6.315   5.338   3.565
 2560SOL     OW 8578   4.133   2.550   1.686
 2560SOL    HW1 8579   4.047   2.600   1.688
 2560SOL    HW2 8580   4.154   2.523   1.592
 2561SOL     OW 8581   3.227   0.057   4.210
 2561SOL    HW1 8582   3.241   0.073   4.307
 2561SOL    HW2 8583   3.316   0.060   4.163
 2562SOL     OW 8584   1.422   6.367   4.914
 2562SOL    HW1 8585   1.323   6.371   4.900
 2562SOL    HW2 8586   1.466   6.336   4.830
 2563SOL     OW 8587   4.102   2.844   5.968
 2563SOL    HW1 8588   4.198   2.868   5.983
 2563SOL    HW2 8589   4.062   2.907   5.901
 2564SOL     OW 8590   1.717   1.370   1.273
 2564SOL    HW1 8591   1.740   1.314   1.353
 2564SOL    HW2 8592   1.699   1.310   1.195
 2565SOL     OW 8593   0.068   0.770   1.057
 2565SOL    HW1 8594   6.989   0.753   1.015
 2565SOL    HW2 8595   0.116   0.841   1.006
 2566SOL     OW 8596   2.732   1.455   0.679
 2566SOL    HW1 8597   2.643   1.408   0.681
 2566SOL    HW2 8598   2.739   1.516   0.758
 2567SOL     OW 8599   2.198   1.157   6.159
 2567SOL    HW1 8600   2.102   1.137   6.141
 2567SOL    HW2 8601   2.234   1.214   6.085
 2568SOL     OW 8602   2.432   6.342   0.843
 2568SOL    HW1 8603   2.522   6.370   0.877
 2568SOL    HW2 8604   2.440   6.311   0.749
 2569SOL     OW 8605   2.551   6.109   6.587
 2569SOL    HW1 8606   2.466   6.160   6.577
 2569SOL    HW2 8607   2.596   6.136   6.673
 2570SOL     OW 8608   0.095   6.890   3.424
 2570SOL    HW1 8609   0.063   6.892   3.518
 2570SOL    HW2 8610   0.194   6.907   3.422
 2571SOL     OW 8611   3.663   3.167   2.949
 2571SOL    HW1 8612   3.751   3.210   2.969
 2571SOL    HW2 8613   3.623   3.209   2.867
 2572SOL     OW 8614   2.578   5.839   2.508
 2572SOL    HW1 8615   2.565   5.849   2.606
 2572SOL    HW2 8616   2.502   5.884   2.460
 2573SOL     OW 8617   6.803   0.864   3.184
 2573SOL    HW1 8618   6.847   0.883   3.096
 2573SOL    HW2 8619   6.704   0.860   3.172
 2574SOL     OW 8620   0.072   4.207   1.980
 2574SOL    HW1 8621   0.127   4.139   2.028
 2574SOL    HW2 8622   0.044   4.171   1.891
 2575SOL     OW 8623   4.644   3.790   5.369
 2575SOL    HW1 8624   4.562   3.793   5.427
 2575SOL    HW2 8625   4.619   3.752   5.280
 2576SOL     OW 8626   0.350   0.371   2.674
 2576SOL    HW1 8627   0.354   0.352   2.576
 2576SOL    HW2 8628   0.382   0.464   2.692
 2577SOL     OW 8629   1.764   4.337   0.759
 2577SOL    HW1 8630   1.786   4.398   0.835
 2577SOL    HW2 8631   1.763   4.389   0.673
 2578SOL     OW 8632   4.493   2.357   4.798
 2578SOL    HW1 8633   4.403   2.314   4.790
 2578SOL    HW2 8634   4.564   2.287   4.795
 2579SOL     OW 8635   0.088   1.249   6.786
 2579SOL    HW1 8636   0.171   1.195   6.773
 2579SOL    HW2 8637   0.023   1.229   6.713
 2580SOL     OW 8638   1.973   1.986   5.817
 2580SOL    HW1 8639   2.037   1.910   5.827
 2580SOL    HW2 8640   1.896   1.973   5.879
 2581SOL     OW 8641   5.317   6.697   4.081
 2581SOL    HW1 8642   5.410   6.727   4.061
 2581SOL    HW2 8643   5.317   6.601   4.108
 2582SOL     OW 8644   6.440   3.930   3.260
 2582SOL    HW1 8645   6.429   4.029   3.245
 2582SOL    HW2 8646   6.388   3.880   3.191
 2583SOL     OW 8647   2.922   1.218   0.547
 2583SOL    HW1 8648   2.866   1.159   0.488
 2583SOL    HW2 8649   2.885   1.311   0.546
 2584SOL     OW 8650   3.890   0.779   3.157
 2584SOL    HW1 8651   3.849   0.695   3.122
 2584SOL    HW2 8652   3.824   0.854   3.152
 2585SOL     OW 8653   3.979   0.573   2.256
 2585SOL    HW1 8654   4.069   0.614   2.269
 2585SOL    HW2 8655   3.963   0.504   2.327
 2586SOL     OW 8656   0.926   1.524   4.358
 2586SOL    HW1 8657   0.911   1.592   4.431
 2586SOL    HW2 8658   0.898   1.434   4.391
 2587SOL     OW 8659   6.312   4.948   3.008
 2587SOL    HW1 8660   6.307   4.928   3.106
 2587SOL    HW2 8661   6.339   4.866   2.959
 2588SOL     OW 8662   3.446   6.812   2.869
 2588SOL    HW1 8663   3.387   6.891   2.851
 2588SOL    HW2 8664   3.541   6.837   2.849
 2589SOL     OW 8665   4.588   6.661   2.050
 2589SOL    HW1 8666   4.561   6.757   2.056
 2589SOL    HW2 8667   4.617   6.629   2.140
 2590SOL     OW 8668   4.174   5.740   3.799
 2590SOL    HW1 8669   4.156   5.766   3.894
 2590SOL    HW2 8670   4.088   5.734   3.749
 2591SOL     OW 8671   6.064   0.348   0.923
 2591SOL    HW1 8672   6.136   0.404   0.882
 2591SOL    HW2 8673   6.106   0.270   0.970
 2592SOL     OW 8674   2.693   4.761   1.749
 2592SOL    HW1 8675   2.745   4.775   1.665
 2592SOL    HW2 8676   2.741   4.695   1.808
 2593SOL     OW 8677   2.877   0.093   3.281
 2593SOL    HW1 8678   2.923   0.140   3.206
 2593SOL    HW2 8679   2.859   0.158   3.355
 2594SOL     OW 8680   2.240   6.027   6.772
 2594SOL    HW1 8681   2.318   6.088   6.757
 2594SOL    HW2 8682   2.220   5.977   6.688
 2595SOL     OW 8683   6.533   2.979   4.382
 2595SOL    HW1 8684   6.471   2.925   4.439
 2595SOL    HW2 8685   6.523   2.950   4.287
 2596SOL     OW 8686   4.490   1.858   1.236
 2596SOL    HW1 8687   4.474   1.868   1.137
 2596SOL    HW2 8688   4.438   1.927   1.285
 2597SOL     OW 8689   2.646   2.192   6.310
 2597SOL    HW1 8690   2.686   2.110   6.270
 2597SOL    HW2 8691   2.567   2.220   6.255
 2598SOL     OW 8692   6.731   1.248   3.042
 2598SOL    HW1 8693   6.752   1.306   2.964
 2598SOL    HW2 8694   6.690   1.162   3.010
 2599SOL     OW 8695   4.883   5.710   6.386
 2599SOL    HW1 8696   4.849   5.802   6.406
 2599SOL    HW2 8697   4.980   5.716   6.362
 2600SOL     OW 8698   0.488   2.507   4.651
 2600SOL    HW1 8699   0.583   2.532   4.633
 2600SOL    HW2 8700   0.429   2.585   4.632
 2601SOL     OW 8701   3.900   4.381   5.330
 2601SOL    HW1 8702   3.979   4.443   5.324
 2601SOL    HW2 8703   3.816   4.435   5.334
 2602SOL     OW 8704   5.800   6.447   6.346
 2602SOL    HW1 8705   5.845   6.537   6.347
 2602SOL    HW2 8706   5.730   6.446   6.275
 2603SOL     OW 8707   1.697   1.759   6.997
 2603SOL    HW1 8708   1.785   1.712   7.004
 2603SOL    HW2 8709   1.648   1.725   6.917
 2604SOL     OW 8710   5.196   1.773   0.539
 2604SOL    HW1 8711   5.236   1.690   0.579
 2604SOL    HW2 8712   5.166   1.754   0.446
 2605SOL     OW 8713   5.528   3.304   4.718
 2605SOL    HW1 8714   5.510   3.219   4.766
 2605SOL    HW2 8715   5.594   3.288   4.644
 2606SOL     OW 8716   6.881   4.722   1.656
 2606SOL    HW1 8717   6.809   4.662   1.621
 2606SOL    HW2 8718   6.962   4.715   1.599
 2607SOL     OW 8719   0.972   1.093   3.973
 2607SOL    HW1 8720   0.992   1.188   3.948
 2607SOL    HW2 8721   1.011   1.032   3.904
 2608SOL     OW 8722   4.843   0.799   0.085
 2608SOL    HW1 8723   4.851   0.707   0.124
 2608SOL    HW2 8724   4.756   0.808   0.037
 2609SOL     OW 8725   0.837   3.531   3.068
 2609SOL    HW1 8726   0.878   3.445   3.098
 2609SOL    HW2 8727   0.880   3.607   3.116
 2610SOL     OW 8728   4.893   5.490   4.804
 2610SOL    HW1 8729   4.928   5.451   4.889
 2610SOL    HW2 8730   4.938   5.578   4.788
 2611SOL     OW 8731   2.416   5.815   2.201
 2611SOL    HW1 8732   2.443   5.730   2.247
 2611SOL    HW2 8733   2.496   5.873   2.191
 2612SOL     OW 8734   0.788   0.109   5.209
 2612SOL    HW1 8735   0.762   0.153   5.123
 2612SOL    HW2 8736   0.758   0.013   5.209
 2613SOL     OW 8737   3.699   1.259   0.204
 2613SOL    HW1 8738   3.661   1.166   0.202
 2613SOL    HW2 8739   3.743   1.278   0.116
 2614SOL     OW 8740   6.251   6.481   6.701
 2614SOL    HW1 8741   6.201   6.509   6.782
 2614SOL    HW2 8742   6.334   6.536   6.691
 2615SOL     OW 8743   6.508   4.118   1.316
 2615SOL    HW1 8744   6.470   4.087   1.229
 2615SOL    HW2 8745   6.606   4.096   1.320
 2616SOL     OW 8746   4.012   3.897   1.925
 2616SOL    HW1 8747   3.946   3.941   1.985
 2616SOL    HW2 8748   4.055   3.965   1.865
 2617SOL     OW 8749   2.269   6.483   1.111
 2617SOL    HW1 8750   2.238   6.388   1.117
 2617SOL    HW2 8751   2.278   6.509   1.015
 2618SOL     OW 8752   0.847   6.070   0.227
 2618SOL    HW1 8753   0.804   6.114   0.148
 2618SOL    HW2 8754   0.838   5.971   0.218
 2619SOL     OW 8755   6.315   1.466   2.054
 2619SOL    HW1 8756   6.245   1.499   2.119
 2619SOL    HW2 8757   6.405   1.476   2.095
 2620SOL     OW 8758   1.378   5.896   3.849
 2620SOL    HW1 8759   1.443   5.823   3.869
 2620SOL    HW2 8760   1.294   5.880   3.900
 2621SOL     OW 8761   0.717   6.118   4.619
 2621SOL    HW1 8762   0.690   6.201   4.669
 2621SOL    HW2 8763   0.815   6.103   4.629
 2622SOL     OW 8764   2.315   2.493   4.622
 2622SOL    HW1 8765   2.361   2.406   4.640
 2622SOL    HW2 8766   2.364   2.542   4.550
 2623SOL     OW 8767   3.265   0.498   6.307
 2623SOL    HW1 8768   3.300   0.580   6.262
 2623SOL    HW2 8769   3.305   0.417   6.264
 2624SOL     OW 8770   5.294   2.010   4.420
 2624SOL    HW1 8771   5.325   1.988   4.513
 2624SOL    HW2 8772   5.194   2.016   4.419
 2625SOL     OW 8773   2.612   6.737   6.219
 2625SOL    HW1 8774   2.516   6.716   6.235
 2625SOL    HW2 8775   2.645   6.685   6.141
 2626SOL     OW 8776   2.343   6.526   3.241
 2626SOL    HW1 8777   2.398   6.444   3.255
 2626SOL    HW2 8778   2.246   6.505   3.255
 2627SOL     OW 8779   0.805   6.908   4.488
 2627SOL    HW1 8780   0.776   6.813   4.483
 2627SOL    HW2 8781   0.876   6.925   4.419
 2628SOL     OW 8782   4.777   5.740   0.284
 2628SOL    HW1 8783   4.752   5.765   0.191
 2628SOL    HW2 8784   4.870   5.772   0.304
 2629SOL     OW 8785   2.926   3.755   1.775
 2629SOL    HW1 8786   2.974   3.843   1.769
 2629SOL    HW2 8787   2.975   3.695   1.838
 2630SOL     OW 8788   3.512   1.959   2.494
 2630SOL    HW1 8789   3.605   1.922   2.493
 2630SOL    HW2 8790   3.474   1.958   2.402
 2631SOL     OW 8791   3.546   6.154   4.263
 2631SOL    HW1 8792   3.547   6.209   4.346
 2631SOL    HW2 8793   3.632   6.104   4.254
 2632SOL     OW 8794   4.636   1.283   1.585
 2632SOL    HW1 8795   4.672   1.202   1.631
 2632SOL    HW2 8796   4.591   1.256   1.500
 2633SOL     OW 8797   6.835   2.466   6.949
 2633SOL    HW1 8798   6.853   2.474   6.851
 2633SOL    HW2 8799   6.906   2.410   6.991
 2634SOL     OW 8800   2.857   4.792   0.508
 2634SOL    HW1 8801   2.865   4.777   0.409
 2634SOL    HW2 8802   2.871   4.705   0.556
 2635SOL     OW 8803   5.828   4.794   3.444
 2635SOL    HW1 8804   5.816   4.712   3.388
 2635SOL    HW2 8805   5.922   4.827   3.434
 2636SOL     OW 8806   5.447   5.689   5.280
 2636SOL    HW1 8807   5.450   5.758   5.353
 2636SOL    HW2 8808   5.439   5.598   5.322
 2637SOL     OW 8809   4.939   5.798   3.127
 2637SOL    HW1 8810   4.968   5.894   3.128
 2637SOL    HW2 8811   5.017   5.739   3.107
 2638SOL     OW 8812   5.128   5.337   1.020
 2638SOL    HW1 8813   5.030   5.315   1.014
 2638SOL    HW2 8814   5.182   5.254   1.011
 2639SOL     OW 8815   6.937   7.006   6.800
 2639SOL    HW1 8816   6.854   0.005   6.746
 2639SOL    HW2 8817   6.913   7.007   6.897
 2640SOL     OW 8818   6.684   6.371   6.772
 2640SOL    HW1 8819   6.680   6.439   6.845
 2640SOL    HW2 8820   6.682   6.416   6.683
 2641SOL     OW 8821   6.844   5.672   0.738
 2641SOL    HW1 8822   6.769   5.671   0.805
 2641SOL    HW2 8823   6.843   5.759   0.689
 2642SOL     OW 8824   6.419   0.296   3.860
 2642SOL    HW1 8825   6.448   0.282   3.955
 2642SOL    HW2 8826   6.474   0.238   3.800
 2643SOL     OW 8827   1.933   0.235   2.285
 2643SOL    HW1 8828   1.903   0.218   2.379
 2643SOL    HW2 8829   2.027   0.205   2.274
 2644SOL     OW 8830   6.421   6.160   4.853
 2644SOL    HW1 8831   6.386   6.253   4.854
 2644SOL    HW2 8832   6.474   6.145   4.770
 2645SOL     OW 8833   5.681   6.076   6.517
 2645SOL    HW1 8834   5.768   6.117   6.492
 2645SOL    HW2 8835   5.671   6.078   6.617
 2646SOL     OW 8836   5.751   5.988   6.157
 2646SOL    HW1 8837   5.830   6.023   6.108
 2646SOL    HW2 8838   5.769   5.895   6.188
 2647SOL     OW 8839   3.187   3.778   0.466
 2647SOL    HW1 8840   3.115   3.717   0.500
 2647SOL    HW2 8841   3.245   3.728   0.401
 2648SOL     OW 8842   4.514   1.318   3.461
 2648SOL    HW1 8843   4.549   1.234   3.420
 2648SOL    HW2 8844   4.458   1.296   3.541
 2649SOL     OW 8845   3.008   4.020   5.142
 2649SOL    HW1 8846   3.014   3.978   5.233
 2649SOL    HW2 8847   3.057   3.964   5.076
 2650SOL     OW 8848   0.703   6.662   2.442
 2650SOL    HW1 8849   0.659   6.744   2.477
 2650SOL    HW2 8850   0.731   6.604   2.519
 2651SOL     OW 8851   0.872   0.287   3.208
 2651SOL    HW1 8852   0.962   0.325   3.192
 2651SOL    HW2 8853   0.815   0.301   3.127
 2652SOL     OW 8854   3.276   3.482   2.444
 2652SOL    HW1 8855   3.258   3.394   2.489
 2652SOL    HW2 8856   3.189   3.526   2.422
 2653SOL     OW 8857   6.857   6.028   0.848
 2653SOL    HW1 8858   6.915   6.025   0.766
 2653SOL    HW2 8859   6.765   6.059   0.822
 2654SOL     OW 8860   6.627   2.187   5.699
 2654SOL    HW1 8861   6.571   2.121   5.749
 2654SOL    HW2 8862   6.705   2.214   5.755
 2655SOL     OW 8863   5.636   5.582   4.225
 2655SOL    HW1 8864   5.591   5.671   4.234
 2655SOL    HW2 8865   5.736   5.594   4.229
 2656SOL     OW 8866   5.873   3.340   5.159
 2656SOL    HW1 8867   5.911   3.249   5.142
 2656SOL    HW2 8868   5.928   3.386   5.229
 2657SOL     OW 8869   3.967   2.431   5.596
 2657SOL    HW1 8870   4.014   2.442   5.683
 2657SOL    HW2 8871   4.001   2.500   5.531
 2658SOL     OW 8872   6.856   4.155   5.099
 2658SOL    HW1 8873   6.848   4.062   5.136
 2658SOL    HW2 8874   6.780   4.211   5.133
 2659SOL     OW 8875   6.819   1.378   3.746
 2659SOL    HW1 8876   6.751   1.360   3.675
 2659SOL    HW2 8877   6.892   1.309   3.740
 2660SOL     OW 8878   0.925   2.098   3.681
 2660SOL    HW1 8879   0.852   2.055   3.734
 2660SOL    HW2 8880   0.886   2.153   3.607
 2661SOL     OW 8881   3.794   6.883   3.418
 2661SOL    HW1 8882   3.807   6.811   3.486
 2661SOL    HW2 8883   3.847   6.861   3.336
 2662SOL     OW 8884   3.725   0.935   4.049
 2662SOL    HW1 8885   3.815   0.957   4.012
 2662SOL    HW2 8886   3.673   1.019   4.061
 2663SOL     OW 8887   0.986   4.381   2.794
 2663SOL    HW1 8888   1.042   4.441   2.851
 2663SOL    HW2 8889   0.957   4.301   2.848
 2664SOL     OW 8890   4.568   4.283   1.659
 2664SOL    HW1 8891   4.494   4.253   1.720
 2664SOL    HW2 8892   4.654   4.284   1.710
 2665SOL     OW 8893   4.468   0.403   4.827
 2665SOL    HW1 8894   4.400   0.473   4.850
 2665SOL    HW2 8895   4.448   0.320   4.878
 2666SOL     OW 8896   5.216   5.735   1.717
 2666SOL    HW1 8897   5.307   5.710   1.747
 2666SOL    HW2 8898   5.207   5.835   1.716
 2667SOL     OW 8899   1.598   5.061   3.108
 2667SOL    HW1 8900   1.632   4.969   3.130
 2667SOL    HW2 8901   1.534   5.055   3.032
 2668SOL     OW 8902   0.091   2.412   5.080
 2668SOL    HW1 8903   0.168   2.401   5.017
 2668SOL    HW2 8904   0.091   2.505   5.118
 2669SOL     OW 8905   4.011   6.058   4.920
 2669SOL    HW1 8906   4.075   6.011   4.859
 2669SOL    HW2 8907   3.920   6.056   4.880
 2670SOL     OW 8908   2.233   6.571   4.090
 2670SOL    HW1 8909   2.159   6.634   4.116
 2670SOL    HW2 8910   2.304   6.621   4.042
 2671SOL     OW 8911   3.051   3.845   6.880
 2671SOL    HW1 8912   3.053   3.762   6.935
 2671SOL    HW2 8913   3.010   3.825   6.791
 2672SOL     OW 8914   0.754   4.408   0.364
 2672SOL    HW1 8915   0.752   4.474   0.289
 2672SOL    HW2 8916   0.676   4.426   0.425
 2673SOL     OW 8917   3.748   2.065   2.870
 2673SOL    HW1 8918   3.662   2.068   2.820
 2673SOL    HW2 8919   3.739   2.119   2.954
 2674SOL     OW 8920   5.113   5.511   5.424
 2674SOL    HW1 8921   5.126   5.609   5.436
 2674SOL    HW2 8922   5.201   5.464   5.436
 2675SOL     OW 8923   0.310   4.893   5.666
 2675SOL    HW1 8924   0.350   4.807   5.697
 2675SOL    HW2 8925   0.366   4.969   5.699
 2676SOL     OW 8926   4.513   0.815   1.867
 2676SOL    HW1 8927   4.438   0.873   1.900
 2676SOL    HW2 8928   4.536   0.841   1.773
 2677SOL     OW 8929   2.331   4.467   2.123
 2677SOL    HW1 8930   2.255   4.527   2.098
 2677SOL    HW2 8931   2.412   4.493   2.069
 2678SOL     OW 8932   0.699   6.354   6.358
 2678SOL    HW1 8933   0.634   6.362   6.283
 2678SOL    HW2 8934   0.668   6.284   6.422
 2679SOL     OW 8935   2.544   5.305   1.994
 2679SOL    HW1 8936   2.462   5.248   1.997
 2679SOL    HW2 8937   2.593   5.290   1.908
 2680SOL     OW 8938   0.305   2.408   1.115
 2680SOL    HW1 8939   0.395   2.429   1.154
 2680SOL    HW2 8940   0.297   2.449   1.025
 2681SOL     OW 8941   2.274   2.016   1.700
 2681SOL    HW1 8942   2.284   1.919   1.674
 2681SOL    HW2 8943   2.245   2.022   1.795
 2682SOL     OW 8944   0.218   2.459   3.715
 2682SOL    HW1 8945   0.129   2.423   3.742
 2682SOL    HW2 8946   0.245   2.531   3.778
 2683SOL     OW 8947   1.466   0.071   0.403
 2683SOL    HW1 8948   1.461   0.010   0.483
 2683SOL    HW2 8949   1.448   0.018   0.320
 2684SOL     OW 8950   2.329   5.624   2.885
 2684SOL    HW1 8951   2.284   5.667   2.807
 2684SOL    HW2 8952   2.399   5.561   2.852
 2685SOL     OW 8953   5.396   5.407   5.746
 2685SOL    HW1 8954   5.492   5.403   5.775
 2685SOL    HW2 8955   5.351   5.320   5.768
 2686SOL     OW 8956   0.882   3.345   4.946
 2686SOL    HW1 8957   0.912   3.316   5.036
 2686SOL    HW2 8958   0.961   3.353   4.885
 2687SOL     OW 8959   4.349   5.389   3.254
 2687SOL    HW1 8960   4.409   5.444   3.197
 2687SOL    HW2 8961   4.314   5.445   3.330
 2688SOL     OW 8962   3.363   4.428   5.354
 2688SOL    HW1 8963   3.286   4.374   5.322
 2688SOL    HW2 8964   3.449   4.384   5.327
 2689SOL     OW 8965   6.173   2.037   4.151
 2689SOL    HW1 8966   6.272   2.031   4.153
 2689SOL    HW2 8967   6.139   2.055   4.244
 2690SOL     OW 8968   3.123   3.939   3.599
 2690SOL    HW1 8969   3.194   3.987   3.650
 2690SOL    HW2 8970   3.109   3.984   3.511
 2691SOL     OW 8971   1.386   6.069   1.648
 2691SOL    HW1 8972   1.317   6.051   1.719
 2691SOL    HW2 8973   1.407   5.985   1.599
 2692SOL     OW 8974   6.915   4.311   3.482
 2692SOL    HW1 8975   6.897   4.394   3.534
 2692SOL    HW2 8976   6.999   4.323   3.428
 2693SOL     OW 8977   1.885   3.204   2.705
 2693SOL    HW1 8978   1.977   3.239   2.688
 2693SOL    HW2 8979   1.844   3.176   2.618
 2694SOL     OW 8980   2.095   1.920   2.752
 2694SOL    HW1 8981   2.030   1.848   2.772
 2694SOL    HW2 8982   2.135   1.904   2.662
 2695SOL     OW 8983   4.023   2.017   2.308
 2695SOL    HW1 8984   4.003   1.948   2.379
 2695SOL    HW2 8985   3.937   2.055   2.274
 2696SOL     OW 8986   3.866   3.544   5.998
 2696SOL    HW1 8987   3.929   3.506   6.066
 2696SOL    HW2 8988   3.917   3.603   5.936
 2697SOL     OW 8989   2.691   1.149   5.275
 2697SOL    HW1 8990   2.705   1.135   5.373
 2697SOL    HW2 8991   2.696   1.247   5.255
 2698SOL     OW 8992   1.224   1.741   6.797
 2698SOL    HW1 8993   1.167   1.814   6.835
 2698SOL    HW2 8994   1.184   1.652   6.819
 2699SOL     OW 8995   1.649   4.957   3.566
 2699SOL    HW1 8996   1.556   4.938   3.595
 2699SOL    HW2 8997   1.682   5.040   3.612
 2700SOL     OW 8998   2.287   4.224   2.808
 2700SOL    HW1 8999   2.304   4.270   2.721
 2700SOL    HW2 9000   2.346   4.263   2.878
 2701SOL     OW 9001   2.663   0.693   5.236
 2701SOL    HW1 9002   2.610   0.644   5.306
 2701SOL    HW2 9003   2.607   0.767   5.198
 2702SOL     OW 9004   6.301   6.405   2.860
 2702SOL    HW1 9005   6.339   6.407   2.768
 2702SOL    HW2 9006   6.360   6.349   2.919
 2703SOL     OW 9007   1.753   2.150   3.137
 2703SOL    HW1 9008   1.721   2.244   3.145
 2703SOL    HW2 9009   1.853   2.148   3.138
 2704SOL     OW 9010   1.366   6.448   0.517
 2704SOL    HW1 9011   1.310   6.490   0.589
 2704SOL    HW2 9012   1.310   6.436   0.435
 2705SOL     OW 9013   0.213   3.551   2.485
 2705SOL    HW1 9014   0.140   3.616   2.465
 2705SOL    HW2 9015   0.300   3.588   2.455
 2706SOL     OW 9016   6.546   2.486   3.601
 2706SOL    HW1 9017   6.489   2.427   3.658
 2706SOL    HW2 9018   6.643   2.468   3.621
 2707SOL     OW 9019   2.749   1.286   6.775
 2707SOL    HW1 9020   2.693   1.207   6.801
 2707SOL    HW2 9021   2.703   1.370   6.802
 2708SOL     OW 9022   1.528   4.773   6.869
 2708SOL    HW1 9023   1.600   4.838   6.894
 2708SOL    HW2 9024   1.465   4.816   6.805
 2709SOL     OW 9025   4.455   6.733   1.822
 2709SOL    HW1 9026   4.476   6.830   1.832
 2709SOL    HW2 9027   4.490   6.683   1.901
 2710SOL     OW 9028   6.351   4.034   2.643
 2710SOL    HW1 9029   6.317   3.964   2.581
 2710SOL    HW2 9030   6.447   4.054   2.621
 2711SOL     OW 9031   1.293   0.030   2.476
 2711SOL    HW1 9032   1.323   0.114   2.431
 2711SOL    HW2 9033   1.197   0.013   2.454
 2712SOL     OW 9034   3.089   5.324   2.748
 2712SOL    HW1 9035   3.071   5.228   2.728
 2712SOL    HW2 9036   3.015   5.380   2.711
 2713SOL     OW 9037   1.517   2.821   5.459
 2713SOL    HW1 9038   1.463   2.894   5.501
 2713SOL    HW2 9039   1.563   2.856   5.377
 2714SOL     OW 9040   5.530   0.361   6.885
 2714SOL    HW1 9041   5.569   0.435   6.830
 2714SOL    HW2 9042   5.432   0.375   6.895
 2715SOL     OW 9043   6.472   0.603   0.179
 2715SOL    HW1 9044   6.413   0.534   0.138
 2715SOL    HW2 9045   6.469   0.595   0.279
 2716SOL     OW 9046   6.202   6.730   1.950
 2716SOL    HW1 9047   6.210   6.637   1.915
 2716SOL    HW2 9048   6.117   6.740   2.002
 2717SOL     OW 9049   0.259   6.623   3.166
 2717SOL    HW1 9050   0.341   6.589   3.121
 2717SOL    HW2 9051   0.217   6.694   3.110
 2718SOL     OW 9052   0.462   3.940   3.287
 2718SOL    HW1 9053   0.386   4.003   3.305
 2718SOL    HW2 9054   0.511   3.970   3.205
 2719SOL     OW 9055   3.952   4.816   2.890
 2719SOL    HW1 9056   4.015   4.744   2.861
 2719SOL    HW2 9057   3.981   4.903   2.850
 2720SOL     OW 9058   0.295   6.067   4.383
 2720SOL    HW1 9059   0.376   6.057   4.325
 2720SOL    HW2 9060   0.264   5.978   4.415
 2721SOL     OW 9061   5.227   6.210   3.578
 2721SOL    HW1 9062   5.222   6.310   3.584
 2721SOL    HW2 9063   5.244   6.172   3.669
 2722SOL     OW 9064   0.648   5.468   2.298
 2722SOL    HW1 9065   0.607   5.532   2.362
 2722SOL    HW2 9066   0.699   5.518   2.228
 2723SOL     OW 9067   1.958   1.976   4.433
 2723SOL    HW1 9068   1.860   1.957   4.429
 2723SOL    HW2 9069   2.005   1.927   4.359
 2724SOL     OW 9070   4.527   5.639   6.054
 2724SOL    HW1 9071   4.510   5.738   6.044
 2724SOL    HW2 9072   4.576   5.622   6.139
 2725SOL     OW 9073   2.836   4.838   3.567
 2725SOL    HW1 9074   2.890   4.803   3.644
 2725SOL    HW2 9075   2.750   4.876   3.600
 2726SOL     OW 9076   4.154   6.141   2.965
 2726SOL    HW1 9077   4.157   6.230   3.012
 2726SOL    HW2 9078   4.059   6.116   2.948
 2727SOL     OW 9079   2.220   5.806   4.363
 2727SOL    HW1 9080   2.248   5.902   4.359
 2727SOL    HW2 9081   2.122   5.799   4.345
 2728SOL     OW 9082   2.827   6.995   5.428
 2728SOL    HW1 9083   2.865   7.003   5.520
 2728SOL    HW2 9084   2.844   0.070   5.378
 2729SOL     OW 9085   0.255   4.682   2.815
 2729SOL    HW1 9086   0.225   4.776   2.830
 2729SOL    HW2 9087   0.187   4.634   2.761
 2730SOL     OW 9088   1.248   4.381   1.116
 2730SOL    HW1 9089   1.325   4.412   1.058
 2730SOL    HW2 9090   1.162   4.398   1.068
 2731SOL     OW 9091   2.326   3.454   0.392
 2731SOL    HW1 9092   2.313   3.483   0.297
 2731SOL    HW2 9093   2.329   3.533   0.452
 2732SOL     OW 9094   5.379   3.483   4.213
 2732SOL    HW1 9095   5.391   3.564   4.271
 2732SOL    HW2 9096   5.284   3.452   4.217
 2733SOL     OW 9097   2.016   0.555   6.737
 2733SOL    HW1 9098   2.033   0.596   6.648
 2733SOL    HW2 9099   2.072   0.472   6.747
 2734SOL     OW 9100   1.823   6.856   4.098
 2734SOL    HW1 9101   1.848   6.780   4.158
 2734SOL    HW2 9102   1.893   6.868   4.028
 2735SOL     OW 9103   1.816   5.409   1.516
 2735SOL    HW1 9104   1.733   5.367   1.479
 2735SOL    HW2 9105   1.834   5.495   1.468
 2736SOL     OW 9106   4.171   6.869   6.644
 2736SOL    HW1 9107   4.236   6.793   6.649
 2736SOL    HW2 9108   4.103   6.849   6.574
 2737SOL     OW 9109   3.974   3.802   5.304
 2737SOL    HW1 9110   3.917   3.857   5.242
 2737SOL    HW2 9111   3.942   3.707   5.304
 2738SOL     OW 9112   6.458   4.136   4.080
 2738SOL    HW1 9113   6.483   4.184   4.164
 2738SOL    HW2 9114   6.474   4.195   4.001
 2739SOL     OW 9115   4.372   4.297   0.019
 2739SOL    HW1 9116   4.353   4.204   6.997
 2739SOL    HW2 9117   4.348   4.304   0.115
 2740SOL     OW 9118   6.113   2.554   4.338
 2740SOL    HW1 9119   6.093   2.584   4.245
 2740SOL    HW2 9120   6.211   2.558   4.355
 2741SOL     OW 9121   1.899   3.022   5.278
 2741SOL    HW1 9122   1.973   2.977   5.228
 2741SOL    HW2 9123   1.935   3.100   5.329
 2742SOL     OW 9124   2.721   6.036   5.985
 2742SOL    HW1 9125   2.676   6.012   6.071
 2742SOL    HW2 9126   2.777   5.958   5.954
 2743SOL     OW 9127   5.906   4.429   6.544
 2743SOL    HW1 9128   5.934   4.474   6.629
 2743SOL    HW2 9129   5.811   4.399   6.553
 2744SOL     OW 9130   4.755   7.007   0.576
 2744SOL    HW1 9131   4.667   6.964   0.552
 2744SOL    HW2 9132   4.830   6.952   0.539
 2745SOL     OW 9133   2.997   5.950   2.007
 2745SOL    HW1 9134   2.926   5.916   1.946
 2745SOL    HW2 9135   3.084   5.956   1.957
 2746SOL     OW 9136   0.898   2.077   6.697
 2746SOL    HW1 9137   0.800   2.088   6.716
 2746SOL    HW2 9138   0.910   2.011   6.622
 2747SOL     OW 9139   4.754   5.805   3.947
 2747SOL    HW1 9140   4.716   5.848   4.029
 2747SOL    HW2 9141   4.760   5.706   3.960
 2748SOL     OW 9142   5.619   1.016   4.901
 2748SOL    HW1 9143   5.687   0.951   4.933
 2748SOL    HW2 9144   5.593   0.993   4.807
 2749SOL     OW 9145   5.462   4.813   3.164
 2749SOL    HW1 9146   5.458   4.770   3.074
 2749SOL    HW2 9147   5.513   4.899   3.158
 2750SOL     OW 9148   0.910   6.817   0.219
 2750SOL    HW1 9149   1.006   6.828   0.193
 2750SOL    HW2 9150   0.888   6.720   0.226
 2751SOL     OW 9151   1.740   0.363   6.491
 2751SOL    HW1 9152   1.785   0.280   6.524
 2751SOL    HW2 9153   1.775   0.386   6.401
 2752SOL     OW 9154   0.800   6.910   6.045
 2752SOL    HW1 9155   0.809   7.010   6.038
 2752SOL    HW2 9156   0.829   6.880   6.136
 2753SOL     OW 9157   3.281   5.194   4.876
 2753SOL    HW1 9158   3.380   5.200   4.892
 2753SOL    HW2 9159   3.243   5.285   4.866
 2754SOL     OW 9160   1.066   5.647   4.113
 2754SOL    HW1 9161   1.002   5.580   4.075
 2754SOL    HW2 9162   1.063   5.643   4.213
 2755SOL     OW 9163   4.634   6.171   2.720
 2755SOL    HW1 9164   4.553   6.184   2.776
 2755SOL    HW2 9165   4.609   6.123   2.636
 2756SOL     OW 9166   0.090   2.646   5.199
 2756SOL    HW1 9167   0.158   2.715   5.173
 2756SOL    HW2 9168   0.079   2.646   5.298
 2757SOL     OW 9169   5.537   3.807   6.103
 2757SOL    HW1 9170   5.478   3.775   6.029
 2757SOL    HW2 9171   5.603   3.736   6.126
 2758SOL     OW 9172   0.101   6.168   1.842
 2758SOL    HW1 9173   0.124   6.080   1.800
 2758SOL    HW2 9174   0.039   6.218   1.782
 2759SOL     OW 9175   3.500   3.565   5.051
 2759SOL    HW1 9176   3.599   3.575   5.051
 2759SOL    HW2 9177   3.471   3.516   5.133
 2760SOL     OW 9178   4.982   5.236   2.821
 2760SOL    HW1 9179   4.925   5.255   2.901
 2760SOL    HW2 9180   4.998   5.321   2.770
 2761SOL     OW 9181   1.602   3.617   4.335
 2761SOL    HW1 9182   1.594   3.624   4.236
 2761SOL    HW2 9183   1.528   3.670   4.378
 2762SOL     OW 9184   4.469   1.467   2.245
 2762SOL    HW1 9185   4.493   1.516   2.162
 2762SOL    HW2 9186   4.544   1.404   2.269
 2763SOL     OW 9187   5.899   0.938   4.400
 2763SOL    HW1 9188   5.841   0.858   4.415
 2763SOL    HW2 9189   5.862   0.992   4.324
 2764SOL     OW 9190   6.881   2.359   3.248
 2764SOL    HW1 9191   6.899   2.267   3.283
 2764SOL    HW2 9192   6.875   2.423   3.324
 2765SOL     OW 9193   0.537   6.643   6.462
 2765SOL    HW1 9194   0.443   6.611   6.451
 2765SOL    HW2 9195   0.601   6.572   6.432
 2766SOL     OW 9196   4.846   0.498   0.718
 2766SOL    HW1 9197   4.893   0.421   0.674
 2766SOL    HW2 9198   4.905   0.536   0.790
 2767SOL     OW 9199   0.450   6.017   5.752
 2767SOL    HW1 9200   0.421   5.929   5.714
 2767SOL    HW2 9201   0.373   6.060   5.799
 2768SOL     OW 9202   4.032   6.647   1.499
 2768SOL    HW1 9203   4.032   6.724   1.563
 2768SOL    HW2 9204   4.084   6.571   1.538
 2769SOL     OW 9205   0.508   4.753   5.780
 2769SOL    HW1 9206   0.517   4.656   5.804
 2769SOL    HW2 9207   0.580   4.805   5.826
 2770SOL     OW 9208   2.454   6.666   0.928
 2770SOL    HW1 9209   2.432   6.763   0.940
 2770SOL    HW2 9210   2.381   6.621   0.877
 2771SOL     OW 9211   4.142   6.910   5.282
 2771SOL    HW1 9212   4.055   6.906   5.232
 2771SOL    HW2 9213   4.191   6.993   5.257
 2772SOL     OW 9214   5.574   1.856   3.320
 2772SOL    HW1 9215   5.567   1.895   3.228
 2772SOL    HW2 9216   5.660   1.804   3.327
 2773SOL     OW 9217   5.508   1.953   6.388
 2773SOL    HW1 9218   5.414   1.974   6.413
 2773SOL    HW2 9219   5.549   1.894   6.458
 2774SOL     OW 9220   6.624   0.239   3.641
 2774SOL    HW1 9221   6.659   0.275   3.727
 2774SOL    HW2 9222   6.690   0.254   3.568
 2775SOL     OW 9223   6.818   2.046   4.430
 2775SOL    HW1 9224   6.876   2.066   4.509
 2775SOL    HW2 9225   6.754   1.972   4.454
 2776SOL     OW 9226   4.830   3.916   5.993
 2776SOL    HW1 9227   4.802   3.845   6.058
 2776SOL    HW2 9228   4.762   3.922   5.920
 2777SOL     OW 9229   1.555   2.007   0.168
 2777SOL    HW1 9230   1.548   1.915   0.207
 2777SOL    HW2 9231   1.621   2.007   0.093
 2778SOL     OW 9232   2.950   7.001   5.683
 2778SOL    HW1 9233   2.940   0.081   5.724
 2778SOL    HW2 9234   2.995   6.940   5.748
 2779SOL     OW 9235   4.949   0.860   2.776
 2779SOL    HW1 9236   4.985   0.806   2.853
 2779SOL    HW2 9237   4.918   0.798   2.704
 2780SOL     OW 9238   0.873   1.182   4.796
 2780SOL    HW1 9239   0.833   1.239   4.867
 2780SOL    HW2 9240   0.963   1.218   4.772
 2781SOL     OW 9241   0.108   0.499   2.730
 2781SOL    HW1 9242   0.147   0.432   2.666
 2781SOL    HW2 9243   0.077   0.452   2.813
 2782SOL     OW 9244   5.735   0.232   4.937
 2782SOL    HW1 9245   5.734   0.227   5.037
 2782SOL    HW2 9246   5.765   0.144   4.899
 2783SOL     OW 9247   6.109   3.165   1.830
 2783SOL    HW1 9248   6.059   3.151   1.915
 2783SOL    HW2 9249   6.127   3.077   1.786
 2784SOL     OW 9250   0.232   2.464   1.905
 2784SOL    HW1 9251   0.321   2.491   1.868
 2784SOL    HW2 9252   0.246   2.409   1.987
 2785SOL     OW 9253   5.583   3.890   3.676
 2785SOL    HW1 9254   5.601   3.879   3.774
 2785SOL    HW2 9255   5.486   3.909   3.662
 2786SOL     OW 9256   6.871   5.476   0.503
 2786SOL    HW1 9257   6.865   5.555   0.565
 2786SOL    HW2 9258   6.836   5.395   0.549
 2787SOL     OW 9259   0.891   6.785   5.785
 2787SOL    HW1 9260   0.861   6.830   5.869
 2787SOL    HW2 9261   0.857   6.835   5.706
 2788SOL     OW 9262   2.514   6.582   0.498
 2788SOL    HW1 9263   2.434   6.636   0.471
 2788SOL    HW2 9264   2.487   6.515   0.567
 2789SOL     OW 9265   1.648   1.706   3.662
 2789SOL    HW1 9266   1.685   1.613   3.662
 2789SOL    HW2 9267   1.702   1.762   3.600
 2790SOL     OW 9268   0.001   5.300   1.746
 2790SOL    HW1 9269   6.942   5.361   1.783
 2790SOL    HW2 9270   0.083   5.305   1.802
 2791SOL     OW 9271   0.289   3.110   5.147
 2791SOL    HW1 9272   0.385   3.115   5.121
 2791SOL    HW2 9273   0.276   3.153   5.237
 2792SOL     OW 9274   3.198   2.433   6.476
 2792SOL    HW1 9275   3.171   2.511   6.419
 2792SOL    HW2 9276   3.286   2.452   6.519
 2793SOL     OW 9277   3.978   3.516   6.460
 2793SOL    HW1 9278   3.905   3.578   6.431
 2793SOL    HW2 9279   4.007   3.540   6.553
 2794SOL     OW 9280   1.501   1.756   6.794
 2794SOL    HW1 9281   1.564   1.756   6.716
 2794SOL    HW2 9282   1.408   1.772   6.762
 2795SOL     OW 9283   0.855   0.198   0.718
 2795SOL    HW1 9284   0.937   0.235   0.761
 2795SOL    HW2 9285   0.819   0.123   0.774
 2796SOL     OW 9286   3.162   6.145   6.862
 2796SOL    HW1 9287   3.193   6.238   6.882
 2796SOL    HW2 9288   3.144   6.097   6.948
 2797SOL     OW 9289   4.729   4.179   4.317
 2797SOL    HW1 9290   4.798   4.107   4.323
 2797SOL    HW2 9291   4.711   4.201   4.221
 2798SOL     OW 9292   5.409   2.644   2.039
 2798SOL    HW1 9293   5.432   2.673   1.946
 2798SOL    HW2 9294   5.460   2.560   2.060
 2799SOL     OW 9295   3.250   6.857   4.668
 2799SOL    HW1 9296   3.299   6.776   4.702
 2799SOL    HW2 9297   3.161   6.862   4.713
 2800SOL     OW 9298   4.996   1.602   6.604
 2800SOL    HW1 9299   4.956   1.693   6.608
 2800SOL    HW2 9300   5.010   1.576   6.509
 2801SOL     OW 9301   0.440   4.348   3.520
 2801SOL    HW1 9302   0.471   4.297   3.601
 2801SOL    HW2 9303   0.508   4.340   3.448
 2802SOL     OW 9304   1.252   4.636   4.071
 2802SOL    HW1 9305   1.221   4.721   4.028
 2802SOL    HW2 9306   1.333   4.655   4.126
 2803SOL     OW 9307   3.658   2.602   6.769
 2803SOL    HW1 9308   3.690   2.674   6.831
 2803SOL    HW2 9309   3.736   2.551   6.733
 2804SOL     OW 9310   6.257   2.550   3.652
 2804SOL    HW1 9311   6.196   2.483   3.610
 2804SOL    HW2 9312   6.304   2.602   3.581
 2805SOL     OW 9313   4.184   4.950   0.305
 2805SOL    HW1 9314   4.164   4.974   0.400
 2805SOL    HW2 9315   4.125   5.003   0.244
 2806SOL     OW 9316   0.364   2.930   4.373
 2806SOL    HW1 9317   0.355   2.970   4.464
 2806SOL    HW2 9318   0.430   2.856   4.375
 2807SOL     OW 9319   4.631   1.620   3.991
 2807SOL    HW1 9320   4.634   1.536   3.936
 2807SOL    HW2 9321   4.661   1.697   3.935
 2808SOL     OW 9322   1.254   6.054   6.412
 2808SOL    HW1 9323   1.288   6.056   6.318
 2808SOL    HW2 9324   1.211   6.142   6.434
 2809SOL     OW 9325   1.034   6.271   0.659
 2809SOL    HW1 9326   1.124   6.237   0.686
 2809SOL    HW2 9327   0.967   6.243   0.728
 2810SOL     OW 9328   0.714   6.120   2.337
 2810SOL    HW1 9329   0.759   6.133   2.425
 2810SOL    HW2 9330   0.783   6.108   2.265
 2811SOL     OW 9331   0.856   0.545   0.687
 2811SOL    HW1 9332   0.928   0.588   0.742
 2811SOL    HW2 9333   0.879   0.449   0.672
 2812SOL     OW 9334   1.845   1.025   1.174
 2812SOL    HW1 9335   1.801   1.099   1.124
 2812SOL    HW2 9336   1.904   1.064   1.245
 2813SOL     OW 9337   6.501   2.216   1.062
 2813SOL    HW1 9338   6.548   2.304   1.065
 2813SOL    HW2 9339   6.561   2.145   1.099
 2814SOL     OW 9340   2.566   4.277   6.821
 2814SOL    HW1 9341   2.521   4.247   6.737
 2814SOL    HW2 9342   2.637   4.212   6.846
 2815SOL     OW 9343   6.784   6.071   5.022
 2815SOL    HW1 9344   6.706   6.021   5.059
 2815SOL    HW2 9345   6.752   6.145   4.963
 2816SOL     OW 9346   0.847   4.803   4.737
 2816SOL    HW1 9347   0.765   4.857   4.718
 2816SOL    HW2 9348   0.840   4.715   4.689
 2817SOL     OW 9349   2.191   0.497   1.876
 2817SOL    HW1 9350   2.196   0.581   1.929
 2817SOL    HW2 9351   2.171   0.519   1.780
 2818SOL     OW 9352   1.779   1.031   0.430
 2818SOL    HW1 9353   1.865   1.016   0.479
 2818SOL    HW2 9354   1.797   1.071   0.341
 2819SOL     OW 9355   6.311   0.268   6.527
 2819SOL    HW1 9356   6.304   0.308   6.619
 2819SOL    HW2 9357   6.228   0.289   6.475
 2820SOL     OW 9358   1.825   1.827   0.503
 2820SOL    HW1 9359   1.917   1.800   0.473
 2820SOL    HW2 9360   1.760   1.755   0.481
 2821SOL     OW 9361   3.453   2.144   6.199
 2821SOL    HW1 9362   3.362   2.119   6.166
 2821SOL    HW2 9363   3.472   2.094   6.284
 2822SOL     OW 9364   4.101   2.560   1.100
 2822SOL    HW1 9365   4.079   2.609   1.184
 2822SOL    HW2 9366   4.152   2.477   1.123
 2823SOL     OW 9367   5.859   4.108   2.751
 2823SOL    HW1 9368   5.868   4.009   2.757
 2823SOL    HW2 9369   5.772   4.131   2.706
 2824SOL     OW 9370   0.757   4.509   4.901
 2824SOL    HW1 9371   0.841   4.474   4.942
 2824SOL    HW2 9372   0.767   4.514   4.802
 2825SOL     OW 9373   5.372   2.162   5.436
 2825SOL    HW1 9374   5.294   2.225   5.430
 2825SOL    HW2 9375   5.339   2.068   5.439
 2826SOL     OW 9376   2.852   3.014   0.002
 2826SOL    HW1 9377   2.930   3.057   6.967
 2826SOL    HW2 9378   2.834   3.060   0.089
 2827SOL     OW 9379   6.464   1.880   0.308
 2827SOL    HW1 9380   6.458   1.954   0.375
 2827SOL    HW2 9381   6.372   1.859   0.274
 2828SOL     OW 9382   1.600   4.358   0.042
 2828SOL    HW1 9383   1.615   4.318   0.132
 2828SOL    HW2 9384   1.502   4.361   0.023
 2829SOL     OW 9385   3.695   4.227   1.555
 2829SOL    HW1 9386   3.652   4.297   1.497
 2829SOL    HW2 9387   3.650   4.227   1.645
 2830SOL     OW 9388   2.868   5.726   4.549
 2830SOL    HW1 9389   2.949   5.670   4.530
 2830SOL    HW2 9390   2.786   5.677   4.518
 2831SOL     OW 9391   6.433   1.791   2.127
 2831SOL    HW1 9392   6.477   1.880   2.117
 2831SOL    HW2 9393   6.394   1.763   2.039
 2832SOL     OW 9394   1.530   4.094   1.532
 2832SOL    HW1 9395   1.530   4.129   1.438
 2832SOL    HW2 9396   1.620   4.057   1.554
 2833SOL     OW 9397   6.671   2.902   3.411
 2833SOL    HW1 9398   6.667   2.983   3.352
 2833SOL    HW2 9399   6.741   2.839   3.376
 2834SOL     OW 9400   3.017   0.755   4.407
 2834SOL    HW1 9401   3.019   0.819   4.329
 2834SOL    HW2 9402   2.940   0.693   4.397
 2835SOL     OW 9403   6.898   1.416   0.574
 2835SOL    HW1 9404   6.893   1.514   0.556
 2835SOL    HW2 9405   6.966   1.399   0.645
 2836SOL     OW 9406   2.959   5.876   1.153
 2836SOL    HW1 9407   2.964   5.879   1.253
 2836SOL    HW2 9408   3.027   5.811   1.119
 2837SOL     OW 9409   5.634   4.151   2.609
 2837SOL    HW1 9410   5.546   4.145   2.656
 2837SOL    HW2 9411   5.638   4.236   2.556
 2838SOL     OW 9412   0.016   3.837   5.594
 2838SOL    HW1 9413   0.020   3.780   5.675
 2838SOL    HW2 9414   0.026   3.933   5.620
 2839SOL     OW 9415   6.137   2.895   5.952
 2839SOL    HW1 9416   6.219   2.920   6.004
 2839SOL    HW2 9417   6.056   2.912   6.008
 2840SOL     OW 9418   6.393   6.071   5.269
 2840SOL    HW1 9419   6.449   6.048   5.189
 2840SOL    HW2 9420   6.325   5.998   5.283
 2841SOL     OW 9421   5.658   3.528   3.082
 2841SOL    HW1 9422   5.701   3.506   3.170
 2841SOL    HW2 9423   5.559   3.530   3.093
 2842SOL     OW 9424   1.045   6.368   3.485
 2842SOL    HW1 9425   0.945   6.367   3.476
 2842SOL    HW2 9426   1.070   6.378   3.581
 2843SOL     OW 9427   1.357   2.950   4.191
 2843SOL    HW1 9428   1.420   2.984   4.261
 2843SOL    HW2 9429   1.279   2.907   4.236
 2844SOL     OW 9430   5.325   4.487   0.148
 2844SOL    HW1 9431   5.381   4.508   0.068
 2844SOL    HW2 9432   5.232   4.521   0.135
 2845SOL     OW 9433   3.792   1.972   1.190
 2845SOL    HW1 9434   3.851   1.894   1.214
 2845SOL    HW2 9435   3.731   1.992   1.266
 2846SOL     OW 9436   5.093   6.936   6.629
 2846SOL    HW1 9437   5.062   6.981   6.713
 2846SOL    HW2 9438   5.026   6.950   6.557
 2847SOL     OW 9439   6.143   4.887   2.566
 2847SOL    HW1 9440   6.154   4.981   2.533
 2847SOL    HW2 9441   6.233   4.849   2.588
 2848SOL     OW 9442   0.484   3.563   0.248
 2848SOL    HW1 9443   0.577   3.538   0.276
 2848SOL    HW2 9444   0.426   3.571   0.329
 2849SOL     OW 9445   5.514   0.659   1.156
 2849SOL    HW1 9446   5.512   0.663   1.056
 2849SOL    HW2 9447   5.436   0.605   1.188
 2850SOL     OW 9448   0.544   1.076   0.907
 2850SOL    HW1 9449   0.495   1.088   0.820
 2850SOL    HW2 9450   0.502   1.133   0.977
 2851SOL     OW 9451   3.761   3.556   1.899
 2851SOL    HW1 9452   3.815   3.486   1.945
 2851SOL    HW2 9453   3.742   3.632   1.961
 2852SOL     OW 9454   0.588   4.902   4.666
 2852SOL    HW1 9455   0.557   4.935   4.577
 2852SOL    HW2 9456   0.534   4.822   4.691
 2853SOL     OW 9457   0.351   4.563   6.149
 2853SOL    HW1 9458   0.327   4.607   6.236
 2853SOL    HW2 9459   0.414   4.488   6.166
 2854SOL     OW 9460   3.210   0.326   6.867
 2854SOL    HW1 9461   3.281   0.257   6.860
 2854SOL    HW2 9462   3.243   0.413   6.831
 2855SOL     OW 9463   2.408   2.106   4.384
 2855SOL    HW1 9464   2.448   2.176   4.324
 2855SOL    HW2 9465   2.474   2.032   4.395
 2856SOL     OW 9466   1.510   5.381   4.857
 2856SOL    HW1 9467   1.496   5.327   4.939
 2856SOL    HW2 9468   1.583   5.340   4.802
 2857SOL     OW 9469   0.463   4.544   0.219
 2857SOL    HW1 9470   0.401   4.525   0.143
 2857SOL    HW2 9471   0.410   4.567   0.301
 2858SOL     OW 9472   5.532   4.836   4.107
 2858SOL    HW1 9473   5.578   4.852   4.195
 2858SOL    HW2 9474   5.600   4.811   4.038
 2859SOL     OW 9475   6.793   4.890   2.018
 2859SOL    HW1 9476   6.815   4.988   2.016
 2859SOL    HW2 9477   6.694   4.878   2.028
 2860SOL     OW 9478   1.156   6.864   3.100
 2860SOL    HW1 9479   1.102   6.783   3.080
 2860SOL    HW2 9480   1.109   6.919   3.169
 2861SOL     OW 9481   5.438   3.326   5.029
 2861SOL    HW1 9482   5.389   3.242   5.003
 2861SOL    HW2 9483   5.418   3.398   4.962
 2862SOL     OW 9484   4.646   1.188   0.233
 2862SOL    HW1 9485   4.724   1.182   0.170
 2862SOL    HW2 9486   4.576   1.123   0.203
 2863SOL     OW 9487   5.536   1.733   6.191
 2863SOL    HW1 9488   5.455   1.674   6.186
 2863SOL    HW2 9489   5.525   1.798   6.266
 2864SOL     OW 9490   4.036   4.621   1.171
 2864SOL    HW1 9491   3.961   4.582   1.225
 2864SOL    HW2 9492   4.043   4.572   1.084
 2865SOL     OW 9493   5.465   5.014   6.191
 2865SOL    HW1 9494   5.412   4.937   6.227
 2865SOL    HW2 9495   5.557   5.012   6.231
 2866SOL     OW 9496   4.345   5.814   0.994
 2866SOL    HW1 9497   4.360   5.836   0.898
 2866SOL    HW2 9498   4.341   5.898   1.047
 2867SOL     OW 9499   0.621   6.373   2.875
 2867SOL    HW1 9500   0.635   6.362   2.777
 2867SOL    HW2 9501   0.615   6.283   2.918
 2868SOL     OW 9502   6.521   6.946   5.210
 2868SOL    HW1 9503   6.575   6.934   5.127
 2868SOL    HW2 9504   6.535   0.027   5.246
 2869SOL     OW 9505   5.248   4.909   5.261
 2869SOL    HW1 9506   5.192   4.829   5.282
 2869SOL    HW2 9507   5.256   4.967   5.342
 2870SOL     OW 9508   0.300   1.381   1.330
 2870SOL    HW1 9509   0.395   1.355   1.344
 2870SOL    HW2 9510   0.291   1.480   1.338
 2871SOL     OW 9511   4.639   1.086   3.340
 2871SOL    HW1 9512   4.715   1.129   3.290
 2871SOL    HW2 9513   4.583   1.033   3.277
 2872SOL     OW 9514   3.649   1.516   2.685
 2872SOL    HW1 9515   3.555   1.481   2.687
 2872SOL    HW2 9516   3.689   1.509   2.776
 2873SOL     OW 9517   0.535   6.917   2.474
 2873SOL    HW1 9518   0.594   6.989   2.510
 2873SOL    HW2 9519   0.463   6.958   2.418
 2874SOL     OW 9520   1.983   0.999   2.674
 2874SOL    HW1 9521   2.025   0.957   2.754
 2874SOL    HW2 9522   1.886   1.017   2.692
 2875SOL     OW 9523   2.574   0.650   2.736
 2875SOL    HW1 9524   2.600   0.553   2.738
 2875SOL    HW2 9525   2.558   0.678   2.641
 2876SOL     OW 9526   1.140   0.013   0.927
 2876SOL    HW1 9527   1.140   6.962   1.006
 2876SOL    HW2 9528   1.049   0.014   0.885
 2877SOL     OW 9529   1.430   3.421   6.547
 2877SOL    HW1 9530   1.440   3.322   6.542
 2877SOL    HW2 9531   1.334   3.445   6.562
 2878SOL     OW 9532   3.097   3.234   4.487
 2878SOL    HW1 9533   3.045   3.278   4.561
 2878SOL    HW2 9534   3.035   3.213   4.411
 2879SOL     OW 9535   5.970   5.758   0.666
 2879SOL    HW1 9536   5.919   5.729   0.747
 2879SOL    HW2 9537   6.059   5.711   0.663
 2880SOL     OW 9538   1.450   1.755   3.066
 2880SOL    HW1 9539   1.488   1.838   3.107
 2880SOL    HW2 9540   1.450   1.764   2.967
 2881SOL     OW 9541   4.894   4.937   6.963
 2881SOL    HW1 9542   4.947   4.936   0.037
 2881SOL    HW2 9543   4.873   5.031   6.938
 2882SOL     OW 9544   5.141   6.756   0.121
 2882SOL    HW1 9545   5.164   6.662   0.148
 2882SOL    HW2 9546   5.044   6.773   0.139
 2883SOL     OW 9547   5.194   6.451   3.110
 2883SOL    HW1 9548   5.095   6.460   3.102
 2883SOL    HW2 9549   5.237   6.537   3.083
 2884SOL     OW 9550   6.066   5.623   3.316
 2884SOL    HW1 9551   6.041   5.704   3.368
 2884SOL    HW2 9552   6.006   5.547   3.342
 2885SOL     OW 9553   0.225   3.601   3.146
 2885SOL    HW1 9554   0.197   3.506   3.136
 2885SOL    HW2 9555   0.278   3.629   3.066
 2886SOL     OW 9556   2.175   4.212   4.845
 2886SOL    HW1 9557   2.150   4.183   4.753
 2886SOL    HW2 9558   2.258   4.163   4.873
 2887SOL     OW 9559   0.009   4.748   3.007
 2887SOL    HW1 9560   6.995   4.827   3.063
 2887SOL    HW2 9561   0.023   4.778   2.912
 2888SOL     OW 9562   4.325   6.107   6.138
 2888SOL    HW1 9563   4.356   6.164   6.214
 2888SOL    HW2 9564   4.227   6.092   6.146
 2889SOL     OW 9565   4.164   5.645   4.299
 2889SOL    HW1 9566   4.135   5.718   4.361
 2889SOL    HW2 9567   4.131   5.557   4.332
 2890SOL     OW 9568   1.566   2.127   0.837
 2890SOL    HW1 9569   1.471   2.139   0.866
 2890SOL    HW2 9570   1.569   2.107   0.739
 2891SOL     OW 9571   1.672   1.480   5.417
 2891SOL    HW1 9572   1.574   1.498   5.422
 2891SOL    HW2 9573   1.690   1.415   5.343
 2892SOL     OW 9574   5.635   4.116   2.129
 2892SOL    HW1 9575   5.717   4.153   2.173
 2892SOL    HW2 9576   5.652   4.106   2.031
 2893SOL     OW 9577   6.732   5.900   5.373
 2893SOL    HW1 9578   6.767   5.991   5.348
 2893SOL    HW2 9579   6.716   5.896   5.471
 2894SOL     OW 9580   2.044   5.693   1.117
 2894SOL    HW1 9581   2.057   5.624   1.046
 2894SOL    HW2 9582   2.077   5.657   1.204
 2895SOL     OW 9583   4.846   6.616   6.542
 2895SOL    HW1 9584   4.908   6.538   6.543
 2895SOL    HW2 9585   4.851   6.662   6.453
 2896SOL     OW 9586   6.224   0.251   5.556
 2896SOL    HW1 9587   6.205   0.188   5.480
 2896SOL    HW2 9588   6.321   0.249   5.577
 2897SOL     OW 9589   3.481   6.014   3.369
 2897SOL    HW1 9590   3.546   5.939   3.359
 2897SOL    HW2 9591   3.405   5.986   3.427
 2898SOL     OW 9592   5.145   2.531   2.867
 2898SOL    HW1 9593   5.241   2.559   2.861
 2898SOL    HW2 9594   5.114   2.499   2.778
 2899SOL     OW 9595   6.609   2.847   1.074
 2899SOL    HW1 9596   6.583   2.795   0.993
 2899SOL    HW2 9597   6.624   2.784   1.150
 2900SOL     OW 9598   3.163   2.962   5.073
 2900SOL    HW1 9599   3.102   2.926   5.144
 2900SOL    HW2 9600   3.130   3.051   5.042
 2901SOL     OW 9601   1.708   3.490   1.403
 2901SOL    HW1 9602   1.773   3.551   1.357
 2901SOL    HW2 9603   1.755   3.443   1.478
 2902SOL     OW 9604   5.474   6.477   3.422
 2902SOL    HW1 9605   5.558   6.436   3.458
 2902SOL    HW2 9606   5.497   6.560   3.371
 2903SOL     OW 9607   0.884   5.532   0.753
 2903SOL    HW1 9608   0.796   5.485   0.742
 2903SOL    HW2 9609   0.878   5.625   0.717
 2904SOL     OW 9610   2.746   4.741   4.755
 2904SOL    HW1 9611   2.647   4.755   4.745
 2904SOL    HW2 9612   2.764   4.698   4.843
 2905SOL     OW 9613   1.239   4.744   1.485
 2905SOL    HW1 9614   1.176   4.822   1.476
 2905SOL    HW2 9615   1.325   4.775   1.524
 2906SOL     OW 9616   6.883   6.212   6.327
 2906SOL    HW1 9617   6.851   6.123   6.360
 2906SOL    HW2 9618   6.961   6.198   6.265
 2907SOL     OW 9619   6.547   0.676   5.621
 2907SOL    HW1 9620   6.549   0.700   5.718
 2907SOL    HW2 9621   6.479   0.731   5.573
 2908SOL     OW 9622   3.986   6.117   3.827
 2908SOL    HW1 9623   4.072   6.168   3.825
 2908SOL    HW2 9624   3.913   6.177   3.860
 2909SOL     OW 9625   0.463   6.948   1.243
 2909SOL    HW1 9626   0.401   6.900   1.181
 2909SOL    HW2 9627   0.459   6.906   1.334
 2910SOL     OW 9628   1.139   0.924   4.591
 2910SOL    HW1 9629   1.237   0.909   4.596
 2910SOL    HW2 9630   1.096   0.896   4.677
 2911SOL     OW 9631   6.283   3.691   3.907
 2911SOL    HW1 9632   6.185   3.682   3.926
 2911SOL    HW2 9633   6.328   3.604   3.923
 2912SOL     OW 9634   0.487   1.330   2.519
 2912SOL    HW1 9635   0.541   1.401   2.474
 2912SOL    HW2 9636   0.485   1.347   2.617
 2913SOL     OW 9637   0.878   6.161   4.209
 2913SOL    HW1 9638   0.803   6.095   4.216
 2913SOL    HW2 9639   0.870   6.211   4.123
 2914SOL     OW 9640   3.626   4.396   1.099
 2914SOL    HW1 9641   3.639   4.355   1.009
 2914SOL    HW2 9642   3.533   4.432   1.107
 2915SOL     OW 9643   2.166   0.909   3.751
 2915SOL    HW1 9644   2.091   0.953   3.702
 2915SOL    HW2 9645   2.178   0.953   3.841
 2916SOL     OW 9646   0.352   5.678   6.218
 2916SOL    HW1 9647   0.364   5.610   6.290
 2916SOL    HW2 9648   0.278   5.649   6.157
 2917SOL     OW 9649   2.082   0.871   3.387
 2917SOL    HW1 9650   2.155   0.854   3.321
 2917SOL    HW2 9651   2.052   0.785   3.427
 2918SOL     OW 9652   4.850   2.177   0.900
 2918SOL    HW1 9653   4.863   2.082   0.931
 2918SOL    HW2 9654   4.785   2.223   0.961
 2919SOL     OW 9655   0.611   6.243   4.902
 2919SOL    HW1 9656   0.543   6.276   4.968
 2919SOL    HW2 9657   0.586   6.276   4.810
 2920SOL     OW 9658   2.699   2.167   1.923
 2920SOL    HW1 9659   2.755   2.215   1.991
 2920SOL    HW2 9660   2.732   2.190   1.832
 2921SOL     OW 9661   0.239   5.330   3.264
 2921SOL    HW1 9662   0.263   5.288   3.352
 2921SOL    HW2 9663   0.245   5.429   3.272
 2922SOL     OW 9664   3.984   4.896   3.158
 2922SOL    HW1 9665   4.003   4.854   3.069
 2922SOL    HW2 9666   3.888   4.882   3.182
 2923SOL     OW 9667   1.469   5.147   4.043
 2923SOL    HW1 9668   1.413   5.201   3.980
 2923SOL    HW2 9669   1.412   5.078   4.086
 2924SOL     OW 9670   5.571   1.376   6.949
 2924SOL    HW1 9671   5.498   1.386   6.882
 2924SOL    HW2 9672   5.652   1.426   6.918
 2925SOL     OW 9673   5.546   6.697   4.602
 2925SOL    HW1 9674   5.502   6.786   4.598
 2925SOL    HW2 9675   5.641   6.708   4.631
 2926SOL     OW 9676   6.402   2.624   4.667
 2926SOL    HW1 9677   6.434   2.641   4.760
 2926SOL    HW2 9678   6.309   2.588   4.670
 2927SOL     OW 9679   1.100   2.397   2.403
 2927SOL    HW1 9680   1.077   2.390   2.500
 2927SOL    HW2 9681   1.016   2.393   2.348
 2928SOL     OW 9682   4.998   4.291   0.739
 2928SOL    HW1 9683   5.023   4.373   0.790
 2928SOL    HW2 9684   5.014   4.210   0.796
 2929SOL     OW 9685   1.888   2.072   3.513
 2929SOL    HW1 9686   1.948   2.114   3.445
 2929SOL    HW2 9687   1.885   1.973   3.500
 2930SOL     OW 9688   0.685   3.236   4.371
 2930SOL    HW1 9689   0.764   3.286   4.335
 2930SOL    HW2 9690   0.695   3.225   4.470
 2931SOL     OW 9691   6.144   4.118   5.573
 2931SOL    HW1 9692   6.102   4.059   5.504
 2931SOL    HW2 9693   6.116   4.213   5.557
 2932SOL     OW 9694   6.572   6.174   1.102
 2932SOL    HW1 9695   6.648   6.238   1.105
 2932SOL    HW2 9696   6.496   6.214   1.051
 2933SOL     OW 9697   0.796   0.047   0.359
 2933SOL    HW1 9698   0.864   0.118   0.339
 2933SOL    HW2 9699   0.840   6.967   0.353
 2934SOL     OW 9700   5.646   4.974   2.176
 2934SOL    HW1 9701   5.717   5.030   2.220
 2934SOL    HW2 9702   5.612   5.023   2.095
 2935SOL     OW 9703   0.728   4.071   5.726
 2935SOL    HW1 9704   0.809   4.041   5.776
 2935SOL    HW2 9705   0.701   4.002   5.660
 2936SOL     OW 9706   3.997   5.924   2.481
 2936SOL    HW1 9707   4.027   5.844   2.534
 2936SOL    HW2 9708   4.070   5.952   2.419
 2937SOL     OW 9709   6.435   3.336   3.427
 2937SOL    HW1 9710   6.374   3.259   3.412
 2937SOL    HW2 9711   6.530   3.306   3.414
 2938SOL     OW 9712   0.640   5.092   1.139
 2938SOL    HW1 9713   0.574   5.070   1.212
 2938SOL    HW2 9714   0.611   5.176   1.093
 2939SOL     OW 9715   5.907   6.281   1.544
 2939SOL    HW1 9716   5.869   6.212   1.605
 2939SOL    HW2 9717   5.861   6.275   1.455
 2940SOL     OW 9718   4.639   6.403   4.167
 2940SOL    HW1 9719   4.700   6.335   4.128
 2940SOL    HW2 9720   4.653   6.491   4.121
 2941SOL     OW 9721   2.481   4.927   3.021
 2941SOL    HW1 9722   2.424   4.913   3.102
 2941SOL    HW2 9723   2.573   4.893   3.039
 2942SOL     OW 9724   3.435   1.955   1.328
 2942SOL    HW1 9725   3.459   1.860   1.347
 2942SOL    HW2 9726   3.344   1.974   1.365
 2943SOL     OW 9727   0.736   3.613   3.648
 2943SOL    HW1 9728   0.729   3.567   3.736
 2943SOL    HW2 9729   0.652   3.600   3.596
 2944SOL     OW 9730   0.564   5.620   3.085
 2944SOL    HW1 9731   0.644   5.619   3.146
 2944SOL    HW2 9732   0.530   5.527   3.074
 2945SOL     OW 9733   5.725   3.958   0.583
 2945SOL    HW1 9734   5.798   4.025   0.580
 2945SOL    HW2 9735   5.681   3.952   0.494
 2946SOL     OW 9736   3.182   4.110   4.260
 2946SOL    HW1 9737   3.105   4.070   4.210
 2946SOL    HW2 9738   3.267   4.088   4.212
 2947SOL     OW 9739   6.353   5.611   0.067
 2947SOL    HW1 9740   6.370   5.703   0.103
 2947SOL    HW2 9741   6.307   5.619   6.989
 2948SOL     OW 9742   6.402   4.220   0.767
 2948SOL    HW1 9743   6.489   4.202   0.813
 2948SOL    HW2 9744   6.357   4.297   0.812
 2949SOL     OW 9745   1.768   6.306   0.819
 2949SOL    HW1 9746   1.848   6.254   0.790
 2949SOL    HW2 9747   1.756   6.297   0.918
 2950SOL     OW 9748   5.533   5.267   2.195
 2950SOL    HW1 9749   5.598   5.335   2.229
 2950SOL    HW2 9750   5.495   5.217   2.272
 2951SOL     OW 9751   0.558   2.413   1.186
 2951SOL    HW1 9752   0.581   2.361   1.269
 2951SOL    HW2 9753   0.625   2.391   1.115
 2952SOL     OW 9754   0.551   1.443   4.342
 2952SOL    HW1 9755   0.512   1.532   4.365
 2952SOL    HW2 9756   0.555   1.386   4.424
 2953SOL     OW 9757   1.734   6.123   3.139
 2953SOL    HW1 9758   1.780   6.116   3.051
 2953SOL    HW2 9759   1.693   6.213   3.148
 2954SOL     OW 9760   1.074   4.246   6.398
 2954SOL    HW1 9761   1.057   4.197   6.313
 2954SOL    HW2 9762   1.171   4.236   6.424
 2955SOL     OW 9763   2.070   4.532   6.382
 2955SOL    HW1 9764   1.983   4.560   6.341
 2955SOL    HW2 9765   2.111   4.459   6.328
 2956SOL     OW 9766   5.469   3.954   4.590
 2956SOL    HW1 9767   5.377   3.954   4.552
 2956SOL    HW2 9768   5.518   4.036   4.560
 2957SOL     OW 9769   1.414   4.961   2.853
 2957SOL    HW1 9770   1.459   4.894   2.794
 2957SOL    HW2 9771   1.316   4.963   2.833
 2958SOL     OW 9772   1.798   4.295   1.179
 2958SOL    HW1 9773   1.779   4.196   1.182
 2958SOL    HW2 9774   1.723   4.341   1.132
 2959SOL     OW 9775   0.101   4.340   3.947
 2959SOL    HW1 9776   0.156   4.358   3.864
 2959SOL    HW2 9777   0.013   4.301   3.921
 2960SOL     OW 9778   4.980   6.085   0.894
 2960SOL    HW1 9779   4.972   5.990   0.866
 2960SOL    HW2 9780   4.920   6.102   0.972
 2961SOL     OW 9781   5.593   2.354   1.402
 2961SOL    HW1 9782   5.633   2.284   1.461
 2961SOL    HW2 9783   5.663   2.386   1.337
 2962SOL     OW 9784   0.107   0.057   3.782
 2962SOL    HW1 9785   0.201   0.092   3.788
 2962SOL    HW2 9786   0.063   0.063   3.871
 2963SOL     OW 9787   2.400   2.157   5.613
 2963SOL    HW1 9788   2.395   2.064   5.650
 2963SOL    HW2 9789   2.322   2.173   5.553
 2964SOL     OW 9790   1.057   0.797   5.967
 2964SOL    HW1 9791   0.989   0.724   5.973
 2964SOL    HW2 9792   1.092   0.803   5.873
 2965SOL     OW 9793   6.095   0.537   6.450
 2965SOL    HW1 9794   6.037   0.611   6.484
 2965SOL    HW2 9795   6.184   0.542   6.495
 2966SOL     OW 9796   3.348   6.089   2.646
 2966SOL    HW1 9797   3.367   6.035   2.564
 2966SOL    HW2 9798   3.262   6.139   2.634
 2967SOL     OW 9799   6.079   6.969   4.947
 2967SOL    HW1 9800   6.161   6.951   5.002
 2967SOL    HW2 9801   6.102   0.020   4.872
 2968SOL     OW 9802   1.391   4.272   1.687
 2968SOL    HW1 9803   1.433   4.190   1.649
 2968SOL    HW2 9804   1.436   4.296   1.773
 2969SOL     OW 9805   4.625   2.600   4.823
 2969SOL    HW1 9806   4.620   2.641   4.914
 2969SOL    HW2 9807   4.590   2.506   4.826
 2970SOL     OW 9808   2.733   2.309   5.864
 2970SOL    HW1 9809   2.750   2.324   5.961
 2970SOL    HW2 9810   2.797   2.241   5.829
 2971SOL     OW 9811   4.367   3.687   6.070
 2971SOL    HW1 9812   4.346   3.699   6.167
 2971SOL    HW2 9813   4.287   3.712   6.015
 2972SOL     OW 9814   0.610   6.145   6.078
 2972SOL    HW1 9815   0.617   6.244   6.092
 2972SOL    HW2 9816   0.525   6.112   6.119
 2973SOL     OW 9817   5.745   0.566   3.824
 2973SOL    HW1 9818   5.814   0.620   3.776
 2973SOL    HW2 9819   5.783   0.476   3.847
 2974SOL     OW 9820   5.252   6.207   2.715
 2974SOL    HW1 9821   5.339   6.235   2.756
 2974SOL    HW2 9822   5.205   6.145   2.778
 2975SOL     OW 9823   0.033   3.721   4.707
 2975SOL    HW1 9824   0.023   3.690   4.801
 2975SOL    HW2 9825   6.954   3.725   4.663
 2976SOL     OW 9826   3.832   0.214   1.335
 2976SOL    HW1 9827   3.906   0.280   1.327
 2976SOL    HW2 9828   3.823   0.163   1.249
 2977SOL     OW 9829   1.447   1.051   2.421
 2977SOL    HW1 9830   1.516   1.046   2.348
 2977SOL    HW2 9831   1.382   0.976   2.411
 2978SOL     OW 9832   3.867   5.788   0.212
 2978SOL    HW1 9833   3.789   5.749   0.260
 2978SOL    HW2 9834   3.849   5.788   0.113
 2979SOL     OW 9835   2.777   1.438   5.663
 2979SOL    HW1 9836   2.800   1.535   5.652
 2979SOL    HW2 9837   2.681   1.424   5.639
 2980SOL     OW 9838   3.417   2.882   3.937
 2980SOL    HW1 9839   3.347   2.844   3.878
 2980SOL    HW2 9840   3.388   2.875   4.033
 2981SOL     OW 9841   2.865   2.000   1.658
 2981SOL    HW1 9842   2.874   2.098   1.678
 2981SOL    HW2 9843   2.849   1.988   1.560
 2982SOL     OW 9844   1.453   0.624   1.786
 2982SOL    HW1 9845   1.386   0.599   1.716
 2982SOL    HW2 9846   1.420   0.594   1.876
 2983SOL     OW 9847   6.736   2.668   6.568
 2983SOL    HW1 9848   6.725   2.663   6.468
 2983SOL    HW2 9849   6.719   2.579   6.608
 2984SOL     OW 9850   0.518   6.650   0.961
 2984SOL    HW1 9851   0.509   6.746   0.938
 2984SOL    HW2 9852   0.455   6.627   1.035
 2985SOL     OW 9853   6.624   0.001   5.815
 2985SOL    HW1 9854   6.533   6.972   5.830
 2985SOL    HW2 9855   6.684   6.942   5.776
 2986SOL     OW 9856   4.088   3.307   2.879
 2986SOL    HW1 9857   4.034   3.243   2.934
 2986SOL    HW2 9858   4.098   3.270   2.787
 2987SOL     OW 9859   2.429   5.928   5.264
 2987SOL    HW1 9860   2.494   5.939   5.338
 2987SOL    HW2 9861   2.353   5.870   5.294
 2988SOL     OW 9862   0.906   1.841   6.541
 2988SOL    HW1 9863   0.989   1.795   6.511
 2988SOL    HW2 9864   0.840   1.845   6.465
 2989SOL     OW 9865   5.631   3.792   5.748
 2989SOL    HW1 9866   5.686   3.856   5.802
 2989SOL    HW2 9867   5.604   3.835   5.662
 2990SOL     OW 9868   4.679   0.776   5.085
 2990SOL    HW1 9869   4.740   0.703   5.117
 2990SOL    HW2 9870   4.726   0.828   5.013
 2991SOL     OW 9871   6.475   2.928   0.195
 2991SOL    HW1 9872   6.538   2.966   0.127
 2991SOL    HW2 9873   6.384   2.921   0.156
 2992SOL     OW 9874   1.655   3.987   5.304
 2992SOL    HW1 9875   1.622   3.944   5.220
 2992SOL    HW2 9876   1.621   3.935   5.383
 2993SOL     OW 9877   3.471   4.694   6.696
 2993SOL    HW1 9878   3.494   4.661   6.604
 2993SOL    HW2 9879   3.382   4.739   6.694
 2994SOL     OW 9880   2.707   4.946   4.312
 2994SOL    HW1 9881   2.673   4.907   4.227
 2994SOL    HW2 9882   2.731   4.873   4.375
 2995SOL     OW 9883   4.897   0.020   1.902
 2995SOL    HW1 9884   4.971   0.086   1.894
 2995SOL    HW2 9885   4.931   6.939   1.883
 2996SOL     OW 9886   6.991   0.620   4.074
 2996SOL    HW1 9887   6.974   0.704   4.022
 2996SOL    HW2 9888   6.908   0.596   4.125
 2997SOL     OW 9889   4.623   6.106   4.374
 2997SOL    HW1 9890   4.718   6.121   4.403
 2997SOL    HW2 9891   4.569   6.188   4.393
 2998SOL     OW 9892   2.446   0.116   2.193
 2998SOL    HW1 9893   2.514   0.153   2.131
 2998SOL    HW2 9894   2.488   0.046   2.251
 2999SOL     OW 9895   1.858   4.895   0.112
 2999SOL    HW1 9896   1.937   4.861   0.062
 2999SOL    HW2 9897   1.840   4.836   0.191
 3000SOL     OW 9898   1.670   4.304   6.330
 3000SOL    HW1 9899   1.702   4.322   6.423
 3000SOL    HW2 9900   1.726   4.231   6.289
 3001SOL     OW 9901   3.947   0.452   6.415
 3001SOL    HW1 9902   3.989   0.483   6.329
 3001SOL    HW2 9903   3.850   0.433   6.400
 3002SOL     OW 9904   1.246   2.101   1.819
 3002SOL    HW1 9905   1.254   2.004   1.797
 3002SOL    HW2 9906   1.303   2.122   1.898
 3003SOL     OW 9907   1.283   6.192   0.703
 3003SOL    HW1 9908   1.363   6.252   0.698
 3003SOL    HW2 9909   1.293   6.117   0.638
 3004SOL     OW 9910   2.732   0.193   4.420
 3004SOL    HW1 9911   2.656   0.147   4.375
 3004SOL    HW2 9912   2.721   0.186   4.519
 3005SOL     OW 9913   2.605   2.222   0.296
 3005SOL    HW1 9914   2.515   2.231   0.252
 3005SOL    HW2 9915   2.602   2.148   0.364
 3006SOL     OW 9916   5.500   1.057   5.906
 3006SOL    HW1 9917   5.478   0.983   5.842
 3006SOL    HW2 9918   5.434   1.132   5.895
 3007SOL     OW 9919   6.351   5.481   5.858
 3007SOL    HW1 9920   6.265   5.430   5.847
 3007SOL    HW2 9921   6.386   5.506   5.767
 3008SOL     OW 9922   5.241   4.171   5.431
 3008SOL    HW1 9923   5.283   4.175   5.340
 3008SOL    HW2 9924   5.191   4.256   5.448
 3009SOL     OW 9925   5.401   3.877   1.885
 3009SOL    HW1 9926   5.328   3.880   1.954
 3009SOL    HW2 9927   5.470   3.946   1.907
 3010SOL     OW 9928   4.288   4.783   1.596
 3010SOL    HW1 9929   4.240   4.711   1.547
 3010SOL    HW2 9930   4.283   4.765   1.695
 3011SOL     OW 9931   6.152   6.735   0.153
 3011SOL    HW1 9932   6.090   6.805   0.118
 3011SOL    HW2 9933   6.132   6.647   0.109
 3012SOL     OW 9934   2.563   1.481   4.664
 3012SOL    HW1 9935   2.492   1.479   4.593
 3012SOL    HW2 9936   2.621   1.401   4.655
 3013SOL     OW 9937   0.469   5.152   5.392
 3013SOL    HW1 9938   0.423   5.070   5.425
 3013SOL    HW2 9939   0.440   5.231   5.447
 3014SOL     OW 9940   3.933   0.234   0.088
 3014SOL    HW1 9941   3.970   0.322   0.116
 3014SOL    HW2 9942   3.958   0.163   0.154
 3015SOL     OW 9943   2.112   6.572   6.234
 3015SOL    HW1 9944   2.052   6.615   6.166
 3015SOL    HW2 9945   2.059   6.553   6.317
 3016SOL     OW 9946   3.393   0.925   4.370
 3016SOL    HW1 9947   3.390   0.858   4.444
 3016SOL    HW2 9948   3.472   0.906   4.312
 3017SOL     OW 9949   1.370   5.997   0.445
 3017SOL    HW1 9950   1.465   6.012   0.471
 3017SOL    HW2 9951   1.359   6.015   0.347
 3018SOL     OW 9952   2.452   2.281   1.837
 3018SOL    HW1 9953   2.438   2.260   1.741
 3018SOL    HW2 9954   2.506   2.208   1.880
 3019SOL     OW 9955   1.297   0.720   5.406
 3019SOL    HW1 9956   1.262   0.628   5.422
 3019SOL    HW2 9957   1.288   0.774   5.489
 3020SOL     OW 9958   4.981   4.349   6.643
 3020SOL    HW1 9959   4.991   4.330   6.545
 3020SOL    HW2 9960   4.940   4.270   6.689
 3021SOL     OW 9961   4.413   6.489   4.587
 3021SOL    HW1 9962   4.370   6.459   4.503
 3021SOL    HW2 9963   4.347   6.541   4.642
 3022SOL     OW 9964   4.241   6.962   3.203
 3022SOL    HW1 9965   4.185   6.962   3.286
 3022SOL    HW2 9966   4.216   0.029   3.145
 3023SOL     OW 9967   5.270   4.512   4.952
 3023SOL    HW1 9968   5.204   4.587   4.950
 3023SOL    HW2 9969   5.246   4.445   4.882
 3024SOL     OW 9970   6.285   1.328   0.010
 3024SOL    HW1 9971   6.358   1.342   0.078
 3024SOL    HW2 9972   6.304   1.245   6.969
 3025SOL     OW 9973   4.171   5.125   0.761
 3025SOL    HW1 9974   4.202   5.058   0.694
 3025SOL    HW2 9975   4.184   5.087   0.853
 3026SOL     OW 9976   0.353   0.299   2.401
 3026SOL    HW1 9977   0.345   0.364   2.326
 3026SOL    HW2 9978   0.357   0.206   2.364
 3027SOL     OW 9979   4.432   0.624   0.749
 3027SOL    HW1 9980   4.353   0.678   0.720
 3027SOL    HW2 9981   4.405   0.563   0.824
 3028SOL     OW 9982   3.955   3.252   4.262
 3028SOL    HW1 9983   4.034   3.242   4.202
 3028SOL    HW2 9984   3.944   3.170   4.318
 3029SOL     OW 9985   0.149   2.558   4.303
 3029SOL    HW1 9986   0.232   2.504   4.286
 3029SOL    HW2 9987   0.087   2.506   4.363
 3030SOL     OW 9988   0.378   3.485   6.410
 3030SOL    HW1 9989   0.364   3.530   6.322
 3030SOL    HW2 9990   0.457   3.424   6.404
 3031SOL     OW 9991   0.310   4.534   6.969
 3031SOL    HW1 9992   0.316   4.435   6.956
 3031SOL    HW2 9993   0.341   4.580   6.886
 3032SOL     OW 9994   3.461   6.917   4.148
 3032SOL    HW1 9995   3.455   6.912   4.248
 3032SOL    HW2 9996   3.555   6.903   4.119
 3033SOL     OW 9997   2.210   0.905   6.471
 3033SOL    HW1 9998   2.287   0.866   6.522
 3033SOL    HW2 9999   2.236   0.994   6.435
 3034SOL     OW10000   5.576   3.200   3.351
 3034SOL    HW110001   5.587   3.274   3.418
 3034SOL    HW210002   5.504   3.225   3.287
 3035SOL     OW10003   6.417   4.312   6.312
 3035SOL    HW110004   6.491   4.249   6.289
 3035SOL    HW210005   6.444   4.369   6.389
 3036SOL     OW10006   3.237   2.345   5.940
 3036SOL    HW110007   3.328   2.383   5.924
 3036SOL    HW210008   3.206   2.296   5.858
 3037SOL     OW10009   0.459   5.353   5.946
 3037SOL    HW110010   0.373   5.396   5.976
 3037SOL    HW210011   0.523   5.424   5.917
 3038SOL     OW10012   5.772   4.571   5.380
 3038SOL    HW110013   5.802   4.665   5.367
 3038SOL    HW210014   5.674   4.569   5.399
 3039SOL     OW10015   6.173   3.207   6.303
 3039SOL    HW110016   6.202   3.298   6.333
 3039SOL    HW210017   6.212   3.138   6.363
 3040SOL     OW10018   4.298   6.218   6.452
 3040SOL    HW110019   4.284   6.263   6.540
 3040SOL    HW210020   4.268   6.278   6.378
 3041SOL     OW10021   2.194   5.906   6.539
 3041SOL    HW110022   2.256   5.843   6.493
 3041SOL    HW210023   2.100   5.875   6.526
 3042SOL     OW10024   0.303   5.469   3.625
 3042SOL    HW110025   0.207   5.494   3.611
 3042SOL    HW210026   0.313   5.370   3.621
 3043SOL     OW10027   2.383   3.807   1.392
 3043SOL    HW110028   2.383   3.906   1.408
 3043SOL    HW210029   2.477   3.774   1.389
 3044SOL     OW10030   3.816   3.741   4.768
 3044SOL    HW110031   3.778   3.717   4.678
 3044SOL    HW210032   3.914   3.757   4.760
 3045SOL     OW10033   5.877   0.508   3.140
 3045SOL    HW110034   5.856   0.414   3.111
 3045SOL    HW210035   5.798   0.547   3.186
 3046SOL     OW10036   6.555   5.779   1.389
 3046SOL    HW110037   6.468   5.739   1.359
 3046SOL    HW210038   6.601   5.822   1.312
 3047SOL     OW10039   4.760   1.443   3.618
 3047SOL    HW110040   4.691   1.419   3.549
 3047SOL    HW210041   4.824   1.508   3.579
 3048SOL     OW10042   4.431   5.382   1.086
 3048SOL    HW110043   4.388   5.292   1.098
 3048SOL    HW210044   4.473   5.387   0.996
 3049SOL     OW10045   0.207   0.885   1.504
 3049SOL    HW110046   0.239   0.980   1.501
 3049SOL    HW210047   0.286   0.824   1.507
 3050SOL     OW10048   4.071   2.278   5.983
 3050SOL    HW110049   4.073   2.230   6.071
 3050SOL    HW210050   4.021   2.223   5.916
 3051SOL     OW10051   1.878   4.530   6.201
 3051SOL    HW110052   1.872   4.629   6.188
 3051SOL    HW210053   1.792   4.495   6.236
 3052SOL     OW10054   6.005   6.293   4.115
 3052SOL    HW110055   5.959   6.221   4.063
 3052SOL    HW210056   6.094   6.312   4.073
 3053SOL     OW10057   0.719   5.708   6.191
 3053SOL    HW110058   0.667   5.767   6.130
 3053SOL    HW210059   0.817   5.723   6.177
 3054SOL     OW10060   6.152   6.368   3.517
 3054SOL    HW110061   6.214   6.444   3.537
 3054SOL    HW210062   6.059   6.403   3.507
 3055SOL     OW10063   5.076   6.447   0.588
 3055SOL    HW110064   4.977   6.450   0.576
 3055SOL    HW210065   5.107   6.530   0.634
 3056SOL     OW10066   4.211   1.935   0.524
 3056SOL    HW110067   4.154   1.854   0.512
 3056SOL    HW210068   4.194   2.000   0.449
 3057SOL     OW10069   6.955   3.052   3.464
 3057SOL    HW110070   6.861   3.036   3.496
 3057SOL    HW210071   6.955   3.067   3.366
 3058SOL     OW10072   6.148   4.114   5.846
 3058SOL    HW110073   6.200   4.041   5.891
 3058SOL    HW210074   6.186   4.130   5.755
 3059SOL     OW10075   1.644   2.528   3.608
 3059SOL    HW110076   1.700   2.609   3.628
 3059SOL    HW210077   1.566   2.554   3.551
 3060SOL     OW10078   5.682   3.539   3.801
 3060SOL    HW110079   5.653   3.443   3.808
 3060SOL    HW210080   5.684   3.566   3.704
 3061SOL     OW10081   5.731   6.477   2.641
 3061SOL    HW110082   5.816   6.447   2.684
 3061SOL    HW210083   5.753   6.532   2.560
 3062SOL     OW10084   3.507   5.252   0.373
 3062SOL    HW110085   3.559   5.214   0.297
 3062SOL    HW210086   3.544   5.219   0.459
 3063SOL     OW10087   6.513   5.342   0.414
 3063SOL    HW110088   6.581   5.297   0.472
 3063SOL    HW210089   6.438   5.278   0.395
 3064SOL     OW10090   4.706   1.198   5.914
 3064SOL    HW110091   4.777   1.186   5.845
 3064SOL    HW210092   4.740   1.254   5.989
 3065SOL     OW10093   5.121   0.595   6.623
 3065SOL    HW110094   5.082   0.622   6.712
 3065SOL    HW210095   5.185   0.520   6.636
 3066SOL     OW10096   5.460   6.667   5.855
 3066SOL    HW110097   5.451   6.670   5.954
 3066SOL    HW210098   5.386   6.720   5.813
 3067SOL     OW10099   1.752   2.111   4.676
 3067SOL    HW110100   1.677   2.102   4.742
 3067SOL    HW210101   1.840   2.100   4.724
 3068SOL     OW10102   5.827   6.955   0.419
 3068SOL    HW110103   5.851   6.866   0.457
 3068SOL    HW210104   5.865   0.017   0.477
 3069SOL     OW10105   5.708   6.098   3.770
 3069SOL    HW110106   5.654   6.014   3.763
 3069SOL    HW210107   5.649   6.174   3.796
 3070SOL     OW10108   2.862   1.320   1.246
 3070SOL    HW110109   2.910   1.407   1.259
 3070SOL    HW210110   2.764   1.335   1.254
 3071SOL     OW10111   5.556   4.577   5.002
 3071SOL    HW110112   5.462   4.571   5.035
 3071SOL    HW210113   5.611   4.505   5.043
 3072SOL     OW10114   1.711   6.445   5.006
 3072SOL    HW110115   1.798   6.456   5.053
 3072SOL    HW210116   1.696   6.348   4.986
 3073SOL     OW10117   0.117   5.127   3.081
 3073SOL    HW110118   0.186   5.194   3.108
 3073SOL    HW210119   0.155   5.034   3.090
 3074SOL     OW10120   3.201   3.238   2.072
 3074SOL    HW110121   3.234   3.153   2.113
 3074SOL    HW210122   3.106   3.227   2.044
 3075SOL     OW10123   3.878   4.913   0.344
 3075SOL    HW110124   3.910   4.978   0.275
 3075SOL    HW210125   3.785   4.883   0.320
 3076SOL     OW10126   1.804   1.426   4.052
 3076SOL    HW110127   1.836   1.466   3.966
 3076SOL    HW210128   1.733   1.484   4.092
 3077SOL     OW10129   0.171   3.849   2.864
 3077SOL    HW110130   0.238   3.776   2.855
 3077SOL    HW210131   0.082   3.810   2.886
 3078SOL     OW10132   6.370   4.355   1.101
 3078SOL    HW110133   6.315   4.368   1.018
 3078SOL    HW210134   6.425   4.272   1.092
 3079SOL     OW10135   1.021   3.971   3.282
 3079SOL    HW110136   1.116   3.944   3.265
 3079SOL    HW210137   0.960   3.895   3.257
 3080SOL     OW10138   3.871   4.714   1.769
 3080SOL    HW110139   3.915   4.625   1.764
 3080SOL    HW210140   3.773   4.702   1.787
 3081SOL     OW10141   1.828   2.662   6.074
 3081SOL    HW110142   1.762   2.653   6.148
 3081SOL    HW210143   1.784   2.641   5.987
 3082SOL     OW10144   5.874   3.950   4.819
 3082SOL    HW110145   5.910   4.019   4.882
 3082SOL    HW210146   5.906   3.968   4.727
 3083SOL     OW10147   3.807   6.098   1.288
 3083SOL    HW110148   3.743   6.105   1.211
 3083SOL    HW210149   3.859   6.012   1.281
 3084SOL     OW10150   6.576   5.240   3.962
 3084SOL    HW110151   6.643   5.310   3.986
 3084SOL    HW210152   6.578   5.168   4.031
 3085SOL     OW10153   6.671   5.095   6.394
 3085SOL    HW110154   6.671   5.053   6.304
 3085SOL    HW210155   6.689   5.193   6.385
 3086SOL     OW10156   6.324   6.069   6.334
 3086SOL    HW110157   6.266   6.140   6.295
 3086SOL    HW210158   6.410   6.109   6.366
 3087SOL     OW10159   3.073   0.265   1.663
 3087SOL    HW110160   3.110   0.356   1.645
 3087SOL    HW210161   2.974   0.267   1.655
 3088SOL     OW10162   2.252   3.192   5.293
 3088SOL    HW110163   2.235   3.174   5.390
 3088SOL    HW210164   2.341   3.154   5.267
 3089SOL     OW10165   3.768   6.456   0.039
 3089SOL    HW110166   3.826   6.409   6.983
 3089SOL    HW210167   3.793   6.426   0.131
 3090SOL     OW10168   1.327   2.255   2.479
 3090SOL    HW110169   1.357   2.296   2.565
 3090SOL    HW210170   1.250   2.306   2.443
 3091SOL     OW10171   1.263   2.665   6.653
 3091SOL    HW110172   1.342   2.691   6.709
 3091SOL    HW210173   1.183   2.719   6.680
 3092SOL     OW10174   4.650   1.682   3.417
 3092SOL    HW110175   4.589   1.669   3.495
 3092SOL    HW210176   4.742   1.652   3.442
 3093SOL     OW10177   6.260   4.973   6.993
 3093SOL    HW110178   6.304   4.920   0.055
 3093SOL    HW210179   6.167   4.996   0.011
 3094SOL     OW10180   2.610   0.917   5.767
 3094SOL    HW110181   2.702   0.905   5.730
 3094SOL    HW210182   2.575   0.830   5.800
 3095SOL     OW10183   1.906   3.413   5.845
 3095SOL    HW110184   1.943   3.503   5.866
 3095SOL    HW210185   1.812   3.407   5.879
 3096SOL     OW10186   1.734   3.022   3.850
 3096SOL    HW110187   1.641   3.028   3.885
 3096SOL    HW210188   1.744   3.084   3.772
 3097SOL     OW10189   5.508   2.642   5.814
 3097SOL    HW110190   5.522   2.611   5.908
 3097SOL    HW210191   5.427   2.700   5.809
 3098SOL     OW10192   1.544   3.343   2.369
 3098SOL    HW110193   1.521   3.307   2.278
 3098SOL    HW210194   1.576   3.437   2.361
 3099SOL     OW10195   0.591   6.944   5.734
 3099SOL    HW110196   0.680   6.944   5.689
 3099SOL    HW210197   0.520   6.967   5.668
 3100SOL     OW10198   6.140   4.217   2.686
 3100SOL    HW110199   6.051   4.182   2.716
 3100SOL    HW210200   6.203   4.140   2.674
 3101SOL     OW10201   5.493   0.979   4.380
 3101SOL    HW110202   5.554   0.940   4.311
 3101SOL    HW210203   5.506   1.078   4.384
 3102SOL     OW10204   6.049   3.848   2.918
 3102SOL    HW110205   6.064   3.806   2.828
 3102SOL    HW210206   5.953   3.836   2.944
 3103SOL     OW10207   1.030   1.062   2.471
 3103SOL    HW110208   0.958   1.119   2.431
 3103SOL    HW210209   1.098   1.121   2.514
 3104SOL     OW10210   5.643   2.087   6.194
 3104SOL    HW110211   5.567   2.124   6.141
 3104SOL    HW210212   5.609   2.046   6.278
 3105SOL     OW10213   5.577   4.058   0.770
 3105SOL    HW110214   5.637   4.038   0.848
 3105SOL    HW210215   5.623   4.030   0.686
 3106SOL     OW10216   5.521   1.782   5.522
 3106SOL    HW110217   5.504   1.697   5.572
 3106SOL    HW210218   5.600   1.829   5.562
 3107SOL     OW10219   4.190   1.943   4.845
 3107SOL    HW110220   4.140   1.885   4.910
 3107SOL    HW210221   4.190   1.899   4.755
 3108SOL     OW10222   1.965   4.348   3.682
 3108SOL    HW110223   1.978   4.412   3.605
 3108SOL    HW210224   1.970   4.254   3.648
 3109SOL     OW10225   0.334   5.197   3.547
 3109SOL    HW110226   0.359   5.131   3.477
 3109SOL    HW210227   0.263   5.158   3.606
 3110SOL     OW10228   1.312   5.721   4.460
 3110SOL    HW110229   1.396   5.745   4.411
 3110SOL    HW210230   1.317   5.626   4.489
 3111SOL     OW10231   6.718   4.087   4.006
 3111SOL    HW110232   6.689   4.032   4.085
 3111SOL    HW210233   6.638   4.112   3.952
 3112SOL     OW10234   4.381   0.465   1.127
 3112SOL    HW110235   4.474   0.497   1.150
 3112SOL    HW210236   4.365   0.376   1.168
 3113SOL     OW10237   1.406   6.626   3.968
 3113SOL    HW110238   1.342   6.552   3.953
 3113SOL    HW210239   1.461   6.639   3.886
 3114SOL     OW10240   4.551   6.160   5.530
 3114SOL    HW110241   4.454   6.148   5.548
 3114SOL    HW210242   4.577   6.107   5.449
 3115SOL     OW10243   4.872   6.263   4.658
 3115SOL    HW110244   4.801   6.320   4.617
 3115SOL    HW210245   4.888   6.183   4.600
 3116SOL     OW10246   1.009   2.317   6.793
 3116SOL    HW110247   1.042   2.359   6.708
 3116SOL    HW210248   0.956   2.235   6.771
 3117SOL     OW10249   4.514   0.065   1.215
 3117SOL    HW110250   4.486   6.995   1.266
 3117SOL    HW210251   4.611   0.058   1.191
 3118SOL     OW10252   0.984   2.045   3.272
 3118SOL    HW110253   1.054   2.085   3.213
 3118SOL    HW210254   0.910   2.007   3.217
 3119SOL     OW10255   4.416   6.553   3.951
 3119SOL    HW110256   4.501   6.575   3.999
 3119SOL    HW210257   4.395   6.456   3.963
 3120SOL     OW10258   3.453   6.140   6.836
 3120SOL    HW110259   3.358   6.134   6.866
 3120SOL    HW210260   3.503   6.204   6.894
 3121SOL     OW10261   3.598   2.082   3.369
 3121SOL    HW110262   3.696   2.104   3.369
 3121SOL    HW210263   3.561   2.094   3.461
 3122SOL     OW10264   5.693   3.568   6.231
 3122SOL    HW110265   5.643   3.483   6.217
 3122SOL    HW210266   5.780   3.564   6.181
 3123SOL     OW10267   1.945   2.914   2.459
 3123SOL    HW110268   1.991   2.913   2.370
 3123SOL    HW210269   1.888   2.996   2.466
 3124SOL     OW10270   4.801   6.556   6.017
 3124SOL    HW110271   4.895   6.578   5.990
 3124SOL    HW210272   4.756   6.508   5.941
 3125SOL     OW10273   1.684   1.941   5.128
 3125SOL    HW110274   1.625   1.861   5.113
 3125SOL    HW210275   1.712   1.944   5.224
 3126SOL     OW10276   4.670   4.455   5.356
 3126SOL    HW110277   4.607   4.384   5.326
 3126SOL    HW210278   4.627   4.545   5.344
 3127SOL     OW10279   6.329   2.349   5.811
 3127SOL    HW110280   6.330   2.336   5.910
 3127SOL    HW210281   6.263   2.421   5.788
 3128SOL     OW10282   4.027   1.271   1.035
 3128SOL    HW110283   4.007   1.359   0.992
 3128SOL    HW210284   3.992   1.271   1.128
 3129SOL     OW10285   4.404   4.673   0.076
 3129SOL    HW110286   4.407   4.770   0.101
 3129SOL    HW210287   4.493   4.631   0.093
 3130SOL     OW10288   6.581   6.109   2.537
 3130SOL    HW110289   6.634   6.150   2.463
 3130SOL    HW210290   6.620   6.020   2.562
 3131SOL     OW10291   6.658   2.331   3.064
 3131SOL    HW110292   6.689   2.274   2.988
 3131SOL    HW210293   6.712   2.310   3.146
 3132SOL     OW10294   4.343   4.014   6.537
 3132SOL    HW110295   4.345   3.921   6.500
 3132SOL    HW210296   4.274   4.019   6.610
 3133SOL     OW10297   5.928   6.100   3.956
 3133SOL    HW110298   5.860   6.129   3.888
 3133SOL    HW210299   5.994   6.040   3.911
 3134SOL     OW10300   4.801   4.881   2.825
 3134SOL    HW110301   4.826   4.804   2.766
 3134SOL    HW210302   4.857   4.879   2.908
 3135SOL     OW10303   3.562   0.928   6.524
 3135SOL    HW110304   3.565   1.011   6.579
 3135SOL    HW210305   3.536   0.951   6.430
 3136SOL     OW10306   6.431   6.505   2.137
 3136SOL    HW110307   6.365   6.573   2.172
 3136SOL    HW210308   6.399   6.413   2.160
 3137SOL     OW10309   4.797   4.561   6.826
 3137SOL    HW110310   4.738   4.481   6.835
 3137SOL    HW210311   4.856   4.551   6.746
 3138SOL     OW10312   0.023   6.645   4.710
 3138SOL    HW110313   0.048   6.554   4.744
 3138SOL    HW210314   0.030   6.645   4.610
 3139SOL     OW10315   1.271   4.632   2.019
 3139SOL    HW110316   1.233   4.677   2.100
 3139SOL    HW210317   1.213   4.652   1.940
 3140SOL     OW10318   5.043   6.173   0.013
 3140SOL    HW110319   5.002   6.108   0.076
 3140SOL    HW210320   5.118   6.129   6.974
 3141SOL     OW10321   5.764   1.862   0.434
 3141SOL    HW110322   5.767   1.862   0.334
 3141SOL    HW210323   5.670   1.872   0.465
 3142SOL     OW10324   4.468   1.147   4.154
 3142SOL    HW110325   4.458   1.241   4.186
 3142SOL    HW210326   4.525   1.096   4.219
 3143SOL     OW10327   6.550   1.569   0.828
 3143SOL    HW110328   6.458   1.550   0.794
 3143SOL    HW210329   6.589   1.485   0.865
 3144SOL     OW10330   3.954   4.806   6.814
 3144SOL    HW110331   3.908   4.766   6.894
 3144SOL    HW210332   4.028   4.746   6.785
 3145SOL     OW10333   0.998   5.808   5.280
 3145SOL    HW110334   0.950   5.795   5.194
 3145SOL    HW210335   1.092   5.776   5.271
 3146SOL     OW10336   6.295   1.890   4.570
 3146SOL    HW110337   6.242   1.972   4.548
 3146SOL    HW210338   6.389   1.902   4.539
 3147SOL     OW10339   4.546   6.323   0.777
 3147SOL    HW110340   4.630   6.269   0.787
 3147SOL    HW210341   4.486   6.306   0.854
 3148SOL     OW10342   5.786   4.806   0.299
 3148SOL    HW110343   5.849   4.834   0.371
 3148SOL    HW210344   5.693   4.803   0.334
 3149SOL     OW10345   3.944   3.273   7.000
 3149SOL    HW110346   3.984   3.327   0.063
 3149SOL    HW210347   3.852   3.307   6.980
 3150SOL     OW10348   0.451   0.205   5.292
 3150SOL    HW110349   0.527   0.269   5.301
 3150SOL    HW210350   0.462   0.130   5.357
 3151SOL     OW10351   6.849   1.070   6.046
 3151SOL    HW110352   6.882   1.148   5.993
 3151SOL    HW210353   6.909   1.055   6.125
 3152SOL     OW10354   2.720   2.040   5.756
 3152SOL    HW110355   2.669   1.961   5.790
 3152SOL    HW210356   2.659   2.119   5.750
 3153SOL     OW10357   6.074   5.668   1.808
 3153SOL    HW110358   5.976   5.674   1.824
 3153SOL    HW210359   6.091   5.647   1.712
 3154SOL     OW10360   3.378   2.026   0.658
 3154SOL    HW110361   3.446   1.996   0.725
 3154SOL    HW210362   3.289   2.038   0.703
 3155SOL     OW10363   0.503   5.949   6.584
 3155SOL    HW110364   0.584   5.972   6.532
 3155SOL    HW210365   0.521   5.868   6.640
 3156SOL     OW10366   3.136   3.928   1.141
 3156SOL    HW110367   3.225   3.973   1.132
 3156SOL    HW210368   3.074   3.987   1.193
 3157SOL     OW10369   1.562   1.297   3.958
 3157SOL    HW110370   1.553   1.266   3.864
 3157SOL    HW210371   1.641   1.358   3.966
 3158SOL     OW10372   2.652   0.723   6.346
 3158SOL    HW110373   2.726   0.742   6.282
 3158SOL    HW210374   2.674   0.760   6.436
 3159SOL     OW10375   4.738   6.446   1.466
 3159SOL    HW110376   4.651   6.423   1.421
 3159SOL    HW210377   4.732   6.538   1.504
 3160SOL     OW10378   2.712   1.416   5.135
 3160SOL    HW110379   2.806   1.449   5.125
 3160SOL    HW210380   2.667   1.416   5.045
 3161SOL     OW10381   1.714   2.742   1.782
 3161SOL    HW110382   1.661   2.800   1.843
 3161SOL    HW210383   1.808   2.775   1.777
 3162SOL     OW10384   1.057   5.681   1.987
 3162SOL    HW110385   1.138   5.633   2.019
 3162SOL    HW210386   1.056   5.683   1.887
 3163SOL     OW10387   4.972   4.372   1.086
 3163SOL    HW110388   5.011   4.423   1.010
 3163SOL    HW210389   4.887   4.328   1.057
 3164SOL     OW10390   2.604   0.372   4.057
 3164SOL    HW110391   2.700   0.396   4.043
 3164SOL    HW210392   2.588   0.280   4.022
 3165SOL     OW10393   0.794   5.512   6.669
 3165SOL    HW110394   0.807   5.423   6.625
 3165SOL    HW210395   0.872   5.571   6.648
 3166SOL     OW10396   3.760   1.612   4.511
 3166SOL    HW110397   3.694   1.552   4.468
 3166SOL    HW210398   3.777   1.582   4.605
 3167SOL     OW10399   6.293   2.970   2.094
 3167SOL    HW110400   6.265   3.065   2.104
 3167SOL    HW210401   6.281   2.941   1.999
 3168SOL     OW10402   5.195   1.303   1.201
 3168SOL    HW110403   5.221   1.360   1.279
 3168SOL    HW210404   5.095   1.299   1.195
 3169SOL     OW10405   0.705   3.041   1.803
 3169SOL    HW110406   0.700   2.949   1.763
 3169SOL    HW210407   0.677   3.108   1.735
 3170SOL     OW10408   2.180   4.061   3.881
 3170SOL    HW110409   2.220   4.080   3.971
 3170SOL    HW210410   2.237   4.102   3.810
 3171SOL     OW10411   5.137   1.229   4.909
 3171SOL    HW110412   5.179   1.221   4.999
 3171SOL    HW210413   5.200   1.276   4.846
 3172SOL     OW10414   6.326   3.839   1.395
 3172SOL    HW110415   6.255   3.840   1.465
 3172SOL    HW210416   6.414   3.863   1.436
 3173SOL     OW10417   5.490   3.468   0.058
 3173SOL    HW110418   5.391   3.481   0.045
 3173SOL    HW210419   5.506   3.384   0.109
 3174SOL     OW10420   3.262   2.783   6.613
 3174SOL    HW110421   3.319   2.864   6.625
 3174SOL    HW210422   3.230   2.778   6.519
 3175SOL     OW10423   5.969   5.847   5.499
 3175SOL    HW110424   5.902   5.904   5.547
 3175SOL    HW210425   5.927   5.758   5.477
 3176SOL     OW10426   0.328   4.875   3.696
 3176SOL    HW110427   0.417   4.919   3.709
 3176SOL    HW210428   0.299   4.885   3.601
 3177SOL     OW10429   5.215   2.585   2.451
 3177SOL    HW110430   5.178   2.493   2.455
 3177SOL    HW210431   5.191   2.627   2.364
 3178SOL     OW10432   1.298   0.872   2.825
 3178SOL    HW110433   1.344   0.784   2.836
 3178SOL    HW210434   1.228   0.865   2.754
 3179SOL     OW10435   1.044   3.280   2.479
 3179SOL    HW110436   1.068   3.201   2.535
 3179SOL    HW210437   0.956   3.262   2.433
 3180SOL     OW10438   6.277   0.291   6.861
 3180SOL    HW110439   6.319   0.345   6.933
 3180SOL    HW210440   6.194   0.336   6.828
 3181SOL     OW10441   0.327   6.559   5.034
 3181SOL    HW110442   0.394   6.538   5.106
 3181SOL    HW210443   0.254   6.491   5.035
 3182SOL     OW10444   1.263   0.223   1.157
 3182SOL    HW110445   1.280   0.285   1.234
 3182SOL    HW210446   1.318   0.252   1.079
 3183SOL     OW10447   4.477   4.176   0.681
 3183SOL    HW110448   4.389   4.136   0.655
 3183SOL    HW210449   4.483   4.181   0.781
 3184SOL     OW10450   6.273   0.884   4.087
 3184SOL    HW110451   6.287   0.786   4.075
 3184SOL    HW210452   6.326   0.916   4.165
 3185SOL     OW10453   1.591   0.195   5.675
 3185SOL    HW110454   1.611   0.234   5.766
 3185SOL    HW210455   1.502   0.151   5.677
 3186SOL     OW10456   0.340   1.995   5.494
 3186SOL    HW110457   0.306   2.049   5.571
 3186SOL    HW210458   0.275   1.923   5.471
 3187SOL     OW10459   5.330   0.076   2.965
 3187SOL    HW110460   5.262   0.006   2.986
 3187SOL    HW210461   5.422   0.038   2.981
 3188SOL     OW10462   1.398   5.782   1.262
 3188SOL    HW110463   1.387   5.868   1.312
 3188SOL    HW210464   1.496   5.763   1.250
 3189SOL     OW10465   2.639   1.600   6.267
 3189SOL    HW110466   2.661   1.588   6.170
 3189SOL    HW210467   2.705   1.663   6.308
 3190SOL     OW10468   5.981   6.358   4.802
 3190SOL    HW110469   6.025   6.402   4.881
 3190SOL    HW210470   5.923   6.284   4.834
 3191SOL     OW10471   3.970   5.044   1.365
 3191SOL    HW110472   3.969   4.974   1.294
 3191SOL    HW210473   3.984   5.133   1.323
 3192SOL     OW10474   5.492   0.488   3.036
 3192SOL    HW110475   5.477   0.444   3.124
 3192SOL    HW210476   5.468   0.425   2.962
 3193SOL     OW10477   3.531   5.729   4.746
 3193SOL    HW110478   3.439   5.691   4.736
 3193SOL    HW210479   3.533   5.821   4.708
 3194SOL     OW10480   2.219   6.473   4.865
 3194SOL    HW110481   2.261   6.389   4.831
 3194SOL    HW210482   2.250   6.490   4.959
 3195SOL     OW10483   0.600   6.568   0.258
 3195SOL    HW110484   0.557   6.617   0.182
 3195SOL    HW210485   0.596   6.470   0.241
 3196SOL     OW10486   6.382   6.786   2.556
 3196SOL    HW110487   6.395   6.750   2.463
 3196SOL    HW210488   6.448   6.858   2.574
 3197SOL     OW10489   2.806   0.888   0.242
 3197SOL    HW110490   2.844   0.863   0.153
 3197SOL    HW210491   2.783   0.806   0.293
 3198SOL     OW10492   5.062   3.736   3.764
 3198SOL    HW110493   4.990   3.666   3.764
 3198SOL    HW210494   5.066   3.781   3.853
 3199SOL     OW10495   4.973   3.778   3.504
 3199SOL    HW110496   4.932   3.689   3.485
 3199SOL    HW210497   5.009   3.779   3.598
 3200SOL     OW10498   5.913   3.399   4.887
 3200SOL    HW110499   5.881   3.409   4.981
 3200SOL    HW210500   5.934   3.489   4.849
 3201SOL     OW10501   6.417   3.749   2.183
 3201SOL    HW110502   6.334   3.694   2.194
 3201SOL    HW210503   6.422   3.815   2.257
 3202SOL     OW10504   2.985   2.574   6.198
 3202SOL    HW110505   2.926   2.498   6.171
 3202SOL    HW210506   3.079   2.555   6.170
 3203SOL     OW10507   3.232   6.447   1.918
 3203SOL    HW110508   3.304   6.481   1.856
 3203SOL    HW210509   3.273   6.426   2.007
 3204SOL     OW10510   4.956   0.661   3.993
 3204SOL    HW110511   4.902   0.740   4.022
 3204SOL    HW210512   5.050   0.670   4.027
 3205SOL     OW10513   4.500   2.794   6.527
 3205SOL    HW110514   4.547   2.709   6.503
 3205SOL    HW210515   4.544   2.834   6.608
 3206SOL     OW10516   2.904   4.550   0.598
 3206SOL    HW110517   2.816   4.511   0.571
 3206SOL    HW210518   2.978   4.492   0.564
 3207SOL     OW10519   2.314   6.267   3.675
 3207SOL    HW110520   2.273   6.176   3.669
 3207SOL    HW210521   2.414   6.258   3.674
 3208SOL     OW10522   6.808   3.551   6.633
 3208SOL    HW110523   6.907   3.562   6.618
 3208SOL    HW210524   6.778   3.466   6.590
 3209SOL     OW10525   4.937   0.093   5.741
 3209SOL    HW110526   5.011   0.141   5.789
 3209SOL    HW210527   4.910   0.013   5.793
 3210SOL     OW10528   5.172   5.011   2.056
 3210SOL    HW110529   5.219   5.043   2.138
 3210SOL    HW210530   5.231   4.950   2.004
 3211SOL     OW10531   2.344   6.259   6.521
 3211SOL    HW110532   2.411   6.333   6.515
 3211SOL    HW210533   2.254   6.297   6.542
 3212SOL     OW10534   3.381   6.610   4.144
 3212SOL    HW110535   3.325   6.655   4.074
 3212SOL    HW210536   3.336   6.527   4.175
 3213SOL     OW10537   1.378   0.614   5.730
 3213SOL    HW110538   1.474   0.606   5.704
 3213SOL    HW210539   1.371   0.640   5.826
 3214SOL     OW10540   3.261   0.916   2.928
 3214SOL    HW110541   3.202   0.971   2.987
 3214SOL    HW210542   3.204   0.858   2.869
 3215SOL     OW10543   2.042   3.014   1.944
 3215SOL    HW110544   2.105   2.968   2.006
 3215SOL    HW210545   2.086   3.095   1.906
 3216SOL     OW10546   5.948   4.868   0.497
 3216SOL    HW110547   5.972   4.961   0.470
 3216SOL    HW210548   5.940   4.863   0.596
 3217SOL     OW10549   6.504   6.315   3.581
 3217SOL    HW110550   6.431   6.365   3.535
 3217SOL    HW210551   6.484   6.217   3.577
 3218SOL     OW10552   6.146   1.264   3.445
 3218SOL    HW110553   6.234   1.242   3.487
 3218SOL    HW210554   6.075   1.204   3.482
 3219SOL     OW10555   5.502   1.873   4.268
 3219SOL    HW110556   5.430   1.938   4.292
 3219SOL    HW210557   5.461   1.783   4.254
 3220SOL     OW10558   6.816   3.708   5.447
 3220SOL    HW110559   6.901   3.756   5.469
 3220SOL    HW210560   6.820   3.676   5.352
 3221SOL     OW10561   3.899   1.209   2.123
 3221SOL    HW110562   3.999   1.206   2.133
 3221SOL    HW210563   3.858   1.241   2.208
 3222SOL     OW10564   2.927   0.797   3.959
 3222SOL    HW110565   2.900   0.751   3.874
 3222SOL    HW210566   2.886   0.750   4.037
 3223SOL     OW10567   1.662   5.818   0.651
 3223SOL    HW110568   1.678   5.812   0.749
 3223SOL    HW210569   1.673   5.913   0.621
 3224SOL     OW10570   4.610   2.579   4.216
 3224SOL    HW110571   4.582   2.532   4.300
 3224SOL    HW210572   4.685   2.642   4.237
 3225SOL     OW10573   4.542   1.136   4.632
 3225SOL    HW110574   4.464   1.135   4.570
 3225SOL    HW210575   4.604   1.061   4.609
 3226SOL     OW10576   6.111   1.020   0.446
 3226SOL    HW110577   6.091   0.961   0.368
 3226SOL    HW210578   6.206   1.053   0.439
 3227SOL     OW10579   6.127   4.415   5.662
 3227SOL    HW110580   6.091   4.387   5.751
 3227SOL    HW210581   6.051   4.425   5.597
 3228SOL     OW10582   2.061   4.394   0.482
 3228SOL    HW110583   2.025   4.312   0.526
 3228SOL    HW210584   2.115   4.445   0.549
 3229SOL     OW10585   1.324   1.295   1.411
 3229SOL    HW110586   1.238   1.245   1.422
 3229SOL    HW210587   1.400   1.236   1.435
 3230SOL     OW10588   3.116   6.141   5.024
 3230SOL    HW110589   3.146   6.202   4.950
 3230SOL    HW210590   3.017   6.149   5.035
 3231SOL     OW10591   2.401   2.478   2.617
 3231SOL    HW110592   2.469   2.420   2.662
 3231SOL    HW210593   2.353   2.533   2.686
 3232SOL     OW10594   2.760   4.782   3.279
 3232SOL    HW110595   2.689   4.716   3.252
 3232SOL    HW210596   2.773   4.779   3.378
 3233SOL     OW10597   2.948   0.339   6.126
 3233SOL    HW110598   2.912   0.282   6.200
 3233SOL    HW210599   3.027   0.294   6.084
 3234SOL     OW10600   3.464   3.750   0.875
 3234SOL    HW110601   3.409   3.717   0.952
 3234SOL    HW210602   3.561   3.742   0.898
 3235SOL     OW10603   6.908   1.754   2.982
 3235SOL    HW110604   6.941   1.788   3.070
 3235SOL    HW210605   6.925   1.824   2.912
 3236SOL     OW10606   5.649   6.988   0.220
 3236SOL    HW110607   5.705   6.996   0.303
 3236SOL    HW210608   5.568   0.036   0.229
 3237SOL     OW10609   6.140   0.988   5.479
 3237SOL    HW110610   6.167   0.932   5.401
 3237SOL    HW210611   6.093   1.070   5.446
 3238SOL     OW10612   0.027   5.037   1.138
 3238SOL    HW110613   6.964   5.081   1.087
 3238SOL    HW210614   0.051   5.094   1.217
 3239SOL     OW10615   6.181   0.101   5.340
 3239SOL    HW110616   6.233   0.092   5.255
 3239SOL    HW210617   6.089   0.064   5.327
 3240SOL     OW10618   0.873   1.789   1.736
 3240SOL    HW110619   0.850   1.718   1.804
 3240SOL    HW210620   0.971   1.788   1.719
 3241SOL     OW10621   0.191   2.585   5.905
 3241SOL    HW110622   0.244   2.622   5.981
 3241SOL    HW210623   0.093   2.594   5.925
 3242SOL     OW10624   0.258   4.741   5.237
 3242SOL    HW110625   0.187   4.699   5.181
 3242SOL    HW210626   0.339   4.682   5.238
 3243SOL     OW10627   5.846   5.735   4.363
 3243SOL    HW110628   5.877   5.830   4.361
 3243SOL    HW210629   5.768   5.726   4.424
 3244SOL     OW10630   4.769   0.032   6.861
 3244SOL    HW110631   4.682   0.078   6.882
 3244SOL    HW210632   4.751   6.949   6.833
 3245SOL     OW10633   3.204   6.136   4.326
 3245SOL    HW110634   3.112   6.097   4.332
 3245SOL    HW210635   3.199   6.226   4.283
 3246SOL     OW10636   6.814   5.613   3.386
 3246SOL    HW110637   6.881   5.687   3.377
 3246SOL    HW210638   6.857   5.526   3.362
 3247SOL     OW10639   1.958   4.138   4.031
 3247SOL    HW110640   1.984   4.231   4.005
 3247SOL    HW210641   1.930   4.087   3.950
 3248SOL     OW10642   6.443   2.715   3.470
 3248SOL    HW110643   6.521   2.778   3.468
 3248SOL    HW210644   6.475   2.623   3.491
 3249SOL     OW10645   3.799   3.968   4.378
 3249SOL    HW110646   3.778   4.037   4.447
 3249SOL    HW210647   3.879   3.915   4.408
 3250SOL     OW10648   4.732   6.355   3.795
 3250SOL    HW110649   4.632   6.357   3.790
 3250SOL    HW210650   4.764   6.260   3.790
 3251SOL     OW10651   2.509   2.135   2.551
 3251SOL    HW110652   2.548   2.044   2.564
 3251SOL    HW210653   2.582   2.203   2.549
 3252SOL     OW10654   1.921   1.686   2.683
 3252SOL    HW110655   1.997   1.680   2.619
 3252SOL    HW210656   1.844   1.633   2.649
 3253SOL     OW10657   6.611   3.899   0.765
 3253SOL    HW110658   6.658   3.983   0.792
 3253SOL    HW210659   6.642   3.823   0.823
 3254SOL     OW10660   6.233   6.665   0.397
 3254SOL    HW110661   6.209   6.709   0.310
 3254SOL    HW210662   6.333   6.664   0.407
 3255SOL     OW10663   3.571   5.493   2.342
 3255SOL    HW110664   3.670   5.492   2.356
 3255SOL    HW210665   3.543   5.411   2.291
 3256SOL     OW10666   5.339   2.651   1.572
 3256SOL    HW110667   5.295   2.733   1.534
 3256SOL    HW210668   5.434   2.648   1.543
 3257SOL     OW10669   2.354   1.358   3.088
 3257SOL    HW110670   2.274   1.377   3.032
 3257SOL    HW210671   2.425   1.426   3.069
 3258SOL     OW10672   0.958   5.332   4.150
 3258SOL    HW110673   0.955   5.354   4.052
 3258SOL    HW210674   0.917   5.242   4.165
 3259SOL     OW10675   5.774   5.188   3.979
 3259SOL    HW110676   5.717   5.138   4.044
 3259SOL    HW210677   5.809   5.126   3.910
 3260SOL     OW10678   1.526   4.444   3.346
 3260SOL    HW110679   1.541   4.462   3.444
 3260SOL    HW210680   1.493   4.351   3.334
 3261SOL     OW10681   5.833   6.845   4.049
 3261SOL    HW110682   5.866   6.759   4.088
 3261SOL    HW210683   5.838   6.840   3.949
 3262SOL     OW10684   2.969   2.165   3.246
 3262SOL    HW110685   3.059   2.157   3.203
 3262SOL    HW210686   2.906   2.209   3.183
 3263SOL     OW10687   6.116   0.330   1.503
 3263SOL    HW110688   6.117   0.402   1.572
 3263SOL    HW210689   6.149   0.368   1.416
 3264SOL     OW10690   1.415   4.612   6.501
 3264SOL    HW110691   1.484   4.553   6.543
 3264SOL    HW210692   1.386   4.572   6.414
 3265SOL     OW10693   0.461   5.820   6.020
 3265SOL    HW110694   0.423   5.748   6.077
 3265SOL    HW210695   0.391   5.852   5.956
 3266SOL     OW10696   3.346   4.698   6.164
 3266SOL    HW110697   3.282   4.771   6.185
 3266SOL    HW210698   3.383   4.711   6.072
 3267SOL     OW10699   3.505   0.136   1.072
 3267SOL    HW110700   3.556   0.172   0.994
 3267SOL    HW210701   3.478   0.212   1.132
 3268SOL     OW10702   5.507   4.307   1.792
 3268SOL    HW110703   5.550   4.396   1.782
 3268SOL    HW210704   5.452   4.287   1.711
 3269SOL     OW10705   2.246   4.893   1.204
 3269SOL    HW110706   2.345   4.877   1.209
 3269SOL    HW210707   2.218   4.952   1.280
 3270SOL     OW10708   1.282   3.507   6.294
 3270SOL    HW110709   1.250   3.488   6.386
 3270SOL    HW210710   1.362   3.451   6.274
 3271SOL     OW10711   1.250   3.732   1.405
 3271SOL    HW110712   1.290   3.820   1.431
 3271SOL    HW210713   1.317   3.659   1.416
 3272SOL     OW10714   4.098   0.004   1.193
 3272SOL    HW110715   4.141   6.929   1.221
 3272SOL    HW210716   4.014   6.995   1.142
 3273SOL     OW10717   3.944   3.892   6.706
 3273SOL    HW110718   3.890   3.941   6.774
 3273SOL    HW210719   3.934   3.794   6.721
 3274SOL     OW10720   4.423   0.258   1.839
 3274SOL    HW110721   4.431   0.356   1.818
 3274SOL    HW210722   4.327   0.237   1.859
 3275SOL     OW10723   5.347   0.426   2.130
 3275SOL    HW110724   5.375   0.513   2.170
 3275SOL    HW210725   5.292   0.443   2.048
 3276SOL     OW10726   5.809   5.609   0.338
 3276SOL    HW110727   5.874   5.578   0.270
 3276SOL    HW210728   5.791   5.536   0.404
 3277SOL     OW10729   3.357   1.237   2.364
 3277SOL    HW110730   3.415   1.313   2.332
 3277SOL    HW210731   3.262   1.259   2.344
 3278SOL     OW10732   5.351   1.357   6.760
 3278SOL    HW110733   5.361   1.301   6.678
 3278SOL    HW210734   5.256   1.388   6.768
 3279SOL     OW10735   4.309   0.420   2.068
 3279SOL    HW110736   4.251   0.353   2.022
 3279SOL    HW210737   4.405   0.393   2.060
 3280SOL     OW10738   0.189   2.749   4.136
 3280SOL    HW110739   0.273   2.798   4.112
 3280SOL    HW210740   0.210   2.677   4.202
 3281SOL     OW10741   5.664   2.499   1.980
 3281SOL    HW110742   5.593   2.437   2.014
 3281SOL    HW210743   5.719   2.532   2.057
 3282SOL     OW10744   6.279   4.343   5.157
 3282SOL    HW110745   6.351   4.413   5.161
 3282SOL    HW210746   6.314   4.257   5.194
 3283SOL     OW10747   2.814   1.526   0.431
 3283SOL    HW110748   2.776   1.533   0.523
 3283SOL    HW210749   2.741   1.532   0.363
 3284SOL     OW10750   2.091   0.614   5.236
 3284SOL    HW110751   2.132   0.695   5.194
 3284SOL    HW210752   2.161   0.562   5.284
 3285SOL     OW10753   3.851   2.150   4.026
 3285SOL    HW110754   3.931   2.196   3.988
 3285SOL    HW210755   3.786   2.129   3.954
 3286SOL     OW10756   1.551   3.437   2.819
 3286SOL    HW110757   1.499   3.467   2.899
 3286SOL    HW210758   1.624   3.375   2.848
 3287SOL     OW10759   2.485   1.328   0.662
 3287SOL    HW110760   2.484   1.244   0.717
 3287SOL    HW210761   2.475   1.304   0.565
 3288SOL     OW10762   3.030   5.502   1.703
 3288SOL    HW110763   3.126   5.472   1.708
 3288SOL    HW210764   2.971   5.431   1.742
 3289SOL     OW10765   4.997   0.387   0.044
 3289SOL    HW110766   4.988   0.381   0.144
 3289SOL    HW210767   4.920   0.339   0.001
 3290SOL     OW10768   1.157   5.087   6.953
 3290SOL    HW110769   1.081   5.150   6.974
 3290SOL    HW210770   1.226   5.092   0.014
 3291SOL     OW10771   4.952   6.351   5.240
 3291SOL    HW110772   5.038   6.332   5.286
 3291SOL    HW210773   4.939   6.288   5.164
 3292SOL     OW10774   0.280   3.308   0.423
 3292SOL    HW110775   0.187   3.304   0.458
 3292SOL    HW210776   0.279   3.334   0.327
 3293SOL     OW10777   6.604   4.361   2.745
 3293SOL    HW110778   6.539   4.425   2.704
 3293SOL    HW210779   6.676   4.411   2.792
 3294SOL     OW10780   3.810   2.888   5.568
 3294SOL    HW110781   3.815   2.814   5.501
 3294SOL    HW210782   3.824   2.850   5.660
 3295SOL     OW10783   1.464   2.947   3.510
 3295SOL    HW110784   1.434   2.854   3.491
 3295SOL    HW210785   1.411   2.985   3.585
 3296SOL     OW10786   2.706   0.635   6.923
 3296SOL    HW110787   2.655   0.669   6.844
 3296SOL    HW210788   2.686   0.537   6.935
 3297SOL     OW10789   3.299   0.691   5.692
 3297SOL    HW110790   3.288   0.732   5.601
 3297SOL    HW210791   3.302   0.763   5.761
 3298SOL     OW10792   3.349   4.211   5.970
 3298SOL    HW110793   3.374   4.114   5.966
 3298SOL    HW210794   3.347   4.241   6.065
 3299SOL     OW10795   2.555   0.029   4.312
 3299SOL    HW110796   2.543   6.940   4.314
 3299SOL    HW210797   2.467   0.073   4.298
 3300SOL     OW10798   1.684   0.852   3.470
 3300SOL    HW110799   1.721   0.945   3.469
 3300SOL    HW210800   1.616   0.844   3.542
 3301SOL     OW10801   1.303   1.244   2.300
 3301SOL    HW110802   1.372   1.182   2.337
 3301SOL    HW210803   1.281   1.314   2.368
 3302SOL     OW10804   1.513   5.005   4.932
 3302SOL    HW110805   1.420   4.985   4.961
 3302SOL    HW210806   1.559   4.920   4.905
 3303SOL     OW10807   3.746   3.583   0.569
 3303SOL    HW110808   3.761   3.484   0.563
 3303SOL    HW210809   3.664   3.601   0.624
 3304SOL     OW10810   2.229   4.071   0.414
 3304SOL    HW110811   2.289   4.038   0.487
 3304SOL    HW210812   2.140   4.026   0.421
 3305SOL     OW10813   2.846   2.749   0.112
 3305SOL    HW110814   2.860   2.836   0.065
 3305SOL    HW210815   2.912   2.682   0.079
 3306SOL     OW10816   3.029   0.018   1.512
 3306SOL    HW110817   3.000   0.028   1.416
 3306SOL    HW210818   3.043   0.109   1.551
 3307SOL     OW10819   2.545   5.589   4.899
 3307SOL    HW110820   2.472   5.657   4.898
 3307SOL    HW210821   2.547   5.539   4.813
 3308SOL     OW10822   4.671   5.245   1.189
 3308SOL    HW110823   4.607   5.320   1.174
 3308SOL    HW210824   4.624   5.158   1.172
 3309SOL     OW10825   5.863   3.938   3.658
 3309SOL    HW110826   5.863   4.037   3.646
 3309SOL    HW210827   5.769   3.903   3.651
 3310SOL     OW10828   6.484   4.409   6.560
 3310SOL    HW110829   6.520   4.489   6.607
 3310SOL    HW210830   6.466   4.336   6.626
 3311SOL     OW10831   2.134   2.689   0.024
 3311SOL    HW110832   2.177   2.609   6.992
 3311SOL    HW210833   2.186   2.717   0.104
 3312SOL     OW10834   4.812   3.574   0.312
 3312SOL    HW110835   4.735   3.518   0.283
 3312SOL    HW210836   4.778   3.659   0.352
 3313SOL     OW10837   0.599   0.237   3.950
 3313SOL    HW110838   0.638   0.194   4.032
 3313SOL    HW210839   0.567   0.329   3.973
 3314SOL     OW10840   3.395   6.226   3.216
 3314SOL    HW110841   3.438   6.162   3.280
 3314SOL    HW210842   3.461   6.251   3.145
 3315SOL     OW10843   0.948   6.289   3.799
 3315SOL    HW110844   0.971   6.346   3.878
 3315SOL    HW210845   0.849   6.292   3.784
 3316SOL     OW10846   3.519   1.865   0.213
 3316SOL    HW110847   3.544   1.783   0.161
 3316SOL    HW210848   3.456   1.840   0.286
 3317SOL     OW10849   5.801   2.481   1.268
 3317SOL    HW110850   5.824   2.557   1.329
 3317SOL    HW210851   5.882   2.423   1.255
 3318SOL     OW10852   3.723   3.094   0.725
 3318SOL    HW110853   3.771   3.080   0.812
 3318SOL    HW210854   3.643   3.034   0.721
 3319SOL     OW10855   6.704   6.516   4.055
 3319SOL    HW110856   6.633   6.508   3.985
 3319SOL    HW210857   6.677   6.585   4.122
 3320SOL     OW10858   6.368   0.566   2.206
 3320SOL    HW110859   6.463   0.539   2.223
 3320SOL    HW210860   6.359   0.665   2.217
 3321SOL     OW10861   4.682   1.833   6.850
 3321SOL    HW110862   4.611   1.902   6.837
 3321SOL    HW210863   4.724   1.844   6.940
 3322SOL     OW10864   5.728   3.197   1.320
 3322SOL    HW110865   5.676   3.143   1.386
 3322SOL    HW210866   5.791   3.258   1.369
 3323SOL     OW10867   1.534   0.999   2.070
 3323SOL    HW110868   1.602   0.996   2.144
 3323SOL    HW210869   1.498   1.091   2.062
 3324SOL     OW10870   5.957   5.015   5.753
 3324SOL    HW110871   6.040   5.047   5.708
 3324SOL    HW210872   5.981   4.939   5.814
 3325SOL     OW10873   2.900   5.412   6.037
 3325SOL    HW110874   2.979   5.464   6.006
 3325SOL    HW210875   2.929   5.341   6.101
 3326SOL     OW10876   3.499   2.006   1.982
 3326SOL    HW110877   3.562   1.931   1.964
 3326SOL    HW210878   3.551   2.091   1.996
 3327SOL     OW10879   1.988   5.792   5.861
 3327SOL    HW110880   1.938   5.837   5.787
 3327SOL    HW210881   1.996   5.855   5.938
 3328SOL     OW10882   4.742   3.126   5.355
 3328SOL    HW110883   4.779   3.217   5.339
 3328SOL    HW210884   4.798   3.058   5.309
 3329SOL     OW10885   0.245   6.169   5.837
 3329SOL    HW110886   0.319   6.235   5.845
 3329SOL    HW210887   0.174   6.188   5.905
 3330SOL     OW10888   6.833   2.918   2.878
 3330SOL    HW110889   6.852   2.881   2.969
 3330SOL    HW210890   6.742   2.889   2.849
 3331SOL     OW10891   2.027   2.942   0.383
 3331SOL    HW110892   2.012   2.956   0.481
 3331SOL    HW210893   1.969   2.868   0.350
 3332SOL     OW10894   0.392   3.964   1.527
 3332SOL    HW110895   0.435   4.029   1.464
 3332SOL    HW210896   0.460   3.896   1.556
 3333SOL     OW10897   3.355   6.042   5.627
 3333SOL    HW110898   3.263   6.030   5.589
 3333SOL    HW210899   3.367   5.981   5.705
 3334SOL     OW10900   1.490   2.779   0.786
 3334SOL    HW110901   1.481   2.773   0.885
 3334SOL    HW210902   1.518   2.690   0.749
 3335SOL     OW10903   5.372   4.678   4.552
 3335SOL    HW110904   5.360   4.718   4.643
 3335SOL    HW210905   5.448   4.612   4.554
 3336SOL     OW10906   3.285   6.418   5.579
 3336SOL    HW110907   3.337   6.429   5.495
 3336SOL    HW210908   3.264   6.508   5.617
 3337SOL     OW10909   3.746   1.699   0.780
 3337SOL    HW110910   3.712   1.719   0.872
 3337SOL    HW210911   3.673   1.656   0.726
 3338SOL     OW10912   6.958   4.989   6.886
 3338SOL    HW110913   6.892   5.051   6.928
 3338SOL    HW210914   6.946   4.991   6.787
 3339SOL     OW10915   0.695   4.781   6.155
 3339SOL    HW110916   0.710   4.831   6.240
 3339SOL    HW210917   0.605   4.804   6.118
 3340SOL     OW10918   4.139   0.253   1.948
 3340SOL    HW110919   4.095   0.170   1.983
 3340SOL    HW210920   4.089   0.286   1.869
 3341SOL     OW10921   0.880   0.339   0.463
 3341SOL    HW110922   0.854   0.280   0.540
 3341SOL    HW210923   0.826   0.423   0.465
 3342SOL     OW10924   2.547   0.189   5.167
 3342SOL    HW110925   2.622   0.189   5.101
 3342SOL    HW210926   2.462   0.216   5.121
 3343SOL     OW10927   0.125   2.698   1.292
 3343SOL    HW110928   0.150   2.603   1.312
 3343SOL    HW210929   0.156   2.721   1.200
 3344SOL     OW10930   1.245   2.686   6.363
 3344SOL    HW110931   1.271   2.695   6.460
 3344SOL    HW210932   1.150   2.714   6.351
 3345SOL     OW10933   2.377   3.251   5.729
 3345SOL    HW110934   2.423   3.340   5.733
 3345SOL    HW210935   2.426   3.186   5.786
 3346SOL     OW10936   1.988   6.057   2.551
 3346SOL    HW110937   2.014   5.965   2.582
 3346SOL    HW210938   2.025   6.072   2.459
 3347SOL     OW10939   6.120   4.033   3.487
 3347SOL    HW110940   6.083   3.967   3.552
 3347SOL    HW210941   6.215   4.054   3.511
 3348SOL     OW10942   3.750   3.741   3.331
 3348SOL    HW110943   3.772   3.662   3.388
 3348SOL    HW210944   3.678   3.795   3.375
 3349SOL     OW10945   5.097   3.118   6.335
 3349SOL    HW110946   5.100   3.084   6.429
 3349SOL    HW210947   5.174   3.079   6.283
 3350SOL     OW10948   1.973   2.795   1.343
 3350SOL    HW110949   1.984   2.718   1.406
 3350SOL    HW210950   1.907   2.860   1.380
 3351SOL     OW10951   5.634   2.711   0.640
 3351SOL    HW110952   5.706   2.679   0.702
 3351SOL    HW210953   5.566   2.639   0.627
 3352SOL     OW10954   6.847   3.259   0.108
 3352SOL    HW110955   6.820   3.246   0.012
 3352SOL    HW210956   6.943   3.234   0.118
 3353SOL     OW10957   1.675   6.667   5.771
 3353SOL    HW110958   1.604   6.728   5.734
 3353SOL    HW210959   1.765   6.702   5.746
 3354SOL     OW10960   0.639   0.564   1.784
 3354SOL    HW110961   0.707   0.540   1.715
 3354SOL    HW210962   0.680   0.556   1.875
 3355SOL     OW10963   6.061   0.898   2.855
 3355SOL    HW110964   5.996   0.941   2.792
 3355SOL    HW210965   6.128   0.966   2.886
 3356SOL     OW10966   1.161   3.495   6.578
 3356SOL    HW110967   1.123   3.404   6.595
 3356SOL    HW210968   1.105   3.563   6.627
 3357SOL     OW10969   2.521   5.233   2.359
 3357SOL    HW110970   2.441   5.275   2.316
 3357SOL    HW210971   2.540   5.145   2.316
 3358SOL     OW10972   6.641   4.194   3.385
 3358SOL    HW110973   6.710   4.255   3.424
 3358SOL    HW210974   6.680   4.103   3.374
 3359SOL     OW10975   2.037   1.653   1.836
 3359SOL    HW110976   2.016   1.707   1.917
 3359SOL    HW210977   1.955   1.643   1.780
 3360SOL     OW10978   2.488   0.899   6.209
 3360SOL    HW110979   2.534   0.965   6.149
 3360SOL    HW210980   2.553   0.865   6.276
 3361SOL     OW10981   3.006   1.241   2.972
 3361SOL    HW110982   2.909   1.230   2.994
 3361SOL    HW210983   3.060   1.176   3.026
 3362SOL     OW10984   2.996   1.806   4.490
 3362SOL    HW110985   3.062   1.873   4.524
 3362SOL    HW210986   2.914   1.809   4.547
 3363SOL     OW10987   6.663   0.818   6.721
 3363SOL    HW110988   6.649   0.732   6.770
 3363SOL    HW210989   6.602   0.820   6.641
 3364SOL     OW10990   2.397   5.222   5.552
 3364SOL    HW110991   2.377   5.309   5.596
 3364SOL    HW210992   2.437   5.160   5.620
 3365SOL     OW10993   6.401   2.914   5.247
 3365SOL    HW110994   6.329   2.885   5.183
 3365SOL    HW210995   6.488   2.919   5.199
 3366SOL     OW10996   5.387   0.837   0.306
 3366SOL    HW110997   5.393   0.748   0.352
 3366SOL    HW210998   5.447   0.836   0.226
 3367SOL     OW10999   2.129   6.986   2.725
 3367SOL    HW111000   2.135   6.931   2.641
 3367SOL    HW211001   2.209   6.968   2.782
 3368SOL     OW11002   6.334   1.422   4.519
 3368SOL    HW111003   6.329   1.327   4.487
 3368SOL    HW211004   6.250   1.446   4.567
 3369SOL     OW11005   3.641   5.823   6.500
 3369SOL    HW111006   3.721   5.869   6.462
 3369SOL    HW211007   3.573   5.892   6.527
 3370SOL     OW11008   5.946   0.008   5.241
 3370SOL    HW111009   5.855   0.044   5.263
 3370SOL    HW211010   5.953   7.003   5.143
 3371SOL     OW11011   6.854   4.617   1.194
 3371SOL    HW111012   6.760   4.605   1.228
 3371SOL    HW211013   6.855   4.687   1.123
 3372SOL     OW11014   1.043   2.250   2.659
 3372SOL    HW111015   0.964   2.312   2.659
 3372SOL    HW211016   1.038   2.190   2.739
 3373SOL     OW11017   0.524   2.581   6.459
 3373SOL    HW111018   0.449   2.617   6.514
 3373SOL    HW211019   0.578   2.656   6.421
 3374SOL     OW11020   3.568   6.352   5.114
 3374SOL    HW111021   3.578   6.254   5.099
 3374SOL    HW211022   3.566   6.399   5.025
 3375SOL     OW11023   3.303   3.756   4.618
 3375SOL    HW111024   3.247   3.825   4.664
 3375SOL    HW211025   3.375   3.802   4.565
 3376SOL     OW11026   3.211   3.161   1.719
 3376SOL    HW111027   3.199   3.142   1.622
 3376SOL    HW211028   3.146   3.107   1.772
 3377SOL     OW11029   2.976   5.494   5.515
 3377SOL    HW111030   2.939   5.403   5.538
 3377SOL    HW211031   3.072   5.485   5.490
 3378SOL     OW11032   0.325   1.157   0.739
 3378SOL    HW111033   0.268   1.082   0.772
 3378SOL    HW211034   0.267   1.233   0.708
 3379SOL     OW11035   6.023   4.914   5.202
 3379SOL    HW111036   6.105   4.971   5.199
 3379SOL    HW211037   5.949   4.958   5.151
 3380SOL     OW11038   0.298   3.587   5.237
 3380SOL    HW111039   0.281   3.657   5.306
 3380SOL    HW211040   0.277   3.497   5.275
 3381SOL     OW11041   3.131   2.370   1.625
 3381SOL    HW111042   3.138   2.460   1.580
 3381SOL    HW211043   3.222   2.339   1.651
 3382SOL     OW11044   0.450   6.753   0.125
 3382SOL    HW111045   0.413   6.826   0.182
 3382SOL    HW211046   0.384   6.731   0.053
 3383SOL     OW11047   0.782   4.316   1.562
 3383SOL    HW111048   0.821   4.382   1.498
 3383SOL    HW211049   0.851   4.247   1.585
 3384SOL     OW11050   3.348   3.160   3.954
 3384SOL    HW111051   3.302   3.094   3.895
 3384SOL    HW211052   3.447   3.140   3.956
 3385SOL     OW11053   6.889   4.130   3.813
 3385SOL    HW111054   6.968   4.072   3.797
 3385SOL    HW211055   6.845   4.105   3.900
 3386SOL     OW11056   5.813   4.230   4.328
 3386SOL    HW111057   5.822   4.327   4.305
 3386SOL    HW211058   5.895   4.181   4.300
 3387SOL     OW11059   3.333   1.812   2.634
 3387SOL    HW111060   3.368   1.813   2.727
 3387SOL    HW211061   3.407   1.840   2.571
 3388SOL     OW11062   5.285   2.327   1.459
 3388SOL    HW111063   5.381   2.312   1.433
 3388SOL    HW211064   5.242   2.387   1.392
 3389SOL     OW11065   4.303   5.717   2.700
 3389SOL    HW111066   4.325   5.778   2.777
 3389SOL    HW211067   4.206   5.725   2.677
 3390SOL     OW11068   4.548   1.606   5.344
 3390SOL    HW111069   4.522   1.702   5.357
 3390SOL    HW211070   4.595   1.595   5.257
 3391SOL     OW11071   3.503   1.983   4.112
 3391SOL    HW111072   3.526   2.040   4.191
 3391SOL    HW211073   3.426   2.024   4.063
 3392SOL     OW11074   5.003   6.213   3.302
 3392SOL    HW111075   4.925   6.275   3.301
 3392SOL    HW211076   5.076   6.253   3.357
 3393SOL     OW11077   0.020   0.192   0.091
 3393SOL    HW111078   0.093   0.184   0.023
 3393SOL    HW211079   0.057   0.176   0.182
 3394SOL     OW11080   5.547   1.269   2.563
 3394SOL    HW111081   5.487   1.210   2.509
 3394SOL    HW211082   5.576   1.221   2.646
 3395SOL     OW11083   1.523   3.688   5.471
 3395SOL    HW111084   1.575   3.679   5.387
 3395SOL    HW211085   1.458   3.612   5.478
 3396SOL     OW11086   6.321   3.588   4.180
 3396SOL    HW111087   6.394   3.655   4.192
 3396SOL    HW211088   6.353   3.513   4.122
 3397SOL     OW11089   3.752   5.787   6.137
 3397SOL    HW111090   3.730   5.791   6.039
 3397SOL    HW211091   3.688   5.724   6.182
 3398SOL     OW11092   0.658   0.796   2.981
 3398SOL    HW111093   0.667   0.710   2.930
 3398SOL    HW211094   0.747   0.820   3.020
 3399SOL     OW11095   4.583   5.701   4.831
 3399SOL    HW111096   4.531   5.785   4.848
 3399SOL    HW211097   4.527   5.621   4.851
 3400SOL     OW11098   5.367   2.517   0.206
 3400SOL    HW111099   5.273   2.548   0.217
 3400SOL    HW211100   5.387   2.502   0.109
 3401SOL     OW11101   6.670   4.173   6.264
 3401SOL    HW111102   6.638   4.097   6.320
 3401SOL    HW211103   6.733   4.139   6.194
 3402SOL     OW11104   5.283   5.299   2.037
 3402SOL    HW111105   5.370   5.283   2.084
 3402SOL    HW211106   5.229   5.214   2.036
 3403SOL     OW11107   3.852   1.580   5.121
 3403SOL    HW111108   3.827   1.657   5.061
 3403SOL    HW211109   3.778   1.514   5.122
 3404SOL     OW11110   4.693   6.686   1.604
 3404SOL    HW111111   4.647   6.612   1.653
 3404SOL    HW211112   4.696   6.767   1.663
 3405SOL     OW11113   5.983   4.307   0.129
 3405SOL    HW111114   5.972   4.407   0.134
 3405SOL    HW211115   6.029   4.284   0.043
 3406SOL     OW11116   1.010   4.020   1.329
 3406SOL    HW111117   1.096   4.009   1.278
 3406SOL    HW211118   1.015   3.968   1.414
 3407SOL     OW11119   1.145   4.951   2.838
 3407SOL    HW111120   1.094   4.870   2.867
 3407SOL    HW211121   1.108   5.032   2.884
 3408SOL     OW11122   5.122   3.459   3.359
 3408SOL    HW111123   5.026   3.455   3.331
 3408SOL    HW211124   5.132   3.524   3.434
 3409SOL     OW11125   2.827   1.114   6.058
 3409SOL    HW111126   2.729   1.104   6.040
 3409SOL    HW211127   2.857   1.042   6.120
 3410SOL     OW11128   6.798   1.981   0.261
 3410SOL    HW111129   6.892   1.996   0.228
 3410SOL    HW211130   6.759   2.069   0.289
 3411SOL     OW11131   4.579   2.245   2.120
 3411SOL    HW111132   4.488   2.211   2.145
 3411SOL    HW211133   4.570   2.333   2.075
 3412SOL     OW11134   4.633   5.571   6.796
 3412SOL    HW111135   4.632   5.593   6.698
 3412SOL    HW211136   4.703   5.502   6.814
 3413SOL     OW11137   4.996   1.230   2.475
 3413SOL    HW111138   4.942   1.219   2.391
 3413SOL    HW211139   5.043   1.319   2.473
 3414SOL     OW11140   3.728   0.636   5.381
 3414SOL    HW111141   3.629   0.643   5.373
 3414SOL    HW211142   3.752   0.549   5.423
 3415SOL     OW11143   1.054   5.085   4.320
 3415SOL    HW111144   1.079   5.182   4.318
 3415SOL    HW211145   1.083   5.046   4.408
 3416SOL     OW11146   2.124   4.400   6.133
 3416SOL    HW111147   2.142   4.409   6.035
 3416SOL    HW211148   2.033   4.436   6.153
 3417SOL     OW11149   5.246   0.858   1.345
 3417SOL    HW111150   5.156   0.815   1.353
 3417SOL    HW211151   5.263   0.884   1.250
 3418SOL     OW11152   3.181   2.819   6.355
 3418SOL    HW111153   3.270   2.796   6.318
 3418SOL    HW211154   3.131   2.876   6.290
 3419SOL     OW11155   4.984   3.616   6.659
 3419SOL    HW111156   4.966   3.531   6.709
 3419SOL    HW211157   4.989   3.596   6.561
 3420SOL     OW11158   4.379   1.473   4.133
 3420SOL    HW111159   4.289   1.475   4.089
 3420SOL    HW211160   4.442   1.533   4.083
 3421SOL     OW11161   0.186   6.392   2.590
 3421SOL    HW111162   0.280   6.426   2.587
 3421SOL    HW211163   0.181   6.305   2.541
 3422SOL     OW11164   3.023   2.168   2.849
 3422SOL    HW111165   3.097   2.182   2.915
 3422SOL    HW211166   3.060   2.123   2.767
 3423SOL     OW11167   3.232   0.514   1.684
 3423SOL    HW111168   3.325   0.486   1.710
 3423SOL    HW211169   3.230   0.613   1.670
 3424SOL     OW11170   4.300   1.183   1.612
 3424SOL    HW111171   4.278   1.087   1.632
 3424SOL    HW211172   4.302   1.235   1.697
 3425SOL     OW11173   4.186   3.987   1.734
 3425SOL    HW111174   4.255   4.052   1.765
 3425SOL    HW211175   4.171   3.998   1.636
 3426SOL     OW11176   4.721   3.776   1.082
 3426SOL    HW111177   4.657   3.755   1.156
 3426SOL    HW211178   4.747   3.872   1.087
 3427SOL     OW11179   0.662   1.649   0.829
 3427SOL    HW111180   0.706   1.712   0.892
 3427SOL    HW211181   0.706   1.656   0.739
 3428SOL     OW11182   4.172   4.960   3.367
 3428SOL    HW111183   4.118   4.941   3.285
 3428SOL    HW211184   4.232   5.037   3.351
 3429SOL     OW11185   0.518   2.893   0.727
 3429SOL    HW111186   0.593   2.955   0.750
 3429SOL    HW211187   0.549   2.799   0.734
 3430SOL     OW11188   1.457   5.204   6.420
 3430SOL    HW111189   1.416   5.264   6.489
 3430SOL    HW211190   1.488   5.119   6.464
 3431SOL     OW11191   1.782   6.221   6.758
 3431SOL    HW111192   1.838   6.142   6.784
 3431SOL    HW211193   1.690   6.209   6.797
 3432SOL     OW11194   3.049   1.785   6.704
 3432SOL    HW111195   2.991   1.708   6.677
 3432SOL    HW211196   2.994   1.853   6.752
 3433SOL     OW11197   4.968   0.823   4.651
 3433SOL    HW111198   5.001   0.915   4.670
 3433SOL    HW211199   5.044   0.766   4.620
 3434SOL     OW11200   4.431   1.732   3.234
 3434SOL    HW111201   4.461   1.715   3.140
 3434SOL    HW211202   4.509   1.724   3.296
 3435SOL     OW11203   0.964   1.235   0.163
 3435SOL    HW111204   1.064   1.237   0.171
 3435SOL    HW211205   0.939   1.208   0.069
 3436SOL     OW11206   4.536   6.762   2.910
 3436SOL    HW111207   4.485   6.730   2.990
 3436SOL    HW211208   4.475   6.812   2.849
 3437SOL     OW11209   4.465   0.601   6.634
 3437SOL    HW111210   4.560   0.615   6.663
 3437SOL    HW211211   4.405   0.607   6.713
 3438SOL     OW11212   1.175   5.032   6.406
 3438SOL    HW111213   1.215   5.040   6.497
 3438SOL    HW211214   1.168   4.936   6.381
 3439SOL     OW11215   2.489   0.083   4.034
 3439SOL    HW111216   2.471   0.063   3.937
 3439SOL    HW211217   2.585   0.066   4.054
 3440SOL     OW11218   3.134   2.253   0.794
 3440SOL    HW111219   3.174   2.305   0.870
 3440SOL    HW211220   3.156   2.298   0.708
 3441SOL     OW11221   4.769   0.143   4.328
 3441SOL    HW111222   4.842   0.194   4.283
 3441SOL    HW211223   4.787   0.045   4.320
 3442SOL     OW11224   1.043   4.870   3.196
 3442SOL    HW111225   1.012   4.918   3.279
 3442SOL    HW211226   1.134   4.902   3.172
 3443SOL     OW11227   5.915   6.591   4.395
 3443SOL    HW111228   5.902   6.635   4.484
 3443SOL    HW211229   5.913   6.492   4.407
 3444SOL     OW11230   4.434   4.950   0.174
 3444SOL    HW111231   4.515   4.918   0.223
 3444SOL    HW211232   4.354   4.944   0.235
 3445SOL     OW11233   5.862   5.277   4.789
 3445SOL    HW111234   5.781   5.230   4.754
 3445SOL    HW211235   5.878   5.360   4.736
 3446SOL     OW11236   2.553   6.307   2.329
 3446SOL    HW111237   2.625   6.255   2.283
 3446SOL    HW211238   2.537   6.269   2.420
 3447SOL     OW11239   6.406   4.779   5.335
 3447SOL    HW111240   6.392   4.847   5.407
 3447SOL    HW211241   6.328   4.780   5.273
 3448SOL     OW11242   3.515   3.289   0.821
 3448SOL    HW111243   3.556   3.206   0.784
 3448SOL    HW211244   3.585   3.359   0.832
 3449SOL     OW11245   7.007   6.097   2.860
 3449SOL    HW111246   0.095   6.096   2.873
 3449SOL    HW211247   6.961   6.080   2.947
 3450SOL     OW11248   0.599   1.779   1.400
 3450SOL    HW111249   0.554   1.729   1.474
 3450SOL    HW211250   0.530   1.822   1.342
 3451SOL     OW11251   1.551   4.304   4.255
 3451SOL    HW111252   1.621   4.233   4.248
 3451SOL    HW211253   1.579   4.384   4.202
 3452SOL     OW11254   6.750   2.035   0.717
 3452SOL    HW111255   6.716   2.018   0.624
 3452SOL    HW211256   6.687   1.996   0.784
 3453SOL     OW11257   5.765   6.278   5.592
 3453SOL    HW111258   5.730   6.325   5.511
 3453SOL    HW211259   5.853   6.318   5.619
 3454SOL     OW11260   1.070   1.132   0.733
 3454SOL    HW111261   0.994   1.144   0.668
 3454SOL    HW211262   1.150   1.183   0.701
 3455SOL     OW11263   1.827   2.794   3.998
 3455SOL    HW111264   1.813   2.876   3.942
 3455SOL    HW211265   1.873   2.724   3.944
 3456SOL     OW11266   6.982   0.176   0.556
 3456SOL    HW111267   0.011   0.163   0.465
 3456SOL    HW211268   0.028   0.129   0.623
 3457SOL     OW11269   1.920   6.227   3.910
 3457SOL    HW111270   1.845   6.292   3.896
 3457SOL    HW211271   2.006   6.276   3.918
 3458SOL     OW11272   5.197   4.862   0.450
 3458SOL    HW111273   5.132   4.795   0.415
 3458SOL    HW211274   5.236   4.914   0.374
 3459SOL     OW11275   6.628   6.308   3.095
 3459SOL    HW111276   6.622   6.400   3.055
 3459SOL    HW211277   6.550   6.254   3.064
 3460SOL     OW11278   3.734   2.954   6.237
 3460SOL    HW111279   3.741   2.961   6.138
 3460SOL    HW211280   3.810   2.899   6.272
 3461SOL     OW11281   2.507   5.399   2.857
 3461SOL    HW111282   2.499   5.317   2.914
 3461SOL    HW211283   2.574   5.383   2.785
 3462SOL     OW11284   5.320   2.835   2.491
 3462SOL    HW111285   5.260   2.905   2.529
 3462SOL    HW211286   5.269   2.749   2.482
 3463SOL     OW11287   1.498   3.271   1.513
 3463SOL    HW111288   1.561   3.341   1.482
 3463SOL    HW211289   1.548   3.186   1.531
 3464SOL     OW11290   5.251   2.052   5.799
 3464SOL    HW111291   5.193   1.978   5.764
 3464SOL    HW211292   5.271   2.036   5.895
 3465SOL     OW11293   1.704   4.767   1.650
 3465SOL    HW111294   1.767   4.734   1.580
 3465SOL    HW211295   1.633   4.699   1.667
 3466SOL     OW11296   6.162   4.199   4.249
 3466SOL    HW111297   6.163   4.251   4.334
 3466SOL    HW211298   6.235   4.130   4.252
 3467SOL     OW11299   3.473   2.884   1.035
 3467SOL    HW111300   3.464   2.813   0.965
 3467SOL    HW211301   3.394   2.945   1.031
 3468SOL     OW11302   3.785   1.477   1.218
 3468SOL    HW111303   3.770   1.449   1.313
 3468SOL    HW211304   3.882   1.496   1.203
 3469SOL     OW11305   3.762   5.326   4.896
 3469SOL    HW111306   3.817   5.399   4.857
 3469SOL    HW211307   3.822   5.258   4.939
 3470SOL     OW11308   0.893   2.340   2.247
 3470SOL    HW111309   0.803   2.316   2.283
 3470SOL    HW211310   0.892   2.436   2.217
 3471SOL     OW11311   4.766   2.955   4.900
 3471SOL    HW111312   4.731   2.956   4.807
 3471SOL    HW211313   4.757   3.046   4.941
 3472SOL     OW11314   4.498   1.947   2.902
 3472SOL    HW111315   4.491   1.944   2.802
 3472SOL    HW211316   4.482   2.041   2.933
 3473SOL     OW11317   6.045   4.660   1.798
 3473SOL    HW111318   5.963   4.677   1.852
 3473SOL    HW211319   6.026   4.589   1.731
 3474SOL     OW11320   4.920   4.801   3.858
 3474SOL    HW111321   4.946   4.764   3.769
 3474SOL    HW211322   4.977   4.880   3.880
 3475SOL     OW11323   6.815   4.285   4.194
 3475SOL    HW111324   6.766   4.225   4.130
 3475SOL    HW211325   6.782   4.269   4.287
 3476SOL     OW11326   1.809   1.655   3.140
 3476SOL    HW111327   1.807   1.615   3.232
 3476SOL    HW211328   1.758   1.741   3.140
 3477SOL     OW11329   0.702   3.967   1.509
 3477SOL    HW111330   0.720   4.051   1.458
 3477SOL    HW211331   0.786   3.912   1.513
 3478SOL     OW11332   2.089   0.514   1.131
 3478SOL    HW111333   2.171   0.504   1.075
 3478SOL    HW211334   2.027   0.437   1.114
 3479SOL     OW11335   1.232   4.413   4.964
 3479SOL    HW111336   1.144   4.382   4.928
 3479SOL    HW211337   1.288   4.447   4.888
 3480SOL     OW11338   1.531   4.672   6.038
 3480SOL    HW111339   1.483   4.732   6.101
 3480SOL    HW211340   1.473   4.654   5.958
 3481SOL     OW11341   5.996   0.297   4.800
 3481SOL    HW111342   5.964   0.361   4.871
 3481SOL    HW211343   5.942   0.213   4.805
 3482SOL     OW11344   6.245   3.769   6.495
 3482SOL    HW111345   6.257   3.705   6.571
 3482SOL    HW211346   6.181   3.841   6.522
 3483SOL     OW11347   5.734   2.647   5.409
 3483SOL    HW111348   5.660   2.581   5.404
 3483SOL    HW211349   5.712   2.717   5.477
 3484SOL     OW11350   1.109   3.440   4.797
 3484SOL    HW111351   1.151   3.408   4.712
 3484SOL    HW211352   1.179   3.451   4.867
 3485SOL     OW11353   7.005   3.076   6.860
 3485SOL    HW111354   0.035   3.116   6.942
 3485SOL    HW211355   6.984   2.980   6.877
 3486SOL     OW11356   1.762   6.417   5.595
 3486SOL    HW111357   1.789   6.508   5.564
 3486SOL    HW211358   1.814   6.347   5.546
 3487SOL     OW11359   4.473   1.573   0.090
 3487SOL    HW111360   4.391   1.606   0.045
 3487SOL    HW211361   4.543   1.553   0.022
 3488SOL     OW11362   5.919   6.724   4.991
 3488SOL    HW111363   5.971   6.801   4.955
 3488SOL    HW211364   5.830   6.720   4.946
 3489SOL     OW11365   2.900   5.978   0.846
 3489SOL    HW111366   2.844   5.903   0.813
 3489SOL    HW211367   2.994   5.965   0.815
 3490SOL     OW11368   3.525   6.441   0.687
 3490SOL    HW111369   3.539   6.396   0.775
 3490SOL    HW211370   3.597   6.510   0.674
 3491SOL     OW11371   4.208   4.726   6.080
 3491SOL    HW111372   4.263   4.740   5.998
 3491SOL    HW211373   4.237   4.642   6.126
 3492SOL     OW11374   5.767   4.379   3.227
 3492SOL    HW111375   5.837   4.450   3.221
 3492SOL    HW211376   5.800   4.305   3.287
 3493SOL     OW11377   6.833   2.940   5.304
 3493SOL    HW111378   6.898   3.013   5.282
 3493SOL    HW211379   6.782   2.964   5.386
 3494SOL     OW11380   4.018   1.586   2.228
 3494SOL    HW111381   4.046   1.647   2.154
 3494SOL    HW211382   3.969   1.639   2.297
 3495SOL     OW11383   1.328   3.418   3.068
 3495SOL    HW111384   1.368   3.377   3.150
 3495SOL    HW211385   1.260   3.355   3.029
 3496SOL     OW11386   6.329   4.930   1.325
 3496SOL    HW111387   6.328   4.926   1.225
 3496SOL    HW211388   6.342   5.024   1.354
 3497SOL     OW11389   3.411   0.108   1.980
 3497SOL    HW111390   3.318   0.084   2.010
 3497SOL    HW211391   3.441   0.191   2.027
 3498SOL     OW11392   2.011   2.562   1.451
 3498SOL    HW111393   1.943   2.509   1.401
 3498SOL    HW211394   2.093   2.506   1.464
 3499SOL     OW11395   5.893   6.749   4.621
 3499SOL    HW111396   5.904   6.755   4.721
 3499SOL    HW211397   5.953   6.816   4.578
 3500SOL     OW11398   2.657   2.471   4.057
 3500SOL    HW111399   2.653   2.495   3.960
 3500SOL    HW211400   2.608   2.386   4.073
 3501SOL     OW11401   1.490   6.960   6.075
 3501SOL    HW111402   1.442   6.997   5.996
 3501SOL    HW211403   1.514   6.864   6.058
 3502SOL     OW11404   4.556   2.363   2.428
 3502SOL    HW111405   4.649   2.338   2.456
 3502SOL    HW211406   4.559   2.444   2.371
 3503SOL     OW11407   0.080   5.928   6.233
 3503SOL    HW111408   0.024   5.959   6.310
 3503SOL    HW211409   0.035   5.850   6.189
 3504SOL     OW11410   1.828   0.714   0.246
 3504SOL    HW111411   1.829   0.760   0.335
 3504SOL    HW211412   1.777   0.769   0.180
 3505SOL     OW11413   5.269   3.692   5.908
 3505SOL    HW111414   5.197   3.639   5.862
 3505SOL    HW211415   5.252   3.789   5.894
 3506SOL     OW11416   4.172   4.769   5.114
 3506SOL    HW111417   4.094   4.795   5.058
 3506SOL    HW211418   4.225   4.699   5.067
 3507SOL     OW11419   3.473   0.980   0.927
 3507SOL    HW111420   3.400   1.003   0.862
 3507SOL    HW211421   3.537   0.917   0.883
 3508SOL     OW11422   3.409   1.418   5.399
 3508SOL    HW111423   3.490   1.363   5.378
 3508SOL    HW211424   3.370   1.389   5.486
 3509SOL     OW11425   4.198   5.586   6.392
 3509SOL    HW111426   4.102   5.569   6.413
 3509SOL    HW211427   4.252   5.582   6.476
 3510SOL     OW11428   2.538   1.923   1.423
 3510SOL    HW111429   2.539   1.928   1.523
 3510SOL    HW211430   2.600   1.991   1.385
 3511SOL     OW11431   2.736   4.400   1.656
 3511SOL    HW111432   2.770   4.311   1.628
 3511SOL    HW211433   2.796   4.439   1.726
 3512SOL     OW11434   0.023   5.040   5.636
 3512SOL    HW111435   6.936   5.042   5.612
 3512SOL    HW211436   0.068   4.968   5.583
 3513SOL     OW11437   5.978   1.818   0.921
 3513SOL    HW111438   6.033   1.898   0.897
 3513SOL    HW211439   5.892   1.820   0.871
 3514SOL     OW11440   3.152   1.837   1.874
 3514SOL    HW111441   3.181   1.807   1.964
 3514SOL    HW211442   3.071   1.895   1.882
 3515SOL     OW11443   0.209   5.057   4.450
 3515SOL    HW111444   0.178   5.083   4.359
 3515SOL    HW211445   0.173   5.122   4.517
 3516SOL     OW11446   4.835   0.458   1.387
 3516SOL    HW111447   4.825   0.363   1.416
 3516SOL    HW211448   4.853   0.516   1.466
 3517SOL     OW11449   5.379   0.625   1.452
 3517SOL    HW111450   5.350   0.716   1.421
 3517SOL    HW211451   5.398   0.628   1.550
 3518SOL     OW11452   4.997   0.919   5.084
 3518SOL    HW111453   4.929   0.943   5.013
 3518SOL    HW211454   5.084   0.899   5.040
 3519SOL     OW11455   3.262   1.100   1.174
 3519SOL    HW111456   3.201   1.133   1.245
 3519SOL    HW211457   3.357   1.120   1.200
 3520SOL     OW11458   2.926   6.125   4.154
 3520SOL    HW111459   2.831   6.097   4.167
 3520SOL    HW211460   2.984   6.044   4.143
 3521SOL     OW11461   2.776   2.723   6.351
 3521SOL    HW111462   2.815   2.793   6.411
 3521SOL    HW211463   2.847   2.658   6.324
 3522SOL     OW11464   1.020   6.369   6.339
 3522SOL    HW111465   1.032   6.321   6.252
 3522SOL    HW211466   0.970   6.454   6.323
 3523SOL     OW11467   3.206   6.468   6.963
 3523SOL    HW111468   3.114   6.477   6.926
 3523SOL    HW211469   3.265   6.539   6.926
 3524SOL     OW11470   4.891   1.310   4.010
 3524SOL    HW111471   4.975   1.278   3.968
 3524SOL    HW211472   4.820   1.240   3.999
 3525SOL     OW11473   0.223   3.318   3.067
 3525SOL    HW111474   0.285   3.318   3.146
 3525SOL    HW211475   0.256   3.251   3.000
 3526SOL     OW11476   0.345   6.465   1.856
 3526SOL    HW111477   0.255   6.456   1.899
 3526SOL    HW211478   0.417   6.448   1.924
 3527SOL     OW11479   0.073   3.166   6.298
 3527SOL    HW111480   0.037   3.257   6.278
 3527SOL    HW211481   0.080   3.153   6.397
 3528SOL     OW11482   2.350   5.551   4.477
 3528SOL    HW111483   2.257   5.513   4.476
 3528SOL    HW211484   2.345   5.650   4.462
 3529SOL     OW11485   4.254   4.756   0.777
 3529SOL    HW111486   4.172   4.717   0.819
 3529SOL    HW211487   4.322   4.774   0.848
 3530SOL     OW11488   6.481   6.722   0.505
 3530SOL    HW111489   6.567   6.769   0.483
 3530SOL    HW211490   6.500   6.627   0.529
 3531SOL     OW11491   4.816   2.524   0.307
 3531SOL    HW111492   4.735   2.551   0.254
 3531SOL    HW211493   4.807   2.428   0.334
 3532SOL     OW11494   1.849   0.799   1.497
 3532SOL    HW111495   1.774   0.753   1.545
 3532SOL    HW211496   1.903   0.731   1.447
 3533SOL     OW11497   0.949   1.521   3.554
 3533SOL    HW111498   0.969   1.491   3.460
 3533SOL    HW211499   0.918   1.616   3.552
 3534SOL     OW11500   0.158   1.035   0.961
 3534SOL    HW111501   0.248   0.993   0.950
 3534SOL    HW211502   0.155   1.086   1.047
 3535SOL     OW11503   3.352   5.906   4.115
 3535SOL    HW111504   3.330   5.999   4.146
 3535SOL    HW211505   3.267   5.856   4.100
 3536SOL     OW11506   3.925   1.692   3.228
 3536SOL    HW111507   4.006   1.646   3.190
 3536SOL    HW211508   3.870   1.729   3.153
 3537SOL     OW11509   1.681   6.912   3.727
 3537SOL    HW111510   1.622   6.874   3.655
 3537SOL    HW211511   1.623   6.952   3.799
 3538SOL     OW11512   2.708   5.676   1.767
 3538SOL    HW111513   2.771   5.637   1.834
 3538SOL    HW211514   2.614   5.656   1.795
 3539SOL     OW11515   3.441   3.682   4.114
 3539SOL    HW111516   3.423   3.612   4.184
 3539SOL    HW211517   3.539   3.699   4.109
 3540SOL     OW11518   1.226   2.548   3.636
 3540SOL    HW111519   1.299   2.509   3.692
 3540SOL    HW211520   1.138   2.507   3.662
 3541SOL     OW11521   4.092   3.610   4.409
 3541SOL    HW111522   4.135   3.697   4.433
 3541SOL    HW211523   4.094   3.549   4.488
 3542SOL     OW11524   6.474   5.497   1.071
 3542SOL    HW111525   6.447   5.566   1.139
 3542SOL    HW211526   6.436   5.408   1.097
 3543SOL     OW11527   5.480   2.634   4.545
 3543SOL    HW111528   5.436   2.546   4.564
 3543SOL    HW211529   5.411   2.702   4.520
 3544SOL     OW11530   2.366   6.736   0.199
 3544SOL    HW111531   2.369   6.733   0.299
 3544SOL    HW211532   2.328   6.824   0.170
 3545SOL     OW11533   3.454   4.823   0.685
 3545SOL    HW111534   3.393   4.743   0.681
 3545SOL    HW211535   3.411   4.900   0.639
 3546SOL     OW11536   0.144   4.825   2.254
 3546SOL    HW111537   0.168   4.740   2.300
 3546SOL    HW211538   0.117   4.806   2.160
 3547SOL     OW11539   5.015   4.946   4.448
 3547SOL    HW111540   5.065   4.863   4.426
 3547SOL    HW211541   5.079   5.020   4.469
 3548SOL     OW11542   5.091   3.902   5.943
 3548SOL    HW111543   5.099   3.950   5.855
 3548SOL    HW211544   4.999   3.914   5.979
 3549SOL     OW11545   5.180   3.516   2.900
 3549SOL    HW111546   5.147   3.610   2.892
 3549SOL    HW211547   5.203   3.481   2.810
 3550SOL     OW11548   5.123   1.335   3.503
 3550SOL    HW111549   5.173   1.392   3.567
 3550SOL    HW211550   5.071   1.393   3.439
 3551SOL     OW11551   2.126   6.426   2.855
 3551SOL    HW111552   2.223   6.414   2.876
 3551SOL    HW211553   2.074   6.435   2.941
 3552SOL     OW11554   6.651   4.322   3.115
 3552SOL    HW111555   6.620   4.304   3.208
 3552SOL    HW211556   6.614   4.410   3.084
 3553SOL     OW11557   5.592   2.161   3.382
 3553SOL    HW111558   5.600   2.062   3.393
 3553SOL    HW211559   5.681   2.200   3.358
 3554SOL     OW11560   4.107   5.699   6.847
 3554SOL    HW111561   4.121   5.601   6.863
 3554SOL    HW211562   4.041   5.711   6.773
 3555SOL     OW11563   0.546   2.185   3.462
 3555SOL    HW111564   0.561   2.190   3.561
 3555SOL    HW211565   0.475   2.118   3.443
 3556SOL     OW11566   4.459   1.355   6.575
 3556SOL    HW111567   4.391   1.321   6.640
 3556SOL    HW211568   4.548   1.359   6.619
 3557SOL     OW11569   0.811   0.166   4.609
 3557SOL    HW111570   0.819   0.087   4.548
 3557SOL    HW211571   0.903   0.199   4.633
 3558SOL     OW11572   0.021   6.557   1.368
 3558SOL    HW111573   0.041   6.600   1.455
 3558SOL    HW211574   6.991   6.624   1.306
 3559SOL     OW11575   1.218   0.460   5.530
 3559SOL    HW111576   1.262   0.389   5.475
 3559SOL    HW211577   1.278   0.485   5.606
 3560SOL     OW11578   6.684   6.747   1.170
 3560SOL    HW111579   6.608   6.748   1.106
 3560SOL    HW211580   6.650   6.760   1.263
 3561SOL     OW11581   5.133   4.406   3.793
 3561SOL    HW111582   5.037   4.393   3.769
 3561SOL    HW211583   5.159   4.338   3.862
 3562SOL     OW11584   3.695   2.114   3.123
 3562SOL    HW111585   3.612   2.091   3.174
 3562SOL    HW211586   3.775   2.076   3.170
 3563SOL     OW11587   5.035   6.617   1.637
 3563SOL    HW111588   5.016   6.649   1.544
 3563SOL    HW211589   4.951   6.616   1.690
 3564SOL     OW11590   6.526   4.105   2.982
 3564SOL    HW111591   6.583   4.179   3.016
 3564SOL    HW211592   6.437   4.141   2.953
 3565SOL     OW11593   1.595   1.158   5.401
 3565SOL    HW111594   1.593   1.068   5.445
 3565SOL    HW211595   1.564   1.149   5.306
 3566SOL     OW11596   1.072   4.503   6.255
 3566SOL    HW111597   1.058   4.452   6.170
 3566SOL    HW211598   1.067   4.440   6.332
 3567SOL     OW11599   6.938   2.747   1.494
 3567SOL    HW111600   0.001   2.721   1.432
 3567SOL    HW211601   6.938   2.847   1.505
 3568SOL     OW11602   4.576   4.322   3.547
 3568SOL    HW111603   4.511   4.391   3.577
 3568SOL    HW211604   4.597   4.260   3.623
 3569SOL     OW11605   4.091   3.447   3.458
 3569SOL    HW111606   4.061   3.530   3.505
 3569SOL    HW211607   4.060   3.366   3.508
 3570SOL     OW11608   0.166   2.060   5.039
 3570SOL    HW111609   0.116   2.058   5.126
 3570SOL    HW211610   0.188   1.966   5.011
 3571SOL     OW11611   2.553   6.852   4.610
 3571SOL    HW111612   2.507   6.764   4.619
 3571SOL    HW211613   2.492   6.925   4.641
 3572SOL     OW11614   5.146   4.161   1.979
 3572SOL    HW111615   5.083   4.210   2.039
 3572SOL    HW211616   5.240   4.183   2.003
 3573SOL     OW11617   6.820   4.406   3.778
 3573SOL    HW111618   6.878   4.455   3.714
 3573SOL    HW211619   6.851   4.311   3.786
 3574SOL     OW11620   2.211   1.805   5.827
 3574SOL    HW111621   2.173   1.713   5.814
 3574SOL    HW211622   2.282   1.801   5.897
 3575SOL     OW11623   5.243   0.358   6.666
 3575SOL    HW111624   5.247   0.262   6.637
 3575SOL    HW211625   5.224   0.363   6.764
 3576SOL     OW11626   1.099   2.911   0.685
 3576SOL    HW111627   1.169   2.840   0.694
 3576SOL    HW211628   1.106   2.953   0.595
 3577SOL     OW11629   1.429   2.865   4.843
 3577SOL    HW111630   1.452   2.772   4.873
 3577SOL    HW211631   1.512   2.921   4.842
 3578SOL     OW11632   3.771   2.770   6.997
 3578SOL    HW111633   3.708   2.807   0.055
 3578SOL    HW211634   3.774   2.831   6.918
 3579SOL     OW11635   1.227   3.996   1.159
 3579SOL    HW111636   1.196   4.023   1.068
 3579SOL    HW211637   1.272   3.907   1.153
 3580SOL     OW11638   6.708   3.890   2.132
 3580SOL    HW111639   6.644   3.842   2.071
 3580SOL    HW211640   6.657   3.936   2.204
 3581SOL     OW11641   1.777   0.768   2.698
 3581SOL    HW111642   1.753   0.721   2.784
 3581SOL    HW211643   1.876   0.761   2.683
 3582SOL     OW11644   4.252   5.917   6.925
 3582SOL    HW111645   4.292   5.868   7.002
 3582SOL    HW211646   4.194   5.855   6.872
 3583SOL     OW11647   1.790   5.666   1.395
 3583SOL    HW111648   1.789   5.763   1.418
 3583SOL    HW211649   1.878   5.643   1.353
 3584SOL     OW11650   5.932   4.924   4.568
 3584SOL    HW111651   5.920   5.012   4.522
 3584SOL    HW211652   5.998   4.935   4.642
 3585SOL     OW11653   3.660   2.034   3.879
 3585SOL    HW111654   3.583   2.082   3.836
 3585SOL    HW211655   3.627   1.984   3.959
 3586SOL     OW11656   6.621   2.038   5.462
 3586SOL    HW111657   6.616   2.093   5.546
 3586SOL    HW211658   6.532   1.995   5.446
 3587SOL     OW11659   3.043   0.918   5.644
 3587SOL    HW111660   2.970   0.856   5.617
 3587SOL    HW211661   3.056   0.914   5.743
 3588SOL     OW11662   5.506   4.443   4.314
 3588SOL    HW111663   5.544   4.470   4.226
 3588SOL    HW211664   5.555   4.489   4.387
 3589SOL     OW11665   0.710   0.360   6.156
 3589SOL    HW111666   0.785   0.426   6.146
 3589SOL    HW211667   0.731   0.276   6.107
 3590SOL     OW11668   6.173   5.288   5.183
 3590SOL    HW111669   6.239   5.323   5.116
 3590SOL    HW211670   6.081   5.290   5.144
 3591SOL     OW11671   4.459   1.902   0.643
 3591SOL    HW111672   4.372   1.886   0.597
 3591SOL    HW211673   4.478   2.000   0.646
 3592SOL     OW11674   1.219   6.298   0.959
 3592SOL    HW111675   1.291   6.294   1.029
 3592SOL    HW211676   1.243   6.238   0.883
 3593SOL     OW11677   4.011   3.088   5.854
 3593SOL    HW111678   3.998   3.106   5.756
 3593SOL    HW211679   4.070   3.159   5.893
 3594SOL     OW11680   4.496   4.705   5.210
 3594SOL    HW111681   4.439   4.733   5.287
 3594SOL    HW211682   4.455   4.625   5.165
 3595SOL     OW11683   4.811   6.609   4.599
 3595SOL    HW111684   4.791   6.525   4.549
 3595SOL    HW211685   4.820   6.589   4.696
 3596SOL     OW11686   3.938   1.809   2.812
 3596SOL    HW111687   3.883   1.801   2.895
 3596SOL    HW211688   4.032   1.835   2.837
 3597SOL     OW11689   3.588   4.294   5.245
 3597SOL    HW111690   3.619   4.263   5.156
 3597SOL    HW211691   3.596   4.220   5.312
 3598SOL     OW11692   0.108   5.884   5.150
 3598SOL    HW111693   0.087   5.833   5.067
 3598SOL    HW211694   0.168   5.961   5.127
 3599SOL     OW11695   2.521   1.652   4.884
 3599SOL    HW111696   2.583   1.718   4.926
 3599SOL    HW211697   2.568   1.605   4.809
 3600SOL     OW11698   2.767   3.904   0.232
 3600SOL    HW111699   2.781   3.925   0.329
 3600SOL    HW211700   2.829   3.960   0.177
 3601SOL     OW11701   4.141   0.843   5.215
 3601SOL    HW111702   4.179   0.894   5.292
 3601SOL    HW211703   4.181   0.751   5.213
 3602SOL     OW11704   1.411   2.571   1.327
 3602SOL    HW111705   1.462   2.510   1.267
 3602SOL    HW211706   1.469   2.601   1.402
 3603SOL     OW11707   2.290   0.431   5.823
 3603SOL    HW111708   2.343   0.352   5.792
 3603SOL    HW211709   2.205   0.399   5.867
 3604SOL     OW11710   6.692   0.917   3.594
 3604SOL    HW111711   6.759   0.843   3.588
 3604SOL    HW211712   6.606   0.889   3.552
 3605SOL     OW11713   1.400   0.399   5.164
 3605SOL    HW111714   1.425   0.312   5.205
 3605SOL    HW211715   1.305   0.421   5.188
 3606SOL     OW11716   2.411   6.894   2.589
 3606SOL    HW111717   2.330   6.888   2.531
 3606SOL    HW211718   2.409   6.820   2.656
 3607SOL     OW11719   6.436   1.223   3.491
 3607SOL    HW111720   6.463   1.256   3.400
 3607SOL    HW211721   6.406   1.299   3.547
 3608SOL     OW11722   3.803   1.938   5.823
 3608SOL    HW111723   3.875   1.870   5.810
 3608SOL    HW211724   3.822   1.992   5.904
 3609SOL     OW11725   3.189   0.143   5.527
 3609SOL    HW111726   3.192   0.231   5.481
 3609SOL    HW211727   3.107   0.138   5.584
 3610SOL     OW11728   2.029   0.472   5.550
 3610SOL    HW111729   2.006   0.542   5.618
 3610SOL    HW211730   1.970   0.392   5.562
 3611SOL     OW11731   5.641   3.872   3.245
 3611SOL    HW111732   5.652   3.933   3.323
 3611SOL    HW211733   5.714   3.803   3.246
 3612SOL     OW11734   4.909   1.821   0.354
 3612SOL    HW111735   4.889   1.776   0.440
 3612SOL    HW211736   4.988   1.778   0.310
 3613SOL     OW11737   3.571   0.151   2.481
 3613SOL    HW111738   3.593   0.055   2.500
 3613SOL    HW211739   3.473   0.166   2.497
 3614SOL     OW11740   3.780   5.541   0.489
 3614SOL    HW111741   3.728   5.508   0.568
 3614SOL    HW211742   3.722   5.602   0.435
 3615SOL     OW11743   5.369   3.063   5.295
 3615SOL    HW111744   5.430   3.110   5.232
 3615SOL    HW211745   5.333   2.980   5.252
 3616SOL     OW11746   1.299   2.169   0.933
 3616SOL    HW111747   1.241   2.219   0.868
 3616SOL    HW211748   1.243   2.104   0.985
 3617SOL     OW11749   3.867   5.145   5.060
 3617SOL    HW111750   3.961   5.173   5.040
 3617SOL    HW211751   3.845   5.169   5.155
 3618SOL     OW11752   1.050   5.435   4.628
 3618SOL    HW111753   1.049   5.340   4.658
 3618SOL    HW211754   1.079   5.440   4.532
 3619SOL     OW11755   6.207   1.968   2.442
 3619SOL    HW111756   6.283   1.954   2.379
 3619SOL    HW211757   6.165   1.880   2.465
 3620SOL     OW11758   4.921   6.156   5.478
 3620SOL    HW111759   4.950   6.189   5.388
 3620SOL    HW211760   4.967   6.209   5.549
 3621SOL     OW11761   3.715   2.924   3.924
 3621SOL    HW111762   3.720   2.997   3.993
 3621SOL    HW211763   3.627   2.877   3.932
 3622SOL     OW11764   1.986   5.549   6.147
 3622SOL    HW111765   2.017   5.641   6.172
 3622SOL    HW211766   1.896   5.532   6.187
 3623SOL     OW11767   1.772   5.633   5.966
 3623SOL    HW111768   1.785   5.607   6.062
 3623SOL    HW211769   1.851   5.686   5.935
 3624SOL     OW11770   2.794   1.777   3.055
 3624SOL    HW111771   2.764   1.810   3.145
 3624SOL    HW211772   2.762   1.839   2.984
 3625SOL     OW11773   6.159   2.291   1.489
 3625SOL    HW111774   6.194   2.269   1.580
 3625SOL    HW211775   6.201   2.376   1.457
 3626SOL     OW11776   1.366   2.730   6.131
 3626SOL    HW111777   1.400   2.637   6.120
 3626SOL    HW211778   1.307   2.735   6.212
 3627SOL     OW11779   3.091   1.101   2.546
 3627SOL    HW111780   3.020   1.122   2.613
 3627SOL    HW211781   3.181   1.118   2.586
 3628SOL     OW11782   6.552   1.619   1.540
 3628SOL    HW111783   6.523   1.691   1.477
 3628SOL    HW211784   6.652   1.621   1.548
 3629SOL     OW11785   1.814   0.942   4.364
 3629SOL    HW111786   1.742   0.961   4.430
 3629SOL    HW211787   1.823   1.019   4.301
 3630SOL     OW11788   6.545   2.429   2.833
 3630SOL    HW111789   6.544   2.399   2.928
 3630SOL    HW211790   6.635   2.411   2.793
 3631SOL     OW11791   1.980   5.764   2.591
 3631SOL    HW111792   1.965   5.733   2.497
 3631SOL    HW211793   2.068   5.730   2.624
 3632SOL     OW11794   4.860   3.400   2.603
 3632SOL    HW111795   4.942   3.405   2.547
 3632SOL    HW211796   4.779   3.405   2.545
 3633SOL     OW11797   4.262   4.561   6.488
 3633SOL    HW111798   4.339   4.553   6.551
 3633SOL    HW211799   4.225   4.470   6.469
 3634SOL     OW11800   3.142   5.544   6.192
 3634SOL    HW111801   3.113   5.473   6.257
 3634SOL    HW211802   3.149   5.504   6.100
 3635SOL     OW11803   1.529   0.074   3.134
 3635SOL    HW111804   1.600   0.144   3.142
 3635SOL    HW211805   1.570   6.994   3.142
 3636SOL     OW11806   0.063   6.130   4.893
 3636SOL    HW111807   0.158   6.113   4.866
 3636SOL    HW211808   0.004   6.060   4.853
 3637SOL     OW11809   5.487   2.364   6.716
 3637SOL    HW111810   5.563   2.358   6.651
 3637SOL    HW211811   5.436   2.278   6.715
 3638SOL     OW11812   0.480   2.906   3.452
 3638SOL    HW111813   0.530   2.868   3.531
 3638SOL    HW211814   0.509   3.000   3.437
 3639SOL     OW11815   4.054   3.449   4.610
 3639SOL    HW111816   4.071   3.363   4.658
 3639SOL    HW211817   3.966   3.443   4.562
 3640SOL     OW11818   4.730   1.682   2.405
 3640SOL    HW111819   4.634   1.676   2.434
 3640SOL    HW211820   4.784   1.612   2.452
 3641SOL     OW11821   6.790   3.632   1.769
 3641SOL    HW111822   6.692   3.617   1.755
 3641SOL    HW211823   6.841   3.554   1.732
 3642SOL     OW11824   5.005   4.374   6.361
 3642SOL    HW111825   5.103   4.355   6.374
 3642SOL    HW211826   4.993   4.427   6.277
 3643SOL     OW11827   4.110   6.321   4.908
 3643SOL    HW111828   4.066   6.234   4.933
 3643SOL    HW211829   4.162   6.356   4.987
 3644SOL     OW11830   2.819   0.986   2.463
 3644SOL    HW111831   2.851   1.077   2.489
 3644SOL    HW211832   2.759   0.950   2.536
 3645SOL     OW11833   2.299   4.270   3.362
 3645SOL    HW111834   2.258   4.182   3.334
 3645SOL    HW211835   2.337   4.316   3.282
 3646SOL     OW11836   2.012   5.187   5.347
 3646SOL    HW111837   2.060   5.149   5.426
 3646SOL    HW211838   1.915   5.166   5.354
 3647SOL     OW11839   3.758   6.881   0.338
 3647SOL    HW111840   3.688   6.832   0.391
 3647SOL    HW211841   3.813   6.816   0.286
 3648SOL     OW11842   5.183   4.720   3.502
 3648SOL    HW111843   5.255   4.672   3.552
 3648SOL    HW211844   5.194   4.819   3.516
 3649SOL     OW11845   5.079   2.440   0.376
 3649SOL    HW111846   5.117   2.358   0.335
 3649SOL    HW211847   4.997   2.468   0.325
 3650SOL     OW11848   5.361   6.132   6.098
 3650SOL    HW111849   5.364   6.039   6.060
 3650SOL    HW211850   5.438   6.145   6.160
 3651SOL     OW11851   1.201   1.889   6.302
 3651SOL    HW111852   1.174   1.800   6.339
 3651SOL    HW211853   1.143   1.911   6.223
 3652SOL     OW11854   5.327   2.291   2.682
 3652SOL    HW111855   5.297   2.196   2.695
 3652SOL    HW211856   5.298   2.346   2.760
 3653SOL     OW11857   2.126   1.224   0.618
 3653SOL    HW111858   2.184   1.146   0.595
 3653SOL    HW211859   2.181   1.307   0.625
 3654SOL     OW11860   4.199   6.398   1.585
 3654SOL    HW111861   4.294   6.384   1.613
 3654SOL    HW211862   4.187   6.372   1.490
 3655SOL     OW11863   1.591   0.972   4.513
 3655SOL    HW111864   1.528   0.948   4.440
 3655SOL    HW211865   1.543   0.969   4.601
 3656SOL     OW11866   0.562   0.118   0.759
 3656SOL    HW111867   0.630   0.163   0.701
 3656SOL    HW211868   0.486   0.182   0.776
 3657SOL     OW11869   5.923   4.825   6.406
 3657SOL    HW111870   5.871   4.746   6.437
 3657SOL    HW211871   5.956   4.809   6.313
 3658SOL     OW11872   1.569   4.241   5.377
 3658SOL    HW111873   1.626   4.316   5.344
 3658SOL    HW211874   1.611   4.153   5.352
 3659SOL     OW11875   1.146   2.327   0.009
 3659SOL    HW111876   1.095   2.321   6.934
 3659SOL    HW211877   1.084   2.316   0.087
 3660SOL     OW11878   3.938   4.862   5.038
 3660SOL    HW111879   3.880   4.819   5.107
 3660SOL    HW211880   3.911   4.957   5.025
 3661SOL     OW11881   0.772   1.494   5.080
 3661SOL    HW111882   0.708   1.565   5.108
 3661SOL    HW211883   0.865   1.531   5.079
 3662SOL     OW11884   3.853   1.636   5.512
 3662SOL    HW111885   3.798   1.559   5.480
 3662SOL    HW211886   3.802   1.721   5.501
 3663SOL     OW11887   1.607   2.399   5.815
 3663SOL    HW111888   1.511   2.415   5.838
 3663SOL    HW211889   1.626   2.300   5.819
 3664SOL     OW11890   2.533   1.667   1.039
 3664SOL    HW111891   2.530   1.567   1.040
 3664SOL    HW211892   2.470   1.703   1.107
 3665SOL     OW11893   0.144   6.319   5.064
 3665SOL    HW111894   0.083   6.381   5.114
 3665SOL    HW211895   0.090   6.251   5.015
 3666SOL     OW11896   2.038   3.648   4.841
 3666SOL    HW111897   2.032   3.719   4.912
 3666SOL    HW211898   2.019   3.689   4.752
 3667SOL     OW11899   2.244   6.685   1.273
 3667SOL    HW111900   2.169   6.647   1.327
 3667SOL    HW211901   2.285   6.614   1.217
 3668SOL     OW11902   5.004   1.296   0.676
 3668SOL    HW111903   4.918   1.293   0.624
 3668SOL    HW211904   4.988   1.265   0.769
 3669SOL     OW11905   6.549   1.039   1.912
 3669SOL    HW111906   6.619   1.110   1.907
 3669SOL    HW211907   6.468   1.076   1.957
 3670SOL     OW11908   1.820   6.891   2.313
 3670SOL    HW111909   1.806   6.844   2.400
 3670SOL    HW211910   1.793   6.987   2.322
 3671SOL     OW11911   0.305   0.500   5.566
 3671SOL    HW111912   0.236   0.452   5.512
 3671SOL    HW211913   0.267   0.525   5.655
 3672SOL     OW11914   3.977   0.429   3.867
 3672SOL    HW111915   3.897   0.373   3.845
 3672SOL    HW211916   4.017   0.465   3.783
 3673SOL     OW11917   3.547   1.325   1.791
 3673SOL    HW111918   3.488   1.317   1.711
 3673SOL    HW211919   3.563   1.422   1.812
 3674SOL     OW11920   6.862   4.430   6.100
 3674SOL    HW111921   6.779   4.486   6.103
 3674SOL    HW211922   6.935   4.477   6.150
 3675SOL     OW11923   6.380   0.661   4.961
 3675SOL    HW111924   6.454   0.694   5.020
 3675SOL    HW211925   6.401   0.569   4.929
 3676SOL     OW11926   2.614   0.548   5.496
 3676SOL    HW111927   2.587   0.452   5.486
 3676SOL    HW211928   2.540   0.598   5.540
 3677SOL     OW11929   1.428   0.869   4.909
 3677SOL    HW111930   1.382   0.816   4.837
 3677SOL    HW211931   1.508   0.915   4.871
 3678SOL     OW11932   3.015   0.854   3.402
 3678SOL    HW111933   3.041   0.871   3.497
 3678SOL    HW211934   3.078   0.787   3.362
 3679SOL     OW11935   2.999   1.079   2.176
 3679SOL    HW111936   2.981   0.986   2.208
 3679SOL    HW211937   3.012   1.139   2.255
 3680SOL     OW11938   4.130   2.092   4.290
 3680SOL    HW111939   4.164   2.127   4.377
 3680SOL    HW211940   4.176   2.006   4.268
 3681SOL     OW11941   1.237   5.878   3.595
 3681SOL    HW111942   1.294   5.900   3.674
 3681SOL    HW211943   1.217   5.962   3.544
 3682SOL     OW11944   5.412   1.707   1.451
 3682SOL    HW111945   5.335   1.758   1.489
 3682SOL    HW211946   5.480   1.691   1.523
 3683SOL     OW11947   6.439   1.821   1.088
 3683SOL    HW111948   6.352   1.867   1.107
 3683SOL    HW211949   6.473   1.851   0.999
 3684SOL     OW11950   2.584   5.908   5.749
 3684SOL    HW111951   2.657   5.884   5.813
 3684SOL    HW211952   2.558   6.003   5.763
 3685SOL     OW11953   2.150   6.823   3.548
 3685SOL    HW111954   2.188   6.852   3.636
 3685SOL    HW211955   2.224   6.804   3.484
 3686SOL     OW11956   0.251   4.544   0.436
 3686SOL    HW111957   0.261   4.544   0.535
 3686SOL    HW211958   0.184   4.476   0.408
 3687SOL     OW11959   6.612   4.747   4.207
 3687SOL    HW111960   6.666   4.763   4.124
 3687SOL    HW211961   6.625   4.824   4.270
 3688SOL     OW11962   6.668   3.134   1.723
 3688SOL    HW111963   6.728   3.197   1.673
 3688SOL    HW211964   6.709   3.113   1.812
 3689SOL     OW11965   2.080   1.771   5.272
 3689SOL    HW111966   2.168   1.731   5.245
 3689SOL    HW211967   2.018   1.698   5.302
 3690SOL     OW11968   6.331   4.999   1.836
 3690SOL    HW111969   6.408   5.039   1.787
 3690SOL    HW211970   6.319   4.904   1.807
 3691SOL     OW11971   2.161   2.134   0.692
 3691SOL    HW111972   2.222   2.212   0.705
 3691SOL    HW211973   2.071   2.155   0.731
 3692SOL     OW11974   0.784   3.113   5.468
 3692SOL    HW111975   0.823   3.162   5.390
 3692SOL    HW211976   0.786   3.014   5.451
 3693SOL     OW11977   0.294   2.129   2.808
 3693SOL    HW111978   0.236   2.187   2.864
 3693SOL    HW211979   0.332   2.055   2.864
 3694SOL     OW11980   0.188   6.768   2.015
 3694SOL    HW111981   0.282   6.746   2.040
 3694SOL    HW211982   0.152   6.699   1.952
 3695SOL     OW11983   5.993   3.684   3.928
 3695SOL    HW111984   5.977   3.723   4.019
 3695SOL    HW211985   5.944   3.738   3.860
 3696SOL     OW11986   4.514   0.005   4.070
 3696SOL    HW111987   4.451   6.944   4.040
 3696SOL    HW211988   4.491   0.032   4.163
 3697SOL     OW11989   5.749   5.322   3.284
 3697SOL    HW111990   5.782   5.228   3.276
 3697SOL    HW211991   5.801   5.369   3.355
 3698SOL     OW11992   1.052   6.731   4.059
 3698SOL    HW111993   1.084   6.703   4.149
 3698SOL    HW211994   1.114   6.801   4.022
 3699SOL     OW11995   3.224   2.144   3.166
 3699SOL    HW111996   3.254   2.128   3.072
 3699SOL    HW211997   3.304   2.160   3.224
 3700SOL     OW11998   0.592   5.363   4.154
 3700SOL    HW111999   0.635   5.291   4.209
 3700SOL    HW212000   0.503   5.387   4.194
 3701SOL     OW12001   6.391   0.812   2.026
 3701SOL    HW112002   6.485   0.832   2.056
 3701SOL    HW212003   6.386   0.718   1.992
 3702SOL     OW12004   6.550   4.737   3.487
 3702SOL    HW112005   6.555   4.824   3.438
 3702SOL    HW212006   6.626   4.731   3.552
 3703SOL     OW12007   0.597   2.176   3.715
 3703SOL    HW112008   0.554   2.086   3.710
 3703SOL    HW212009   0.589   2.211   3.809
 3704SOL     OW12010   6.522   6.740   0.945
 3704SOL    HW112011   6.573   6.824   0.922
 3704SOL    HW212012   6.438   6.738   0.892
 3705SOL     OW12013   6.377   4.138   3.516
 3705SOL    HW112014   6.472   4.165   3.529
 3705SOL    HW212015   6.353   4.143   3.419
 3706SOL     OW12016   1.082   5.501   6.446
 3706SOL    HW112017   1.149   5.573   6.431
 3706SOL    HW212018   1.128   5.419   6.481
 3707SOL     OW12019   0.648   4.348   3.326
 3707SOL    HW112020   0.739   4.312   3.305
 3707SOL    HW212021   0.599   4.368   3.242
 3708SOL     OW12022   1.628   5.819   0.356
 3708SOL    HW112023   1.667   5.812   0.447
 3708SOL    HW212024   1.656   5.906   0.314
 3709SOL     OW12025   0.778   1.549   1.831
 3709SOL    HW112026   0.679   1.563   1.826
 3709SOL    HW212027   0.807   1.483   1.761
 3710SOL     OW12028   2.166   3.974   5.586
 3710SOL    HW112029   2.136   4.067   5.564
 3710SOL    HW212030   2.186   3.925   5.501
 3711SOL     OW12031   2.221   5.064   5.162
 3711SOL    HW112032   2.162   5.081   5.242
 3711SOL    HW212033   2.286   4.992   5.185
 3712SOL     OW12034   3.191   4.886   3.885
 3712SOL    HW112035   3.264   4.922   3.827
 3712SOL    HW212036   3.229   4.863   3.975
 3713SOL     OW12037   5.832   0.183   5.621
 3713SOL    HW112038   5.856   0.087   5.606
 3713SOL    HW212039   5.841   0.205   5.718
 3714SOL     OW12040   0.333   5.187   0.332
 3714SOL    HW112041   0.319   5.202   0.429
 3714SOL    HW212042   0.246   5.190   0.284
 3715SOL     OW12043   6.110   4.553   2.883
 3715SOL    HW112044   6.033   4.489   2.873
 3715SOL    HW212045   6.196   4.501   2.883
 3716SOL     OW12046   5.619   5.622   5.562
 3716SOL    HW112047   5.558   5.701   5.558
 3716SOL    HW212048   5.613   5.579   5.652
 3717SOL     OW12049   4.854   0.155   1.115
 3717SOL    HW112050   4.839   0.170   1.213
 3717SOL    HW212051   4.832   0.238   1.065
 3718SOL     OW12052   5.437   6.695   6.186
 3718SOL    HW112053   5.510   6.631   6.210
 3718SOL    HW212054   5.350   6.661   6.221
 3719SOL     OW12055   2.566   4.418   0.243
 3719SOL    HW112056   2.550   4.432   0.145
 3719SOL    HW212057   2.492   4.362   0.282
 3720SOL     OW12058   0.726   2.198   0.621
 3720SOL    HW112059   0.677   2.176   0.705
 3720SOL    HW212060   0.769   2.288   0.630
 3721SOL     OW12061   6.353   6.945   5.853
 3721SOL    HW112062   6.289   6.978   5.783
 3721SOL    HW212063   6.311   6.954   5.943
 3722SOL     OW12064   5.686   6.728   0.888
 3722SOL    HW112065   5.684   6.800   0.818
 3722SOL    HW212066   5.777   6.725   0.929
 3723SOL     OW12067   4.462   4.198   6.007
 3723SOL    HW112068   4.560   4.192   6.027
 3723SOL    HW212069   4.410   4.145   6.074
 3724SOL     OW12070   6.588   4.989   4.933
 3724SOL    HW112071   6.600   5.077   4.888
 3724SOL    HW212072   6.596   5.001   5.032
 3725SOL     OW12073   0.222   6.438   0.849
 3725SOL    HW112074   0.316   6.411   0.871
 3725SOL    HW212075   0.160   6.363   0.872
 3726SOL     OW12076   5.907   3.655   5.325
 3726SOL    HW112077   5.858   3.696   5.247
 3726SOL    HW212078   5.879   3.559   5.335
 3727SOL     OW12079   6.543   1.589   4.524
 3727SOL    HW112080   6.464   1.529   4.538
 3727SOL    HW212081   6.615   1.539   4.475
 3728SOL     OW12082   1.995   4.901   0.420
 3728SOL    HW112083   2.022   4.858   0.506
 3728SOL    HW212084   2.002   4.834   0.346
 3729SOL     OW12085   0.047   0.237   6.183
 3729SOL    HW112086   0.084   0.215   6.274
 3729SOL    HW212087   6.978   0.180   6.165
 3730SOL     OW12088   5.040   4.685   4.848
 3730SOL    HW112089   4.996   4.613   4.902
 3730SOL    HW212090   5.060   4.651   4.756
 3731SOL     OW12091   6.976   1.879   1.426
 3731SOL    HW112092   6.894   1.935   1.415
 3731SOL    HW212093   0.020   1.884   1.342
 3732SOL     OW12094   3.986   2.624   0.290
 3732SOL    HW112095   4.032   2.536   0.304
 3732SOL    HW212096   4.042   2.698   0.328
 3733SOL     OW12097   1.638   1.164   3.079
 3733SOL    HW112098   1.547   1.194   3.107
 3733SOL    HW212099   1.693   1.243   3.056
 3734SOL     OW12100   3.947   0.735   1.674
 3734SOL    HW112101   4.025   0.673   1.674
 3734SOL    HW212102   3.903   0.733   1.584
 3735SOL     OW12103   4.334   1.174   2.801
 3735SOL    HW112104   4.324   1.077   2.780
 3735SOL    HW212105   4.376   1.221   2.723
 3736SOL     OW12106   0.895   2.010   0.176
 3736SOL    HW112107   0.850   1.958   0.104
 3736SOL    HW212108   0.842   2.004   0.260
 3737SOL     OW12109   5.078   2.274   4.094
 3737SOL    HW112110   5.099   2.188   4.140
 3737SOL    HW212111   5.044   2.255   4.001
 3738SOL     OW12112   0.342   0.866   0.801
 3738SOL    HW112113   0.326   0.891   0.705
 3738SOL    HW212114   0.426   0.813   0.808
 3739SOL     OW12115   2.977   4.627   6.731
 3739SOL    HW112116   2.905   4.566   6.699
 3739SOL    HW212117   3.063   4.577   6.737
 3740SOL     OW12118   5.992   6.473   6.830
 3740SOL    HW112119   5.981   6.377   6.805
 3740SOL    HW212120   5.903   6.514   6.846
 3741SOL     OW12121   5.794   4.132   0.033
 3741SOL    HW112122   5.862   4.173   0.093
 3741SOL    HW212123   5.758   4.049   0.076
 3742SOL     OW12124   4.974   4.933   1.572
 3742SOL    HW112125   4.953   4.846   1.617
 3742SOL    HW212126   4.895   4.962   1.517
 3743SOL     OW12127   2.316   3.918   0.756
 3743SOL    HW112128   2.346   3.889   0.847
 3743SOL    HW212129   2.221   3.949   0.760
 3744SOL     OW12130   6.680   5.896   2.650
 3744SOL    HW112131   6.643   5.810   2.616
 3744SOL    HW212132   6.717   5.883   2.742
 3745SOL     OW12133   5.661   1.896   2.596
 3745SOL    HW112134   5.742   1.950   2.621
 3745SOL    HW212135   5.581   1.931   2.646
 3746SOL     OW12136   4.918   0.071   5.384
 3746SOL    HW112137   4.982   0.041   5.455
 3746SOL    HW212138   4.904   7.007   5.319
 3747SOL     OW12139   2.082   5.903   5.430
 3747SOL    HW112140   2.160   5.890   5.492
 3747SOL    HW212141   2.000   5.862   5.470
 3748SOL     OW12142   5.210   2.243   3.100
 3748SOL    HW112143   5.167   2.251   3.190
 3748SOL    HW212144   5.140   2.253   3.029
 3749SOL     OW12145   6.322   6.398   1.361
 3749SOL    HW112146   6.269   6.389   1.276
 3749SOL    HW212147   6.384   6.320   1.369
 3750SOL     OW12148   5.879   3.809   1.307
 3750SOL    HW112149   5.933   3.757   1.374
 3750SOL    HW212150   5.923   3.803   1.217
 3751SOL     OW12151   1.618   4.758   0.511
 3751SOL    HW112152   1.613   4.760   0.611
 3751SOL    HW212153   1.636   4.665   0.481
 3752SOL     OW12154   1.142   6.949   5.826
 3752SOL    HW112155   1.096   6.862   5.809
 3752SOL    HW212156   1.142   6.968   5.924
 3753SOL     OW12157   0.672   0.745   5.754
 3753SOL    HW112158   0.577   0.776   5.763
 3753SOL    HW212159   0.725   0.814   5.705
 3754SOL     OW12160   6.581   6.229   1.688
 3754SOL    HW112161   6.646   6.293   1.729
 3754SOL    HW212162   6.495   6.230   1.740
 3755SOL     OW12163   4.590   2.395   2.875
 3755SOL    HW112164   4.615   2.455   2.952
 3755SOL    HW212165   4.513   2.435   2.826
 3756SOL     OW12166   3.399   6.774   0.684
 3756SOL    HW112167   3.398   6.855   0.742
 3756SOL    HW212168   3.322   6.714   0.707
 3757SOL     OW12169   3.063   4.306   5.917
 3757SOL    HW112170   2.992   4.347   5.859
 3757SOL    HW212171   3.122   4.378   5.952
 3758SOL     OW12172   6.900   1.064   2.052
 3758SOL    HW112173   6.960   1.144   2.051
 3758SOL    HW212174   6.902   1.021   1.962
 3759SOL     OW12175   4.807   4.045   0.845
 3759SOL    HW112176   4.888   4.067   0.898
 3759SOL    HW212177   4.815   3.952   0.808
 3760SOL     OW12178   1.939   1.606   5.808
 3760SOL    HW112179   1.896   1.602   5.898
 3760SOL    HW212180   1.987   1.521   5.789
 3761SOL     OW12181   6.406   6.190   4.147
 3761SOL    HW112182   6.319   6.218   4.105
 3761SOL    HW212183   6.390   6.165   4.242
 3762SOL     OW12184   0.360   3.042   0.355
 3762SOL    HW112185   0.334   2.969   0.418
 3762SOL    HW212186   0.323   3.129   0.389
 3763SOL     OW12187   0.077   3.249   4.449
 3763SOL    HW112188   0.075   3.180   4.376
 3763SOL    HW212189   0.171   3.282   4.461
 3764SOL     OW12190   2.004   0.194   3.959
 3764SOL    HW112191   2.094   0.234   3.947
 3764SOL    HW212192   1.999   0.107   3.909
 3765SOL     OW12193   6.430   0.945   3.411
 3765SOL    HW112194   6.373   0.902   3.482
 3765SOL    HW212195   6.401   1.039   3.397
 3766SOL     OW12196   2.164   1.468   5.224
 3766SOL    HW112197   2.236   1.499   5.162
 3766SOL    HW212198   2.081   1.449   5.173
 3767SOL     OW12199   0.027   4.749   0.673
 3767SOL    HW112200   0.106   4.689   0.689
 3767SOL    HW212201   0.035   4.830   0.731
 3768SOL     OW12202   4.639   6.393   1.113
 3768SOL    HW112203   4.663   6.328   1.041
 3768SOL    HW212204   4.708   6.465   1.118
 3769SOL     OW12205   4.289   6.701   4.706
 3769SOL    HW112206   4.201   6.660   4.728
 3769SOL    HW212207   4.345   6.707   4.789
 3770SOL     OW12208   1.884   2.634   0.291
 3770SOL    HW112209   1.793   2.593   0.292
 3770SOL    HW212210   1.947   2.576   0.344
 3771SOL     OW12211   4.286   1.548   5.957
 3771SOL    HW112212   4.239   1.493   5.888
 3771SOL    HW212213   4.383   1.555   5.934
 3772SOL     OW12214   4.801   0.679   2.611
 3772SOL    HW112215   4.710   0.675   2.653
 3772SOL    HW212216   4.834   0.586   2.596
 3773SOL     OW12217   6.565   3.032   0.698
 3773SOL    HW112218   6.579   2.934   0.684
 3773SOL    HW212219   6.551   3.077   0.610
 3774SOL     OW12220   1.416   1.723   2.006
 3774SOL    HW112221   1.415   1.763   1.914
 3774SOL    HW212222   1.369   1.635   2.004
 3775SOL     OW12223   5.196   2.657   3.556
 3775SOL    HW112224   5.205   2.745   3.510
 3775SOL    HW212225   5.194   2.584   3.488
 3776SOL     OW12226   2.891   1.919   6.855
 3776SOL    HW112227   2.812   1.971   6.822
 3776SOL    HW212228   2.909   1.941   6.950
 3777SOL     OW12229   1.329   3.845   3.267
 3777SOL    HW112230   1.339   3.781   3.191
 3777SOL    HW212231   1.359   3.936   3.238
 3778SOL     OW12232   1.901   0.660   1.800
 3778SOL    HW112233   1.920   0.629   1.893
 3778SOL    HW212234   1.984   0.655   1.745
 3779SOL     OW12235   1.886   5.190   6.986
 3779SOL    HW112236   1.920   5.144   6.904
 3779SOL    HW212237   1.835   5.125   0.032
 3780SOL     OW12238   2.259   6.934   4.105
 3780SOL    HW112239   2.202   6.894   4.177
 3780SOL    HW212240   2.334   6.985   4.146
 3781SOL     OW12241   2.960   5.443   4.681
 3781SOL    HW112242   2.890   5.487   4.626
 3781SOL    HW212243   2.998   5.508   4.746
 3782SOL     OW12244   2.568   1.408   2.371
 3782SOL    HW112245   2.651   1.378   2.416
 3782SOL    HW212246   2.578   1.398   2.272
 3783SOL     OW12247   5.293   4.833   4.769
 3783SOL    HW112248   5.331   4.818   4.860
 3783SOL    HW212249   5.195   4.817   4.771
 3784SOL     OW12250   4.820   2.180   4.394
 3784SOL    HW112251   4.781   2.201   4.304
 3784SOL    HW212252   4.820   2.262   4.451
 3785SOL     OW12253   0.974   0.385   1.927
 3785SOL    HW112254   1.042   0.366   1.997
 3785SOL    HW212255   0.935   0.299   1.895
 3786SOL     OW12256   2.685   6.305   1.667
 3786SOL    HW112257   2.729   6.245   1.601
 3786SOL    HW212258   2.591   6.275   1.683
 3787SOL     OW12259   4.793   0.856   4.093
 3787SOL    HW112260   4.838   0.930   4.142
 3787SOL    HW212261   4.766   0.888   4.002
 3788SOL     OW12262   6.439   3.467   2.352
 3788SOL    HW112263   6.504   3.448   2.279
 3788SOL    HW212264   6.466   3.552   2.399
 3789SOL     OW12265   1.508   5.168   1.996
 3789SOL    HW112266   1.548   5.079   2.018
 3789SOL    HW212267   1.427   5.184   2.053
 3790SOL     OW12268   2.090   3.024   2.862
 3790SOL    HW112269   2.011   3.085   2.865
 3790SOL    HW212270   2.138   3.035   2.775
 3791SOL     OW12271   6.438   0.562   2.747
 3791SOL    HW112272   6.375   0.625   2.792
 3791SOL    HW212273   6.468   0.602   2.660
 3792SOL     OW12274   1.221   5.786   6.428
 3792SOL    HW112275   1.265   5.761   6.343
 3792SOL    HW212276   1.205   5.885   6.430
 3793SOL     OW12277   0.602   5.270   2.473
 3793SOL    HW112278   0.643   5.343   2.419
 3793SOL    HW212279   0.514   5.245   2.434
 3794SOL     OW12280   4.566   0.137   3.820
 3794SOL    HW112281   4.555   0.095   3.910
 3794SOL    HW212282   4.502   0.213   3.811
 3795SOL     OW12283   5.889   0.389   0.425
 3795SOL    HW112284   5.915   0.307   0.476
 3795SOL    HW212285   5.821   0.366   0.356
 3796SOL     OW12286   6.976   2.813   1.021
 3796SOL    HW112287   6.962   2.907   0.990
 3796SOL    HW212288   0.063   2.793   1.025
 3797SOL     OW12289   0.335   5.240   2.735
 3797SOL    HW112290   0.279   5.277   2.809
 3797SOL    HW212291   0.342   5.307   2.662
 3798SOL     OW12292   1.397   4.344   0.541
 3798SOL    HW112293   1.345   4.354   0.625
 3798SOL    HW212294   1.402   4.247   0.516
 3799SOL     OW12295   1.646   0.628   5.606
 3799SOL    HW112296   1.741   0.633   5.635
 3799SOL    HW212297   1.627   0.537   5.570
 3800SOL     OW12298   5.155   2.610   5.087
 3800SOL    HW112299   5.212   2.535   5.120
 3800SOL    HW212300   5.062   2.576   5.070
 3801SOL     OW12301   6.613   0.213   5.975
 3801SOL    HW112302   6.632   0.121   5.940
 3801SOL    HW212303   6.622   0.279   5.901
 3802SOL     OW12304   1.893   2.537   5.304
 3802SOL    HW112305   1.972   2.593   5.326
 3802SOL    HW212306   1.857   2.494   5.387
 3803SOL     OW12307   4.150   1.276   1.370
 3803SOL    HW112308   4.148   1.202   1.437
 3803SOL    HW212309   4.171   1.362   1.417
 3804SOL     OW12310   5.066   3.501   5.062
 3804SOL    HW112311   5.071   3.424   5.126
 3804SOL    HW212312   4.972   3.512   5.030
 3805SOL     OW12313   1.817   3.749   1.384
 3805SOL    HW112314   1.896   3.694   1.411
 3805SOL    HW212315   1.838   3.846   1.397
 3806SOL     OW12316   3.460   0.827   0.564
 3806SOL    HW112317   3.549   0.816   0.608
 3806SOL    HW212318   3.407   0.896   0.612
 3807SOL     OW12319   1.373   6.930   2.939
 3807SOL    HW112320   1.302   6.880   2.989
 3807SOL    HW212321   1.443   6.962   3.002
 3808SOL     OW12322   3.903   0.966   0.367
 3808SOL    HW112323   3.891   1.034   0.439
 3808SOL    HW212324   3.865   0.879   0.397
 3809SOL     OW12325   4.236   0.969   0.327
 3809SOL    HW112326   4.328   0.967   0.288
 3809SOL    HW212327   4.178   1.030   0.272
 3810SOL     OW12328   1.688   3.926   6.937
 3810SOL    HW112329   1.629   3.979   6.875
 3810SOL    HW212330   1.778   3.970   6.943
 3811SOL     OW12331   0.152   0.574   6.620
 3811SOL    HW112332   0.201   0.528   6.695
 3811SOL    HW212333   0.214   0.587   6.543
 3812SOL     OW12334   4.869   0.870   5.685
 3812SOL    HW112335   4.870   0.843   5.781
 3812SOL    HW212336   4.900   0.793   5.629
 3813SOL     OW12337   3.645   4.896   2.444
 3813SOL    HW112338   3.563   4.876   2.389
 3813SOL    HW212339   3.646   4.836   2.524
 3814SOL     OW12340   2.427   0.838   1.615
 3814SOL    HW112341   2.414   0.917   1.675
 3814SOL    HW212342   2.373   0.850   1.531
 3815SOL     OW12343   5.220   2.404   1.976
 3815SOL    HW112344   5.252   2.413   1.881
 3815SOL    HW212345   5.293   2.434   2.038
 3816SOL     OW12346   0.239   6.441   0.313
 3816SOL    HW112347   0.212   6.391   0.230
 3816SOL    HW212348   0.203   6.534   0.308
 3817SOL     OW12349   5.349   2.086   4.982
 3817SOL    HW112350   5.439   2.044   4.980
 3817SOL    HW212351   5.337   2.143   4.901
 3818SOL     OW12352   4.129   5.546   2.449
 3818SOL    HW112353   4.182   5.465   2.470
 3818SOL    HW212354   4.147   5.574   2.354
 3819SOL     OW12355   5.641   4.050   6.014
 3819SOL    HW112356   5.737   4.048   5.988
 3819SOL    HW212357   5.621   3.974   6.077
 3820SOL     OW12358   4.328   6.464   3.453
 3820SOL    HW112359   4.421   6.426   3.443
 3820SOL    HW212360   4.331   6.563   3.443
 3821SOL     OW12361   0.291   4.861   1.360
 3821SOL    HW112362   0.241   4.946   1.341
 3821SOL    HW212363   0.236   4.802   1.418
 3822SOL     OW12364   0.906   4.095   1.094
 3822SOL    HW112365   0.966   4.066   1.019
 3822SOL    HW212366   0.944   4.064   1.181
 3823SOL     OW12367   2.823   3.624   5.632
 3823SOL    HW112368   2.850   3.536   5.594
 3823SOL    HW212369   2.799   3.687   5.558
 3824SOL     OW12370   0.441   2.068   6.086
 3824SOL    HW112371   0.444   2.166   6.063
 3824SOL    HW212372   0.371   2.023   6.031
 3825SOL     OW12373   0.584   6.415   6.102
 3825SOL    HW112374   0.647   6.434   6.026
 3825SOL    HW212375   0.491   6.406   6.066
 3826SOL     OW12376   6.728   1.971   1.394
 3826SOL    HW112377   6.660   1.899   1.407
 3826SOL    HW212378   6.683   2.060   1.400
 3827SOL     OW12379   5.546   1.471   2.091
 3827SOL    HW112380   5.506   1.435   2.176
 3827SOL    HW212381   5.481   1.532   2.047
 3828SOL     OW12382   3.809   0.846   1.889
 3828SOL    HW112383   3.809   0.946   1.887
 3828SOL    HW212384   3.877   0.811   1.825
 3829SOL     OW12385   1.022   5.097   3.891
 3829SOL    HW112386   0.983   5.007   3.910
 3829SOL    HW212387   0.950   5.167   3.899
 3830SOL     OW12388   2.950   0.712   5.367
 3830SOL    HW112389   2.879   0.727   5.298
 3830SOL    HW212390   2.922   0.638   5.429
 3831SOL     OW12391   4.822   1.732   2.126
 3831SOL    HW112392   4.754   1.678   2.176
 3831SOL    HW212393   4.818   1.709   2.029
 3832SOL     OW12394   5.970   6.834   2.094
 3832SOL    HW112395   5.902   6.764   2.117
 3832SOL    HW212396   5.976   6.899   2.170
 3833SOL     OW12397   1.583   6.271   2.211
 3833SOL    HW112398   1.496   6.307   2.178
 3833SOL    HW212399   1.587   6.280   2.310
 3834SOL     OW12400   2.827   2.912   0.421
 3834SOL    HW112401   2.774   2.992   0.395
 3834SOL    HW212402   2.778   2.829   0.394
 3835SOL     OW12403   3.369   5.216   2.915
 3835SOL    HW112404   3.349   5.122   2.943
 3835SOL    HW212405   3.466   5.224   2.894
 3836SOL     OW12406   1.050   2.845   6.103
 3836SOL    HW112407   0.994   2.825   6.183
 3836SOL    HW212408   1.023   2.933   6.064
 3837SOL     OW12409   3.347   4.223   6.951
 3837SOL    HW112410   3.395   4.294   6.900
 3837SOL    HW212411   3.344   4.248   0.037
 3838SOL     OW12412   6.313   3.786   4.646
 3838SOL    HW112413   6.278   3.788   4.740
 3838SOL    HW212414   6.268   3.713   4.595
 3839SOL     OW12415   0.817   6.097   6.236
 3839SOL    HW112416   0.741   6.103   6.171
 3839SOL    HW212417   0.877   6.176   6.223
 3840SOL     OW12418   2.540   2.019   3.328
 3840SOL    HW112419   2.624   1.990   3.372
 3840SOL    HW212420   2.538   1.984   3.234
 3841SOL     OW12421   0.685   3.104   3.799
 3841SOL    HW112422   0.596   3.133   3.834
 3841SOL    HW212423   0.755   3.118   3.868
 3842SOL     OW12424   1.527   5.116   6.773
 3842SOL    HW112425   1.476   5.174   6.836
 3842SOL    HW212426   1.609   5.082   6.818
 3843SOL     OW12427   6.098   4.253   6.885
 3843SOL    HW112428   6.081   4.239   6.788
 3843SOL    HW212429   6.145   4.341   6.898
 3844SOL     OW12430   2.578   4.490   5.560
 3844SOL    HW112431   2.619   4.560   5.501
 3844SOL    HW212432   2.581   4.402   5.513
 3845SOL     OW12433   3.311   3.475   4.247
 3845SOL    HW112434   3.313   3.485   4.147
 3845SOL    HW212435   3.307   3.377   4.270
 3846SOL     OW12436   0.105   4.506   4.867
 3846SOL    HW112437   0.069   4.413   4.873
 3846SOL    HW212438   0.204   4.503   4.858
 3847SOL     OW12439   1.292   0.041   0.731
 3847SOL    HW112440   1.224   0.040   0.804
 3847SOL    HW212441   1.346   0.124   0.736
 3848SOL     OW12442   3.095   6.300   1.703
 3848SOL    HW112443   3.123   6.364   1.774
 3848SOL    HW212444   3.034   6.346   1.638
 3849SOL     OW12445   2.956   1.690   5.801
 3849SOL    HW112446   2.956   1.660   5.897
 3849SOL    HW212447   3.040   1.658   5.756
 3850SOL     OW12448   1.459   3.555   1.440
 3850SOL    HW112449   1.555   3.565   1.412
 3850SOL    HW212450   1.425   3.466   1.410
 3851SOL     OW12451   2.318   2.822   1.090
 3851SOL    HW112452   2.372   2.883   1.148
 3851SOL    HW212453   2.351   2.728   1.103
 3852SOL     OW12454   4.858   1.202   5.595
 3852SOL    HW112455   4.870   1.107   5.624
 3852SOL    HW212456   4.892   1.212   5.501
 3853SOL     OW12457   0.558   3.996   2.096
 3853SOL    HW112458   0.575   3.898   2.106
 3853SOL    HW212459   0.477   4.022   2.148
 3854SOL     OW12460   1.477   3.420   4.472
 3854SOL    HW112461   1.543   3.484   4.434
 3854SOL    HW212462   1.524   3.356   4.533
 3855SOL     OW12463   6.947   1.355   5.398
 3855SOL    HW112464   0.034   1.365   5.380
 3855SOL    HW212465   6.925   1.258   5.406
 3856SOL     OW12466   1.463   6.364   6.275
 3856SOL    HW112467   1.408   6.403   6.349
 3856SOL    HW212468   1.403   6.342   6.198
 3857SOL     OW12469   0.809   0.026   6.521
 3857SOL    HW112470   0.855   6.952   6.544
 3857SOL    HW212471   0.722   0.032   6.569
 3858SOL     OW12472   3.674   4.705   0.144
 3858SOL    HW112473   3.636   4.772   0.081
 3858SOL    HW212474   3.621   4.706   0.229
 3859SOL     OW12475   6.150   2.441   2.541
 3859SOL    HW112476   6.215   2.516   2.536
 3859SOL    HW212477   6.146   2.406   2.634
 3860SOL     OW12478   2.525   5.883   4.686
 3860SOL    HW112479   2.611   5.928   4.708
 3860SOL    HW212480   2.541   5.816   4.613
 3861SOL     OW12481   3.211   4.503   6.731
 3861SOL    HW112482   3.250   4.412   6.746
 3861SOL    HW212483   3.284   4.571   6.730
 3862SOL     OW12484   1.122   5.810   5.872
 3862SOL    HW112485   1.207   5.797   5.924
 3862SOL    HW212486   1.127   5.756   5.788
 3863SOL     OW12487   2.495   3.077   0.219
 3863SOL    HW112488   2.465   3.018   0.144
 3863SOL    HW212489   2.440   3.058   0.300
 3864SOL     OW12490   3.410   2.034   1.059
 3864SOL    HW112491   3.440   1.998   1.147
 3864SOL    HW212492   3.360   2.120   1.073
 3865SOL     OW12493   4.193   0.700   2.429
 3865SOL    HW112494   4.228   0.607   2.429
 3865SOL    HW212495   4.220   0.746   2.344
 3866SOL     OW12496   4.131   6.633   6.938
 3866SOL    HW112497   4.043   6.605   6.899
 3866SOL    HW212498   4.199   6.561   6.922
 3867SOL     OW12499   2.054   4.961   3.225
 3867SOL    HW112500   2.041   5.058   3.203
 3867SOL    HW212501   2.033   4.905   3.145
 3868SOL     OW12502   1.967   5.768   3.103
 3868SOL    HW112503   2.058   5.774   3.145
 3868SOL    HW212504   1.909   5.840   3.140
 3869SOL     OW12505   0.458   1.630   4.007
 3869SOL    HW112506   0.401   1.563   4.055
 3869SOL    HW212507   0.544   1.641   4.057
 3870SOL     OW12508   3.576   3.775   0.411
 3870SOL    HW112509   3.648   3.705   0.411
 3870SOL    HW212510   3.518   3.762   0.491
 3871SOL     OW12511   3.228   0.781   4.176
 3871SOL    HW112512   3.174   0.863   4.158
 3871SOL    HW212513   3.261   0.783   4.271
 3872SOL     OW12514   4.538   4.104   0.941
 3872SOL    HW112515   4.634   4.092   0.918
 3872SOL    HW212516   4.509   4.032   1.005
 3873SOL     OW12517   6.291   4.753   1.739
 3873SOL    HW112518   6.295   4.784   1.644
 3873SOL    HW212519   6.196   4.734   1.764
 3874SOL     OW12520   5.257   6.281   5.855
 3874SOL    HW112521   5.289   6.259   5.947
 3874SOL    HW212522   5.335   6.283   5.792
 3875SOL     OW12523   2.628   3.468   0.182
 3875SOL    HW112524   2.671   3.449   0.270
 3875SOL    HW212525   2.649   3.561   0.153
 3876SOL     OW12526   5.979   3.873   2.489
 3876SOL    HW112527   5.954   3.969   2.477
 3876SOL    HW212528   5.904   3.814   2.460
 3877SOL     OW12529   4.335   1.927   2.261
 3877SOL    HW112530   4.384   2.013   2.244
 3877SOL    HW212531   4.238   1.940   2.244
 3878SOL     OW12532   5.023   5.721   4.778
 3878SOL    HW112533   5.038   5.809   4.734
 3878SOL    HW212534   4.995   5.736   4.873
 3879SOL     OW12535   2.568   5.733   0.549
 3879SOL    HW112536   2.553   5.789   0.468
 3879SOL    HW212537   2.531   5.641   0.534
 3880SOL     OW12538   6.221   1.350   4.145
 3880SOL    HW112539   6.200   1.252   4.143
 3880SOL    HW212540   6.136   1.403   4.137
 3881SOL     OW12541   0.180   5.573   6.024
 3881SOL    HW112542   0.092   5.600   6.062
 3881SOL    HW212543   0.188   5.607   5.930
 3882SOL     OW12544   6.745   6.471   6.292
 3882SOL    HW112545   6.714   6.481   6.197
 3882SOL    HW212546   6.785   6.380   6.304
 3883SOL     OW12547   4.116   2.046   0.059
 3883SOL    HW112548   4.147   2.092   0.143
 3883SOL    HW212549   4.033   2.090   0.026
 3884SOL     OW12550   3.011   5.627   5.776
 3884SOL    HW112551   3.110   5.613   5.771
 3884SOL    HW212552   2.969   5.601   5.689
 3885SOL     OW12553   6.874   0.319   3.490
 3885SOL    HW112554   6.931   0.293   3.412
 3885SOL    HW212555   6.928   0.311   3.574
 3886SOL     OW12556   6.874   5.857   4.415
 3886SOL    HW112557   6.835   5.923   4.480
 3886SOL    HW212558   6.945   5.902   4.361
 3887SOL     OW12559   6.476   2.948   4.824
 3887SOL    HW112560   6.560   2.924   4.775
 3887SOL    HW212561   6.498   3.012   4.898
 3888SOL     OW12562   5.354   0.770   2.736
 3888SOL    HW112563   5.346   0.766   2.835
 3888SOL    HW212564   5.273   0.729   2.694
 3889SOL     OW12565   6.661   5.451   6.456
 3889SOL    HW112566   6.605   5.431   6.537
 3889SOL    HW212567   6.607   5.436   6.373
 3890SOL     OW12568   6.272   3.449   3.104
 3890SOL    HW112569   6.368   3.452   3.076
 3890SOL    HW212570   6.220   3.395   3.038
 3891SOL     OW12571   4.162   4.217   5.709
 3891SOL    HW112572   4.121   4.130   5.679
 3891SOL    HW212573   4.254   4.225   5.671
 3892SOL     OW12574   5.584   5.861   3.791
 3892SOL    HW112575   5.503   5.901   3.834
 3892SOL    HW212576   5.569   5.764   3.776
 3893SOL     OW12577   2.468   6.372   4.452
 3893SOL    HW112578   2.454   6.273   4.451
 3893SOL    HW212579   2.487   6.402   4.546
 3894SOL     OW12580   5.935   5.411   6.399
 3894SOL    HW112581   6.015   5.419   6.340
 3894SOL    HW212582   5.957   5.446   6.490
 3895SOL     OW12583   1.378   2.105   6.253
 3895SOL    HW112584   1.319   2.186   6.261
 3895SOL    HW212585   1.321   2.025   6.237
 3896SOL     OW12586   6.274   2.526   0.245
 3896SOL    HW112587   6.363   2.569   0.233
 3896SOL    HW212588   6.286   2.434   0.284
 3897SOL     OW12589   2.698   6.794   3.110
 3897SOL    HW112590   2.777   6.791   3.171
 3897SOL    HW212591   2.700   6.879   3.057
 3898SOL     OW12592   2.953   3.773   3.763
 3898SOL    HW112593   2.893   3.837   3.810
 3898SOL    HW212594   3.025   3.824   3.715
 3899SOL     OW12595   4.840   2.238   6.540
 3899SOL    HW112596   4.893   2.323   6.541
 3899SOL    HW212597   4.798   2.223   6.629
 3900SOL     OW12598   0.703   2.586   3.555
 3900SOL    HW112599   0.615   2.558   3.593
 3900SOL    HW212600   0.777   2.560   3.618
 3901SOL     OW12601   3.564   6.413   4.849
 3901SOL    HW112602   3.493   6.476   4.818
 3901SOL    HW212603   3.620   6.384   4.771
 3902SOL     OW12604   3.273   5.626   2.967
 3902SOL    HW112605   3.213   5.658   3.040
 3902SOL    HW212606   3.360   5.677   2.972
 3903SOL     OW12607   3.404   3.932   6.510
 3903SOL    HW112608   3.382   3.840   6.544
 3903SOL    HW212609   3.331   3.963   6.448
 3904SOL     OW12610   2.751   6.364   0.545
 3904SOL    HW112611   2.816   6.315   0.488
 3904SOL    HW212612   2.764   6.463   0.534
 3905SOL     OW12613   4.057   0.449   5.462
 3905SOL    HW112614   3.958   0.434   5.476
 3905SOL    HW212615   4.100   0.466   5.551
 3906SOL     OW12616   6.317   5.949   4.043
 3906SOL    HW112617   6.368   6.021   4.089
 3906SOL    HW212618   6.254   5.906   4.108
 3907SOL     OW12619   0.545   1.347   4.590
 3907SOL    HW112620   0.596   1.430   4.613
 3907SOL    HW212621   0.462   1.342   4.646
 3908SOL     OW12622   2.126   1.826   4.649
 3908SOL    HW112623   2.126   1.816   4.749
 3908SOL    HW212624   2.165   1.915   4.624
 3909SOL     OW12625   5.748   3.418   2.327
 3909SOL    HW112626   5.731   3.320   2.316
 3909SOL    HW212627   5.847   3.436   2.319
 3910SOL     OW12628   2.102   2.510   0.721
 3910SOL    HW112629   2.015   2.499   0.768
 3910SOL    HW212630   2.170   2.449   0.761
 3911SOL     OW12631   5.929   1.255   1.227
 3911SOL    HW112632   5.910   1.300   1.314
 3911SOL    HW212633   5.853   1.194   1.204
 3912SOL     OW12634   5.074   4.227   0.476
 3912SOL    HW112635   5.061   4.267   0.566
 3912SOL    HW212636   5.067   4.127   0.483
 3913SOL     OW12637   4.168   4.574   1.486
 3913SOL    HW112638   4.081   4.555   1.531
 3913SOL    HW212639   4.239   4.516   1.527
 3914SOL     OW12640   0.357   0.941   0.513
 3914SOL    HW112641   0.330   1.027   0.470
 3914SOL    HW212642   0.442   0.908   0.471
 3915SOL     OW12643   5.182   0.535   4.808
 3915SOL    HW112644   5.275   0.545   4.772
 3915SOL    HW212645   5.178   0.455   4.868
 3916SOL     OW12646   1.956   2.548   2.161
 3916SOL    HW112647   1.876   2.564   2.103
 3916SOL    HW212648   2.016   2.628   2.157
 3917SOL     OW12649   4.104   5.678   2.193
 3917SOL    HW112650   4.097   5.585   2.158
 3917SOL    HW212651   4.052   5.740   2.135
 3918SOL     OW12652   3.787   0.004   1.104
 3918SOL    HW112653   3.758   6.978   1.193
 3918SOL    HW212654   3.755   6.955   1.031
 3919SOL     OW12655   4.985   4.919   3.308
 3919SOL    HW112656   5.018   4.849   3.370
 3919SOL    HW212657   4.900   4.958   3.343
 3920SOL     OW12658   4.608   1.177   6.257
 3920SOL    HW112659   4.556   1.259   6.235
 3920SOL    HW212660   4.651   1.141   6.173
 3921SOL     OW12661   0.707   3.024   6.016
 3921SOL    HW112662   0.805   3.019   5.995
 3921SOL    HW212663   0.669   3.106   5.972
 3922SOL     OW12664   5.621   2.047   3.736
 3922SOL    HW112665   5.530   2.011   3.716
 3922SOL    HW212666   5.646   2.024   3.829
 3923SOL     OW12667   5.421   1.158   1.244
 3923SOL    HW112668   5.350   1.225   1.224
 3923SOL    HW212669   5.378   1.068   1.257
 3924SOL     OW12670   5.391   5.184   3.715
 3924SOL    HW112671   5.426   5.269   3.676
 3924SOL    HW212672   5.420   5.177   3.811
 3925SOL     OW12673   3.597   4.482   1.650
 3925SOL    HW112674   3.615   4.545   1.725
 3925SOL    HW212675   3.513   4.431   1.668
 3926SOL     OW12676   1.298   5.812   5.336
 3926SOL    HW112677   1.299   5.830   5.435
 3926SOL    HW212678   1.332   5.720   5.319
 3927SOL     OW12679   6.077   6.428   5.272
 3927SOL    HW112680   6.045   6.334   5.271
 3927SOL    HW212681   6.052   6.473   5.186
 3928SOL     OW12682   4.531   5.564   2.843
 3928SOL    HW112683   4.523   5.505   2.763
 3928SOL    HW212684   4.583   5.646   2.820
 3929SOL     OW12685   2.042   1.381   5.483
 3929SOL    HW112686   2.101   1.375   5.402
 3929SOL    HW212687   1.977   1.456   5.472
 3930SOL     OW12688   2.518   5.541   4.202
 3930SOL    HW112689   2.546   5.468   4.264
 3930SOL    HW212690   2.421   5.562   4.217
 3931SOL     OW12691   0.478   2.239   0.119
 3931SOL    HW112692   0.444   2.145   0.128
 3931SOL    HW212693   0.438   2.281   0.038
 3932SOL     OW12694   1.872   4.408   2.536
 3932SOL    HW112695   1.879   4.390   2.634
 3932SOL    HW212696   1.963   4.422   2.498
 3933SOL     OW12697   1.556   6.763   1.297
 3933SOL    HW112698   1.592   6.854   1.315
 3933SOL    HW212699   1.456   6.768   1.289
 3934SOL     OW12700   1.897   6.792   2.055
 3934SOL    HW112701   1.894   6.805   2.154
 3934SOL    HW212702   1.944   6.869   2.012
 3935SOL     OW12703   0.046   0.864   5.290
 3935SOL    HW112704   0.104   0.798   5.243
 3935SOL    HW212705   6.970   0.821   5.314
 3936SOL     OW12706   6.476   4.482   3.567
 3936SOL    HW112707   6.498   4.570   3.526
 3936SOL    HW212708   6.500   4.484   3.664
 3937SOL     OW12709   1.284   6.185   6.962
 3937SOL    HW112710   1.216   6.143   6.901
 3937SOL    HW212711   1.240   6.259   0.003
 3938SOL     OW12712   0.469   4.440   6.596
 3938SOL    HW112713   0.489   4.525   6.644
 3938SOL    HW212714   0.479   4.363   6.659
 3939SOL     OW12715   2.148   6.354   4.287
 3939SOL    HW112716   2.148   6.262   4.248
 3939SOL    HW212717   2.180   6.419   4.218
 3940SOL     OW12718   2.940   6.403   6.908
 3940SOL    HW112719   2.911   6.336   6.976
 3940SOL    HW212720   2.890   6.388   6.823
 3941SOL     OW12721   5.763   5.405   2.355
 3941SOL    HW112722   5.834   5.475   2.355
 3941SOL    HW212723   5.692   5.429   2.421
 3942SOL     OW12724   0.549   6.395   6.681
 3942SOL    HW112725   0.525   6.489   6.657
 3942SOL    HW212726   0.496   6.332   6.626
 3943SOL     OW12727   0.809   5.221   0.463
 3943SOL    HW112728   0.756   5.183   0.539
 3943SOL    HW212729   0.802   5.161   0.384
 3944SOL     OW12730   4.732   2.784   0.585
 3944SOL    HW112731   4.747   2.851   0.657
 3944SOL    HW212732   4.635   2.784   0.559
 3945SOL     OW12733   6.941   0.726   2.713
 3945SOL    HW112734   6.962   0.743   2.617
 3945SOL    HW212735   6.992   0.646   2.745
 3946SOL     OW12736   5.653   1.956   1.281
 3946SOL    HW112737   5.574   1.989   1.332
 3946SOL    HW212738   5.623   1.885   1.217
 3947SOL     OW12739   5.383   0.010   1.835
 3947SOL    HW112740   5.370   6.921   1.840
 3947SOL    HW212741   5.405   0.036   1.741
 3948SOL     OW12742   1.791   1.791   4.280
 3948SOL    HW112743   1.703   1.744   4.284
 3948SOL    HW212744   1.822   1.795   4.185
 3949SOL     OW12745   6.201   0.226   2.457
 3949SOL    HW112746   6.186   0.296   2.388
 3949SOL    HW212747   6.243   0.146   2.415
 3950SOL     OW12748   2.445   4.794   1.846
 3950SOL    HW112749   2.373   4.812   1.780
 3950SOL    HW212750   2.534   4.818   1.806
 3951SOL     OW12751   6.710   2.412   3.861
 3951SOL    HW112752   6.641   2.354   3.903
 3951SOL    HW212753   6.676   2.507   3.858
 3952SOL     OW12754   5.817   5.036   6.742
 3952SOL    HW112755   5.914   5.013   6.738
 3952SOL    HW212756   5.789   5.051   6.837
 3953SOL     OW12757   3.415   3.127   5.049
 3953SOL    HW112758   3.478   3.058   5.012
 3953SOL    HW212759   3.326   3.118   5.003
 3954SOL     OW12760   0.991   4.506   5.407
 3954SOL    HW112761   1.048   4.427   5.380
 3954SOL    HW212762   0.895   4.481   5.399
 3955SOL     OW12763   5.910   3.111   0.002
 3955SOL    HW112764   5.928   3.170   6.935
 3955SOL    HW212765   5.878   3.022   6.981
 3956SOL     OW12766   6.529   3.150   5.043
 3956SOL    HW112767   6.510   3.248   5.041
 3956SOL    HW212768   6.533   3.119   5.138
 3957SOL     OW12769   1.973   2.812   1.708
 3957SOL    HW112770   2.018   2.853   1.629
 3957SOL    HW212771   2.035   2.814   1.787
 3958SOL     OW12772   6.055   5.678   1.502
 3958SOL    HW112773   6.022   5.662   1.409
 3958SOL    HW212774   6.142   5.629   1.516
 3959SOL     OW12775   3.087   4.964   1.217
 3959SOL    HW112776   3.121   4.901   1.286
 3959SOL    HW212777   3.154   5.037   1.202
 3960SOL     OW12778   5.934   3.351   0.934
 3960SOL    HW112779   6.019   3.303   0.954
 3960SOL    HW212780   5.946   3.408   0.853
 3961SOL     OW12781   6.803   1.409   1.120
 3961SOL    HW112782   6.835   1.339   1.184
 3961SOL    HW212783   6.857   1.404   1.036
 3962SOL     OW12784   0.266   6.575   6.412
 3962SOL    HW112785   0.194   6.569   6.481
 3962SOL    HW212786   0.225   6.583   6.321
 3963SOL     OW12787   5.051   3.834   4.681
 3963SOL    HW112788   5.098   3.774   4.746
 3963SOL    HW212789   5.103   3.919   4.670
 3964SOL     OW12790   5.687   4.321   6.686
 3964SOL    HW112791   5.632   4.241   6.662
 3964SOL    HW212792   5.705   4.320   6.785
 3965SOL     OW12793   2.355   4.276   1.475
 3965SOL    HW112794   2.398   4.361   1.506
 3965SOL    HW212795   2.362   4.269   1.376
 3966SOL     OW12796   0.001   3.130   5.199
 3966SOL    HW112797   6.969   3.186   5.128
 3966SOL    HW212798   0.068   3.069   5.157
 3967SOL     OW12799   1.876   0.455   0.146
 3967SOL    HW112800   1.970   0.428   0.124
 3967SOL    HW212801   1.877   0.546   0.187
 3968SOL     OW12802   4.461   2.888   0.927
 3968SOL    HW112803   4.473   2.793   0.899
 3968SOL    HW212804   4.544   2.940   0.906
 3969SOL     OW12805   5.962   6.245   1.046
 3969SOL    HW112806   5.968   6.155   1.003
 3969SOL    HW212807   5.868   6.279   1.041
 3970SOL     OW12808   5.398   4.228   4.180
 3970SOL    HW112809   5.389   4.269   4.089
 3970SOL    HW212810   5.428   4.298   4.245
 3971SOL     OW12811   0.115   5.840   4.104
 3971SOL    HW112812   0.140   5.763   4.163
 3971SOL    HW212813   0.091   5.919   4.161
 3972SOL     OW12814   1.016   0.868   6.605
 3972SOL    HW112815   0.987   0.790   6.660
 3972SOL    HW212816   1.028   0.839   6.510
 3973SOL     OW12817   3.945   2.951   1.992
 3973SOL    HW112818   3.995   2.979   1.910
 3973SOL    HW212819   3.891   2.869   1.972
 3974SOL     OW12820   5.291   1.059   6.966
 3974SOL    HW112821   5.278   1.032   6.871
 3974SOL    HW212822   5.203   1.058   0.003
 3975SOL     OW12823   6.826   5.763   3.953
 3975SOL    HW112824   6.896   5.724   4.013
 3975SOL    HW212825   6.760   5.815   4.007
 3976SOL     OW12826   0.740   2.848   5.400
 3976SOL    HW112827   0.645   2.817   5.408
 3976SOL    HW212828   0.799   2.788   5.455
 3977SOL     OW12829   2.526   4.884   5.945
 3977SOL    HW112830   2.552   4.871   6.041
 3977SOL    HW212831   2.584   4.827   5.887
 3978SOL     OW12832   4.932   2.458   5.593
 3978SOL    HW112833   4.879   2.377   5.620
 3978SOL    HW212834   4.873   2.521   5.542
 3979SOL     OW12835   1.059   5.321   2.755
 3979SOL    HW112836   1.145   5.313   2.704
 3979SOL    HW212837   0.985   5.342   2.692
 3980SOL     OW12838   5.109   4.186   4.212
 3980SOL    HW112839   5.202   4.220   4.230
 3980SOL    HW212840   5.078   4.132   4.290
 3981SOL     OW12841   6.959   0.994   6.518
 3981SOL    HW112842   6.874   1.032   6.482
 3981SOL    HW212843   6.972   0.901   6.483
 3982SOL     OW12844   2.143   3.053   4.534
 3982SOL    HW112845   2.161   3.030   4.630
 3982SOL    HW212846   2.053   3.019   4.508
 3983SOL     OW12847   3.085   0.882   3.672
 3983SOL    HW112848   3.115   0.956   3.732
 3983SOL    HW212849   3.009   0.833   3.715
 3984SOL     OW12850   1.440   5.907   1.965
 3984SOL    HW112851   1.365   5.936   1.906
 3984SOL    HW212852   1.417   5.926   2.060
 3985SOL     OW12853   1.610   2.659   1.505
 3985SOL    HW112854   1.657   2.652   1.593
 3985SOL    HW212855   1.678   2.666   1.432
 3986SOL     OW12856   0.381   1.661   3.289
 3986SOL    HW112857   0.376   1.662   3.189
 3986SOL    HW212858   0.445   1.590   3.318
 3987SOL     OW12859   0.729   4.121   5.251
 3987SOL    HW112860   0.772   4.047   5.301
 3987SOL    HW212861   0.631   4.102   5.241
 3988SOL     OW12862   5.301   6.773   1.923
 3988SOL    HW112863   5.398   6.747   1.921
 3988SOL    HW212864   5.245   6.690   1.929
 3989SOL     OW12865   4.163   0.524   5.760
 3989SOL    HW112866   4.162   0.424   5.768
 3989SOL    HW212867   4.198   0.563   5.845
 3990SOL     OW12868   6.140   0.348   4.215
 3990SOL    HW112869   6.092   0.350   4.127
 3990SOL    HW212870   6.091   0.405   4.281
 3991SOL     OW12871   6.361   2.053   3.392
 3991SOL    HW112872   6.261   2.052   3.382
 3991SOL    HW212873   6.403   2.019   3.308
 3992SOL     OW12874   5.974   3.677   5.624
 3992SOL    HW112875   5.935   3.702   5.535
 3992SOL    HW212876   5.989   3.578   5.626
 3993SOL     OW12877   1.734   1.064   4.113
 3993SOL    HW112878   1.805   1.098   4.052
 3993SOL    HW212879   1.690   1.142   4.160
 3994SOL     OW12880   3.153   2.023   3.717
 3994SOL    HW112881   3.150   2.036   3.617
 3994SOL    HW212882   3.065   1.987   3.748
 3995SOL     OW12883   1.349   3.348   1.922
 3995SOL    HW112884   1.280   3.373   1.989
 3995SOL    HW212885   1.336   3.403   1.839
 3996SOL     OW12886   0.526   6.199   5.210
 3996SOL    HW112887   0.623   6.219   5.223
 3996SOL    HW212888   0.472   6.279   5.235
 3997SOL     OW12889   5.618   3.728   4.692
 3997SOL    HW112890   5.714   3.753   4.706
 3997SOL    HW212891   5.567   3.807   4.659
 3998SOL     OW12892   3.909   2.073   3.610
 3998SOL    HW112893   3.979   2.142   3.593
 3998SOL    HW212894   3.839   2.111   3.671
 3999SOL     OW12895   5.195   3.546   0.947
 3999SOL    HW112896   5.225   3.598   0.867
 3999SOL    HW212897   5.100   3.518   0.934
 4000SOL     OW12898   2.325   4.682   2.894
 4000SOL    HW112899   2.415   4.640   2.880
 4000SOL    HW212900   2.336   4.777   2.923
 4001SOL     OW12901   0.472   6.375   4.686
 4001SOL    HW112902   0.393   6.347   4.631
 4001SOL    HW212903   0.497   6.469   4.664
 4002SOL     OW12904   3.807   4.135   4.786
 4002SOL    HW112905   3.820   4.075   4.865
 4002SOL    HW212906   3.800   4.230   4.817
 4003SOL     OW12907   2.751   1.023   4.637
 4003SOL    HW112908   2.699   0.940   4.656
 4003SOL    HW212909   2.752   1.040   4.538
 4004SOL     OW12910   1.677   3.376   5.302
 4004SOL    HW112911   1.667   3.472   5.277
 4004SOL    HW212912   1.773   3.350   5.294
 4005SOL     OW12913   5.524   3.323   0.935
 4005SOL    HW112914   5.499   3.392   1.002
 4005SOL    HW212915   5.601   3.269   0.970
 4006SOL     OW12916   6.782   5.828   1.799
 4006SOL    HW112917   6.871   5.800   1.763
 4006SOL    HW212918   6.730   5.875   1.727
 4007SOL     OW12919   0.399   1.167   1.145
 4007SOL    HW112920   0.443   1.105   1.210
 4007SOL    HW212921   0.305   1.184   1.173
 4008SOL     OW12922   4.198   0.952   1.683
 4008SOL    HW112923   4.272   0.891   1.655
 4008SOL    HW212924   4.148   0.911   1.760
 4009SOL     OW12925   3.524   2.338   1.437
 4009SOL    HW112926   3.559   2.245   1.430
 4009SOL    HW212927   3.483   2.352   1.527
 4010SOL     OW12928   1.697   4.908   0.783
 4010SOL    HW112929   1.777   4.915   0.842
 4010SOL    HW212930   1.639   4.989   0.796
 4011SOL     OW12931   6.015   6.677   6.224
 4011SOL    HW112932   6.034   6.672   6.126
 4011SOL    HW212933   5.944   6.745   6.241
 4012SOL     OW12934   5.289   5.008   1.790
 4012SOL    HW112935   5.218   5.033   1.723
 4012SOL    HW212936   5.272   4.915   1.822
 4013SOL     OW12937   0.049   1.964   0.056
 4013SOL    HW112938   0.015   1.871   0.065
 4013SOL    HW212939   0.057   1.988   6.970
 4014SOL     OW12940   2.792   6.035   2.540
 4014SOL    HW112941   2.867   5.973   2.517
 4014SOL    HW212942   2.705   5.988   2.525
 4015SOL     OW12943   3.968   6.635   5.053
 4015SOL    HW112944   3.976   6.602   4.959
 4015SOL    HW212945   3.902   6.580   5.103
 4016SOL     OW12946   4.785   5.373   4.600
 4016SOL    HW112947   4.721   5.297   4.618
 4016SOL    HW212948   4.808   5.418   4.686
 4017SOL     OW12949   2.074   5.970   6.072
 4017SOL    HW112950   2.072   5.892   6.136
 4017SOL    HW212951   2.059   6.055   6.122
 4018SOL     OW12952   5.055   5.277   0.700
 4018SOL    HW112953   5.083   5.347   0.765
 4018SOL    HW212954   5.040   5.190   0.749
 4019SOL     OW12955   0.482   2.451   3.401
 4019SOL    HW112956   0.558   2.508   3.433
 4019SOL    HW212957   0.502   2.355   3.422
 4020SOL     OW12958   6.505   5.892   4.294
 4020SOL    HW112959   6.528   5.916   4.200
 4020SOL    HW212960   6.587   5.862   4.342
 4021SOL     OW12961   5.026   5.515   6.083
 4021SOL    HW112962   5.057   5.532   6.177
 4021SOL    HW212963   4.927   5.500   6.083
 4022SOL     OW12964   3.423   0.012   1.480
 4022SOL    HW112965   3.512   0.046   1.511
 4022SOL    HW212966   3.434   6.975   1.393
 4023SOL     OW12967   0.965   1.697   4.149
 4023SOL    HW112968   0.941   1.647   4.232
 4023SOL    HW212969   0.933   1.647   4.068
 4024SOL     OW12970   0.952   6.653   6.188
 4024SOL    HW112971   0.878   6.656   6.256
 4024SOL    HW212972   1.011   6.733   6.199
 4025SOL     OW12973   0.119   4.263   4.490
 4025SOL    HW112974   0.193   4.270   4.557
 4025SOL    HW212975   0.158   4.259   4.398
 4026SOL     OW12976   0.466   6.384   4.170
 4026SOL    HW112977   0.497   6.438   4.249
 4026SOL    HW212978   0.471   6.287   4.193
 4027SOL     OW12979   2.925   5.342   5.131
 4027SOL    HW112980   3.004   5.305   5.182
 4027SOL    HW212981   2.930   5.442   5.131
 4028SOL     OW12982   5.194   1.736   4.641
 4028SOL    HW112983   5.117   1.674   4.626
 4028SOL    HW212984   5.165   1.813   4.698
 4029SOL     OW12985   1.552   6.674   0.539
 4029SOL    HW112986   1.506   6.705   0.621
 4029SOL    HW212987   1.514   6.585   0.511
 4030SOL     OW12988   1.091   1.380   1.733
 4030SOL    HW112989   1.123   1.294   1.694
 4030SOL    HW212990   0.991   1.378   1.740
 4031SOL     OW12991   5.495   5.882   0.602
 4031SOL    HW112992   5.591   5.901   0.580
 4031SOL    HW212993   5.473   5.919   0.692
 4032SOL     OW12994   5.166   2.133   2.307
 4032SOL    HW112995   5.163   2.131   2.207
 4032SOL    HW212996   5.217   2.054   2.340
 4033SOL     OW12997   1.665   2.981   2.918
 4033SOL    HW112998   1.693   2.903   2.975
 4033SOL    HW212999   1.648   2.950   2.825
 4034SOL     OW13000   2.044   2.397   4.589
 4034SOL    HW113001   2.121   2.461   4.586
 4034SOL    HW213002   2.076   2.307   4.620
 4035SOL     OW13003   3.699   2.133   1.696
 4035SOL    HW113004   3.664   2.198   1.764
 4035SOL    HW213005   3.797   2.122   1.708
 4036SOL     OW13006   4.144   6.121   3.599
 4036SOL    HW113007   4.189   6.032   3.591
 4036SOL    HW213008   4.073   6.116   3.669
 4037SOL     OW13009   1.845   1.465   6.278
 4037SOL    HW113010   1.791   1.476   6.195
 4037SOL    HW213011   1.936   1.504   6.265
 4038SOL     OW13012   3.801   4.589   5.905
 4038SOL    HW113013   3.770   4.540   5.823
 4038SOL    HW213014   3.750   4.556   5.985
 4039SOL     OW13015   6.271   4.679   1.450
 4039SOL    HW113016   6.308   4.591   1.422
 4039SOL    HW213017   6.316   4.752   1.399
 4040SOL     OW13018   2.748   0.271   5.009
 4040SOL    HW113019   2.840   0.236   4.989
 4040SOL    HW213020   2.756   0.359   5.056
 4041SOL     OW13021   1.589   6.273   1.629
 4041SOL    HW113022   1.529   6.193   1.639
 4041SOL    HW213023   1.684   6.244   1.635
 4042SOL     OW13024   0.244   1.318   3.566
 4042SOL    HW113025   0.252   1.236   3.509
 4042SOL    HW213026   0.221   1.396   3.508
 4043SOL     OW13027   4.364   1.918   6.154
 4043SOL    HW113028   4.438   1.852   6.169
 4043SOL    HW213029   4.353   1.973   6.237
 4044SOL     OW13030   4.259   4.737   3.221
 4044SOL    HW113031   4.233   4.659   3.278
 4044SOL    HW213032   4.269   4.818   3.278
 4045SOL     OW13033   4.699   1.348   4.927
 4045SOL    HW113034   4.680   1.298   5.012
 4045SOL    HW213035   4.614   1.358   4.875
 4046SOL     OW13036   4.918   1.600   3.960
 4046SOL    HW113037   4.822   1.615   3.935
 4046SOL    HW213038   4.926   1.512   4.008
 4047SOL     OW13039   3.125   2.175   6.352
 4047SOL    HW113040   3.146   2.266   6.389
 4047SOL    HW213041   3.131   2.107   6.426
 4048SOL     OW13042   4.768   2.246   3.666
 4048SOL    HW113043   4.742   2.164   3.717
 4048SOL    HW213044   4.689   2.306   3.656
 4049SOL     OW13045   4.278   3.999   1.482
 4049SOL    HW113046   4.273   3.900   1.472
 4049SOL    HW213047   4.373   4.027   1.494
 4050SOL     OW13048   6.790   4.875   3.206
 4050SOL    HW113049   6.725   4.924   3.264
 4050SOL    HW213050   6.794   4.919   3.116
 4051SOL     OW13051   5.863   1.143   4.204
 4051SOL    HW113052   5.789   1.179   4.147
 4051SOL    HW213053   5.949   1.145   4.153
 4052SOL     OW13054   5.033   1.659   4.338
 4052SOL    HW113055   5.004   1.617   4.424
 4052SOL    HW213056   4.998   1.753   4.333
 4053SOL     OW13057   0.536   5.037   3.756
 4053SOL    HW113058   0.626   5.075   3.735
 4053SOL    HW213059   0.488   5.098   3.819
 4054SOL     OW13060   4.820   4.025   1.143
 4054SOL    HW113061   4.901   4.019   1.201
 4054SOL    HW213062   4.787   4.119   1.141
 4055SOL     OW13063   0.063   4.573   0.100
 4055SOL    HW113064   0.107   4.510   0.036
 4055SOL    HW213065   7.003   4.625   0.053
 4056SOL     OW13066   5.208   3.536   0.031
 4056SOL    HW113067   5.229   3.600   0.105
 4056SOL    HW213068   5.110   3.514   0.033
 4057SOL     OW13069   0.075   4.025   5.928
 4057SOL    HW113070   0.004   4.050   5.994
 4057SOL    HW213071   0.164   4.057   5.963
 4058SOL     OW13072   3.617   0.675   4.391
 4058SOL    HW113073   3.587   0.706   4.301
 4058SOL    HW213074   3.634   0.754   4.450
 4059SOL     OW13075   0.939   1.362   4.125
 4059SOL    HW113076   0.937   1.438   4.190
 4059SOL    HW213077   1.022   1.307   4.141
 4060SOL     OW13078   0.002   6.420   4.385
 4060SOL    HW113079   6.924   6.460   4.408
 4060SOL    HW213080   7.001   6.351   4.313
 4061SOL     OW13081   0.968   4.421   1.852
 4061SOL    HW113082   0.995   4.366   1.772
 4061SOL    HW213083   0.990   4.517   1.835
 4062SOL     OW13084   2.330   4.319   0.374
 4062SOL    HW113085   2.285   4.236   0.405
 4062SOL    HW213086   2.266   4.396   0.380
 4063SOL     OW13087   3.794   0.933   1.036
 4063SOL    HW113088   3.734   0.906   1.111
 4063SOL    HW213089   3.888   0.944   1.071
 4064SOL     OW13090   2.384   0.527   4.966
 4064SOL    HW113091   2.422   0.613   4.999
 4064SOL    HW213092   2.293   0.544   4.926
 4065SOL     OW13093   2.248   1.520   1.499
 4065SOL    HW113094   2.244   1.438   1.442
 4065SOL    HW213095   2.178   1.584   1.470
 4066SOL     OW13096   0.345   3.936   4.497
 4066SOL    HW113097   0.255   3.905   4.467
 4066SOL    HW213098   0.375   4.012   4.440
 4067SOL     OW13099   6.380   4.760   0.806
 4067SOL    HW113100   6.445   4.727   0.738
 4067SOL    HW213101   6.287   4.750   0.771
 4068SOL     OW13102   1.691   2.860   5.681
 4068SOL    HW113103   1.656   2.863   5.587
 4068SOL    HW213104   1.655   2.937   5.732
 4069SOL     OW13105   4.702   6.866   5.580
 4069SOL    HW113106   4.680   6.799   5.651
 4069SOL    HW213107   4.698   6.958   5.619
 4070SOL     OW13108   1.918   3.338   4.284
 4070SOL    HW113109   1.894   3.377   4.195
 4070SOL    HW213110   2.015   3.312   4.284
 4071SOL     OW13111   1.540   0.533   4.671
 4071SOL    HW113112   1.615   0.600   4.673
 4071SOL    HW213113   1.515   0.508   4.764
 4072SOL     OW13114   3.063   6.643   2.543
 4072SOL    HW113115   3.043   6.598   2.455
 4072SOL    HW213116   3.157   6.679   2.541
 4073SOL     OW13117   3.939   5.122   6.799
 4073SOL    HW113118   3.906   5.192   6.863
 4073SOL    HW213119   3.941   5.034   6.846
 4074SOL     OW13120   1.517   5.468   2.272
 4074SOL    HW113121   1.535   5.373   2.297
 4074SOL    HW213122   1.523   5.479   2.173
 4075SOL     OW13123   6.008   0.762   6.993
 4075SOL    HW113124   5.917   0.794   6.970
 4075SOL    HW213125   6.067   0.840   0.002
 4076SOL     OW13126   1.751   5.669   3.964
 4076SOL    HW113127   1.651   5.668   3.969
 4076SOL    HW213128   1.787   5.582   3.998
 4077SOL     OW13129   2.811   2.043   1.363
 4077SOL    HW113130   2.866   2.044   1.280
 4077SOL    HW213131   2.764   2.131   1.373
 4078SOL     OW13132   4.183   5.094   2.277
 4078SOL    HW113133   4.258   5.132   2.331
 4078SOL    HW213134   4.101   5.150   2.290
 4079SOL     OW13135   0.443   1.726   4.350
 4079SOL    HW113136   0.383   1.728   4.270
 4079SOL    HW213137   0.481   1.817   4.365
 4080SOL     OW13138   6.444   2.219   4.384
 4080SOL    HW113139   6.386   2.260   4.455
 4080SOL    HW213140   6.540   2.245   4.400
 4081SOL     OW13141   0.240   4.071   3.027
 4081SOL    HW113142   0.202   4.010   2.958
 4081SOL    HW213143   0.228   4.166   2.998
 4082SOL     OW13144   0.316   3.330   0.125
 4082SOL    HW113145   0.370   3.251   0.096
 4082SOL    HW213146   0.369   3.414   0.110
 4083SOL     OW13147   6.501   3.255   4.774
 4083SOL    HW113148   6.511   3.173   4.830
 4083SOL    HW213149   6.582   3.312   4.784
 4084SOL     OW13150   6.065   0.878   4.623
 4084SOL    HW113151   6.035   0.900   4.530
 4084SOL    HW213152   5.992   0.829   4.671
 4085SOL     OW13153   3.398   5.556   6.526
 4085SOL    HW113154   3.369   5.630   6.586
 4085SOL    HW213155   3.425   5.477   6.581
 4086SOL     OW13156   0.905   3.377   1.462
 4086SOL    HW113157   0.813   3.394   1.497
 4086SOL    HW213158   0.961   3.336   1.534
 4087SOL     OW13159   2.394   1.099   3.168
 4087SOL    HW113160   2.389   1.190   3.125
 4087SOL    HW213161   2.391   1.109   3.267
 4088SOL     OW13162   6.626   1.946   6.744
 4088SOL    HW113163   6.604   2.043   6.740
 4088SOL    HW213164   6.635   1.917   6.839
 4089SOL     OW13165   0.432   0.854   5.805
 4089SOL    HW113166   0.342   0.874   5.765
 4089SOL    HW213167   0.422   0.834   5.902
 4090SOL     OW13168   3.403   5.083   6.338
 4090SOL    HW113169   3.492   5.064   6.379
 4090SOL    HW213170   3.415   5.137   6.255
 4091SOL     OW13171   4.977   6.764   1.418
 4091SOL    HW113172   4.895   6.744   1.365
 4091SOL    HW213173   4.988   6.863   1.426
 4092SOL     OW13174   0.356   1.414   4.128
 4092SOL    HW113175   0.414   1.395   4.207
 4092SOL    HW213176   0.260   1.413   4.156
 4093SOL     OW13177   5.203   6.940   3.988
 4093SOL    HW113178   5.239   6.852   4.018
 4093SOL    HW213179   5.164   6.989   4.066
 4094SOL     OW13180   3.392   3.662   5.978
 4094SOL    HW113181   3.467   3.612   6.022
 4094SOL    HW213182   3.358   3.609   5.900
 4095SOL     OW13183   1.709   3.572   6.210
 4095SOL    HW113184   1.638   3.502   6.195
 4095SOL    HW213185   1.741   3.606   6.122
 4096SOL     OW13186   4.476   4.842   1.953
 4096SOL    HW113187   4.516   4.753   1.929
 4096SOL    HW213188   4.536   4.915   1.921
 4097SOL     OW13189   3.528   4.145   3.403
 4097SOL    HW113190   3.434   4.110   3.410
 4097SOL    HW213191   3.567   4.117   3.315
 4098SOL     OW13192   0.836   3.213   2.274
 4098SOL    HW113193   0.737   3.226   2.276
 4098SOL    HW213194   0.858   3.125   2.232
 4099SOL     OW13195   2.536   6.009   1.713
 4099SOL    HW113196   2.461   5.971   1.767
 4099SOL    HW213197   2.501   6.078   1.651
 4100SOL     OW13198   3.608   0.102   2.911
 4100SOL    HW113199   3.542   0.171   2.881
 4100SOL    HW213200   3.638   0.121   3.004
 4101SOL     OW13201   4.559   1.924   6.526
 4101SOL    HW113202   4.499   1.852   6.561
 4101SOL    HW213203   4.649   1.916   6.569
 4102SOL     OW13204   4.349   1.773   6.654
 4102SOL    HW113205   4.309   1.765   6.563
 4102SOL    HW213206   4.298   1.841   6.707
 4103SOL     OW13207   0.175   0.568   1.950
 4103SOL    HW113208   0.147   0.612   1.865
 4103SOL    HW213209   0.184   0.636   2.022
 4104SOL     OW13210   2.259   4.725   2.499
 4104SOL    HW113211   2.284   4.794   2.566
 4104SOL    HW213212   2.341   4.687   2.457
 4105SOL     OW13213   6.131   5.280   0.264
 4105SOL    HW113214   6.161   5.306   0.172
 4105SOL    HW213215   6.119   5.362   0.320
 4106SOL     OW13216   6.493   4.014   4.716
 4106SOL    HW113217   6.415   4.076   4.729
 4106SOL    HW213218   6.465   3.921   4.738
 4107SOL     OW13219   0.128   0.561   0.829
 4107SOL    HW113220   0.052   0.615   0.793
 4107SOL    HW213221   0.143   0.585   0.925
 4108SOL     OW13222   6.314   2.498   4.982
 4108SOL    HW113223   6.375   2.577   4.976
 4108SOL    HW213224   6.269   2.498   5.071
 4109SOL     OW13225   2.578   6.138   3.696
 4109SOL    HW113226   2.611   6.051   3.657
 4109SOL    HW213227   2.623   6.214   3.650
 4110SOL     OW13228   4.754   3.467   5.356
 4110SOL    HW113229   4.748   3.540   5.287
 4110SOL    HW213230   4.850   3.445   5.373
 4111SOL     OW13231   3.749   2.911   6.765
 4111SOL    HW113232   3.712   2.885   6.676
 4111SOL    HW213233   3.821   2.979   6.752
 4112SOL     OW13234   3.793   0.208   5.938
 4112SOL    HW113235   3.865   0.273   5.963
 4112SOL    HW213236   3.742   0.181   6.019
 4113SOL     OW13237   3.560   4.929   4.754
 4113SOL    HW113238   3.593   4.893   4.666
 4113SOL    HW213239   3.521   4.855   4.808
 4114SOL     OW13240   3.775   1.838   3.033
 4114SOL    HW113241   3.744   1.915   2.977
 4114SOL    HW213242   3.712   1.825   3.110
 4115SOL     OW13243   4.772   4.031   2.647
 4115SOL    HW113244   4.683   4.056   2.610
 4115SOL    HW213245   4.793   3.936   2.622
 4116SOL     OW13246   2.945   0.819   2.285
 4116SOL    HW113247   2.985   0.731   2.310
 4116SOL    HW213248   2.921   0.870   2.368
 4117SOL     OW13249   0.807   5.838   1.340
 4117SOL    HW113250   0.841   5.744   1.348
 4117SOL    HW213251   0.799   5.862   1.243
 4118SOL     OW13252   1.998   0.124   6.729
 4118SOL    HW113253   1.936   0.143   6.805
 4118SOL    HW213254   1.952   0.064   6.663
 4119SOL     OW13255   4.922   1.637   3.473
 4119SOL    HW113256   4.951   1.733   3.473
 4119SOL    HW213257   4.963   1.589   3.395
 4120SOL     OW13258   5.257   1.142   2.434
 4120SOL    HW113259   5.169   1.171   2.471
 4120SOL    HW213260   5.287   1.059   2.480
 4121SOL     OW13261   6.280   2.365   4.106
 4121SOL    HW113262   6.312   2.439   4.165
 4121SOL    HW213263   6.310   2.277   4.144
 4122SOL     OW13264   1.973   5.439   0.082
 4122SOL    HW113265   2.031   5.430   0.163
 4122SOL    HW213266   1.944   5.349   0.051
 4123SOL     OW13267   4.305   3.390   5.508
 4123SOL    HW113268   4.380   3.350   5.454
 4123SOL    HW213269   4.271   3.472   5.462
 4124SOL     OW13270   4.264   5.882   3.589
 4124SOL    HW113271   4.219   5.835   3.514
 4124SOL    HW213272   4.256   5.827   3.673
 4125SOL     OW13273   4.809   1.030   1.684
 4125SOL    HW113274   4.890   1.083   1.657
 4125SOL    HW213275   4.826   0.985   1.771
 4126SOL     OW13276   1.863   4.380   4.704
 4126SOL    HW113277   1.852   4.283   4.724
 4126SOL    HW213278   1.783   4.430   4.738
 4127SOL     OW13279   5.659   4.573   4.502
 4127SOL    HW113280   5.706   4.588   4.589
 4127SOL    HW213281   5.724   4.540   4.434
 4128SOL     OW13282   0.384   2.031   1.681
 4128SOL    HW113283   0.312   1.982   1.631
 4128SOL    HW213284   0.367   2.025   1.779
 4129SOL     OW13285   6.674   2.696   6.300
 4129SOL    HW113286   6.704   2.788   6.275
 4129SOL    HW213287   6.641   2.648   6.218
 4130SOL     OW13288   6.507   2.546   1.294
 4130SOL    HW113289   6.574   2.615   1.321
 4130SOL    HW213290   6.552   2.457   1.286
 4131SOL     OW13291   6.892   3.738   2.962
 4131SOL    HW113292   6.802   3.780   2.949
 4131SOL    HW213293   6.916   3.738   3.059
 4132SOL     OW13294   4.862   1.942   4.803
 4132SOL    HW113295   4.948   1.930   4.853
 4132SOL    HW213296   4.845   1.863   4.745
 4133SOL     OW13297   2.411   2.552   1.163
 4133SOL    HW113298   2.371   2.510   1.245
 4133SOL    HW213299   2.491   2.499   1.134
 4134SOL     OW13300   1.936   1.139   0.234
 4134SOL    HW113301   2.034   1.124   0.240
 4134SOL    HW213302   1.898   1.082   0.160
 4135SOL     OW13303   1.931   0.449   0.866
 4135SOL    HW113304   1.877   0.483   0.790
 4135SOL    HW213305   1.870   0.425   0.942
 4136SOL     OW13306   0.418   1.689   3.749
 4136SOL    HW113307   0.444   1.608   3.696
 4136SOL    HW213308   0.444   1.676   3.844
 4137SOL     OW13309   4.002   3.127   5.593
 4137SOL    HW113310   3.955   3.048   5.554
 4137SOL    HW213311   4.096   3.131   5.558
 4138SOL     OW13312   4.241   5.340   1.930
 4138SOL    HW113313   4.335   5.317   1.905
 4138SOL    HW213314   4.221   5.433   1.901
 4139SOL     OW13315   2.772   1.925   0.776
 4139SOL    HW113316   2.759   1.846   0.836
 4139SOL    HW213317   2.837   1.902   0.704
 4140SOL     OW13318   4.275   1.839   5.433
 4140SOL    HW113319   4.250   1.834   5.337
 4140SOL    HW213320   4.372   1.860   5.443
 4141SOL     OW13321   5.668   5.633   0.711
 4141SOL    HW113322   5.705   5.668   0.798
 4141SOL    HW213323   5.643   5.711   0.653
 4142SOL     OW13324   6.141   3.293   1.456
 4142SOL    HW113325   6.100   3.204   1.476
 4142SOL    HW213326   6.220   3.280   1.396
 4143SOL     OW13327   0.494   2.694   1.747
 4143SOL    HW113328   0.399   2.681   1.722
 4143SOL    HW213329   0.539   2.754   1.680
 4144SOL     OW13330   4.122   0.945   2.217
 4144SOL    HW113331   4.049   0.942   2.148
 4144SOL    HW213332   4.111   1.027   2.273
 4145SOL     OW13333   3.488   6.583   3.209
 4145SOL    HW113334   3.451   6.657   3.266
 4145SOL    HW213335   3.588   6.593   3.203
 4146SOL     OW13336   4.459   4.839   0.458
 4146SOL    HW113337   4.551   4.837   0.419
 4146SOL    HW213338   4.420   4.747   0.457
 4147SOL     OW13339   2.636   1.825   5.925
 4147SOL    HW113340   2.543   1.820   5.961
 4147SOL    HW213341   2.686   1.743   5.951
 4148SOL     OW13342   0.054   0.333   2.352
 4148SOL    HW113343   0.144   0.355   2.390
 4148SOL    HW213344   0.059   0.247   2.301
 4149SOL     OW13345   4.733   4.278   2.320
 4149SOL    HW113346   4.650   4.292   2.266
 4149SOL    HW213347   4.711   4.287   2.417
 4150SOL     OW13348   4.202   0.581   5.260
 4150SOL    HW113349   4.152   0.529   5.329
 4150SOL    HW213350   4.295   0.546   5.253
 4151SOL     OW13351   0.115   5.394   0.413
 4151SOL    HW113352   0.136   5.298   0.435
 4151SOL    HW213353   0.030   5.421   0.458
 4152SOL     OW13354   3.335   4.041   1.531
 4152SOL    HW113355   3.377   3.987   1.603
 4152SOL    HW213356   3.301   3.980   1.459
 4153SOL     OW13357   6.183   5.667   6.055
 4153SOL    HW113358   6.223   5.739   6.111
 4153SOL    HW213359   6.253   5.628   5.994
 4154SOL     OW13360   4.672   2.722   5.078
 4154SOL    HW113361   4.685   2.820   5.062
 4154SOL    HW213362   4.577   2.705   5.106
 4155SOL     OW13363   1.692   2.709   0.509
 4155SOL    HW113364   1.699   2.806   0.485
 4155SOL    HW213365   1.629   2.663   0.447
 4156SOL     OW13366   5.930   0.901   4.992
 4156SOL    HW113367   5.898   0.878   4.899
 4156SOL    HW213368   6.028   0.918   4.989
 4157SOL     OW13369   2.925   0.838   3.133
 4157SOL    HW113370   2.873   0.799   3.057
 4157SOL    HW213371   2.877   0.823   3.219
 4158SOL     OW13372   1.389   0.303   3.682
 4158SOL    HW113373   1.352   0.224   3.632
 4158SOL    HW213374   1.320   0.335   3.748
 4159SOL     OW13375   0.356   4.124   5.504
 4159SOL    HW113376   0.350   4.120   5.604
 4159SOL    HW213377   0.297   4.196   5.470
 4160SOL     OW13378   0.204   0.653   0.572
 4160SOL    HW113379   0.187   0.751   0.578
 4160SOL    HW213380   0.199   0.612   0.663
 4161SOL     OW13381   6.206   1.936   1.174
 4161SOL    HW113382   6.149   1.870   1.223
 4161SOL    HW213383   6.164   2.026   1.179
 4162SOL     OW13384   0.987   6.908   5.375
 4162SOL    HW113385   1.070   6.853   5.371
 4162SOL    HW213386   0.925   6.880   5.301
 4163SOL     OW13387   6.712   1.431   5.313
 4163SOL    HW113388   6.655   1.436   5.395
 4163SOL    HW213389   6.804   1.400   5.338
 4164SOL     OW13390   2.659   6.570   5.652
 4164SOL    HW113391   2.628   6.659   5.687
 4164SOL    HW213392   2.588   6.501   5.668
 4165SOL     OW13393   2.232   6.312   1.796
 4165SOL    HW113394   2.238   6.373   1.875
 4165SOL    HW213395   2.205   6.220   1.826
 4166SOL     OW13396   6.036   1.744   1.777
 4166SOL    HW113397   6.031   1.662   1.719
 4166SOL    HW213398   5.979   1.731   1.858
 4167SOL     OW13399   1.984   2.447   1.103
 4167SOL    HW113400   2.025   2.538   1.101
 4167SOL    HW213401   1.964   2.422   1.198
 4168SOL     OW13402   1.987   5.218   1.304
 4168SOL    HW113403   1.972   5.244   1.209
 4168SOL    HW213404   1.900   5.187   1.344
 4169SOL     OW13405   6.551   3.368   6.371
 4169SOL    HW113406   6.523   3.440   6.435
 4169SOL    HW213407   6.471   3.334   6.322
 4170SOL     OW13408   3.490   1.038   5.222
 4170SOL    HW113409   3.545   1.064   5.142
 4170SOL    HW213410   3.403   1.086   5.219
 4171SOL     OW13411   5.978   3.533   1.353
 4171SOL    HW113412   5.991   3.449   1.407
 4171SOL    HW213413   5.903   3.520   1.289
 4172SOL     OW13414   2.814   0.953   0.805
 4172SOL    HW113415   2.834   0.861   0.770
 4172SOL    HW213416   2.769   0.944   0.895
 4173SOL     OW13417   4.810   3.413   5.661
 4173SOL    HW113418   4.882   3.443   5.598
 4173SOL    HW213419   4.813   3.314   5.670
 4174SOL     OW13420   5.132   0.778   3.142
 4174SOL    HW113421   5.067   0.718   3.095
 4174SOL    HW213422   5.082   0.844   3.197
 4175SOL     OW13423   2.412   1.437   2.670
 4175SOL    HW113424   2.316   1.443   2.698
 4175SOL    HW213425   2.419   1.451   2.571
 4176SOL     OW13426   5.879   4.369   2.847
 4176SOL    HW113427   5.843   4.422   2.771
 4176SOL    HW213428   5.858   4.272   2.834
 4177SOL     OW13429   6.910   5.405   2.936
 4177SOL    HW113430   6.884   5.431   3.029
 4177SOL    HW213431   6.839   5.434   2.872
 4178SOL     OW13432   4.307   2.388   5.488
 4178SOL    HW113433   4.277   2.337   5.569
 4178SOL    HW213434   4.386   2.444   5.513
 4179SOL     OW13435   6.792   2.222   0.376
 4179SOL    HW113436   6.832   2.313   0.365
 4179SOL    HW213437   6.705   2.230   0.423
 4180SOL     OW13438   5.038   3.771   1.649
 4180SOL    HW113439   5.090   3.845   1.691
 4180SOL    HW213440   4.973   3.735   1.716
 4181SOL     OW13441   6.426   0.800   0.725
 4181SOL    HW113442   6.424   0.897   0.752
 4181SOL    HW213443   6.356   0.784   0.656
 4182SOL     OW13444   5.943   0.753   3.391
 4182SOL    HW113445   5.968   0.657   3.378
 4182SOL    HW213446   5.927   0.796   3.302
 4183SOL     OW13447   1.291   0.906   1.950
 4183SOL    HW113448   1.379   0.942   1.981
 4183SOL    HW213449   1.279   0.927   1.853
 4184SOL     OW13450   4.277   4.822   6.421
 4184SOL    HW113451   4.374   4.845   6.417
 4184SOL    HW213452   4.267   4.724   6.440
 4185SOL     OW13453   0.363   0.159   3.786
 4185SOL    HW113454   0.341   0.257   3.784
 4185SOL    HW213455   0.452   0.146   3.828
 4186SOL     OW13456   3.710   4.190   1.854
 4186SOL    HW113457   3.633   4.212   1.914
 4186SOL    HW213458   3.778   4.138   1.905
 4187SOL     OW13459   4.003   5.145   6.223
 4187SOL    HW113460   4.023   5.168   6.318
 4187SOL    HW213461   4.025   5.224   6.165
 4188SOL     OW13462   4.880   6.461   3.366
 4188SOL    HW113463   4.839   6.455   3.457
 4188SOL    HW213464   4.933   6.546   3.358
 4189SOL     OW13465   1.657   3.123   3.419
 4189SOL    HW113466   1.704   3.098   3.334
 4189SOL    HW213467   1.608   3.044   3.455
 4190SOL     OW13468   2.343   0.184   1.601
 4190SOL    HW113469   2.396   0.242   1.540
 4190SOL    HW213470   2.393   0.170   1.687
 4191SOL     OW13471   0.688   2.009   3.166
 4191SOL    HW113472   0.660   2.093   3.119
 4191SOL    HW213473   0.660   1.930   3.111
 4192SOL     OW13474   6.055   0.063   3.644
 4192SOL    HW113475   6.144   0.104   3.624
 4192SOL    HW213476   6.044   0.053   3.743
 4193SOL     OW13477   1.477   6.589   3.659
 4193SOL    HW113478   1.415   6.654   3.616
 4193SOL    HW213479   1.566   6.592   3.612
 4194SOL     OW13480   5.907   6.861   3.097
 4194SOL    HW113481   5.888   6.952   3.135
 4194SOL    HW213482   5.977   6.869   3.026
 4195SOL     OW13483   5.051   0.745   3.476
 4195SOL    HW113484   4.985   0.748   3.551
 4195SOL    HW213485   5.018   0.801   3.400
 4196SOL     OW13486   4.702   2.861   3.393
 4196SOL    HW113487   4.692   2.819   3.303
 4196SOL    HW213488   4.797   2.891   3.406
 4197SOL     OW13489   5.180   4.058   4.626
 4197SOL    HW113490   5.144   4.068   4.718
 4197SOL    HW213491   5.201   4.148   4.588
 4198SOL     OW13492   6.410   3.229   6.067
 4198SOL    HW113493   6.489   3.240   6.006
 4198SOL    HW213494   6.339   3.294   6.041
 4199SOL     OW13495   2.775   3.981   6.414
 4199SOL    HW113496   2.858   4.021   6.453
 4199SOL    HW213497   2.705   4.051   6.406
 4200SOL     OW13498   3.105   0.525   0.039
 4200SOL    HW113499   3.171   0.557   0.106
 4200SOL    HW213500   3.137   0.439   7.010
 4201SOL     OW13501   6.675   6.918   4.965
 4201SOL    HW113502   6.674   6.836   4.908
 4201SOL    HW213503   6.763   6.925   5.012
 4202SOL     OW13504   5.779   3.427   5.396
 4202SOL    HW113505   5.700   3.464   5.446
 4202SOL    HW213506   5.754   3.340   5.355
 4203SOL     OW13507   3.742   5.442   4.300
 4203SOL    HW113508   3.796   5.495   4.234
 4203SOL    HW213509   3.770   5.467   4.393
 4204SOL     OW13510   1.594   4.005   0.157
 4204SOL    HW113511   1.633   3.957   0.078
 4204SOL    HW213512   1.500   4.033   0.137
 4205SOL     OW13513   2.660   6.039   3.097
 4205SOL    HW113514   2.722   6.023   3.020
 4205SOL    HW213515   2.594   6.109   3.072
 4206SOL     OW13516   5.031   6.679   3.945
 4206SOL    HW113517   5.020   6.585   3.912
 4206SOL    HW213518   5.106   6.723   3.896
 4207SOL     OW13519   1.242   6.446   0.021
 4207SOL    HW113520   1.172   6.511   7.002
 4207SOL    HW213521   1.327   6.463   6.983
 4208SOL     OW13522   0.437   2.713   1.416
 4208SOL    HW113523   0.507   2.669   1.360
 4208SOL    HW213524   0.359   2.651   1.427
 4209SOL     OW13525   2.889   0.287   5.415
 4209SOL    HW113526   2.863   0.361   5.477
 4209SOL    HW213527   2.933   0.325   5.334
 4210SOL     OW13528   3.529   2.804   0.258
 4210SOL    HW113529   3.498   2.711   0.277
 4210SOL    HW213530   3.628   2.810   0.272
 4211SOL     OW13531   5.167   3.783   4.278
 4211SOL    HW113532   5.242   3.848   4.263
 4211SOL    HW213533   5.189   3.724   4.355
 4212SOL     OW13534   6.424   6.849   2.006
 4212SOL    HW113535   6.444   6.920   1.939
 4212SOL    HW213536   6.351   6.790   1.973
 4213SOL     OW13537   0.702   7.007   1.109
 4213SOL    HW113538   0.614   7.000   1.155
 4213SOL    HW213539   0.770   6.955   1.161
 4214SOL     OW13540   3.051   5.537   3.619
 4214SOL    HW113541   3.106   5.602   3.567
 4214SOL    HW213542   3.108   5.495   3.691
 4215SOL     OW13543   1.582   5.881   6.889
 4215SOL    HW113544   1.513   5.849   6.823
 4215SOL    HW213545   1.587   5.981   6.886
 4216SOL     OW13546   2.647   3.104   5.390
 4216SOL    HW113547   2.583   3.059   5.328
 4216SOL    HW213548   2.647   3.058   5.479
 4217SOL     OW13549   6.430   0.958   4.298
 4217SOL    HW113550   6.407   0.972   4.395
 4217SOL    HW213551   6.521   0.996   4.280
 4218SOL     OW13552   2.988   5.545   2.182
 4218SOL    HW113553   3.051   5.616   2.149
 4218SOL    HW213554   3.040   5.473   2.228
 4219SOL     OW13555   5.741   0.221   2.851
 4219SOL    HW113556   5.646   0.250   2.852
 4219SOL    HW213557   5.755   0.154   2.778
 4220SOL     OW13558   6.920   4.330   2.975
 4220SOL    HW113559   6.885   4.418   2.942
 4220SOL    HW213560   6.857   4.294   3.044
 4221SOL     OW13561   5.129   6.520   6.015
 4221SOL    HW113562   5.212   6.465   6.007
 4221SOL    HW213563   5.075   6.511   5.931
 4222SOL     OW13564   2.575   2.706   0.122
 4222SOL    HW113565   2.521   2.785   0.094
 4222SOL    HW213566   2.672   2.729   0.119
 4223SOL     OW13567   3.739   3.773   3.070
 4223SOL    HW113568   3.731   3.754   3.168
 4223SOL    HW213569   3.771   3.866   3.056
 4224SOL     OW13570   3.550   1.840   5.767
 4224SOL    HW113571   3.642   1.843   5.804
 4224SOL    HW213572   3.549   1.879   5.674
 4225SOL     OW13573   5.215   0.052   4.426
 4225SOL    HW113574   5.216   6.963   4.412
 4225SOL    HW213575   5.303   0.082   4.461
 4226SOL     OW13576   2.005   1.645   2.398
 4226SOL    HW113577   2.049   1.555   2.397
 4226SOL    HW213578   1.920   1.642   2.347
 4227SOL     OW13579   5.413   3.850   6.672
 4227SOL    HW113580   5.345   3.794   6.719
 4227SOL    HW213581   5.475   3.791   6.619
 4228SOL     OW13582   4.176   5.422   2.808
 4228SOL    HW113583   4.093   5.476   2.796
 4228SOL    HW213584   4.238   5.471   2.870
 4229SOL     OW13585   3.828   5.278   5.298
 4229SOL    HW113586   3.758   5.243   5.361
 4229SOL    HW213587   3.794   5.362   5.255
 4230SOL     OW13588   2.815   1.378   6.375
 4230SOL    HW113589   2.848   1.436   6.301
 4230SOL    HW213590   2.841   1.417   6.463
 4231SOL     OW13591   3.738   6.350   6.448
 4231SOL    HW113592   3.826   6.395   6.462
 4231SOL    HW213593   3.718   6.292   6.527
 4232SOL     OW13594   1.442   4.171   0.949
 4232SOL    HW113595   1.468   4.180   1.045
 4232SOL    HW213596   1.380   4.246   0.924
 4233SOL     OW13597   5.599   5.652   1.148
 4233SOL    HW113598   5.553   5.685   1.230
 4233SOL    HW213599   5.535   5.655   1.071
 4234SOL     OW13600   3.702   3.549   5.498
 4234SOL    HW113601   3.734   3.457   5.521
 4234SOL    HW213602   3.780   3.606   5.474
 4235SOL     OW13603   0.293   4.192   4.711
 4235SOL    HW113604   0.319   4.270   4.767
 4235SOL    HW213605   0.362   4.179   4.639
 4236SOL     OW13606   0.740   3.803   4.574
 4236SOL    HW113607   0.808   3.848   4.516
 4236SOL    HW213608   0.782   3.779   4.662
 4237SOL     OW13609   5.993   3.960   5.423
 4237SOL    HW113610   5.898   3.990   5.412
 4237SOL    HW213611   6.008   3.880   5.365
 4238SOL     OW13612   4.467   4.882   4.866
 4238SOL    HW113613   4.423   4.805   4.819
 4238SOL    HW213614   4.398   4.934   4.916
 4239SOL     OW13615   4.976   5.930   5.621
 4239SOL    HW113616   4.936   6.017   5.593
 4239SOL    HW213617   5.049   5.945   5.688
 4240SOL     OW13618   2.833   4.734   6.278
 4240SOL    HW113619   2.877   4.820   6.255
 4240SOL    HW213620   2.866   4.661   6.218
 4241SOL     OW13621   3.227   2.232   1.138
 4241SOL    HW113622   3.222   2.281   1.225
 4241SOL    HW213623   3.254   2.294   1.065
 4242SOL     OW13624   2.508   0.456   1.942
 4242SOL    HW113625   2.414   0.424   1.929
 4242SOL    HW213626   2.525   0.536   1.884
 4243SOL     OW13627   1.814   2.446   2.550
 4243SOL    HW113628   1.825   2.396   2.637
 4243SOL    HW213629   1.901   2.485   2.523
 4244SOL     OW13630   3.155   0.448   1.138
 4244SOL    HW113631   3.110   0.364   1.167
 4244SOL    HW213632   3.165   0.509   1.217
 4245SOL     OW13633   6.993   1.604   1.314
 4245SOL    HW113634   6.900   1.638   1.307
 4245SOL    HW213635   6.998   1.534   1.386
 4246SOL     OW13636   4.524   2.431   3.763
 4246SOL    HW113637   4.488   2.459   3.852
 4246SOL    HW213638   4.514   2.506   3.697
 4247SOL     OW13639   2.449   5.600   6.951
 4247SOL    HW113640   2.380   5.663   6.987
 4247SOL    HW213641   2.521   5.587   0.008
 4248SOL     OW13642   2.643   0.263   3.009
 4248SOL    HW113643   2.548   0.232   3.011
 4248SOL    HW213644   2.664   0.311   3.094
 4249SOL     OW13645   5.996   1.217   5.411
 4249SOL    HW113646   6.012   1.237   5.315
 4249SOL    HW213647   5.898   1.213   5.428
 4250SOL     OW13648   0.877   5.653   4.680
 4250SOL    HW113649   0.914   5.575   4.629
 4250SOL    HW213650   0.807   5.621   4.744
 4251SOL     OW13651   4.655   2.104   5.033
 4251SOL    HW113652   4.649   2.129   4.936
 4251SOL    HW213653   4.591   2.030   5.053
 4252SOL     OW13654   0.967   6.911   6.305
 4252SOL    HW113655   1.046   6.949   6.352
 4252SOL    HW213656   0.884   6.934   6.357
 4253SOL     OW13657   4.038   6.939   2.958
 4253SOL    HW113658   3.981   6.864   2.924
 4253SOL    HW213659   4.134   6.919   2.939
 4254SOL     OW13660   0.928   1.927   5.404
 4254SOL    HW113661   0.936   1.985   5.323
 4254SOL    HW213662   1.011   1.872   5.414
 4255SOL     OW13663   1.095   3.018   4.008
 4255SOL    HW113664   1.186   3.007   4.046
 4255SOL    HW213665   1.099   3.014   3.908
 4256SOL     OW13666   6.364   6.069   0.719
 4256SOL    HW113667   6.369   6.057   0.620
 4256SOL    HW213668   6.281   6.024   0.754
 4257SOL     OW13669   6.858   0.994   2.321
 4257SOL    HW113670   6.890   0.919   2.378
 4257SOL    HW213671   6.898   0.985   2.229
 4258SOL     OW13672   2.804   5.585   0.896
 4258SOL    HW113673   2.767   5.677   0.897
 4258SOL    HW213674   2.815   5.553   0.991
 4259SOL     OW13675   0.370   6.376   6.942
 4259SOL    HW113676   0.441   6.355   7.009
 4259SOL    HW213677   0.410   6.382   6.851
 4260SOL     OW13678   0.242   0.415   5.300
 4260SOL    HW113679   0.294   0.482   5.246
 4260SOL    HW213680   0.285   0.326   5.293
 4261SOL     OW13681   2.653   6.369   3.537
 4261SOL    HW113682   2.739   6.362   3.486
 4261SOL    HW213683   2.659   6.444   3.603
 4262SOL     OW13684   1.570   3.856   5.084
 4262SOL    HW113685   1.483   3.836   5.128
 4262SOL    HW213686   1.581   3.798   5.003
 4263SOL     OW13687   3.418   0.786   2.367
 4263SOL    HW113688   3.488   0.823   2.306
 4263SOL    HW213689   3.377   0.705   2.324
 4264SOL     OW13690   4.710   2.179   6.306
 4264SOL    HW113691   4.752   2.105   6.254
 4264SOL    HW213692   4.768   2.205   6.382
 4265SOL     OW13693   3.320   6.672   6.794
 4265SOL    HW113694   3.393   6.735   6.820
 4265SOL    HW213695   3.241   6.724   6.762
 4266SOL     OW13696   1.424   4.470   2.154
 4266SOL    HW113697   1.357   4.529   2.108
 4266SOL    HW213698   1.382   4.383   2.177
 4267SOL     OW13699   1.972   3.464   4.055
 4267SOL    HW113700   2.042   3.491   3.989
 4267SOL    HW213701   1.882   3.493   4.023
 4268SOL     OW13702   1.269   4.272   6.114
 4268SOL    HW113703   1.280   4.354   6.170
 4268SOL    HW213704   1.358   4.235   6.089
 4269SOL     OW13705   2.211   1.522   4.063
 4269SOL    HW113706   2.296   1.472   4.043
 4269SOL    HW213707   2.232   1.599   4.124
 4270SOL     OW13708   4.255   4.133   1.228
 4270SOL    HW113709   4.176   4.189   1.202
 4270SOL    HW213710   4.237   4.091   1.317
 4271SOL     OW13711   6.553   0.466   0.722
 4271SOL    HW113712   6.649   0.446   0.741
 4271SOL    HW213713   6.529   0.430   0.632
 4272SOL     OW13714   6.066   1.989   5.509
 4272SOL    HW113715   6.033   1.911   5.563
 4272SOL    HW213716   6.009   2.000   5.427
 4273SOL     OW13717   3.817   5.409   3.648
 4273SOL    HW113718   3.820   5.497   3.602
 4273SOL    HW213719   3.741   5.355   3.613
 4274SOL     OW13720   6.904   0.422   1.278
 4274SOL    HW113721   6.889   0.503   1.223
 4274SOL    HW213722   6.822   0.364   1.275
 4275SOL     OW13723   6.320   1.700   4.047
 4275SOL    HW113724   6.286   1.736   4.134
 4275SOL    HW213725   6.411   1.662   4.060
 4276SOL     OW13726   1.868   0.368   2.999
 4276SOL    HW113727   1.946   0.389   3.058
 4276SOL    HW213728   1.890   0.288   2.943
 4277SOL     OW13729   6.258   5.414   2.816
 4277SOL    HW113730   6.187   5.474   2.854
 4277SOL    HW213731   6.215   5.337   2.770
 4278SOL     OW13732   0.345   0.182   1.325
 4278SOL    HW113733   0.374   0.091   1.293
 4278SOL    HW213734   0.393   0.204   1.409
 4279SOL     OW13735   0.945   3.295   3.101
 4279SOL    HW113736   1.001   3.256   3.028
 4279SOL    HW213737   0.861   3.242   3.110
 4280SOL     OW13738   2.936   6.558   6.565
 4280SOL    HW113739   2.888   6.488   6.512
 4280SOL    HW213740   3.031   6.532   6.577
 4281SOL     OW13741   0.138   6.593   2.400
 4281SOL    HW113742   0.126   6.524   2.471
 4281SOL    HW213743   0.210   6.563   2.337
 4282SOL     OW13744   5.334   4.676   1.677
 4282SOL    HW113745   5.421   4.710   1.642
 4282SOL    HW213746   5.264   4.682   1.606
 4283SOL     OW13747   6.107   1.180   4.820
 4283SOL    HW113748   6.031   1.144   4.766
 4283SOL    HW213749   6.092   1.277   4.838
 4284SOL     OW13750   4.699   6.091   0.085
 4284SOL    HW113751   4.707   6.061   7.001
 4284SOL    HW213752   4.695   6.011   0.145
 4285SOL     OW13753   2.966   1.606   6.222
 4285SOL    HW113754   2.961   1.666   6.302
 4285SOL    HW213755   3.049   1.627   6.170
 4286SOL     OW13756   5.522   6.383   0.172
 4286SOL    HW113757   5.458   6.435   0.229
 4286SOL    HW213758   5.567   6.313   0.228
 4287SOL     OW13759   4.161   0.571   1.246
 4287SOL    HW113760   4.250   0.543   1.209
 4287SOL    HW213761   4.161   0.669   1.264
 4288SOL     OW13762   0.393   6.470   2.276
 4288SOL    HW113763   0.433   6.556   2.245
 4288SOL    HW213764   0.417   6.397   2.212
 4289SOL     OW13765   0.346   4.214   5.960
 4289SOL    HW113766   0.383   4.212   6.053
 4289SOL    HW213767   0.362   4.304   5.920
 4290SOL     OW13768   0.200   0.945   3.076
 4290SOL    HW113769   0.109   0.956   3.035
 4290SOL    HW213770   0.214   1.012   3.148
 4291SOL     OW13771   4.296   5.008   6.164
 4291SOL    HW113772   4.323   5.090   6.213
 4291SOL    HW213773   4.314   4.928   6.221
 4292SOL     OW13774   6.698   0.078   0.589
 4292SOL    HW113775   6.788   0.120   0.597
 4292SOL    HW213776   6.630   0.148   0.566
 4293SOL     OW13777   3.876   3.239   6.451
 4293SOL    HW113778   3.895   3.337   6.462
 4293SOL    HW213779   3.786   3.227   6.411
 4294SOL     OW13780   3.353   2.139   0.412
 4294SOL    HW113781   3.373   2.074   0.485
 4294SOL    HW213782   3.320   2.090   0.331
 4295SOL     OW13783   4.191   6.425   2.635
 4295SOL    HW113784   4.280   6.387   2.660
 4295SOL    HW213785   4.133   6.430   2.717
 4296SOL     OW13786   1.859   5.451   2.312
 4296SOL    HW113787   1.857   5.393   2.393
 4296SOL    HW213788   1.818   5.401   2.235
 4297SOL     OW13789   5.003   4.713   0.314
 4297SOL    HW113790   4.976   4.802   0.277
 4297SOL    HW213791   5.021   4.650   0.239
 4298SOL     OW13792   2.027   6.991   0.600
 4298SOL    HW113793   1.956   6.941   0.649
 4298SOL    HW213794   2.115   6.976   0.644
 4299SOL     OW13795   0.212   3.422   6.044
 4299SOL    HW113796   0.302   3.380   6.056
 4299SOL    HW213797   0.222   3.511   6.000
 4300SOL     OW13798   3.558   0.629   1.693
 4300SOL    HW113799   3.631   0.695   1.709
 4300SOL    HW213800   3.477   0.657   1.745
 4301SOL     OW13801   1.775   6.184   4.887
 4301SOL    HW113802   1.874   6.183   4.875
 4301SOL    HW213803   1.734   6.110   4.833
 4302SOL     OW13804   4.121   4.932   7.005
 4302SOL    HW113805   4.091   4.868   6.934
 4302SOL    HW213806   4.203   4.896   0.039
 4303SOL     OW13807   4.371   5.122   3.241
 4303SOL    HW113808   4.372   5.088   3.147
 4303SOL    HW213809   4.332   5.214   3.243
 4304SOL     OW13810   3.147   4.419   1.641
 4304SOL    HW113811   3.071   4.395   1.701
 4304SOL    HW213812   3.184   4.508   1.668
 4305SOL     OW13813   1.222   6.660   5.969
 4305SOL    HW113814   1.260   6.683   6.059
 4305SOL    HW213815   1.275   6.706   5.898
 4306SOL     OW13816   5.750   3.686   5.098
 4306SOL    HW113817   5.666   3.637   5.123
 4306SOL    HW213818   5.726   3.773   5.056
 4307SOL     OW13819   6.806   1.564   5.014
 4307SOL    HW113820   6.864   1.577   5.095
 4307SOL    HW213821   6.856   1.509   4.947
 4308SOL     OW13822   4.457   5.723   5.771
 4308SOL    HW113823   4.431   5.762   5.859
 4308SOL    HW213824   4.557   5.716   5.765
 4309SOL     OW13825   2.954   2.079   1.122
 4309SOL    HW113826   3.039   2.129   1.113
 4309SOL    HW213827   2.887   2.115   1.058
 4310SOL     OW13828   6.596   1.599   4.086
 4310SOL    HW113829   6.678   1.572   4.036
 4310SOL    HW213830   6.561   1.521   4.138
 4311SOL     OW13831   0.742   6.410   1.205
 4311SOL    HW113832   0.797   6.377   1.282
 4311SOL    HW213833   0.801   6.457   1.140
 4312SOL     OW13834   0.208   3.447   2.723
 4312SOL    HW113835   0.205   3.515   2.651
 4312SOL    HW213836   0.253   3.364   2.689
 4313SOL     OW13837   0.838   3.344   0.870
 4313SOL    HW113838   0.919   3.388   0.907
 4313SOL    HW213839   0.763   3.411   0.865
 4314SOL     OW13840   2.246   1.332   5.958
 4314SOL    HW113841   2.344   1.331   5.935
 4314SOL    HW213842   2.218   1.425   5.980
 4315SOL     OW13843   2.562   2.514   5.494
 4315SOL    HW113844   2.631   2.535   5.563
 4315SOL    HW213845   2.577   2.421   5.459
 4316SOL     OW13846   4.677   4.542   1.186
 4316SOL    HW113847   4.593   4.527   1.239
 4316SOL    HW213848   4.697   4.461   1.132
 4317SOL     OW13849   4.901   0.709   4.311
 4317SOL    HW113850   4.863   0.712   4.404
 4317SOL    HW213851   4.830   0.734   4.245
 4318SOL     OW13852   1.675   6.220   3.672
 4318SOL    HW113853   1.738   6.297   3.676
 4318SOL    HW213854   1.615   6.222   3.752
 4319SOL     OW13855   2.031   4.721   1.783
 4319SOL    HW113856   2.029   4.631   1.740
 4319SOL    HW213857   2.080   4.785   1.723
 4320SOL     OW13858   3.759   1.144   1.868
 4320SOL    HW113859   3.788   1.163   1.961
 4320SOL    HW213860   3.708   1.223   1.832
 4321SOL     OW13861   6.748   5.875   2.966
 4321SOL    HW113862   6.679   5.825   3.019
 4321SOL    HW213863   6.759   5.967   3.003
 4322SOL     OW13864   2.790   2.116   4.910
 4322SOL    HW113865   2.775   2.056   4.831
 4322SOL    HW213866   2.738   2.201   4.896
 4323SOL     OW13867   5.499   4.051   1.500
 4323SOL    HW113868   5.590   4.092   1.508
 4323SOL    HW213869   5.432   4.110   1.546
 4324SOL     OW13870   6.504   3.958   5.089
 4324SOL    HW113871   6.536   4.008   5.170
 4324SOL    HW213872   6.574   3.961   5.018
 4325SOL     OW13873   1.365   0.620   1.425
 4325SOL    HW113874   1.428   0.697   1.433
 4325SOL    HW213875   1.319   0.624   1.336
 4326SOL     OW13876   4.927   2.717   2.825
 4326SOL    HW113877   5.003   2.720   2.890
 4326SOL    HW213878   4.921   2.626   2.785
 4327SOL     OW13879   3.264   6.735   3.932
 4327SOL    HW113880   3.362   6.757   3.927
 4327SOL    HW213881   3.235   6.695   3.846
 4328SOL     OW13882   6.230   0.307   2.155
 4328SOL    HW113883   6.198   0.318   2.061
 4328SOL    HW213884   6.262   0.395   2.190
 4329SOL     OW13885   5.912   4.149   0.515
 4329SOL    HW113886   5.895   4.209   0.436
 4329SOL    HW213887   6.009   4.125   0.519
 4330SOL     OW13888   2.784   5.677   5.561
 4330SOL    HW113889   2.829   5.595   5.525
 4330SOL    HW213890   2.687   5.657   5.577
 4331SOL     OW13891   5.899   1.795   3.028
 4331SOL    HW113892   5.875   1.769   3.122
 4331SOL    HW213893   5.816   1.796   2.972
 4332SOL     OW13894   6.795   5.486   1.035
 4332SOL    HW113895   6.726   5.559   1.034
 4332SOL    HW213896   6.855   5.499   1.114
 4333SOL     OW13897   3.454   2.883   6.243
 4333SOL    HW113898   3.549   2.911   6.237
 4333SOL    HW213899   3.399   2.937   6.179
 4334SOL     OW13900   0.239   2.145   3.847
 4334SOL    HW113901   0.154   2.095   3.860
 4334SOL    HW213902   0.284   2.114   3.763
 4335SOL     OW13903   1.992   3.530   1.475
 4335SOL    HW113904   1.945   3.470   1.540
 4335SOL    HW213905   2.067   3.577   1.521
 4336SOL     OW13906   2.235   4.850   5.409
 4336SOL    HW113907   2.194   4.796   5.482
 4336SOL    HW213908   2.301   4.794   5.358
 4337SOL     OW13909   6.878   4.537   4.193
 4337SOL    HW113910   6.794   4.573   4.233
 4337SOL    HW213911   6.871   4.437   4.187
 4338SOL     OW13912   3.242   2.978   5.441
 4338SOL    HW113913   3.202   2.977   5.533
 4338SOL    HW213914   3.227   2.889   5.398
 4339SOL     OW13915   3.771   3.941   5.124
 4339SOL    HW113916   3.810   4.030   5.102
 4339SOL    HW213917   3.702   3.917   5.055
 4340SOL     OW13918   6.915   4.128   0.330
 4340SOL    HW113919   6.944   4.065   0.258
 4340SOL    HW213920   6.911   4.080   0.417
 4341SOL     OW13921   6.517   6.214   1.398
 4341SOL    HW113922   6.559   6.289   1.346
 4341SOL    HW213923   6.553   6.214   1.491
 4342SOL     OW13924   4.874   3.809   2.368
 4342SOL    HW113925   4.876   3.716   2.332
 4342SOL    HW213926   4.885   3.806   2.468
 4343SOL     OW13927   4.865   0.298   6.508
 4343SOL    HW113928   4.907   0.210   6.489
 4343SOL    HW213929   4.814   0.330   6.428
 4344SOL     OW13930   1.112   3.723   1.716
 4344SOL    HW113931   1.162   3.800   1.677
 4344SOL    HW213932   1.168   3.640   1.707
 4345SOL     OW13933   3.761   2.928   2.880
 4345SOL    HW113934   3.698   3.005   2.887
 4345SOL    HW213935   3.725   2.863   2.812
 4346SOL     OW13936   1.199   3.690   2.460
 4346SOL    HW113937   1.209   3.591   2.470
 4346SOL    HW213938   1.248   3.736   2.534
 4347SOL     OW13939   6.232   5.864   1.117
 4347SOL    HW113940   6.266   5.916   1.195
 4347SOL    HW213941   6.295   5.877   1.040
 4348SOL     OW13942   6.401   4.088   6.106
 4348SOL    HW113943   6.427   4.173   6.059
 4348SOL    HW213944   6.477   4.023   6.103
 4349SOL     OW13945   0.968   3.950   3.934
 4349SOL    HW113946   0.890   3.950   3.995
 4349SOL    HW213947   0.962   3.872   3.871
 4350SOL     OW13948   5.377   0.340   3.993
 4350SOL    HW113949   5.394   0.401   3.915
 4350SOL    HW213950   5.280   0.314   3.993
 4351SOL     OW13951   0.604   5.916   0.825
 4351SOL    HW113952   0.659   5.837   0.852
 4351SOL    HW213953   0.526   5.885   0.770
 4352SOL     OW13954   3.347   4.253   1.336
 4352SOL    HW113955   3.302   4.211   1.415
 4352SOL    HW213956   3.406   4.185   1.291
 4353SOL     OW13957   2.401   3.937   0.197
 4353SOL    HW113958   2.349   4.020   0.216
 4353SOL    HW213959   2.476   3.959   0.134
 4354SOL     OW13960   5.071   5.476   2.004
 4354SOL    HW113961   5.144   5.412   2.029
 4354SOL    HW213962   5.019   5.440   1.927
 4355SOL     OW13963   1.828   4.738   3.431
 4355SOL    HW113964   1.805   4.815   3.491
 4355SOL    HW213965   1.905   4.687   3.470
 4356SOL     OW13966   5.941   1.688   5.815
 4356SOL    HW113967   5.931   1.737   5.901
 4356SOL    HW213968   5.911   1.593   5.827
 4357SOL     OW13969   5.154   5.998   2.888
 4357SOL    HW113970   5.247   5.998   2.925
 4357SOL    HW213971   5.091   6.035   2.956
 4358SOL     OW13972   2.716   0.772   1.301
 4358SOL    HW113973   2.624   0.736   1.316
 4358SOL    HW213974   2.783   0.699   1.315
 4359SOL     OW13975   2.730   2.636   1.078
 4359SOL    HW113976   2.798   2.564   1.064
 4359SOL    HW213977   2.662   2.633   1.005
 4360SOL     OW13978   3.113   6.262   3.583
 4360SOL    HW113979   3.199   6.277   3.535
 4360SOL    HW213980   3.129   6.269   3.682
 4361SOL     OW13981   1.784   0.870   6.473
 4361SOL    HW113982   1.763   0.963   6.504
 4361SOL    HW213983   1.717   0.806   6.512
 4362SOL     OW13984   6.988   5.872   2.562
 4362SOL    HW113985   6.972   5.851   2.658
 4362SOL    HW213986   6.965   5.967   2.544
 4363SOL     OW13987   3.551   0.326   2.037
 4363SOL    HW113988   3.579   0.375   1.954
 4363SOL    HW213989   3.629   0.277   2.075
 4364SOL     OW13990   3.097   3.915   3.264
 4364SOL    HW113991   3.162   3.990   3.266
 4364SOL    HW213992   3.007   3.949   3.235
 4365SOL     OW13993   2.514   1.359   1.133
 4365SOL    HW113994   2.451   1.299   1.084
 4365SOL    HW213995   2.602   1.362   1.085
 4366SOL     OW13996   4.627   5.369   4.880
 4366SOL    HW113997   4.530   5.387   4.860
 4366SOL    HW213998   4.684   5.436   4.832
 4367SOL     OW13999   1.988   6.874   1.756
 4367SOL    HW114000   1.954   6.785   1.786
 4367SOL    HW214001   2.043   6.863   1.673
 4368SOL     OW14002   5.032   4.585   4.567
 4368SOL    HW114003   5.104   4.646   4.535
 4368SOL    HW214004   4.997   4.530   4.491
 4369SOL     OW14005   6.238   4.346   3.754
 4369SOL    HW114006   6.182   4.264   3.765
 4369SOL    HW214007   6.327   4.321   3.717
 4370SOL     OW14008   4.820   4.665   0.821
 4370SOL    HW114009   4.878   4.680   0.741
 4370SOL    HW214010   4.760   4.587   0.805
 4371SOL     OW14011   3.567   1.282   3.348
 4371SOL    HW114012   3.468   1.280   3.331
 4371SOL    HW214013   3.615   1.313   3.266
 4372SOL     OW14014   1.638   4.504   4.802
 4372SOL    HW114015   1.634   4.604   4.804
 4372SOL    HW214016   1.550   4.468   4.772
 4373SOL     OW14017   4.294   0.417   0.290
 4373SOL    HW114018   4.342   0.494   0.333
 4373SOL    HW214019   4.340   0.332   0.314
 4374SOL     OW14020   2.189   6.143   0.568
 4374SOL    HW114021   2.214   6.194   0.487
 4374SOL    HW214022   2.268   6.092   0.602
 4375SOL     OW14023   4.890   0.950   5.951
 4375SOL    HW114024   4.817   1.014   5.974
 4375SOL    HW214025   4.945   0.931   6.032
 4376SOL     OW14026   3.135   4.952   6.973
 4376SOL    HW114027   3.092   4.932   0.051
 4376SOL    HW214028   3.073   4.924   6.900
 4377SOL     OW14029   5.307   6.067   6.423
 4377SOL    HW114030   5.209   6.082   6.433
 4377SOL    HW214031   5.353   6.154   6.407
 4378SOL     OW14032   3.297   4.875   1.433
 4378SOL    HW114033   3.328   4.813   1.361
 4378SOL    HW214034   3.364   4.875   1.508
 4379SOL     OW14035   6.639   6.158   0.296
 4379SOL    HW114036   6.672   6.124   0.208
 4379SOL    HW214037   6.618   6.256   0.288
 4380SOL     OW14038   2.275   5.683   4.894
 4380SOL    HW114039   2.203   5.625   4.856
 4380SOL    HW214040   2.254   5.779   4.874
 4381SOL     OW14041   3.310   6.168   4.563
 4381SOL    HW114042   3.297   6.180   4.465
 4381SOL    HW214043   3.318   6.258   4.606
 4382SOL     OW14044   5.247   4.187   3.284
 4382SOL    HW114045   5.155   4.225   3.275
 4382SOL    HW214046   5.247   4.114   3.352
 4383SOL     OW14047   1.524   0.445   0.491
 4383SOL    HW114048   1.456   0.403   0.431
 4383SOL    HW214049   1.498   0.540   0.509
 4384SOL     OW14050   3.749   6.725   1.970
 4384SOL    HW114051   3.822   6.670   1.932
 4384SOL    HW214052   3.788   6.797   2.027
 4385SOL     OW14053   6.369   2.574   4.248
 4385SOL    HW114054   6.455   2.560   4.296
 4385SOL    HW214055   6.360   2.671   4.224
 4386SOL     OW14056   1.914   5.045   6.729
 4386SOL    HW114057   1.903   5.101   6.647
 4386SOL    HW214058   1.944   4.953   6.704
 4387SOL     OW14059   5.718   2.325   0.913
 4387SOL    HW114060   5.774   2.401   0.879
 4387SOL    HW214061   5.766   2.278   0.986
 4388SOL     OW14062   4.012   1.330   6.093
 4388SOL    HW114063   4.069   1.401   6.132
 4388SOL    HW214064   4.069   1.263   6.045
 4389SOL     OW14065   0.533   2.459   2.819
 4389SOL    HW114066   0.523   2.387   2.750
 4389SOL    HW214067   0.570   2.542   2.777
 4390SOL     OW14068   4.322   3.767   0.959
 4390SOL    HW114069   4.405   3.731   0.917
 4390SOL    HW214070   4.345   3.842   1.021
 4391SOL     OW14071   0.386   5.817   0.683
 4391SOL    HW114072   0.291   5.785   0.694
 4391SOL    HW214073   0.439   5.746   0.637
 4392SOL     OW14074   5.171   5.263   5.222
 4392SOL    HW114075   5.092   5.255   5.161
 4392SOL    HW214076   5.140   5.265   5.317
 4393SOL     OW14077   5.271   6.744   3.142
 4393SOL    HW114078   5.221   6.797   3.074
 4393SOL    HW214079   5.368   6.738   3.116
 4394SOL     OW14080   4.730   0.429   2.289
 4394SOL    HW114081   4.667   0.485   2.342
 4394SOL    HW214082   4.679   0.376   2.221
 4395SOL     OW14083   4.409   2.610   0.830
 4395SOL    HW114084   4.318   2.634   0.798
 4395SOL    HW214085   4.460   2.565   0.756
 4396SOL     OW14086   1.551   1.465   3.100
 4396SOL    HW114087   1.477   1.455   3.033
 4396SOL    HW214088   1.579   1.561   3.105
 4397SOL     OW14089   4.150   0.882   6.942
 4397SOL    HW114090   4.094   0.856   0.010
 4397SOL    HW214091   4.091   0.911   6.866
 4398SOL     OW14092   0.629   5.195   4.401
 4398SOL    HW114093   0.570   5.119   4.429
 4398SOL    HW214094   0.604   5.277   4.452
 4399SOL     OW14095   2.975   0.477   1.899
 4399SOL    HW114096   2.959   0.522   1.811
 4399SOL    HW214097   3.074   0.468   1.914
 4400SOL     OW14098   3.418   4.894   2.686
 4400SOL    HW114099   3.407   4.941   2.774
 4400SOL    HW214100   3.328   4.861   2.655
 4401SOL     OW14101   5.641   6.212   4.794
 4401SOL    HW114102   5.646   6.224   4.695
 4401SOL    HW214103   5.707   6.143   4.822
 4402SOL     OW14104   6.916   6.735   1.615
 4402SOL    HW114105   6.906   6.701   1.708
 4402SOL    HW214106   6.953   6.828   1.617
 4403SOL     OW14107   6.532   1.270   3.233
 4403SOL    HW114108   6.456   1.327   3.203
 4403SOL    HW214109   6.607   1.277   3.167
 4404SOL     OW14110   2.021   4.249   2.253
 4404SOL    HW114111   1.941   4.308   2.263
 4404SOL    HW214112   2.004   4.161   2.297
 4405SOL     OW14113   2.582   3.686   6.185
 4405SOL    HW114114   2.678   3.660   6.190
 4405SOL    HW214115   2.575   3.786   6.191
 4406SOL     OW14116   5.982   2.502   2.125
 4406SOL    HW114117   5.969   2.491   2.224
 4406SOL    HW214118   6.079   2.516   2.106
 4407SOL     OW14119   1.043   0.918   0.454
 4407SOL    HW114120   1.128   0.923   0.506
 4407SOL    HW214121   0.991   0.837   0.481
 4408SOL     OW14122   3.994   5.971   1.640
 4408SOL    HW114123   3.925   5.996   1.707
 4408SOL    HW214124   3.984   5.875   1.615
 4409SOL     OW14125   3.494   2.110   2.719
 4409SOL    HW114126   3.491   2.209   2.708
 4409SOL    HW214127   3.481   2.066   2.630
 4410SOL     OW14128   2.064   5.890   0.790
 4410SOL    HW114129   2.055   5.794   0.763
 4410SOL    HW214130   2.140   5.900   0.854
 4411SOL     OW14131   3.725   3.433   2.222
 4411SOL    HW114132   3.660   3.441   2.298
 4411SOL    HW214133   3.681   3.384   2.147
 4412SOL     OW14134   3.734   1.588   6.373
 4412SOL    HW114135   3.809   1.523   6.377
 4412SOL    HW214136   3.724   1.632   6.463
 4413SOL     OW14137   3.919   5.516   4.088
 4413SOL    HW114138   3.976   5.452   4.037
 4413SOL    HW214139   3.882   5.585   4.026
 4414SOL     OW14140   3.456   4.886   2.244
 4414SOL    HW114141   3.361   4.918   2.237
 4414SOL    HW214142   3.476   4.825   2.167
 4415SOL     OW14143   4.486   1.723   2.085
 4415SOL    HW114144   4.506   1.760   1.994
 4415SOL    HW214145   4.429   1.788   2.136
 4416SOL     OW14146   2.640   2.328   4.326
 4416SOL    HW114147   2.627   2.313   4.228
 4416SOL    HW214148   2.567   2.388   4.360
 4417SOL     OW14149   5.813   6.991   0.960
 4417SOL    HW114150   5.718   0.001   0.937
 4417SOL    HW214151   5.833   0.013   1.052
 4418SOL     OW14152   4.907   0.352   3.198
 4418SOL    HW114153   4.813   0.367   3.165
 4418SOL    HW214154   4.906   0.281   3.268
 4419SOL     OW14155   6.168   5.400   6.202
 4419SOL    HW114156   6.142   5.489   6.165
 4419SOL    HW214157   6.142   5.328   6.139
 4420SOL     OW14158   5.266   0.925   1.096
 4420SOL    HW114159   5.228   1.004   1.049
 4420SOL    HW214160   5.268   0.847   1.033
 4421SOL     OW14161   0.106   1.433   3.208
 4421SOL    HW114162   0.020   1.407   3.253
 4421SOL    HW214163   0.158   1.494   3.268
 4422SOL     OW14164   1.515   3.922   6.004
 4422SOL    HW114165   1.496   4.011   6.045
 4422SOL    HW214166   1.588   3.931   5.936
 4423SOL     OW14167   7.001   1.699   6.078
 4423SOL    HW114168   0.044   1.620   6.048
 4423SOL    HW214169   0.002   1.774   6.014
 4424SOL     OW14170   1.847   5.484   3.377
 4424SOL    HW114171   1.767   5.469   3.434
 4424SOL    HW214172   1.847   5.419   3.301
 4425SOL     OW14173   4.774   4.006   1.831
 4425SOL    HW114174   4.822   3.962   1.907
 4425SOL    HW214175   4.688   3.958   1.814
 4426SOL     OW14176   0.091   6.947   6.604
 4426SOL    HW114177   0.017   6.980   6.664
 4426SOL    HW214178   0.166   6.913   6.661
 4427SOL     OW14179   0.777   5.648   3.245
 4427SOL    HW114180   0.766   5.724   3.310
 4427SOL    HW214181   0.871   5.648   3.211
 4428SOL     OW14182   0.972   6.898   2.719
 4428SOL    HW114183   0.976   6.981   2.775
 4428SOL    HW214184   1.039   6.832   2.753
 4429SOL     OW14185   2.938   0.497   2.834
 4429SOL    HW114186   2.965   0.467   2.925
 4429SOL    HW214187   2.842   0.474   2.818
 4430SOL     OW14188   2.150   0.693   2.062
 4430SOL    HW114189   2.092   0.774   2.068
 4430SOL    HW214190   2.098   0.613   2.092
 4431SOL     OW14191   2.103   2.025   3.323
 4431SOL    HW114192   2.182   2.009   3.383
 4431SOL    HW214193   2.083   1.943   3.271
 4432SOL     OW14194   2.953   3.822   4.348
 4432SOL    HW114195   3.018   3.750   4.369
 4432SOL    HW214196   2.945   3.833   4.249
 4433SOL     OW14197   6.522   0.230   2.190
 4433SOL    HW114198   6.539   0.324   2.220
 4433SOL    HW214199   6.428   0.223   2.155
 4434SOL     OW14200   5.782   1.925   5.381
 4434SOL    HW114201   5.760   1.938   5.478
 4434SOL    HW214202   5.725   1.984   5.325
 4435SOL     OW14203   3.617   2.986   1.917
 4435SOL    HW114204   3.679   3.016   1.990
 4435SOL    HW214205   3.551   3.058   1.897
 4436SOL     OW14206   5.680   0.570   0.151
 4436SOL    HW114207   5.693   0.656   0.102
 4436SOL    HW214208   5.582   0.548   0.153
 4437SOL     OW14209   3.365   0.138   5.903
 4437SOL    HW114210   3.265   0.147   5.913
 4437SOL    HW214211   3.399   0.215   5.849
 4438SOL     OW14212   3.862   2.391   6.704
 4438SOL    HW114213   3.830   2.361   6.613
 4438SOL    HW214214   3.908   2.479   6.696
 4439SOL     OW14215   1.530   3.786   2.986
 4439SOL    HW114216   1.444   3.738   2.998
 4439SOL    HW214217   1.532   3.829   2.896
 4440SOL     OW14218   6.386   1.067   0.786
 4440SOL    HW114219   6.289   1.086   0.774
 4440SOL    HW214220   6.439   1.150   0.767
 4441SOL     OW14221   6.715   6.990   4.179
 4441SOL    HW114222   6.728   0.064   4.231
 4441SOL    HW214223   6.736   6.912   4.237
 4442SOL     OW14224   1.868   5.315   2.568
 4442SOL    HW114225   1.774   5.337   2.596
 4442SOL    HW214226   1.897   5.230   2.612
 4443SOL     OW14227   2.322   1.278   0.962
 4443SOL    HW114228   2.309   1.179   0.966
 4443SOL    HW214229   2.244   1.323   1.006
 4444SOL     OW14230   5.007   1.413   3.289
 4444SOL    HW114231   5.059   1.462   3.220
 4444SOL    HW214232   4.948   1.345   3.246
 4445SOL     OW14233   0.753   1.808   6.323
 4445SOL    HW114234   0.807   1.787   6.242
 4445SOL    HW214235   0.667   1.852   6.296
 4446SOL     OW14236   6.191   5.297   4.075
 4446SOL    HW114237   6.191   5.255   4.166
 4446SOL    HW214238   6.278   5.344   4.061
 4447SOL     OW14239   4.836   4.059   5.071
 4447SOL    HW114240   4.826   3.971   5.025
 4447SOL    HW214241   4.814   4.048   5.168
 4448SOL     OW14242   2.489   3.370   6.666
 4448SOL    HW114243   2.559   3.412   6.609
 4448SOL    HW214244   2.427   3.316   6.609
 4449SOL     OW14245   0.049   1.011   5.565
 4449SOL    HW114246   6.982   1.050   5.516
 4449SOL    HW214247   0.084   0.931   5.515
 4450SOL     OW14248   3.813   3.393   3.149
 4450SOL    HW114249   3.780   3.382   3.243
 4450SOL    HW214250   3.911   3.413   3.150
 4451SOL     OW14251   0.201   4.748   1.107
 4451SOL    HW114252   0.133   4.688   1.151
 4451SOL    HW214253   0.256   4.793   1.177
 4452SOL     OW14254   0.024   3.438   6.510
 4452SOL    HW114255   0.023   3.436   6.410
 4452SOL    HW214256   0.012   3.345   6.545
 4453SOL     OW14257   5.841   0.502   0.997
 4453SOL    HW114258   5.917   0.437   0.993
 4453SOL    HW214259   5.813   0.516   1.092
 4454SOL     OW14260   5.591   2.983   1.835
 4454SOL    HW114261   5.656   2.990   1.760
 4454SOL    HW214262   5.537   3.067   1.841
 4455SOL     OW14263   4.386   2.461   2.706
 4455SOL    HW114264   4.318   2.388   2.708
 4455SOL    HW214265   4.414   2.479   2.612
 4456SOL     OW14266   0.287   5.497   2.488
 4456SOL    HW114267   0.200   5.542   2.470
 4456SOL    HW214268   0.362   5.553   2.452
 4457SOL     OW14269   4.192   2.273   6.669
 4457SOL    HW114270   4.113   2.300   6.614
 4457SOL    HW214271   4.270   2.330   6.644
 4458SOL     OW14272   4.312   1.642   1.260
 4458SOL    HW114273   4.315   1.604   1.353
 4458SOL    HW214274   4.387   1.707   1.249
 4459SOL     OW14275   5.796   6.015   5.652
 4459SOL    HW114276   5.713   5.999   5.705
 4459SOL    HW214277   5.801   6.111   5.625
 4460SOL     OW14278   1.314   1.756   0.491
 4460SOL    HW114279   1.373   1.677   0.513
 4460SOL    HW214280   1.218   1.729   0.502
 4461SOL     OW14281   1.919   0.120   2.884
 4461SOL    HW114282   1.841   0.119   2.821
 4461SOL    HW214283   2.002   0.094   2.834
 4462SOL     OW14284   6.870   4.067   0.612
 4462SOL    HW114285   6.828   4.157   0.625
 4462SOL    HW214286   6.947   4.057   0.674
 4463SOL     OW14287   0.623   4.562   6.847
 4463SOL    HW114288   0.532   4.594   6.822
 4463SOL    HW214289   0.616   4.470   6.887
 4464SOL     OW14290   6.521   2.601   6.917
 4464SOL    HW114291   6.566   2.512   6.910
 4464SOL    HW214292   6.517   2.630   0.002
 4465SOL     OW14293   6.228   5.092   0.963
 4465SOL    HW114294   6.258   5.005   1.001
 4465SOL    HW214295   6.258   5.167   1.023
 4466SOL     OW14296   0.033   2.749   3.699
 4466SOL    HW114297   6.948   2.761   3.722
 4466SOL    HW214298   0.045   2.662   3.651
 4467SOL     OW14299   1.370   0.766   4.655
 4467SOL    HW114300   1.310   0.690   4.632
 4467SOL    HW214301   1.465   0.736   4.647
 4468SOL     OW14302   1.268   1.799   0.793
 4468SOL    HW114303   1.182   1.749   0.801
 4468SOL    HW214304   1.311   1.777   0.706
 4469SOL     OW14305   4.742   6.751   0.704
 4469SOL    HW114306   4.750   6.654   0.727
 4469SOL    HW214307   4.723   6.804   0.786
 4470SOL     OW14308   4.883   4.716   1.694
 4470SOL    HW114309   4.916   4.632   1.737
 4470SOL    HW214310   4.808   4.694   1.632
 4471SOL     OW14311   5.790   2.319   1.804
 4471SOL    HW114312   5.752   2.394   1.858
 4471SOL    HW214313   5.737   2.309   1.720
 4472SOL     OW14314   2.388   5.258   1.421
 4472SOL    HW114315   2.425   5.344   1.455
 4472SOL    HW214316   2.452   5.184   1.442
 4473SOL     OW14317   6.036   0.748   0.255
 4473SOL    HW114318   5.946   0.782   0.283
 4473SOL    HW214319   6.041   0.744   0.155
 4474SOL     OW14320   6.146   1.073   4.353
 4474SOL    HW114321   6.170   1.030   4.266
 4474SOL    HW214322   6.046   1.076   4.362
 4475SOL     OW14323   1.382   3.360   0.366
 4475SOL    HW114324   1.400   3.425   0.440
 4475SOL    HW214325   1.288   3.371   0.333
 4476SOL     OW14326   4.033   6.384   2.863
 4476SOL    HW114327   4.060   6.367   2.958
 4476SOL    HW214328   3.936   6.407   2.860
 4477SOL     OW14329   1.885   2.184   0.812
 4477SOL    HW114330   1.899   2.150   0.905
 4477SOL    HW214331   1.820   2.126   0.764
 4478SOL     OW14332   1.451   4.859   1.113
 4478SOL    HW114333   1.354   4.876   1.128
 4478SOL    HW214334   1.482   4.787   1.175
 4479SOL     OW14335   2.116   0.279   6.028
 4479SOL    HW114336   2.046   0.215   5.997
 4479SOL    HW214337   2.207   0.246   6.003
 4480SOL     OW14338   6.901   3.767   3.233
 4480SOL    HW114339   6.984   3.784   3.286
 4480SOL    HW214340   6.857   3.683   3.265
 4481SOL     OW14341   0.704   0.997   4.320
 4481SOL    HW114342   0.788   0.954   4.353
 4481SOL    HW214343   0.727   1.085   4.278
 4482SOL     OW14344   0.822   4.079   2.986
 4482SOL    HW114345   0.831   3.979   2.982
 4482SOL    HW214346   0.725   4.103   2.986
 4483SOL     OW14347   5.579   3.670   0.547
 4483SOL    HW114348   5.538   3.581   0.566
 4483SOL    HW214349   5.631   3.666   0.462
 4484SOL     OW14350   3.164   3.445   6.661
 4484SOL    HW114351   3.177   3.473   6.756
 4484SOL    HW214352   3.067   3.423   6.646
 4485SOL     OW14353   4.812   6.730   6.224
 4485SOL    HW114354   4.876   6.804   6.205
 4485SOL    HW214355   4.827   6.656   6.159
 4486SOL     OW14356   6.190   3.183   4.035
 4486SOL    HW114357   6.286   3.182   4.064
 4486SOL    HW214358   6.132   3.212   4.111
 4487SOL     OW14359   3.172   3.206   5.823
 4487SOL    HW114360   3.086   3.224   5.872
 4487SOL    HW214361   3.218   3.292   5.804
 4488SOL     OW14362   6.761   2.162   6.551
 4488SOL    HW114363   6.684   2.102   6.531
 4488SOL    HW214364   6.837   2.107   6.586
 4489SOL     OW14365   0.830   0.881   2.693
 4489SOL    HW114366   0.744   0.852   2.650
 4489SOL    HW214367   0.816   0.891   2.791
 4490SOL     OW14368   6.572   1.870   4.455
 4490SOL    HW114369   6.577   1.771   4.464
 4490SOL    HW214370   6.580   1.896   4.359
 4491SOL     OW14371   1.725   4.209   2.042
 4491SOL    HW114372   1.730   4.254   2.132
 4491SOL    HW214373   1.814   4.170   2.020
 4492SOL     OW14374   5.154   4.124   6.179
 4492SOL    HW114375   5.094   4.046   6.195
 4492SOL    HW214376   5.195   4.152   6.266
 4493SOL     OW14377   5.891   4.614   3.248
 4493SOL    HW114378   5.982   4.620   3.289
 4493SOL    HW214379   5.894   4.653   3.156
 4494SOL     OW14380   5.634   1.831   1.639
 4494SOL    HW114381   5.571   1.877   1.577
 4494SOL    HW214382   5.629   1.875   1.729
 4495SOL     OW14383   5.517   5.414   1.427
 4495SOL    HW114384   5.596   5.359   1.452
 4495SOL    HW214385   5.433   5.368   1.455
 4496SOL     OW14386   6.250   3.477   5.899
 4496SOL    HW114387   6.179   3.546   5.881
 4496SOL    HW214388   6.309   3.469   5.819
 4497SOL     OW14389   6.932   5.890   1.085
 4497SOL    HW114390   6.901   5.947   1.009
 4497SOL    HW214391   6.854   5.863   1.140
 4498SOL     OW14392   0.868   4.094   6.150
 4498SOL    HW114393   0.928   4.025   6.190
 4498SOL    HW214394   0.789   4.109   6.210
 4499SOL     OW14395   5.308   3.797   0.236
 4499SOL    HW114396   5.228   3.845   0.199
 4499SOL    HW214397   5.355   3.855   0.302
 4500SOL     OW14398   3.921   3.892   2.254
 4500SOL    HW114399   3.861   3.831   2.307
 4500SOL    HW214400   4.007   3.846   2.235
 4501SOL     OW14401   1.253   4.889   5.044
 4501SOL    HW114402   1.218   4.982   5.057
 4501SOL    HW214403   1.178   4.829   5.016
 4502SOL     OW14404   5.442   2.502   6.955
 4502SOL    HW114405   5.402   2.586   6.919
 4502SOL    HW214406   5.460   2.439   6.880
 4503SOL     OW14407   1.273   3.053   2.671
 4503SOL    HW114408   1.296   3.015   2.761
 4503SOL    HW214409   1.343   3.119   2.644
 4504SOL     OW14410   4.540   2.518   4.514
 4504SOL    HW114411   4.453   2.498   4.470
 4504SOL    HW214412   4.526   2.525   4.613
 4505SOL     OW14413   2.338   4.962   0.671
 4505SOL    HW114414   2.336   5.001   0.579
 4505SOL    HW214415   2.422   4.990   0.717
 4506SOL     OW14416   3.376   0.428   5.766
 4506SOL    HW114417   3.348   0.523   5.754
 4506SOL    HW214418   3.476   0.423   5.771
 4507SOL     OW14419   5.999   3.528   2.327
 4507SOL    HW114420   6.061   3.559   2.256
 4507SOL    HW214421   5.922   3.591   2.334
 4508SOL     OW14422   1.960   3.944   0.283
 4508SOL    HW114423   1.981   4.025   0.228
 4508SOL    HW214424   1.956   3.863   0.224
 4509SOL     OW14425   0.854   2.409   2.764
 4509SOL    HW114426   0.785   2.476   2.736
 4509SOL    HW214427   0.910   2.448   2.837
 4510SOL     OW14428   2.621   6.541   6.015
 4510SOL    HW114429   2.570   6.471   6.066
 4510SOL    HW214430   2.678   6.497   5.946
 4511SOL     OW14431   0.041   2.181   0.257
 4511SOL    HW114432   0.038   2.083   0.238
 4511SOL    HW214433   6.963   2.211   0.291
 4512SOL     OW14434   2.435   4.029   6.937
 4512SOL    HW114435   2.524   4.013   6.894
 4512SOL    HW214436   2.366   3.972   6.893
 4513SOL     OW14437   6.345   1.374   3.000
 4513SOL    HW114438   6.359   1.472   2.988
 4513SOL    HW214439   6.356   1.327   2.912
 4514SOL     OW14440   2.321   0.239   5.015
 4514SOL    HW114441   2.221   0.234   5.011
 4514SOL    HW214442   2.351   0.331   4.991
 4515SOL     OW14443   6.945   4.904   0.203
 4515SOL    HW114444   0.007   4.876   0.140
 4515SOL    HW214445   6.944   4.843   0.282
 4516SOL     OW14446   0.436   6.788   3.599
 4516SOL    HW114447   0.444   6.778   3.499
 4516SOL    HW214448   0.370   6.722   3.634
 4517SOL     OW14449   2.825   1.074   6.617
 4517SOL    HW114450   2.810   1.157   6.671
 4517SOL    HW214451   2.917   1.040   6.632
 4518SOL     OW14452   1.664   0.218   3.530
 4518SOL    HW114453   1.682   0.231   3.628
 4518SOL    HW214454   1.565   0.217   3.514
 4519SOL     OW14455   6.630   2.227   4.993
 4519SOL    HW114456   6.659   2.323   4.982
 4519SOL    HW214457   6.543   2.214   4.946
 4520SOL     OW14458   6.951   3.589   2.728
 4520SOL    HW114459   6.917   3.634   2.810
 4520SOL    HW214460   0.027   3.543   2.749
 4521SOL     OW14461   5.263   1.788   6.506
 4521SOL    HW114462   5.308   1.713   6.555
 4521SOL    HW214463   5.180   1.753   6.462
 4522SOL     OW14464   5.583   6.715   3.318
 4522SOL    HW114465   5.652   6.688   3.252
 4522SOL    HW214466   5.568   6.814   3.314
 4523SOL     OW14467   4.600   2.065   5.816
 4523SOL    HW114468   4.621   2.125   5.893
 4523SOL    HW214469   4.502   2.047   5.813
 4524SOL     OW14470   5.825   0.573   5.332
 4524SOL    HW114471   5.855   0.667   5.348
 4524SOL    HW214472   5.881   0.511   5.386
 4525SOL     OW14473   6.711   1.298   4.173
 4525SOL    HW114474   6.624   1.339   4.202
 4525SOL    HW214475   6.759   1.362   4.113
 4526SOL     OW14476   2.959   1.639   1.277
 4526SOL    HW114477   3.050   1.613   1.311
 4526SOL    HW214478   2.969   1.706   1.204
 4527SOL     OW14479   4.332   6.273   4.121
 4527SOL    HW114480   4.251   6.272   4.061
 4527SOL    HW214481   4.396   6.203   4.090
 4528SOL     OW14482   4.782   0.282   6.210
 4528SOL    HW114483   4.714   0.251   6.144
 4528SOL    HW214484   4.872   0.246   6.185
 4529SOL     OW14485   3.062   6.897   4.055
 4529SOL    HW114486   3.122   6.960   4.105
 4529SOL    HW214487   3.115   6.818   4.025
 4530SOL     OW14488   6.880   2.445   4.049
 4530SOL    HW114489   6.828   2.420   3.967
 4530SOL    HW214490   6.890   2.544   4.054
 4531SOL     OW14491   0.656   3.908   3.858
 4531SOL    HW114492   0.739   3.903   3.802
 4531SOL    HW214493   0.577   3.930   3.800
 4532SOL     OW14494   0.945   2.280   0.180
 4532SOL    HW114495   0.933   2.181   0.171
 4532SOL    HW214496   0.861   2.321   0.215
 4533SOL     OW14497   3.399   6.374   2.119
 4533SOL    HW114498   3.421   6.472   2.110
 4533SOL    HW214499   3.376   6.354   2.214
 4534SOL     OW14500   6.600   4.092   5.741
 4534SOL    HW114501   6.654   4.024   5.790
 4534SOL    HW214502   6.639   4.183   5.758
 4535SOL     OW14503   5.412   2.376   2.978
 4535SOL    HW114504   5.497   2.328   2.996
 4535SOL    HW214505   5.337   2.333   3.029
 4536SOL     OW14506   6.666   6.777   3.596
 4536SOL    HW114507   6.624   6.838   3.529
 4536SOL    HW214508   6.756   6.813   3.622
 4537SOL     OW14509   5.101   3.502   5.819
 4537SOL    HW114510   5.011   3.514   5.861
 4537SOL    HW214511   5.125   3.405   5.821
 4538SOL     OW14512   3.402   2.286   1.698
 4538SOL    HW114513   3.381   2.190   1.716
 4538SOL    HW214514   3.473   2.317   1.762
 4539SOL     OW14515   2.151   2.755   2.116
 4539SOL    HW114516   2.230   2.715   2.069
 4539SOL    HW214517   2.161   2.742   2.215
 4540SOL     OW14518   3.408   2.768   5.176
 4540SOL    HW114519   3.385   2.686   5.228
 4540SOL    HW214520   3.325   2.822   5.159
 4541SOL     OW14521   6.059   1.566   1.538
 4541SOL    HW114522   6.152   1.563   1.502
 4541SOL    HW214523   5.995   1.536   1.467
 4542SOL     OW14524   5.064   6.661   3.371
 4542SOL    HW114525   5.108   6.715   3.300
 4542SOL    HW214526   5.056   6.716   3.455
 4543SOL     OW14527   5.852   2.739   2.498
 4543SOL    HW114528   5.917   2.675   2.457
 4543SOL    HW214529   5.807   2.696   2.576
 4544SOL     OW14530   5.533   5.291   6.406
 4544SOL    HW114531   5.618   5.265   6.453
 4544SOL    HW214532   5.458   5.234   6.438
 4545SOL     OW14533   3.635   3.945   6.340
 4545SOL    HW114534   3.637   4.036   6.299
 4545SOL    HW214535   3.562   3.940   6.407
 4546SOL     OW14536   0.425   6.232   6.513
 4546SOL    HW114537   0.444   6.135   6.529
 4546SOL    HW214538   0.327   6.248   6.519
 4547SOL     OW14539   4.701   1.431   2.641
 4547SOL    HW114540   4.762   1.467   2.712
 4547SOL    HW214541   4.611   1.474   2.650
 4548SOL     OW14542   0.858   3.445   4.265
 4548SOL    HW114543   0.765   3.459   4.231
 4548SOL    HW214544   0.924   3.470   4.194
 4549SOL     OW14545   5.826   1.515   2.587
 4549SOL    HW114546   5.836   1.597   2.643
 4549SOL    HW214547   5.909   1.459   2.595
 4550SOL     OW14548   2.084   5.410   4.515
 4550SOL    HW114549   2.100   5.317   4.482
 4550SOL    HW214550   2.004   5.449   4.470
 4551SOL     OW14551   6.539   3.354   0.674
 4551SOL    HW114552   6.582   3.319   0.591
 4551SOL    HW214553   6.455   3.303   0.692
 4552SOL     OW14554   6.802   3.062   4.268
 4552SOL    HW114555   6.862   2.986   4.292
 4552SOL    HW214556   6.714   3.051   4.313
 4553SOL     OW14557   5.352   5.070   6.453
 4553SOL    HW114558   5.383   4.984   6.413
 4553SOL    HW214559   5.341   5.060   6.552
 4554SOL     OW14560   6.252   6.562   3.875
 4554SOL    HW114561   6.175   6.587   3.817
 4554SOL    HW214562   6.275   6.638   3.935
 4555SOL     OW14563   3.776   3.150   0.325
 4555SOL    HW114564   3.781   3.215   0.401
 4555SOL    HW214565   3.850   3.083   0.333
 4556SOL     OW14566   4.468   0.522   5.183
 4556SOL    HW114567   4.492   0.537   5.279
 4556SOL    HW214568   4.527   0.451   5.145
 4557SOL     OW14569   5.662   1.252   4.572
 4557SOL    HW114570   5.605   1.297   4.502
 4557SOL    HW214571   5.694   1.321   4.637
 4558SOL     OW14572   6.793   3.039   6.478
 4558SOL    HW114573   6.789   3.029   6.379
 4558SOL    HW214574   6.847   2.964   6.517
 4559SOL     OW14575   1.475   6.369   1.393
 4559SOL    HW114576   1.518   6.347   1.480
 4559SOL    HW214577   1.525   6.444   1.349
 4560SOL     OW14578   5.639   2.881   2.414
 4560SOL    HW114579   5.562   2.828   2.379
 4560SOL    HW214580   5.715   2.820   2.434
 4561SOL     OW14581   3.513   6.505   6.469
 4561SOL    HW114582   3.486   6.550   6.384
 4561SOL    HW214583   3.596   6.451   6.453
 4562SOL     OW14584   2.508   4.471   5.832
 4562SOL    HW114585   2.534   4.488   5.737
 4562SOL    HW214586   2.517   4.373   5.852
 4563SOL     OW14587   5.923   2.522   6.980
 4563SOL    HW114588   6.005   2.564   0.009
 4563SOL    HW214589   5.941   2.496   6.885
 4564SOL     OW14590   0.646   5.195   6.924
 4564SOL    HW114591   0.672   5.290   6.936
 4564SOL    HW214592   0.638   5.150   0.002
 4565SOL     OW14593   2.669   1.083   3.894
 4565SOL    HW114594   2.606   1.150   3.932
 4565SOL    HW214595   2.730   1.129   3.828
 4566SOL     OW14596   1.637   0.751   0.888
 4566SOL    HW114597   1.653   0.850   0.886
 4566SOL    HW214598   1.691   0.710   0.961
 4567SOL     OW14599   5.610   1.624   0.653
 4567SOL    HW114600   5.592   1.688   0.578
 4567SOL    HW214601   5.694   1.651   0.700
 4568SOL     OW14602   4.465   4.941   3.916
 4568SOL    HW114603   4.488   5.029   3.958
 4568SOL    HW214604   4.366   4.935   3.905
 4569SOL     OW14605   0.890   1.824   3.602
 4569SOL    HW114606   0.944   1.905   3.626
 4569SOL    HW214607   0.813   1.851   3.544
 4570SOL     OW14608   5.545   5.748   4.676
 4570SOL    HW114609   5.570   5.657   4.642
 4570SOL    HW214610   5.455   5.742   4.721
 4571SOL     OW14611   3.946   3.022   4.028
 4571SOL    HW114612   3.888   2.964   3.969
 4571SOL    HW214613   3.934   2.995   4.123
 4572SOL     OW14614   2.591   5.511   1.121
 4572SOL    HW114615   2.558   5.417   1.122
 4572SOL    HW214616   2.688   5.513   1.148
 4573SOL     OW14617   5.491   0.214   1.257
 4573SOL    HW114618   5.516   0.284   1.324
 4573SOL    HW214619   5.392   0.208   1.250
 4574SOL     OW14620   0.192   4.358   1.638
 4574SOL    HW114621   0.274   4.349   1.695
 4574SOL    HW214622   0.204   4.433   1.573
 4575SOL     OW14623   6.736   6.444   1.748
 4575SOL    HW114624   6.731   6.528   1.803
 4575SOL    HW214625   6.832   6.424   1.726
 4576SOL     OW14626   3.485   6.231   3.708
 4576SOL    HW114627   3.527   6.304   3.763
 4576SOL    HW214628   3.441   6.271   3.628
 4577SOL     OW14629   2.026   3.435   3.753
 4577SOL    HW114630   2.086   3.505   3.714
 4577SOL    HW214631   1.931   3.463   3.741
 4578SOL     OW14632   6.562   5.940   3.817
 4578SOL    HW114633   6.604   5.900   3.735
 4578SOL    HW214634   6.495   6.009   3.789
 4579SOL     OW14635   4.732   1.790   3.786
 4579SOL    HW114636   4.804   1.854   3.812
 4579SOL    HW214637   4.682   1.826   3.707
 4580SOL     OW14638   0.544   5.204   6.675
 4580SOL    HW114639   0.571   5.203   6.772
 4580SOL    HW214640   0.455   5.248   6.666
 4581SOL     OW14641   3.541   6.073   5.174
 4581SOL    HW114642   3.538   6.126   5.258
 4581SOL    HW214643   3.505   5.981   5.191
 4582SOL     OW14644   4.971   6.933   3.288
 4582SOL    HW114645   4.983   6.917   3.386
 4582SOL    HW214646   5.026   0.001   3.260
 4583SOL     OW14647   3.507   0.414   5.455
 4583SOL    HW114648   3.559   0.330   5.472
 4583SOL    HW214649   3.438   0.425   5.526
 4584SOL     OW14650   0.176   5.163   5.286
 4584SOL    HW114651   0.231   5.244   5.266
 4584SOL    HW214652   0.231   5.097   5.337
 4585SOL     OW14653   3.067   6.086   2.266
 4585SOL    HW114654   3.065   6.068   2.168
 4585SOL    HW214655   3.021   6.173   2.285
 4586SOL     OW14656   2.413   6.108   1.302
 4586SOL    HW114657   2.399   6.012   1.327
 4586SOL    HW214658   2.420   6.164   1.385
 4587SOL     OW14659   3.056   4.948   0.677
 4587SOL    HW114660   2.977   4.891   0.656
 4587SOL    HW214661   3.027   5.041   0.695
 4588SOL     OW14662   3.175   3.961   4.746
 4588SOL    HW114663   3.162   4.007   4.657
 4588SOL    HW214664   3.227   4.021   4.807
 4589SOL     OW14665   1.336   2.074   3.514
 4589SOL    HW114666   1.266   2.097   3.581
 4589SOL    HW214667   1.421   2.048   3.561
 4590SOL     OW14668   4.100   6.658   3.143
 4590SOL    HW114669   4.153   6.727   3.094
 4590SOL    HW214670   4.138   6.567   3.124
 4591SOL     OW14671   5.447   5.956   5.097
 4591SOL    HW114672   5.357   5.993   5.076
 4591SOL    HW214673   5.439   5.859   5.117
 4592SOL     OW14674   3.422   1.292   5.674
 4592SOL    HW114675   3.428   1.193   5.662
 4592SOL    HW214676   3.512   1.329   5.697
 4593SOL     OW14677   4.888   6.748   1.856
 4593SOL    HW114678   4.860   6.677   1.921
 4593SOL    HW214679   4.808   6.803   1.831
 4594SOL     OW14680   3.969   2.111   2.690
 4594SOL    HW114681   3.995   2.023   2.649
 4594SOL    HW214682   3.920   2.094   2.776
 4595SOL     OW14683   4.475   3.554   5.860
 4595SOL    HW114684   4.457   3.603   5.945
 4595SOL    HW214685   4.528   3.614   5.799
 4596SOL     OW14686   4.706   0.300   2.711
 4596SOL    HW114687   4.661   0.223   2.757
 4596SOL    HW214688   4.749   0.268   2.627
 4597SOL     OW14689   6.463   3.739   5.786
 4597SOL    HW114690   6.389   3.767   5.725
 4597SOL    HW214691   6.533   3.691   5.733
 4598SOL     OW14692   2.562   4.519   6.978
 4598SOL    HW114693   2.563   4.431   6.930
 4598SOL    HW214694   2.610   4.587   6.924
 4599SOL     OW14695   3.245   5.278   0.261
 4599SOL    HW114696   3.330   5.304   0.307
 4599SOL    HW214697   3.267   5.227   0.177
 4600SOL     OW14698   2.833   3.815   1.012
 4600SOL    HW114699   2.912   3.786   0.959
 4600SOL    HW214700   2.840   3.781   1.106
 4601SOL     OW14701   1.927   4.872   4.157
 4601SOL    HW114702   1.863   4.924   4.100
 4601SOL    HW214703   1.928   4.777   4.127
 4602SOL     OW14704   1.347   0.365   1.360
 4602SOL    HW114705   1.328   0.331   1.452
 4602SOL    HW214706   1.368   0.463   1.364
 4603SOL     OW14707   2.984   1.520   2.143
 4603SOL    HW114708   2.962   1.432   2.099
 4603SOL    HW214709   2.978   1.510   2.242
 4604SOL     OW14710   1.058   0.427   2.952
 4604SOL    HW114711   1.106   0.503   2.996
 4604SOL    HW214712   1.109   0.342   2.966
 4605SOL     OW14713   5.213   5.979   5.786
 4605SOL    HW114714   5.230   6.072   5.818
 4605SOL    HW214715   5.278   5.916   5.828
 4606SOL     OW14716   6.345   6.410   4.752
 4606SOL    HW114717   6.325   6.505   4.778
 4606SOL    HW214718   6.317   6.395   4.657
 4607SOL     OW14719   2.939   3.058   0.998
 4607SOL    HW114720   2.851   3.067   1.044
 4607SOL    HW214721   2.928   3.077   0.901
 4608SOL     OW14722   0.890   3.439   5.602
 4608SOL    HW114723   0.973   3.482   5.640
 4608SOL    HW214724   0.881   3.463   5.506
 4609SOL     OW14725   3.098   0.232   0.914
 4609SOL    HW114726   3.163   0.189   0.978
 4609SOL    HW214727   3.143   0.308   0.868
 4610SOL     OW14728   6.649   3.780   6.618
 4610SOL    HW114729   6.697   3.860   6.583
 4610SOL    HW214730   6.707   3.699   6.606
 4611SOL     OW14731   1.714   4.558   6.847
 4611SOL    HW114732   1.672   4.507   6.922
 4611SOL    HW214733   1.673   4.649   6.841
 4612SOL     OW14734   2.199   0.682   6.280
 4612SOL    HW114735   2.230   0.754   6.218
 4612SOL    HW214736   2.123   0.716   6.335
 4613SOL     OW14737   3.528   4.832   1.610
 4613SOL    HW114738   3.557   4.781   1.691
 4613SOL    HW214739   3.601   4.894   1.582
 4614SOL     OW14740   2.240   4.757   6.572
 4614SOL    HW114741   2.294   4.781   6.491
 4614SOL    HW214742   2.293   4.775   6.654
 4615SOL     OW14743   6.408   2.921   6.053
 4615SOL    HW114744   6.453   2.937   5.966
 4615SOL    HW214745   6.401   3.007   6.104
 4616SOL     OW14746   5.631   1.265   6.375
 4616SOL    HW114747   5.552   1.226   6.421
 4616SOL    HW214748   5.638   1.228   6.282
 4617SOL     OW14749   0.022   3.755   1.819
 4617SOL    HW114750   6.939   3.727   1.837
 4617SOL    HW214751   0.080   3.732   1.897
 4618SOL     OW14752   0.342   2.981   6.762
 4618SOL    HW114753   0.367   3.055   6.700
 4618SOL    HW214754   0.336   3.017   6.855
 4619SOL     OW14755   4.342   0.624   3.969
 4619SOL    HW114756   4.384   0.702   4.018
 4619SOL    HW214757   4.243   0.627   3.982
 4620SOL     OW14758   2.419   6.035   0.297
 4620SOL    HW114759   2.341   6.036   0.234
 4620SOL    HW214760   2.390   6.002   0.386
 4621SOL     OW14761   6.783   0.519   6.436
 4621SOL    HW114762   6.703   0.460   6.433
 4621SOL    HW214763   6.857   0.473   6.483
 4622SOL     OW14764   1.919   4.103   0.519
 4622SOL    HW114765   1.823   4.117   0.544
 4622SOL    HW214766   1.924   4.042   0.440
 4623SOL     OW14767   5.328   3.530   3.138
 4623SOL    HW114768   5.276   3.511   3.222
 4623SOL    HW214769   5.265   3.544   3.062
 4624SOL     OW14770   4.501   6.937   6.034
 4624SOL    HW114771   4.541   0.018   6.029
 4624SOL    HW214772   4.412   6.937   5.989
 4625SOL     OW14773   1.289   3.819   6.285
 4625SOL    HW114774   1.389   3.823   6.288
 4625SOL    HW214775   1.259   3.725   6.304
 4626SOL     OW14776   5.686   4.529   1.838
 4626SOL    HW114777   5.608   4.578   1.878
 4626SOL    HW214778   5.729   4.471   1.907
 4627SOL     OW14779   1.692   6.679   5.157
 4627SOL    HW114780   1.696   6.583   5.130
 4627SOL    HW214781   1.633   6.689   5.237
 4628SOL     OW14782   6.291   2.936   1.819
 4628SOL    HW114783   6.389   2.919   1.815
 4628SOL    HW214784   6.252   2.925   1.727
 4629SOL     OW14785   4.406   5.523   4.402
 4629SOL    HW114786   4.332   5.576   4.360
 4629SOL    HW214787   4.374   5.430   4.422
 4630SOL     OW14788   2.146   6.277   2.597
 4630SOL    HW114789   2.143   6.322   2.687
 4630SOL    HW214790   2.071   6.211   2.590
 4631SOL     OW14791   1.815   0.954   3.146
 4631SOL    HW114792   1.741   1.008   3.105
 4631SOL    HW214793   1.885   1.016   3.182
 4632SOL     OW14794   5.453   6.229   4.102
 4632SOL    HW114795   5.419   6.317   4.134
 4632SOL    HW214796   5.377   6.166   4.092
 4633SOL     OW14797   5.026   2.729   5.360
 4633SOL    HW114798   5.092   2.734   5.435
 4633SOL    HW214799   5.064   2.673   5.286
 4634SOL     OW14800   3.001   4.350   6.954
 4634SOL    HW114801   2.976   4.397   0.028
 4634SOL    HW214802   3.098   4.324   6.958
 4635SOL     OW14803   4.925   3.465   1.599
 4635SOL    HW114804   4.852   3.457   1.666
 4635SOL    HW214805   5.002   3.514   1.639
 4636SOL     OW14806   0.565   5.610   1.884
 4636SOL    HW114807   0.615   5.675   1.941
 4636SOL    HW214808   0.610   5.602   1.795
 4637SOL     OW14809   1.280   0.753   5.131
 4637SOL    HW114810   1.314   0.716   5.217
 4637SOL    HW214811   1.357   0.773   5.070
 4638SOL     OW14812   4.170   4.917   5.754
 4638SOL    HW114813   4.117   4.832   5.749
 4638SOL    HW214814   4.252   4.901   5.809
 4639SOL     OW14815   6.588   1.907   5.138
 4639SOL    HW114816   6.509   1.967   5.149
 4639SOL    HW214817   6.672   1.962   5.141
 4640SOL     OW14818   6.099   5.034   2.889
 4640SOL    HW114819   6.011   5.010   2.932
 4640SOL    HW214820   6.173   5.009   2.951
 4641SOL     OW14821   2.564   3.570   5.385
 4641SOL    HW114822   2.637   3.504   5.366
 4641SOL    HW214823   2.578   3.652   5.330
 4642SOL     OW14824   5.792   5.870   3.994
 4642SOL    HW114825   5.716   5.870   3.929
 4642SOL    HW214826   5.847   5.953   3.981
 4643SOL     OW14827   4.286   3.483   1.174
 4643SOL    HW114828   4.313   3.484   1.078
 4643SOL    HW214829   4.309   3.394   1.214
 4644SOL     OW14830   3.689   4.434   5.715
 4644SOL    HW114831   3.601   4.407   5.755
 4644SOL    HW214832   3.719   4.363   5.651
 4645SOL     OW14833   1.688   5.952   4.805
 4645SOL    HW114834   1.590   5.969   4.816
 4645SOL    HW214835   1.717   5.880   4.867
 4646SOL     OW14836   3.541   0.570   0.827
 4646SOL    HW114837   3.533   0.534   0.733
 4646SOL    HW214838   3.456   0.551   0.876
 4647SOL     OW14839   6.980   0.414   5.246
 4647SOL    HW114840   0.063   0.401   5.279
 4647SOL    HW214841   6.960   0.348   5.174
 4648SOL     OW14842   2.143   5.920   3.556
 4648SOL    HW114843   2.090   5.967   3.626
 4648SOL    HW214844   2.100   5.832   3.536
 4649SOL     OW14845   6.092   6.371   5.829
 4649SOL    HW114846   6.097   6.470   5.840
 4649SOL    HW214847   6.052   6.350   5.740
 4650SOL     OW14848   6.603   4.496   1.264
 4650SOL    HW114849   6.523   4.456   1.219
 4650SOL    HW214850   6.600   4.473   1.362
 4651SOL     OW14851   6.047   2.268   1.779
 4651SOL    HW114852   5.952   2.297   1.780
 4651SOL    HW214853   6.053   2.174   1.747
 4652SOL     OW14854   0.466   6.484   5.243
 4652SOL    HW114855   0.551   6.532   5.264
 4652SOL    HW214856   0.409   6.480   5.325
 4653SOL     OW14857   0.750   4.832   6.994
 4653SOL    HW114858   0.767   4.904   6.927
 4653SOL    HW214859   0.687   4.765   6.955
 4654SOL     OW14860   1.215   1.946   0.176
 4654SOL    HW114861   1.304   1.971   0.139
 4654SOL    HW214862   1.142   1.974   0.113
 4655SOL     OW14863   0.059   4.901   3.841
 4655SOL    HW114864   0.092   4.815   3.802
 4655SOL    HW214865   0.102   4.978   3.795
 4656SOL     OW14866   2.356   6.773   3.390
 4656SOL    HW114867   2.331   6.693   3.335
 4656SOL    HW214868   2.359   6.854   3.331
 4657SOL     OW14869   5.889   0.983   5.857
 4657SOL    HW114870   5.971   0.999   5.803
 4657SOL    HW214871   5.899   0.898   5.908
 4658SOL     OW14872   5.216   0.566   3.790
 4658SOL    HW114873   5.174   0.536   3.704
 4658SOL    HW214874   5.192   0.662   3.806
 4659SOL     OW14875   1.893   2.987   4.445
 4659SOL    HW114876   1.835   2.935   4.381
 4659SOL    HW214877   1.856   3.080   4.455
 4660SOL     OW14878   6.470   1.063   5.352
 4660SOL    HW114879   6.427   1.152   5.338
 4660SOL    HW214880   6.497   1.025   5.263
 4661SOL     OW14881   3.391   2.910   3.160
 4661SOL    HW114882   3.310   2.940   3.109
 4661SOL    HW214883   3.398   2.961   3.246
 4662SOL     OW14884   5.886   6.582   4.112
 4662SOL    HW114885   5.907   6.590   4.209
 4662SOL    HW214886   5.962   6.536   4.065
 4663SOL     OW14887   0.549   2.869   2.140
 4663SOL    HW114888   0.488   2.790   2.151
 4663SOL    HW214889   0.531   2.913   2.052
 4664SOL     OW14890   3.372   4.246   0.229
 4664SOL    HW114891   3.307   4.172   0.241
 4664SOL    HW214892   3.453   4.229   0.285
 4665SOL     OW14893   5.673   0.394   6.069
 4665SOL    HW114894   5.676   0.460   5.993
 4665SOL    HW214895   5.700   0.439   6.154
 4666SOL     OW14896   1.500   1.552   0.608
 4666SOL    HW114897   1.516   1.605   0.692
 4666SOL    HW214898   1.586   1.545   0.557
 4667SOL     OW14899   0.713   5.939   4.226
 4667SOL    HW114900   0.709   5.894   4.315
 4667SOL    HW214901   0.723   5.871   4.154
 4668SOL     OW14902   5.400   0.739   5.157
 4668SOL    HW114903   5.464   0.748   5.233
 4668SOL    HW214904   5.441   0.683   5.085
 4669SOL     OW14905   2.100   1.903   2.466
 4669SOL    HW114906   2.064   1.818   2.429
 4669SOL    HW214907   2.188   1.924   2.423
 4670SOL     OW14908   2.009   1.416   4.294
 4670SOL    HW114909   1.977   1.486   4.359
 4670SOL    HW214910   2.068   1.459   4.226
 4671SOL     OW14911   5.861   2.088   2.627
 4671SOL    HW114912   5.832   2.141   2.548
 4671SOL    HW214913   5.823   2.129   2.710
 4672SOL     OW14914   2.927   2.577   5.364
 4672SOL    HW114915   2.852   2.644   5.368
 4672SOL    HW214916   2.906   2.508   5.295
 4673SOL     OW14917   5.085   0.489   2.313
 4673SOL    HW114918   5.022   0.484   2.236
 4673SOL    HW214919   5.175   0.454   2.286
 4674SOL     OW14920   4.693   6.669   5.133
 4674SOL    HW114921   4.610   6.725   5.130
 4674SOL    HW214922   4.670   6.577   5.165
 4675SOL     OW14923   1.111   4.657   6.844
 4675SOL    HW114924   1.091   4.747   6.805
 4675SOL    HW214925   1.192   4.619   6.799
 4676SOL     OW14926   1.245   4.359   4.106
 4676SOL    HW114927   1.240   4.449   4.062
 4676SOL    HW214928   1.299   4.366   4.190
 4677SOL     OW14929   1.223   3.737   0.534
 4677SOL    HW114930   1.193   3.825   0.573
 4677SOL    HW214931   1.169   3.717   0.453
 4678SOL     OW14932   0.891   3.273   1.915
 4678SOL    HW114933   0.922   3.264   2.010
 4678SOL    HW214934   0.833   3.195   1.891
 4679SOL     OW14935   4.613   0.276   2.071
 4679SOL    HW114936   4.551   0.254   2.147
 4679SOL    HW214937   4.569   0.251   1.984
 4680SOL     OW14938   2.005   0.717   6.497
 4680SOL    HW114939   1.919   0.762   6.472
 4680SOL    HW214940   2.076   0.786   6.512
 4681SOL     OW14941   4.796   5.753   2.485
 4681SOL    HW114942   4.810   5.674   2.545
 4681SOL    HW214943   4.700   5.780   2.487
 4682SOL     OW14944   3.587   3.506   6.085
 4682SOL    HW114945   3.677   3.509   6.042
 4682SOL    HW214946   3.597   3.500   6.184
 4683SOL     OW14947   6.122   4.573   3.804
 4683SOL    HW114948   6.166   4.485   3.790
 4683SOL    HW214949   6.143   4.607   3.896
 4684SOL     OW14950   5.362   0.042   5.755
 4684SOL    HW114951   5.353   0.067   5.658
 4684SOL    HW214952   5.432   0.100   5.797
 4685SOL     OW14953   3.096   3.547   4.672
 4685SOL    HW114954   3.191   3.578   4.675
 4685SOL    HW214955   3.036   3.619   4.705
 4686SOL     OW14956   1.550   0.125   6.895
 4686SOL    HW114957   1.644   0.141   6.926
 4686SOL    HW214958   1.517   0.039   6.935
 4687SOL     OW14959   1.958   0.485   2.664
 4687SOL    HW114960   1.993   0.391   2.670
 4687SOL    HW214961   1.858   0.482   2.660
 4688SOL     OW14962   4.976   2.792   4.926
 4688SOL    HW114963   4.899   2.856   4.919
 4688SOL    HW214964   5.037   2.805   4.848
 4689SOL     OW14965   6.591   1.422   1.267
 4689SOL    HW114966   6.671   1.442   1.211
 4689SOL    HW214967   6.509   1.455   1.221
 4690SOL     OW14968   3.491   2.687   0.777
 4690SOL    HW114969   3.430   2.654   0.705
 4690SOL    HW214970   3.549   2.612   0.809
 4691SOL     OW14971   6.525   3.404   1.647
 4691SOL    HW114972   6.487   3.330   1.702
 4691SOL    HW214973   6.616   3.377   1.615
 4692SOL     OW14974   5.114   2.996   2.315
 4692SOL    HW114975   5.066   3.014   2.229
 4692SOL    HW214976   5.166   3.076   2.342
 4693SOL     OW14977   0.313   0.123   3.057
 4693SOL    HW114978   0.303   0.039   3.004
 4693SOL    HW214979   0.271   0.199   3.008
 4694SOL     OW14980   2.147   6.896   5.862
 4694SOL    HW114981   2.085   6.847   5.801
 4694SOL    HW214982   2.205   6.958   5.809
 4695SOL     OW14983   1.870   5.042   2.076
 4695SOL    HW114984   1.824   5.016   2.161
 4695SOL    HW214985   1.884   4.961   2.019
 4696SOL     OW14986   1.766   6.360   6.259
 4696SOL    HW114987   1.686   6.356   6.319
 4696SOL    HW214988   1.747   6.308   6.176
 4697SOL     OW14989   4.266   5.598   1.124
 4697SOL    HW114990   4.327   5.519   1.124
 4697SOL    HW214991   4.311   5.676   1.080
 4698SOL     OW14992   5.923   1.154   4.586
 4698SOL    HW114993   5.927   1.074   4.527
 4698SOL    HW214994   5.831   1.193   4.585
 4699SOL     OW14995   0.850   1.189   2.736
 4699SOL    HW114996   0.945   1.213   2.759
 4699SOL    HW214997   0.844   1.091   2.721
 4700SOL     OW14998   6.461   1.760   3.237
 4700SOL    HW114999   6.513   1.765   3.322
 4700SOL    HW215000   6.363   1.770   3.256
 4701SOL     OW15001   2.963   2.622   1.694
 4701SOL    HW115002   2.938   2.556   1.765
 4701SOL    HW215003   3.058   2.650   1.707
 4702SOL     OW15004   6.136   5.100   0.680
 4702SOL    HW115005   6.047   5.061   0.704
 4702SOL    HW215006   6.199   5.089   0.757
 4703SOL     OW15007   0.461   5.292   3.889
 4703SOL    HW115008   0.491   5.301   3.984
 4703SOL    HW215009   0.369   5.330   3.880
 4704SOL     OW15010   1.805   4.718   4.642
 4704SOL    HW115011   1.889   4.676   4.608
 4704SOL    HW215012   1.733   4.711   4.573
 4705SOL     OW15013   3.199   2.106   1.890
 4705SOL    HW115014   3.173   2.069   1.800
 4705SOL    HW215015   3.287   2.067   1.918
 4706SOL     OW15016   2.139   1.471   1.058
 4706SOL    HW115017   2.193   1.553   1.071
 4706SOL    HW215018   2.083   1.454   1.139
 4707SOL     OW15019   1.531   5.443   1.995
 4707SOL    HW115020   1.578   5.477   1.913
 4707SOL    HW215021   1.504   5.347   1.981
 4708SOL     OW15022   1.886   2.965   6.048
 4708SOL    HW115023   1.878   2.867   6.066
 4708SOL    HW215024   1.983   2.991   6.047
 4709SOL     OW15025   5.557   4.243   5.366
 4709SOL    HW115026   5.507   4.190   5.298
 4709SOL    HW215027   5.493   4.278   5.434
 4710SOL     OW15028   5.996   5.699   5.113
 4710SOL    HW115029   5.899   5.709   5.133
 4710SOL    HW215030   6.046   5.775   5.155
 4711SOL     OW15031   5.233   4.445   2.379
 4711SOL    HW115032   5.256   4.352   2.410
 4711SOL    HW215033   5.238   4.449   2.279
 4712SOL     OW15034   3.535   4.446   5.995
 4712SOL    HW115035   3.487   4.520   5.948
 4712SOL    HW215036   3.469   4.374   6.018
 4713SOL     OW15037   5.599   4.333   0.804
 4713SOL    HW115038   5.595   4.235   0.824
 4713SOL    HW215039   5.580   4.385   0.888
 4714SOL     OW15040   4.247   1.751   6.409
 4714SOL    HW115041   4.194   1.804   6.343
 4714SOL    HW215042   4.343   1.748   6.380
 4715SOL     OW15043   6.547   1.762   2.417
 4715SOL    HW115044   6.576   1.740   2.324
 4715SOL    HW215045   6.526   1.678   2.466
 4716SOL     OW15046   3.143   4.509   5.619
 4716SOL    HW115047   3.163   4.442   5.547
 4716SOL    HW215048   3.054   4.550   5.601
 4717SOL     OW15049   2.151   4.959   5.880
 4717SOL    HW115050   2.072   5.011   5.847
 4717SOL    HW215051   2.233   5.016   5.875
 4718SOL     OW15052   4.758   4.266   1.927
 4718SOL    HW115053   4.785   4.177   1.890
 4718SOL    HW215054   4.660   4.266   1.946
 4719SOL     OW15055   5.573   4.528   4.068
 4719SOL    HW115056   5.578   4.478   3.981
 4719SOL    HW215057   5.509   4.605   4.058
 4720SOL     OW15058   1.521   2.169   6.464
 4720SOL    HW115059   1.462   2.140   6.389
 4720SOL    HW215060   1.477   2.149   6.551
 4721SOL     OW15061   0.915   2.778   2.504
 4721SOL    HW115062   0.860   2.748   2.426
 4721SOL    HW215063   0.964   2.862   2.480
 4722SOL     OW15064   1.459   5.148   6.013
 4722SOL    HW115065   1.428   5.197   6.094
 4722SOL    HW215066   1.500   5.213   5.949
 4723SOL     OW15067   2.737   4.811   6.533
 4723SOL    HW115068   2.702   4.899   6.566
 4723SOL    HW215069   2.772   4.822   6.440
 4724SOL     OW15070   0.259   6.861   3.903
 4724SOL    HW115071   0.222   6.903   3.820
 4724SOL    HW215072   0.359   6.868   3.901
 4725SOL     OW15073   6.413   4.826   1.060
 4725SOL    HW115074   6.508   4.827   1.089
 4725SOL    HW215075   6.409   4.818   0.960
 4726SOL     OW15076   1.406   2.783   5.869
 4726SOL    HW115077   1.356   2.800   5.955
 4726SOL    HW215078   1.498   2.750   5.891
 4727SOL     OW15079   6.626   5.240   1.156
 4727SOL    HW115080   6.636   5.323   1.102
 4727SOL    HW215081   6.663   5.255   1.248
 4728SOL     OW15082   5.186   1.144   3.336
 4728SOL    HW115083   5.110   1.079   3.346
 4728SOL    HW215084   5.167   1.226   3.389
 4729SOL     OW15085   6.619   1.604   2.839
 4729SOL    HW115086   6.648   1.617   2.934
 4729SOL    HW215087   6.522   1.581   2.837
 4730SOL     OW15088   3.264   0.658   3.447
 4730SOL    HW115089   3.271   0.721   3.524
 4730SOL    HW215090   3.254   0.565   3.480
 4731SOL     OW15091   3.563   6.898   1.807
 4731SOL    HW115092   3.597   6.835   1.877
 4731SOL    HW215093   3.500   6.964   1.849
 4732SOL     OW15094   0.183   5.030   4.921
 4732SOL    HW115095   0.279   5.005   4.908
 4732SOL    HW215096   0.124   4.961   4.879
 4733SOL     OW15097   1.524   4.046   2.694
 4733SOL    HW115098   1.499   4.061   2.598
 4733SOL    HW215099   1.621   4.025   2.700
 4734SOL     OW15100   4.570   4.161   6.625
 4734SOL    HW115101   4.611   4.196   6.540
 4734SOL    HW215102   4.480   4.124   6.605
 4735SOL     OW15103   0.076   0.647   5.118
 4735SOL    HW115104   0.035   0.562   5.153
 4735SOL    HW215105   0.026   0.677   5.036
 4736SOL     OW15106   6.428   0.605   4.080
 4736SOL    HW115107   6.509   0.661   4.065
 4736SOL    HW215108   6.388   0.580   3.992
 4737SOL     OW15109   2.401   5.061   0.112
 4737SOL    HW115110   2.318   5.039   0.060
 4737SOL    HW215111   2.430   4.980   0.163
 4738SOL     OW15112   0.962   5.396   3.872
 4738SOL    HW115113   0.911   5.480   3.891
 4738SOL    HW215114   1.049   5.419   3.828
 4739SOL     OW15115   6.032   3.377   3.435
 4739SOL    HW115116   6.098   3.438   3.392
 4739SOL    HW215117   6.065   3.282   3.429
 4740SOL     OW15118   1.864   6.802   0.707
 4740SOL    HW115119   1.795   6.873   0.695
 4740SOL    HW215120   1.905   6.811   0.798
 4741SOL     OW15121   5.743   4.494   1.298
 4741SOL    HW115122   5.792   4.411   1.324
 4741SOL    HW215123   5.801   4.574   1.316
 4742SOL     OW15124   1.923   5.656   1.987
 4742SOL    HW115125   1.882   5.743   2.015
 4742SOL    HW215126   1.899   5.585   2.054
 4743SOL     OW15127   2.589   3.730   0.148
 4743SOL    HW115128   2.499   3.751   0.186
 4743SOL    HW215129   2.656   3.794   0.184
 4744SOL     OW15130   2.926   2.083   5.443
 4744SOL    HW115131   2.878   2.000   5.470
 4744SOL    HW215132   2.889   2.116   5.356
 4745SOL     OW15133   4.587   5.716   4.553
 4745SOL    HW115134   4.515   5.661   4.511
 4745SOL    HW215135   4.586   5.701   4.652
 4746SOL     OW15136   5.817   1.637   1.217
 4746SOL    HW115137   5.800   1.569   1.288
 4746SOL    HW215138   5.800   1.728   1.255
 4747SOL     OW15139   1.061   2.734   2.192
 4747SOL    HW115140   1.064   2.831   2.167
 4747SOL    HW215141   1.128   2.717   2.264
 4748SOL     OW15142   2.302   0.210   0.575
 4748SOL    HW115143   2.266   0.228   0.484
 4748SOL    HW215144   2.239   0.247   0.644
 4749SOL     OW15145   3.421   0.825   0.271
 4749SOL    HW115146   3.407   0.845   0.368
 4749SOL    HW215147   3.377   0.738   0.248
 4750SOL     OW15148   0.927   1.909   5.034
 4750SOL    HW115149   0.997   1.979   5.050
 4750SOL    HW215150   0.971   1.823   5.007
 4751SOL     OW15151   1.319   3.771   6.583
 4751SOL    HW115152   1.326   3.686   6.530
 4751SOL    HW215153   1.224   3.802   6.583
 4752SOL     OW15154   2.225   5.851   0.989
 4752SOL    HW115155   2.292   5.778   0.980
 4752SOL    HW215156   2.146   5.818   1.041
 4753SOL     OW15157   0.651   0.202   6.368
 4753SOL    HW115158   0.723   0.137   6.394
 4753SOL    HW215159   0.690   0.275   6.312
 4754SOL     OW15160   1.428   1.373   6.354
 4754SOL    HW115161   1.512   1.319   6.364
 4754SOL    HW215162   1.418   1.402   6.258
 4755SOL     OW15163   2.802   7.008   2.665
 4755SOL    HW115164   2.827   6.967   2.578
 4755SOL    HW215165   2.864   0.073   2.685
 4756SOL     OW15166   5.510   2.074   1.526
 4756SOL    HW115167   5.486   2.068   1.622
 4756SOL    HW215168   5.427   2.072   1.471
 4757SOL     OW15169   2.497   2.516   0.770
 4757SOL    HW115170   2.480   2.613   0.784
 4757SOL    HW215171   2.431   2.463   0.823
 4758SOL     OW15172   5.907   3.949   5.897
 4758SOL    HW115173   5.966   4.023   5.864
 4758SOL    HW215174   5.946   3.861   5.868
 4759SOL     OW15175   6.840   4.308   6.595
 4759SOL    HW115176   6.890   4.369   6.657
 4759SOL    HW215177   6.788   4.362   6.529
 4760SOL     OW15178   1.611   2.460   0.249
 4760SOL    HW115179   1.621   2.499   0.157
 4760SOL    HW215180   1.555   2.377   0.244
 4761SOL     OW15181   2.360   6.156   6.266
 4761SOL    HW115182   2.344   6.171   6.364
 4761SOL    HW215183   2.273   6.139   6.220
 4762SOL     OW15184   3.641   6.740   2.372
 4762SOL    HW115185   3.673   6.652   2.338
 4762SOL    HW215186   3.563   6.771   2.318
 4763SOL     OW15187   5.199   5.817   5.475
 4763SOL    HW115188   5.174   5.819   5.378
 4763SOL    HW215189   5.126   5.860   5.529
 4764SOL     OW15190   4.011   3.657   3.659
 4764SOL    HW115191   4.034   3.709   3.742
 4764SOL    HW215192   3.996   3.721   3.583
 4765SOL     OW15193   5.777   5.188   6.488
 4765SOL    HW115194   5.831   5.268   6.459
 4765SOL    HW215195   5.825   5.142   6.562
 4766SOL     OW15196   2.959   1.272   3.403
 4766SOL    HW115197   2.918   1.338   3.466
 4766SOL    HW215198   3.057   1.266   3.419
 4767SOL     OW15199   4.589   0.471   0.039
 4767SOL    HW115200   4.592   0.427   6.960
 4767SOL    HW215201   4.547   0.562   0.031
 4768SOL     OW15202   1.608   1.060   5.122
 4768SOL    HW115203   1.575   0.985   5.065
 4768SOL    HW215204   1.707   1.067   5.114
 4769SOL     OW15205   4.892   0.861   1.890
 4769SOL    HW115206   4.971   0.835   1.834
 4769SOL    HW215207   4.923   0.910   1.971
 4770SOL     OW15208   2.165   0.779   4.126
 4770SOL    HW115209   2.234   0.770   4.198
 4770SOL    HW215210   2.207   0.825   4.047
 4771SOL     OW15211   3.739   4.254   5.513
 4771SOL    HW115212   3.819   4.293   5.466
 4771SOL    HW215213   3.692   4.190   5.452
 4772SOL     OW15214   3.170   2.327   0.136
 4772SOL    HW115215   3.114   2.371   0.206
 4772SOL    HW215216   3.197   2.394   0.067
 4773SOL     OW15217   6.802   4.772   4.739
 4773SOL    HW115218   6.829   4.676   4.736
 4773SOL    HW215219   6.708   4.779   4.774
 4774SOL     OW15220   1.315   4.360   0.087
 4774SOL    HW115221   1.300   4.261   0.097
 4774SOL    HW215222   1.301   4.404   0.176
 4775SOL     OW15223   1.945   2.238   2.467
 4775SOL    HW115224   1.992   2.283   2.392
 4775SOL    HW215225   1.885   2.304   2.514
 4776SOL     OW15226   4.255   5.046   1.970
 4776SOL    HW115227   4.264   5.140   1.936
 4776SOL    HW215228   4.318   4.987   1.919
 4777SOL     OW15229   2.484   3.816   1.693
 4777SOL    HW115230   2.459   3.913   1.694
 4777SOL    HW215231   2.420   3.765   1.750
 4778SOL     OW15232   5.348   3.262   2.979
 4778SOL    HW115233   5.364   3.361   2.979
 4778SOL    HW215234   5.325   3.232   3.071
 4779SOL     OW15235   4.838   1.105   2.672
 4779SOL    HW115236   4.870   1.014   2.697
 4779SOL    HW215237   4.906   1.150   2.616
 4780SOL     OW15238   2.234   1.603   5.492
 4780SOL    HW115239   2.176   1.522   5.502
 4780SOL    HW215240   2.183   1.675   5.445
 4781SOL     OW15241   1.836   5.809   2.865
 4781SOL    HW115242   1.887   5.820   2.780
 4781SOL    HW215243   1.899   5.789   2.940
 4782SOL     OW15244   6.189   6.091   0.087
 4782SOL    HW115245   6.261   6.024   0.066
 4782SOL    HW215246   6.231   6.176   0.117
 4783SOL     OW15247   6.072   3.690   2.704
 4783SOL    HW115248   6.014   3.710   2.625
 4783SOL    HW215249   6.109   3.597   2.697
 4784SOL     OW15250   5.093   4.943   5.054
 4784SOL    HW115251   5.125   4.872   4.991
 4784SOL    HW215252   5.156   4.951   5.131
 4785SOL     OW15253   5.842   6.728   0.612
 4785SOL    HW115254   5.940   6.735   0.631
 4785SOL    HW215255   5.800   6.666   0.678
 4786SOL     OW15256   1.360   3.745   2.246
 4786SOL    HW115257   1.332   3.832   2.206
 4786SOL    HW215258   1.311   3.731   2.332
 4787SOL     OW15259   4.165   2.185   3.316
 4787SOL    HW115260   4.200   2.103   3.271
 4787SOL    HW215261   4.238   2.252   3.325
 4788SOL     OW15262   2.033   0.236   4.998
 4788SOL    HW115263   2.016   0.295   4.918
 4788SOL    HW215264   1.982   0.151   4.988
 4789SOL     OW15265   5.133   6.182   0.513
 4789SOL    HW115266   5.181   6.172   0.425
 4789SOL    HW215267   5.117   6.279   0.532
 4790SOL     OW15268   5.317   0.085   6.634
 4790SOL    HW115269   5.249   0.012   6.634
 4790SOL    HW215270   5.379   0.073   6.712
 4791SOL     OW15271   4.280   1.844   3.532
 4791SOL    HW115272   4.289   1.874   3.437
 4791SOL    HW215273   4.201   1.783   3.540
 4792SOL     OW15274   2.945   2.773   1.002
 4792SOL    HW115275   2.861   2.734   1.039
 4792SOL    HW215276   2.935   2.872   0.992
 4793SOL     OW15277   0.588   0.049   6.712
 4793SOL    HW115278   0.503   0.089   6.678
 4793SOL    HW215279   0.600   0.074   6.808
 4794SOL     OW15280   5.080   1.411   2.105
 4794SOL    HW115281   5.101   1.481   2.037
 4794SOL    HW215282   5.085   1.320   2.062
 4795SOL     OW15283   6.019   2.656   4.085
 4795SOL    HW115284   6.027   2.756   4.079
 4795SOL    HW215285   5.992   2.620   3.996
 4796SOL     OW15286   5.695   3.523   0.247
 4796SOL    HW115287   5.631   3.497   0.174
 4796SOL    HW215288   5.774   3.462   0.246
 4797SOL     OW15289   1.084   5.717   4.845
 4797SOL    HW115290   1.008   5.702   4.781
 4797SOL    HW215291   1.162   5.662   4.818
 4798SOL     OW15292   6.913   5.014   5.897
 4798SOL    HW115293   6.998   5.007   5.845
 4798SOL    HW215294   6.926   5.078   5.973
 4799SOL     OW15295   5.043   1.428   4.220
 4799SOL    HW115296   5.035   1.524   4.247
 4799SOL    HW215297   4.958   1.398   4.179
 4800SOL     OW15298   1.827   3.055   4.124
 4800SOL    HW115299   1.925   3.056   4.105
 4800SOL    HW215300   1.777   3.057   4.037
 4801SOL     OW15301   6.928   2.422   0.794
 4801SOL    HW115302   6.975   2.411   0.706
 4801SOL    HW215303   6.940   2.338   0.848
 4802SOL     OW15304   1.592   0.359   2.207
 4802SOL    HW115305   1.644   0.314   2.134
 4802SOL    HW215306   1.651   0.424   2.254
 4803SOL     OW15307   1.726   0.258   0.447
 4803SOL    HW115308   1.637   0.304   0.455
 4803SOL    HW215309   1.797   0.315   0.489
 4804SOL     OW15310   4.959   5.989   0.188
 4804SOL    HW115311   4.942   5.949   0.098
 4804SOL    HW215312   5.012   5.924   0.243
 4805SOL     OW15313   0.028   6.989   1.655
 4805SOL    HW115314   0.009   0.029   1.571
 4805SOL    HW215315   0.090   0.031   1.713
 4806SOL     OW15316   6.986   2.350   3.776
 4806SOL    HW115317   0.006   2.258   3.798
 4806SOL    HW215318   6.887   2.355   3.781
 4807SOL     OW15319   1.031   6.941   2.441
 4807SOL    HW115320   1.006   6.922   2.536
 4807SOL    HW215321   0.957   6.992   2.397
 4808SOL     OW15322   6.447   2.716   0.618
 4808SOL    HW115323   6.372   2.698   0.682
 4808SOL    HW215324   6.429   2.799   0.566
 4809SOL     OW15325   4.618   6.991   0.846
 4809SOL    HW115326   4.601   0.074   0.875
 4809SOL    HW215327   4.658   6.991   0.755
 4810SOL     OW15328   1.980   6.666   0.408
 4810SOL    HW115329   1.934   6.721   0.477
 4810SOL    HW215330   1.918   6.650   0.331
 4811SOL     OW15331   5.237   3.625   3.574
 4811SOL    HW115332   5.194   3.672   3.651
 4811SOL    HW215333   5.263   3.532   3.603
 4812SOL     OW15334   6.062   5.095   3.869
 4812SOL    HW115335   6.050   5.013   3.925
 4812SOL    HW215336   6.068   5.176   3.928
 4813SOL     OW15337   5.530   3.089   2.891
 4813SOL    HW115338   5.498   3.012   2.836
 4813SOL    HW215339   5.453   3.148   2.914
 4814SOL     OW15340   6.851   3.054   0.959
 4814SOL    HW115341   6.824   3.147   0.986
 4814SOL    HW215342   6.770   2.996   0.955
 4815SOL     OW15343   4.850   0.583   3.364
 4815SOL    HW115344   4.942   0.616   3.385
 4815SOL    HW215345   4.855   0.489   3.330
 4816SOL     OW15346   5.335   4.957   3.563
 4816SOL    HW115347   5.333   5.044   3.613
 4816SOL    HW215348   5.428   4.937   3.535
 4817SOL     OW15349   5.761   1.566   0.111
 4817SOL    HW115350   5.675   1.588   0.158
 4817SOL    HW215351   5.825   1.527   0.177
 4818SOL     OW15352   0.144   5.785   3.403
 4818SOL    HW115353   0.160   5.871   3.453
 4818SOL    HW215354   0.160   5.708   3.465
 4819SOL     OW15355   2.005   2.922   0.651
 4819SOL    HW115356   1.963   2.864   0.721
 4819SOL    HW215357   2.043   3.004   0.694
 4820SOL     OW15358   6.547   3.378   2.101
 4820SOL    HW115359   6.553   3.279   2.115
 4820SOL    HW215360   6.636   3.413   2.072
 4821SOL     OW15361   0.536   5.632   3.715
 4821SOL    HW115362   0.460   5.572   3.694
 4821SOL    HW215363   0.622   5.581   3.710
 4822SOL     OW15364   2.291   4.493   4.214
 4822SOL    HW115365   2.348   4.570   4.183
 4822SOL    HW215366   2.200   4.527   4.237
 4823SOL     OW15367   1.096   2.231   0.670
 4823SOL    HW115368   1.133   2.165   0.605
 4823SOL    HW215369   1.113   2.324   0.636
 4824SOL     OW15370   6.604   1.905   0.021
 4824SOL    HW115371   6.512   1.885   6.998
 4824SOL    HW215372   6.596   1.957   0.107
 4825SOL     OW15373   0.859   6.757   3.761
 4825SOL    HW115374   0.836   6.756   3.858
 4825SOL    HW215375   0.796   6.818   3.712
 4826SOL     OW15376   4.469   5.958   0.786
 4826SOL    HW115377   4.372   5.938   0.771
 4826SOL    HW215378   4.524   5.879   0.758
 4827SOL     OW15379   5.634   1.292   0.894
 4827SOL    HW115380   5.716   1.314   0.841
 4827SOL    HW215381   5.641   1.198   0.928
 4828SOL     OW15382   5.039   0.914   6.636
 4828SOL    HW115383   4.996   0.830   6.669
 4828SOL    HW215384   5.001   0.938   6.546
 4829SOL     OW15385   4.022   6.307   5.505
 4829SOL    HW115386   4.119   6.283   5.498
 4829SOL    HW215387   4.011   6.406   5.491
 4830SOL     OW15388   1.806   6.659   3.831
 4830SOL    HW115389   1.900   6.678   3.860
 4830SOL    HW215390   1.761   6.745   3.809
 4831SOL     OW15391   3.569   5.035   5.689
 4831SOL    HW115392   3.612   4.945   5.680
 4831SOL    HW215393   3.579   5.085   5.604
 4832SOL     OW15394   4.085   3.708   4.730
 4832SOL    HW115395   4.079   3.610   4.714
 4832SOL    HW215396   4.139   3.725   4.813
 4833SOL     OW15397   5.725   2.420   4.957
 4833SOL    HW115398   5.734   2.386   4.863
 4833SOL    HW215399   5.737   2.519   4.958
 4834SOL     OW15400   0.943   4.961   1.038
 4834SOL    HW115401   0.877   5.031   1.064
 4834SOL    HW215402   0.896   4.885   0.992
 4835SOL     OW15403   6.969   3.339   5.658
 4835SOL    HW115404   7.008   3.424   5.622
 4835SOL    HW215405   6.935   3.355   5.751
 4836SOL     OW15406   4.538   1.264   5.604
 4836SOL    HW115407   4.637   1.256   5.608
 4836SOL    HW215408   4.510   1.351   5.645
 4837SOL     OW15409   1.392   3.285   4.849
 4837SOL    HW115410   1.420   3.319   4.760
 4837SOL    HW215411   1.353   3.193   4.839
 4838SOL     OW15412   1.813   4.120   6.160
 4838SOL    HW115413   1.869   4.040   6.140
 4838SOL    HW215414   1.837   4.194   6.098
 4839SOL     OW15415   3.079   1.308   2.351
 4839SOL    HW115416   3.029   1.393   2.370
 4839SOL    HW215417   3.071   1.246   2.429
 4840SOL     OW15418   4.765   2.792   4.251
 4840SOL    HW115419   4.858   2.779   4.286
 4840SOL    HW215420   4.760   2.877   4.199
 4841SOL     OW15421   3.075   5.743   3.087
 4841SOL    HW115422   3.071   5.842   3.084
 4841SOL    HW215423   3.004   5.705   3.028
 4842SOL     OW15424   4.595   5.763   3.711
 4842SOL    HW115425   4.583   5.795   3.804
 4842SOL    HW215426   4.671   5.697   3.707
 4843SOL     OW15427   5.357   1.814   0.964
 4843SOL    HW115428   5.284   1.755   1.000
 4843SOL    HW215429   5.445   1.770   0.977
 4844SOL     OW15430   1.350   4.831   6.677
 4844SOL    HW115431   1.370   4.911   6.620
 4844SOL    HW215432   1.349   4.749   6.620
 4845SOL     OW15433   5.053   4.140   4.879
 4845SOL    HW115434   5.046   4.229   4.834
 4845SOL    HW215435   4.971   4.124   4.935
 4846SOL     OW15436   6.328   4.243   4.722
 4846SOL    HW115437   6.356   4.334   4.755
 4846SOL    HW215438   6.251   4.253   4.658
 4847SOL     OW15439   3.289   6.926   0.405
 4847SOL    HW115440   3.344   6.848   0.374
 4847SOL    HW215441   3.319   6.953   0.497
 4848SOL     OW15442   4.634   1.386   3.846
 4848SOL    HW115443   4.699   1.401   3.772
 4848SOL    HW215444   4.670   1.316   3.908
 4849SOL     OW15445   1.335   5.698   2.172
 4849SOL    HW115446   1.397   5.704   2.251
 4849SOL    HW215447   1.387   5.717   2.088
 4850SOL     OW15448   3.475   6.627   2.101
 4850SOL    HW115449   3.468   6.723   2.131
 4850SOL    HW215450   3.536   6.622   2.022
 4851SOL     OW15451   4.239   4.516   6.957
 4851SOL    HW115452   4.294   4.583   7.006
 4851SOL    HW215453   4.283   4.426   6.961
 4852SOL     OW15454   4.780   4.772   5.592
 4852SOL    HW115455   4.743   4.810   5.507
 4852SOL    HW215456   4.707   4.726   5.643
 4853SOL     OW15457   3.985   0.375   2.467
 4853SOL    HW115458   3.894   0.372   2.507
 4853SOL    HW215459   4.053   0.387   2.539
 4854SOL     OW15460   4.265   6.416   2.306
 4854SOL    HW115461   4.243   6.443   2.400
 4854SOL    HW215462   4.252   6.317   2.296
 4855SOL     OW15463   4.013   4.694   5.774
 4855SOL    HW115464   3.942   4.659   5.834
 4855SOL    HW215465   4.047   4.620   5.715
 4856SOL     OW15466   0.696   2.603   2.628
 4856SOL    HW115467   0.768   2.670   2.612
 4856SOL    HW215468   0.609   2.638   2.593
 4857SOL     OW15469   2.293   2.138   5.963
 4857SOL    HW115470   2.221   2.068   5.962
 4857SOL    HW215471   2.292   2.187   5.876
 4858SOL     OW15472   1.569   4.982   4.409
 4858SOL    HW115473   1.657   5.026   4.429
 4858SOL    HW215474   1.583   4.884   4.395
 4859SOL     OW15475   6.381   5.597   3.662
 4859SOL    HW115476   6.451   5.574   3.594
 4859SOL    HW215477   6.424   5.612   3.751
 4860SOL     OW15478   4.065   5.286   1.123
 4860SOL    HW115479   3.968   5.288   1.148
 4860SOL    HW215480   4.096   5.380   1.104
 4861SOL     OW15481   5.829   5.011   5.035
 4861SOL    HW115482   5.773   4.973   4.961
 4861SOL    HW215483   5.778   5.007   5.121
 4862SOL     OW15484   2.521   5.453   4.670
 4862SOL    HW115485   2.474   5.499   4.595
 4862SOL    HW215486   2.499   5.356   4.669
 4863SOL     OW15487   5.718   1.451   2.361
 4863SOL    HW115488   5.790   1.408   2.307
 4863SOL    HW215489   5.756   1.484   2.447
 4864SOL     OW15490   2.268   2.904   1.707
 4864SOL    HW115491   2.263   2.909   1.608
 4864SOL    HW215492   2.195   2.960   1.747
 4865SOL     OW15493   3.593   6.723   5.075
 4865SOL    HW115494   3.539   6.763   5.149
 4865SOL    HW215495   3.659   6.659   5.112
 4866SOL     OW15496   0.190   5.178   1.373
 4866SOL    HW115497   0.162   5.138   1.460
 4866SOL    HW215498   0.244   5.261   1.391
 4867SOL     OW15499   5.563   4.994   5.810
 4867SOL    HW115500   5.574   4.985   5.711
 4867SOL    HW215501   5.494   4.930   5.843
 4868SOL     OW15502   1.816   6.230   1.888
 4868SOL    HW115503   1.802   6.131   1.895
 4868SOL    HW215504   1.860   6.263   1.971
 4869SOL     OW15505   0.226   1.843   2.034
 4869SOL    HW115506   0.274   1.767   1.989
 4869SOL    HW215507   0.253   1.847   2.130
 4870SOL     OW15508   6.061   0.855   0.715
 4870SOL    HW115509   6.100   0.884   0.627
 4870SOL    HW215510   6.032   0.759   0.707
 4871SOL     OW15511   1.803   2.399   5.526
 4871SOL    HW115512   1.861   2.465   5.572
 4871SOL    HW215513   1.810   2.310   5.571
 4872SOL     OW15514   1.819   2.254   2.772
 4872SOL    HW115515   1.755   2.185   2.806
 4872SOL    HW215516   1.913   2.223   2.787
 4873SOL     OW15517   1.189   0.085   5.079
 4873SOL    HW115518   1.240   0.099   5.163
 4873SOL    HW215519   1.170   6.998   5.067
 4874SOL     OW15520   5.923   1.927   4.097
 4874SOL    HW115521   6.003   1.986   4.106
 4874SOL    HW215522   5.898   1.891   4.187
 4875SOL     OW15523   0.091   3.160   0.098
 4875SOL    HW115524   0.114   3.064   0.113
 4875SOL    HW215525   0.168   3.218   0.124
 4876SOL     OW15526   6.900   1.211   0.096
 4876SOL    HW115527   6.831   1.280   0.073
 4876SOL    HW215528   6.991   1.253   0.092
 4877SOL     OW15529   4.477   2.236   1.331
 4877SOL    HW115530   4.387   2.215   1.370
 4877SOL    HW215531   4.501   2.331   1.352
 4878SOL     OW15532   1.152   2.817   1.834
 4878SOL    HW115533   1.238   2.799   1.787
 4878SOL    HW215534   1.075   2.786   1.777
 4879SOL     OW15535   3.783   6.225   3.999
 4879SOL    HW115536   3.728   6.142   4.009
 4879SOL    HW215537   3.725   6.300   3.968
 4880SOL     OW15538   6.619   1.858   6.020
 4880SOL    HW115539   6.537   1.902   5.983
 4880SOL    HW215540   6.623   1.764   5.988
 4881SOL     OW15541   2.862   6.234   6.246
 4881SOL    HW115542   2.882   6.251   6.149
 4881SOL    HW215543   2.882   6.138   6.267
 4882SOL     OW15544   5.563   5.616   6.719
 4882SOL    HW115545   5.518   5.588   6.634
 4882SOL    HW215546   5.580   5.535   6.776
 4883SOL     OW15547   6.065   5.643   0.170
 4883SOL    HW115548   6.040   5.739   0.186
 4883SOL    HW215549   6.110   5.606   0.251
 4884SOL     OW15550   3.442   6.519   1.758
 4884SOL    HW115551   3.422   6.588   1.688
 4884SOL    HW215552   3.538   6.493   1.752
 4885SOL     OW15553   1.749   0.613   2.300
 4885SOL    HW115554   1.820   0.635   2.367
 4885SOL    HW215555   1.662   0.650   2.331
 4886SOL     OW15556   5.904   0.863   5.419
 4886SOL    HW115557   5.877   0.933   5.354
 4886SOL    HW215558   6.001   0.875   5.443
 4887SOL     OW15559   0.222   1.808   4.960
 4887SOL    HW115560   0.311   1.851   4.968
 4887SOL    HW215561   0.212   1.736   5.029
 4888SOL     OW15562   4.481   5.833   1.592
 4888SOL    HW115563   4.495   5.916   1.647
 4888SOL    HW215564   4.548   5.764   1.617
 4889SOL     OW15565   1.677   3.512   6.694
 4889SOL    HW115566   1.729   3.428   6.712
 4889SOL    HW215567   1.588   3.488   6.656
 4890SOL     OW15568   0.379   0.412   4.486
 4890SOL    HW115569   0.465   0.402   4.536
 4890SOL    HW215570   0.333   0.323   4.481
 4891SOL     OW15571   1.137   5.058   0.812
 4891SOL    HW115572   1.069   5.031   0.881
 4891SOL    HW215573   1.091   5.084   0.727
 4892SOL     OW15574   1.776   5.878   2.071
 4892SOL    HW115575   1.743   5.909   1.982
 4892SOL    HW215576   1.724   5.923   2.143
 4893SOL     OW15577   0.052   4.293   6.412
 4893SOL    HW115578   0.074   4.384   6.377
 4893SOL    HW215579   6.976   4.296   6.461
 4894SOL     OW15580   0.857   6.776   2.977
 4894SOL    HW115581   0.817   6.776   2.885
 4894SOL    HW215582   0.903   6.689   2.993
 4895SOL     OW15583   6.230   4.013   6.931
 4895SOL    HW115584   6.325   4.033   6.907
 4895SOL    HW215585   6.180   4.098   6.943
 4896SOL     OW15586   4.056   0.182   4.014
 4896SOL    HW115587   4.144   0.179   4.062
 4896SOL    HW215588   4.014   0.272   4.028
 4897SOL     OW15589   2.730   5.448   6.403
 4897SOL    HW115590   2.777   5.525   6.359
 4897SOL    HW215591   2.644   5.431   6.355
 4898SOL     OW15592   5.239   2.407   4.414
 4898SOL    HW115593   5.231   2.494   4.364
 4898SOL    HW215594   5.323   2.361   4.388
 4899SOL     OW15595   6.001   4.009   4.543
 4899SOL    HW115596   6.094   3.981   4.520
 4899SOL    HW215597   5.937   3.938   4.515
 4900SOL     OW15598   1.016   6.908   4.791
 4900SOL    HW115599   0.924   6.871   4.799
 4900SOL    HW215600   1.016   7.004   4.818
 4901SOL     OW15601   6.252   6.167   3.357
 4901SOL    HW115602   6.211   6.248   3.398
 4901SOL    HW215603   6.184   6.119   3.302
 4902SOL     OW15604   3.592   5.063   0.830
 4902SOL    HW115605   3.636   5.058   0.920
 4902SOL    HW215606   3.526   4.988   0.822
 4903SOL     OW15607   5.990   5.088   6.258
 4903SOL    HW115608   5.904   5.067   6.305
 4903SOL    HW215609   5.973   5.150   6.182
 4904SOL     OW15610   3.006   0.351   3.716
 4904SOL    HW115611   3.089   0.389   3.673
 4904SOL    HW215612   3.025   0.331   3.812
 4905SOL     OW15613   6.483   3.488   2.908
 4905SOL    HW115614   6.478   3.550   2.829
 4905SOL    HW215615   6.534   3.533   2.981
 4906SOL     OW15616   4.718   0.226   1.652
 4906SOL    HW115617   4.640   0.227   1.715
 4906SOL    HW215618   4.780   0.301   1.674
 4907SOL     OW15619   2.595   2.676   1.659
 4907SOL    HW115620   2.501   2.640   1.656
 4907SOL    HW215621   2.644   2.635   1.736
 4908SOL     OW15622   5.126   5.274   6.572
 4908SOL    HW115623   5.183   5.232   6.642
 4908SOL    HW215624   5.089   5.361   6.606
 4909SOL     OW15625   6.297   6.402   5.590
 4909SOL    HW115626   6.214   6.346   5.581
 4909SOL    HW215627   6.313   6.452   5.505
 4910SOL     OW15628   4.941   6.765   5.456
 4910SOL    HW115629   5.014   6.789   5.520
 4910SOL    HW215630   4.856   6.811   5.483
 4911SOL     OW15631   0.215   4.078   6.334
 4911SOL    HW115632   0.288   4.121   6.280
 4911SOL    HW215633   0.161   4.150   6.378
 4912SOL     OW15634   2.176   2.927   1.447
 4912SOL    HW115635   2.252   2.947   1.385
 4912SOL    HW215636   2.104   2.880   1.397
 4913SOL     OW15637   2.905   3.183   2.066
 4913SOL    HW115638   2.924   3.101   2.120
 4913SOL    HW215639   2.913   3.264   2.124
 4914SOL     OW15640   1.287   6.686   2.584
 4914SOL    HW115641   1.349   6.610   2.561
 4914SOL    HW215642   1.276   6.745   2.505
 4915SOL     OW15643   3.621   6.399   3.889
 4915SOL    HW115644   3.701   6.402   3.829
 4915SOL    HW215645   3.577   6.488   3.890
 4916SOL     OW15646   1.099   1.800   1.991
 4916SOL    HW115647   1.040   1.880   1.976
 4916SOL    HW215648   1.180   1.807   1.933
 4917SOL     OW15649   1.225   4.194   6.707
 4917SOL    HW115650   1.276   4.280   6.695
 4917SOL    HW215651   1.247   4.132   6.632
 4918SOL     OW15652   2.658   6.663   3.966
 4918SOL    HW115653   2.715   6.718   4.027
 4918SOL    HW215654   2.562   6.686   3.979
 4919SOL     OW15655   2.444   2.996   1.294
 4919SOL    HW115656   2.528   2.962   1.253
 4919SOL    HW215657   2.454   3.094   1.315
 4920SOL     OW15658   3.195   1.727   6.935
 4920SOL    HW115659   3.134   1.769   6.869
 4920SOL    HW215660   3.232   1.641   6.898
 4921SOL     OW15661   6.594   4.849   2.432
 4921SOL    HW115662   6.686   4.856   2.394
 4921SOL    HW215663   6.556   4.759   2.410
 4922SOL     OW15664   1.086   2.560   6.114
 4922SOL    HW115665   1.088   2.659   6.119
 4922SOL    HW215666   1.051   2.531   6.025
 4923SOL     OW15667   3.138   2.425   6.837
 4923SOL    HW115668   3.159   2.331   6.808
 4923SOL    HW215669   3.189   2.489   6.780
 4924SOL     OW15670   0.498   3.108   4.206
 4924SOL    HW115671   0.456   3.033   4.257
 4924SOL    HW215672   0.571   3.149   4.260
 4925SOL     OW15673   4.197   5.115   5.147
 4925SOL    HW115674   4.206   5.094   5.050
 4925SOL    HW215675   4.220   5.034   5.201
 4926SOL     OW15676   4.103   3.341   0.483
 4926SOL    HW115677   4.105   3.356   0.384
 4926SOL    HW215678   4.030   3.278   0.507
 4927SOL     OW15679   3.059   3.634   1.990
 4927SOL    HW115680   3.105   3.573   1.926
 4927SOL    HW215681   3.076   3.604   2.083
 4928SOL     OW15682   0.154   1.297   0.035
 4928SOL    HW115683   0.244   1.254   0.039
 4928SOL    HW215684   0.125   1.304   6.951
 4929SOL     OW15685   0.227   4.294   4.225
 4929SOL    HW115686   0.220   4.389   4.194
 4929SOL    HW215687   0.320   4.277   4.258
 4930SOL     OW15688   0.319   3.747   0.136
 4930SOL    HW115689   0.243   3.732   0.199
 4930SOL    HW215690   0.395   3.686   0.159
 4931SOL     OW15691   5.528   6.808   1.084
 4931SOL    HW115692   5.569   6.805   1.175
 4931SOL    HW215693   5.586   6.758   1.020
 4932SOL     OW15694   3.546   1.426   1.087
 4932SOL    HW115695   3.528   1.501   1.023
 4932SOL    HW215696   3.641   1.429   1.116
 4933SOL     OW15697   3.033   0.197   5.006
 4933SOL    HW115698   3.034   0.097   5.002
 4933SOL    HW215699   3.120   0.232   4.970
 4934SOL     OW15700   1.809   5.772   5.000
 4934SOL    HW115701   1.750   5.691   4.996
 4934SOL    HW215702   1.824   5.797   5.096
 4935SOL     OW15703   2.198   2.730   0.616
 4935SOL    HW115704   2.126   2.799   0.620
 4935SOL    HW215705   2.168   2.647   0.662
 4936SOL     OW15706   6.329   4.203   1.513
 4936SOL    HW115707   6.371   4.225   1.601
 4936SOL    HW215708   6.391   4.146   1.460
 4937SOL     OW15709   0.627   3.339   4.920
 4937SOL    HW115710   0.721   3.337   4.952
 4937SOL    HW215711   0.565   3.331   4.999
 4938SOL     OW15712   3.594   4.139   1.218
 4938SOL    HW115713   3.617   4.231   1.184
 4938SOL    HW215714   3.671   4.103   1.271
 4939SOL     OW15715   1.092   1.143   1.357
 4939SOL    HW115716   0.993   1.159   1.359
 4939SOL    HW215717   1.127   1.161   1.265
 4940SOL     OW15718   1.228   1.764   5.442
 4940SOL    HW115719   1.249   1.696   5.512
 4940SOL    HW215720   1.313   1.801   5.404
 4941SOL     OW15721   3.975   2.013   5.420
 4941SOL    HW115722   4.044   1.941   5.411
 4941SOL    HW215723   3.892   1.975   5.461
 4942SOL     OW15724   0.154   1.185   2.169
 4942SOL    HW115725   0.186   1.090   2.166
 4942SOL    HW215726   0.230   1.246   2.146
 4943SOL     OW15727   5.025   2.384   6.249
 4943SOL    HW115728   4.959   2.418   6.182
 4943SOL    HW215729   5.015   2.436   6.334
 4944SOL     OW15730   0.976   4.954   0.455
 4944SOL    HW115731   0.991   5.041   0.501
 4944SOL    HW215732   0.946   4.971   0.361
 4945SOL     OW15733   2.241   6.972   6.098
 4945SOL    HW115734   2.265   0.057   6.084
 4945SOL    HW215735   2.188   6.938   6.020
 4946SOL     OW15736   2.907   5.757   0.380
 4946SOL    HW115737   2.985   5.819   0.387
 4946SOL    HW215738   2.862   5.771   0.292
 4947SOL     OW15739   1.145   7.007   1.215
 4947SOL    HW115740   1.204   6.979   1.291
 4947SOL    HW215741   1.178   0.082   1.177
 4948SOL     OW15742   1.473   2.735   2.287
 4948SOL    HW115743   1.480   2.671   2.211
 4948SOL    HW215744   1.384   2.725   2.332
 4949SOL     OW15745   6.223   4.674   6.297
 4949SOL    HW115746   6.283   4.701   6.221
 4949SOL    HW215747   6.128   4.673   6.265
 4950SOL     OW15748   3.930   4.080   6.026
 4950SOL    HW115749   3.927   4.133   5.941
 4950SOL    HW215750   3.848   4.024   6.033
 4951SOL     OW15751   5.240   5.445   3.202
 4951SOL    HW115752   5.251   5.370   3.137
 4951SOL    HW215753   5.167   5.424   3.266
 4952SOL     OW15754   0.878   1.067   6.443
 4952SOL    HW115755   0.891   1.165   6.430
 4952SOL    HW215756   0.936   1.035   6.518
 4953SOL     OW15757   1.700   1.479   6.031
 4953SOL    HW115758   1.722   1.400   5.974
 4953SOL    HW215759   1.604   1.473   6.060
 4954SOL     OW15760   3.318   3.463   5.281
 4954SOL    HW115761   3.249   3.534   5.293
 4954SOL    HW215762   3.276   3.373   5.297
 4955SOL     OW15763   4.228   6.147   0.086
 4955SOL    HW115764   4.218   6.063   0.034
 4955SOL    HW215765   4.297   6.135   0.157
 4956SOL     OW15766   2.348   0.260   4.439
 4956SOL    HW115767   2.409   0.312   4.379
 4956SOL    HW215768   2.277   0.320   4.475
 4957SOL     OW15769   5.824   5.524   0.063
 4957SOL    HW115770   5.851   5.439   0.018
 4957SOL    HW215771   5.899   5.590   0.058
 4958SOL     OW15772   3.573   5.564   0.053
 4958SOL    HW115773   3.636   5.494   0.087
 4958SOL    HW215774   3.480   5.527   0.053
 4959SOL     OW15775   0.298   2.178   3.173
 4959SOL    HW115776   0.266   2.270   3.194
 4959SOL    HW215777   0.396   2.180   3.154
 4960SOL     OW15778   4.725   4.368   4.089
 4960SOL    HW115779   4.802   4.402   4.035
 4960SOL    HW215780   4.686   4.443   4.143
 4961SOL     OW15781   3.670   3.135   2.158
 4961SOL    HW115782   3.768   3.120   2.166
 4961SOL    HW215783   3.652   3.218   2.104
 4962SOL     OW15784   1.664   2.358   0.537
 4962SOL    HW115785   1.669   2.385   0.441
 4962SOL    HW215786   1.683   2.260   0.546
 4963SOL     OW15787   0.338   3.994   7.000
 4963SOL    HW115788   0.308   3.914   0.040
 4963SOL    HW215789   0.429   4.022   0.023
 4964SOL     OW15790   1.528   4.727   3.941
 4964SOL    HW115791   1.593   4.803   3.943
 4964SOL    HW215792   1.496   4.714   3.847
 4965SOL     OW15793   2.346   0.240   3.387
 4965SOL    HW115794   2.429   0.273   3.432
 4965SOL    HW215795   2.324   0.298   3.309
 4966SOL     OW15796   4.319   0.125   5.241
 4966SOL    HW115797   4.330   0.173   5.154
 4966SOL    HW215798   4.390   0.155   5.305
 4967SOL     OW15799   4.515   4.562   3.751
 4967SOL    HW115800   4.417   4.574   3.767
 4967SOL    HW215801   4.566   4.609   3.823
 4968SOL     OW15802   6.851   3.018   3.921
 4968SOL    HW115803   6.812   2.943   3.868
 4968SOL    HW215804   6.793   3.036   4.000
 4969SOL     OW15805   0.488   5.640   4.254
 4969SOL    HW115806   0.392   5.656   4.277
 4969SOL    HW215807   0.511   5.688   4.170
 4970SOL     OW15808   2.080   1.145   1.389
 4970SOL    HW115809   2.050   1.091   1.468
 4970SOL    HW215810   2.175   1.125   1.369
 4971SOL     OW15811   0.132   5.899   1.745
 4971SOL    HW115812   0.126   5.842   1.663
 4971SOL    HW215813   0.191   5.853   1.812
 4972SOL     OW15814   0.164   4.079   0.333
 4972SOL    HW115815   0.086   4.133   0.299
 4972SOL    HW215816   0.131   4.003   0.387
 4973SOL     OW15817   5.226   2.472   6.520
 4973SOL    HW115818   5.292   2.488   6.593
 4973SOL    HW215819   5.257   2.396   6.463
 4974SOL     OW15820   3.284   6.956   5.671
 4974SOL    HW115821   3.260   0.007   5.596
 4974SOL    HW215822   3.299   7.010   5.754
 4975SOL     OW15823   6.099   3.893   1.564
 4975SOL    HW115824   6.050   3.807   1.583
 4975SOL    HW215825   6.039   3.955   1.515
 4976SOL     OW15826   0.820   0.274   3.790
 4976SOL    HW115827   0.757   0.220   3.845
 4976SOL    HW215828   0.909   0.228   3.785
 4977SOL     OW15829   1.494   3.375   5.092
 4977SOL    HW115830   1.570   3.334   5.141
 4977SOL    HW215831   1.475   3.322   5.009
 4978SOL     OW15832   6.092   5.255   4.621
 4978SOL    HW115833   6.124   5.327   4.683
 4978SOL    HW215834   6.045   5.184   4.674
 4979SOL     OW15835   3.188   6.786   6.493
 4979SOL    HW115836   3.104   6.775   6.546
 4979SOL    HW215837   3.170   6.764   6.397
 4980SOL     OW15838   5.827   3.037   3.921
 4980SOL    HW115839   5.848   3.067   3.828
 4980SOL    HW215840   5.734   3.001   3.925
 4981SOL     OW15841   3.911   6.392   3.294
 4981SOL    HW115842   3.863   6.310   3.326
 4981SOL    HW215843   3.984   6.416   3.358
 4982SOL     OW15844   4.513   1.882   4.771
 4982SOL    HW115845   4.413   1.886   4.770
 4982SOL    HW215846   4.549   1.936   4.695
 4983SOL     OW15847   6.084   3.323   2.941
 4983SOL    HW115848   5.986   3.335   2.952
 4983SOL    HW215849   6.108   3.226   2.952
 4984SOL     OW15850   4.942   3.774   5.175
 4984SOL    HW115851   4.944   3.811   5.082
 4984SOL    HW215852   4.855   3.727   5.190
 4985SOL     OW15853   5.635   0.440   2.230
 4985SOL    HW115854   5.615   0.467   2.136
 4985SOL    HW215855   5.578   0.362   2.255
 4986SOL     OW15856   1.620   5.619   1.180
 4986SOL    HW115857   1.582   5.530   1.154
 4986SOL    HW215858   1.678   5.608   1.260
 4987SOL     OW15859   2.073   3.706   2.229
 4987SOL    HW115860   2.063   3.614   2.190
 4987SOL    HW215861   1.982   3.745   2.246
 4988SOL     OW15862   6.263   5.616   4.239
 4988SOL    HW115863   6.300   5.574   4.157
 4988SOL    HW215864   6.225   5.705   4.217
 4989SOL     OW15865   6.765   6.505   3.612
 4989SOL    HW115866   6.714   6.591   3.622
 4989SOL    HW215867   6.746   6.465   3.522
 4990SOL     OW15868   5.106   1.631   5.719
 4990SOL    HW115869   5.150   1.618   5.630
 4990SOL    HW215870   5.021   1.579   5.722
 4991SOL     OW15871   1.970   5.468   5.720
 4991SOL    HW115872   1.910   5.546   5.738
 4991SOL    HW215873   2.018   5.482   5.633
 4992SOL     OW15874   2.205   3.155   5.549
 4992SOL    HW115875   2.212   3.055   5.549
 4992SOL    HW215876   2.262   3.193   5.621
 4993SOL     OW15877   2.457   5.582   3.811
 4993SOL    HW115878   2.452   5.663   3.869
 4993SOL    HW215879   2.470   5.501   3.868
 4994SOL     OW15880   3.240   5.142   5.613
 4994SOL    HW115881   3.144   5.166   5.599
 4994SOL    HW215882   3.292   5.225   5.633
 4995SOL     OW15883   0.355   1.477   5.798
 4995SOL    HW115884   0.423   1.415   5.760
 4995SOL    HW215885   0.302   1.518   5.724
 4996SOL     OW15886   0.143   0.869   4.381
 4996SOL    HW115887   0.092   0.922   4.450
 4996SOL    HW215888   0.126   0.908   4.291
 4997SOL     OW15889   4.218   1.211   0.549
 4997SOL    HW115890   4.160   1.184   0.626
 4997SOL    HW215891   4.231   1.133   0.488
 4998SOL     OW15892   0.836   3.427   3.438
 4998SOL    HW115893   0.922   3.474   3.456
 4998SOL    HW215894   0.760   3.490   3.451
 4999SOL     OW15895   0.407   2.948   3.792
 4999SOL    HW115896   0.492   2.923   3.745
 4999SOL    HW215897   0.337   2.970   3.724
 5000SOL     OW15898   3.143   6.397   3.158
 5000SOL    HW115899   3.235   6.360   3.171
 5000SOL    HW215900   3.137   6.487   3.202
 5001SOL     OW15901   0.295   5.593   3.292
 5001SOL    HW115902   0.229   5.659   3.327
 5001SOL    HW215903   0.380   5.640   3.268
 5002SOL     OW15904   1.111   4.683   3.770
 5002SOL    HW115905   1.204   4.660   3.797
 5002SOL    HW215906   1.103   4.782   3.758
 5003SOL     OW15907   3.516   0.951   1.781
 5003SOL    HW115908   3.593   0.988   1.835
 5003SOL    HW215909   3.542   0.947   1.685
 5004SOL     OW15910   4.394   6.107   0.268
 5004SOL    HW115911   4.450   6.045   0.323
 5004SOL    HW215912   4.411   6.201   0.297
 5005SOL     OW15913   3.841   3.046   0.985
 5005SOL    HW115914   3.893   3.127   1.010
 5005SOL    HW215915   3.898   2.964   1.001
 5006SOL     OW15916   5.150   0.535   2.721
 5006SOL    HW115917   5.136   0.610   2.656
 5006SOL    HW215918   5.205   0.464   2.678
 5007SOL     OW15919   6.147   5.129   2.375
 5007SOL    HW115920   6.213   5.058   2.353
 5007SOL    HW215921   6.156   5.204   2.310
 5008SOL     OW15922   5.037   6.873   3.544
 5008SOL    HW115923   4.965   6.931   3.583
 5008SOL    HW215924   5.095   6.839   3.618
 5009SOL     OW15925   0.389   1.540   6.863
 5009SOL    HW115926   0.296   1.532   6.898
 5009SOL    HW215927   0.454   1.498   6.927
 5010SOL     OW15928   5.066   4.075   0.954
 5010SOL    HW115929   5.163   4.091   0.971
 5010SOL    HW215930   5.027   4.025   1.032
 5011SOL     OW15931   1.705   2.681   6.353
 5011SOL    HW115932   1.718   2.613   6.425
 5011SOL    HW215933   1.641   2.751   6.384
 5012SOL     OW15934   6.302   2.252   6.278
 5012SOL    HW115935   6.296   2.213   6.186
 5012SOL    HW215936   6.281   2.182   6.346
 5013SOL     OW15937   5.518   0.015   5.457
 5013SOL    HW115938   5.576   6.951   5.490
 5013SOL    HW215939   5.558   0.103   5.484
 5014SOL     OW15940   6.075   3.874   0.862
 5014SOL    HW115941   6.167   3.866   0.823
 5014SOL    HW215942   6.064   3.809   0.937
 5015SOL     OW15943   6.166   5.482   4.750
 5015SOL    HW115944   6.219   5.567   4.747
 5015SOL    HW215945   6.068   5.504   4.744
 5016SOL     OW15946   1.602   2.436   6.608
 5016SOL    HW115947   1.528   2.434   6.541
 5016SOL    HW215948   1.584   2.369   6.680
 5017SOL     OW15949   1.196   2.257   2.158
 5017SOL    HW115950   1.124   2.190   2.141
 5017SOL    HW215951   1.176   2.306   2.243
 5018SOL     OW15952   0.845   0.870   0.080
 5018SOL    HW115953   0.788   0.874   0.162
 5018SOL    HW215954   0.940   0.856   0.107
 5019SOL     OW15955   1.490   4.006   4.302
 5019SOL    HW115956   1.463   3.925   4.354
 5019SOL    HW215957   1.586   4.026   4.318
 5020SOL     OW15958   1.594   6.980   3.976
 5020SOL    HW115959   1.660   6.945   4.043
 5020SOL    HW215960   1.504   6.942   3.995
 5021SOL     OW15961   1.839   0.389   1.538
 5021SOL    HW115962   1.865   0.293   1.550
 5021SOL    HW215963   1.772   0.414   1.608
 5022SOL     OW15964   6.878   2.688   0.817
 5022SOL    HW115965   6.890   2.590   0.801
 5022SOL    HW215966   6.924   2.713   0.902
 5023SOL     OW15967   0.244   3.187   2.608
 5023SOL    HW115968   0.261   3.181   2.510
 5023SOL    HW215969   0.150   3.157   2.627
 5024SOL     OW15970   4.602   4.375   6.924
 5024SOL    HW115971   4.509   4.351   6.951
 5024SOL    HW215972   4.638   4.304   6.863
 5025SOL     OW15973   5.127   1.868   4.893
 5025SOL    HW115974   5.119   1.777   4.934
 5025SOL    HW215975   5.207   1.915   4.932
 5026SOL     OW15976   5.195   6.038   5.002
 5026SOL    HW115977   5.177   6.004   4.909
 5026SOL    HW215978   5.108   6.064   5.044
 5027SOL     OW15979   4.928   6.563   0.855
 5027SOL    HW115980   4.915   6.590   0.950
 5027SOL    HW215981   4.906   6.466   0.845
 5028SOL     OW15982   6.338   1.585   2.809
 5028SOL    HW115983   6.370   1.582   2.714
 5028SOL    HW215984   6.248   1.628   2.813
 5029SOL     OW15985   5.447   2.675   2.307
 5029SOL    HW115986   5.417   2.661   2.213
 5029SOL    HW215987   5.370   2.703   2.364
 5030SOL     OW15988   0.490   3.457   0.792
 5030SOL    HW115989   0.513   3.485   0.699
 5030SOL    HW215990   0.529   3.521   0.857
 5031SOL     OW15991   6.377   0.220   6.115
 5031SOL    HW115992   6.470   0.202   6.083
 5031SOL    HW215993   6.375   0.216   6.215
 5032SOL     OW15994   2.611   4.214   6.112
 5032SOL    HW115995   2.613   4.303   6.156
 5032SOL    HW215996   2.538   4.211   6.045
 5033SOL     OW15997   1.850   6.212   5.460
 5033SOL    HW115998   1.773   6.219   5.397
 5033SOL    HW215999   1.936   6.221   5.409
 5034SOL     OW16000   3.955   5.938   4.039
 5034SOL    HW116001   3.881   5.874   4.017
 5034SOL    HW216002   3.958   6.011   3.970
 5035SOL     OW16003   2.046   3.834   3.359
 5035SOL    HW116004   1.981   3.839   3.435
 5035SOL    HW216005   2.007   3.775   3.288
 5036SOL     OW16006   1.092   3.647   4.507
 5036SOL    HW116007   1.109   3.561   4.459
 5036SOL    HW216008   1.092   3.722   4.441
 5037SOL     OW16009   5.096   4.946   1.170
 5037SOL    HW116010   5.016   4.981   1.218
 5037SOL    HW216011   5.068   4.897   1.088
 5038SOL     OW16012   2.878   3.530   3.814
 5038SOL    HW116013   2.870   3.530   3.913
 5038SOL    HW216014   2.906   3.621   3.783
 5039SOL     OW16015   0.478   3.718   6.867
 5039SOL    HW116016   0.427   3.763   6.941
 5039SOL    HW216017   0.427   3.637   6.837
 5040SOL     OW16018   0.319   1.728   5.373
 5040SOL    HW116019   0.279   1.676   5.297
 5040SOL    HW216020   0.412   1.696   5.391
 5041SOL     OW16021   6.573   2.013   2.077
 5041SOL    HW116022   6.604   1.959   1.999
 5041SOL    HW216023   6.634   2.091   2.089
 5042SOL     OW16024   1.142   2.002   6.048
 5042SOL    HW116025   1.217   2.039   5.994
 5042SOL    HW216026   1.078   2.076   6.071
 5043SOL     OW16027   2.893   6.715   1.824
 5043SOL    HW116028   2.924   6.733   1.731
 5043SOL    HW216029   2.969   6.726   1.888
 5044SOL     OW16030   0.057   6.046   6.859
 5044SOL    HW116031   0.128   6.039   6.928
 5044SOL    HW216032   0.029   6.142   6.850
 5045SOL     OW16033   5.708   2.859   0.963
 5045SOL    HW116034   5.619   2.838   0.921
 5045SOL    HW216035   5.731   2.955   0.944
 5046SOL     OW16036   3.921   3.068   2.226
 5046SOL    HW116037   3.990   3.134   2.258
 5046SOL    HW216038   3.953   3.026   2.141
 5047SOL     OW16039   1.855   4.210   3.375
 5047SOL    HW116040   1.869   4.289   3.314
 5047SOL    HW216041   1.944   4.180   3.410
 5048SOL     OW16042   2.675   0.269   5.791
 5048SOL    HW116043   2.673   0.299   5.886
 5048SOL    HW216044   2.635   0.340   5.733
 5049SOL     OW16045   4.005   1.324   6.582
 5049SOL    HW116046   3.995   1.385   6.504
 5049SOL    HW216047   4.042   1.376   6.660
 5050SOL     OW16048   1.723   0.554   0.712
 5050SOL    HW116049   1.663   0.502   0.651
 5050SOL    HW216050   1.671   0.626   0.757
 5051SOL     OW16051   4.683   4.874   0.918
 5051SOL    HW116052   4.739   4.793   0.903
 5051SOL    HW216053   4.602   4.850   0.971
 5052SOL     OW16054   2.056   3.597   4.511
 5052SOL    HW116055   2.070   3.525   4.579
 5052SOL    HW216056   2.105   3.572   4.427
 5053SOL     OW16057   6.296   0.537   0.786
 5053SOL    HW116058   6.388   0.500   0.792
 5053SOL    HW216059   6.287   0.617   0.846
 5054SOL     OW16060   4.204   5.247   3.725
 5054SOL    HW116061   4.163   5.257   3.634
 5054SOL    HW216062   4.302   5.266   3.720
 5055SOL     OW16063   0.234   3.804   5.425
 5055SOL    HW116064   0.171   3.789   5.502
 5055SOL    HW216065   0.193   3.870   5.361
 5056SOL     OW16066   6.140   4.587   3.414
 5056SOL    HW116067   6.229   4.563   3.376
 5056SOL    HW216068   6.149   4.666   3.474
 5057SOL     OW16069   6.779   6.076   2.363
 5057SOL    HW116070   6.841   6.095   2.439
 5057SOL    HW216071   6.832   6.064   2.279
 5058SOL     OW16072   2.365   5.600   6.124
 5058SOL    HW116073   2.306   5.623   6.046
 5058SOL    HW216074   2.368   5.501   6.136
 5059SOL     OW16075   6.682   0.843   2.106
 5059SOL    HW116076   6.754   0.787   2.065
 5059SOL    HW216077   6.699   0.940   2.085
 5060SOL     OW16078   6.948   2.369   6.665
 5060SOL    HW116079   6.861   2.331   6.633
 5060SOL    HW216080   7.009   2.294   6.691
 5061SOL     OW16081   5.458   3.411   0.678
 5061SOL    HW116082   5.363   3.378   0.684
 5061SOL    HW216083   5.501   3.407   0.768
 5062SOL     OW16084   6.797   0.252   0.196
 5062SOL    HW116085   6.891   0.240   0.164
 5062SOL    HW216086   6.795   0.318   0.270
 5063SOL     OW16087   1.386   6.433   2.515
 5063SOL    HW116088   1.476   6.393   2.534
 5063SOL    HW216089   1.317   6.383   2.566
 5064SOL     OW16090   5.012   3.922   6.991
 5064SOL    HW116091   5.065   3.845   6.955
 5064SOL    HW216092   4.924   3.927   6.943
 5065SOL     OW16093   3.077   6.717   6.249
 5065SOL    HW116094   3.097   6.633   6.199
 5065SOL    HW216095   3.031   6.782   6.189
 5066SOL     OW16096   4.513   5.031   0.773
 5066SOL    HW116097   4.452   4.982   0.711
 5066SOL    HW216098   4.589   4.973   0.799
 5067SOL     OW16099   5.340   1.244   6.496
 5067SOL    HW116100   5.313   1.157   6.455
 5067SOL    HW216101   5.282   1.317   6.459
 5068SOL     OW16102   3.730   4.807   1.046
 5068SOL    HW116103   3.735   4.772   0.953
 5068SOL    HW216104   3.639   4.790   1.084
 5069SOL     OW16105   6.656   5.215   3.120
 5069SOL    HW116106   6.583   5.226   3.187
 5069SOL    HW216107   6.687   5.306   3.090
 5070SOL     OW16108   4.839   2.645   3.709
 5070SOL    HW116109   4.828   2.663   3.807
 5070SOL    HW216110   4.749   2.645   3.665
 5071SOL     OW16111   4.902   0.882   1.034
 5071SOL    HW116112   4.821   0.909   0.983
 5071SOL    HW216113   4.973   0.952   1.025
 5072SOL     OW16114   0.785   3.557   1.646
 5072SOL    HW116115   0.754   3.584   1.737
 5072SOL    HW216116   0.819   3.637   1.597
 5073SOL     OW16117   3.891   2.101   3.334
 5073SOL    HW116118   3.981   2.143   3.325
 5073SOL    HW216119   3.882   2.061   3.425
 5074SOL     OW16120   4.130   4.560   5.317
 5074SOL    HW116121   4.121   4.646   5.267
 5074SOL    HW216122   4.216   4.515   5.292
 5075SOL     OW16123   6.901   6.881   3.663
 5075SOL    HW116124   6.936   6.975   3.670
 5075SOL    HW216125   6.962   6.819   3.713
 5076SOL     OW16126   4.765   0.384   0.958
 5076SOL    HW116127   4.674   0.344   0.965
 5076SOL    HW216128   4.788   0.397   0.862
 5077SOL     OW16129   6.851   2.529   2.540
 5077SOL    HW116130   6.901   2.474   2.606
 5077SOL    HW216131   6.858   2.626   2.565
 5078SOL     OW16132   6.830   1.069   4.558
 5078SOL    HW116133   6.787   1.075   4.649
 5078SOL    HW216134   6.927   1.048   4.569
 5079SOL     OW16135   4.759   4.712   4.798
 5079SOL    HW116136   4.856   4.706   4.774
 5079SOL    HW216137   4.709   4.639   4.752
 5080SOL     OW16138   5.684   1.126   6.106
 5080SOL    HW116139   5.619   1.088   6.041
 5080SOL    HW216140   5.756   1.175   6.057
 5081SOL     OW16141   2.943   3.312   2.582
 5081SOL    HW116142   2.844   3.306   2.596
 5081SOL    HW216143   2.990   3.265   2.656
 5082SOL     OW16144   0.516   1.301   5.689
 5082SOL    HW116145   0.570   1.234   5.739
 5082SOL    HW216146   0.525   1.285   5.591
 5083SOL     OW16147   0.642   4.133   2.334
 5083SOL    HW116148   0.622   4.083   2.250
 5083SOL    HW216149   0.732   4.103   2.368
 5084SOL     OW16150   1.065   5.705   2.392
 5084SOL    HW116151   1.019   5.771   2.332
 5084SOL    HW216152   1.161   5.731   2.401
 5085SOL     OW16153   6.810   3.671   6.909
 5085SOL    HW116154   6.778   3.623   6.827
 5085SOL    HW216155   6.769   3.763   6.911
 5086SOL     OW16156   6.312   5.373   4.952
 5086SOL    HW116157   6.361   5.312   4.889
 5086SOL    HW216158   6.256   5.436   4.899
 5087SOL     OW16159   5.644   5.341   5.381
 5087SOL    HW116160   5.668   5.245   5.374
 5087SOL    HW216161   5.726   5.397   5.370
 5088SOL     OW16162   6.556   1.040   6.860
 5088SOL    HW116163   6.599   0.983   6.790
 5088SOL    HW216164   6.487   0.987   6.909
 5089SOL     OW16165   5.535   2.554   4.062
 5089SOL    HW116166   5.464   2.483   4.061
 5089SOL    HW216167   5.598   2.537   4.138
 5090SOL     OW16168   1.254   5.203   0.332
 5090SOL    HW116169   1.213   5.179   0.420
 5090SOL    HW216170   1.190   5.259   0.280
 5091SOL     OW16171   0.951   5.940   3.318
 5091SOL    HW116172   0.868   5.897   3.353
 5091SOL    HW216173   1.005   5.871   3.269
 5092SOL     OW16174   3.450   2.857   1.469
 5092SOL    HW116175   3.501   2.834   1.552
 5092SOL    HW216176   3.500   2.824   1.389
 5093SOL     OW16177   0.822   1.274   1.733
 5093SOL    HW116178   0.825   1.176   1.716
 5093SOL    HW216179   0.794   1.322   1.650
 5094SOL     OW16180   0.204   0.124   6.410
 5094SOL    HW116181   0.175   0.062   6.483
 5094SOL    HW216182   0.213   0.072   6.324
 5095SOL     OW16183   3.264   0.325   5.160
 5095SOL    HW116184   3.177   0.358   5.195
 5095SOL    HW216185   3.332   0.399   5.162
 5096SOL     OW16186   3.576   6.151   2.940
 5096SOL    HW116187   3.497   6.090   2.939
 5096SOL    HW216188   3.554   6.234   2.889
 5097SOL     OW16189   1.231   1.963   6.585
 5097SOL    HW116190   1.167   1.919   6.649
 5097SOL    HW216191   1.231   1.913   6.499
 5098SOL     OW16192   0.205   2.698   3.035
 5098SOL    HW116193   0.296   2.669   3.068
 5098SOL    HW216194   0.173   2.775   3.090
 5099SOL     OW16195   0.391   1.155   4.308
 5099SOL    HW116196   0.329   1.083   4.274
 5099SOL    HW216197   0.485   1.123   4.302
 5100SOL     OW16198   4.516   5.158   5.741
 5100SOL    HW116199   4.495   5.248   5.778
 5100SOL    HW216200   4.437   5.097   5.754
 5101SOL     OW16201   5.705   6.109   0.836
 5101SOL    HW116202   5.708   6.131   0.739
 5101SOL    HW216203   5.651   6.026   0.851
 5102SOL     OW16204   3.194   5.581   4.037
 5102SOL    HW116205   3.135   5.505   4.007
 5102SOL    HW216206   3.184   5.593   4.135
 5103SOL     OW16207   1.219   1.385   3.858
 5103SOL    HW116208   1.275   1.420   3.932
 5103SOL    HW216209   1.158   1.458   3.825
 5104SOL     OW16210   0.817   0.760   0.553
 5104SOL    HW116211   0.828   0.675   0.605
 5104SOL    HW216212   0.830   0.838   0.614
 5105SOL     OW16213   1.047   2.809   6.770
 5105SOL    HW116214   0.953   2.775   6.767
 5105SOL    HW216215   1.061   2.876   6.697
 5106SOL     OW16216   2.179   6.847   2.458
 5106SOL    HW116217   2.194   6.748   2.467
 5106SOL    HW216218   2.172   6.872   2.362
 5107SOL     OW16219   2.297   6.850   6.507
 5107SOL    HW116220   2.367   6.875   6.440
 5107SOL    HW216221   2.236   6.928   6.522
 5108SOL     OW16222   3.391   4.139   4.476
 5108SOL    HW116223   3.407   4.045   4.446
 5108SOL    HW216224   3.332   4.186   4.410
 5109SOL     OW16225   6.918   1.902   2.746
 5109SOL    HW116226   7.010   1.907   2.707
 5109SOL    HW216227   6.861   1.841   2.689
 5110SOL     OW16228   2.541   6.217   5.369
 5110SOL    HW116229   2.534   6.124   5.406
 5110SOL    HW216230   2.622   6.223   5.310
 5111SOL     OW16231   1.540   0.443   6.652
 5111SOL    HW116232   1.576   0.427   6.744
 5111SOL    HW216233   1.604   0.404   6.585
 5112SOL     OW16234   0.053   0.029   2.636
 5112SOL    HW116235   0.153   0.027   2.640
 5112SOL    HW216236   0.019   0.101   2.696
 5113SOL     OW16237   0.858   0.729   6.179
 5113SOL    HW116238   0.820   0.822   6.173
 5113SOL    HW216239   0.908   0.719   6.265
 5114SOL     OW16240   4.590   5.716   6.547
 5114SOL    HW116241   4.581   5.663   6.463
 5114SOL    HW216242   4.663   5.784   6.536
 5115SOL     OW16243   2.636   3.814   5.276
 5115SOL    HW116244   2.722   3.790   5.230
 5115SOL    HW216245   2.581   3.870   5.214
 5116SOL     OW16246   6.763   4.089   1.193
 5116SOL    HW116247   6.747   4.173   1.140
 5116SOL    HW216248   6.862   4.070   1.195
 5117SOL     OW16249   2.147   4.905   2.697
 5117SOL    HW116250   2.105   4.819   2.727
 5117SOL    HW216251   2.246   4.899   2.704
 5118SOL     OW16252   4.070   6.878   1.651
 5118SOL    HW116253   3.992   6.931   1.683
 5118SOL    HW216254   4.143   6.940   1.623
 5119SOL     OW16255   6.042   0.759   2.335
 5119SOL    HW116256   5.943   0.756   2.348
 5119SOL    HW216257   6.063   0.814   2.254
 5120SOL     OW16258   3.241   1.609   2.045
 5120SOL    HW116259   3.143   1.597   2.062
 5120SOL    HW216260   3.283   1.520   2.025
 5121SOL     OW16261   0.595   3.813   4.261
 5121SOL    HW116262   0.560   3.767   4.343
 5121SOL    HW216263   0.521   3.864   4.217
 5122SOL     OW16264   2.230   5.319   3.224
 5122SOL    HW116265   2.206   5.410   3.258
 5122SOL    HW216266   2.162   5.290   3.156
 5123SOL     OW16267   5.958   3.203   2.312
 5123SOL    HW116268   5.935   3.112   2.346
 5123SOL    HW216269   6.040   3.236   2.359
 5124SOL     OW16270   3.272   6.107   0.632
 5124SOL    HW116271   3.370   6.091   0.636
 5124SOL    HW216272   3.238   6.130   0.723
 5125SOL     OW16273   0.719   2.023   6.137
 5125SOL    HW116274   0.625   1.995   6.156
 5125SOL    HW216275   0.779   1.943   6.140
 5126SOL     OW16276   4.174   1.733   0.288
 5126SOL    HW116277   4.108   1.808   0.282
 5126SOL    HW216278   4.128   1.650   0.318
 5127SOL     OW16279   4.842   3.208   6.520
 5127SOL    HW116280   4.888   3.223   6.433
 5127SOL    HW216281   4.757   3.158   6.505
 5128SOL     OW16282   0.319   0.623   6.414
 5128SOL    HW116283   0.403   0.584   6.376
 5128SOL    HW216284   0.267   0.668   6.341
 5129SOL     OW16285   4.956   3.438   3.742
 5129SOL    HW116286   5.056   3.437   3.739
 5129SOL    HW216287   4.920   3.455   3.650
 5130SOL     OW16288   2.561   6.428   4.929
 5130SOL    HW116289   2.516   6.452   5.015
 5130SOL    HW216290   2.640   6.488   4.915
 5131SOL     OW16291   3.383   4.946   2.950
 5131SOL    HW116292   3.413   4.947   3.045
 5131SOL    HW216293   3.293   4.903   2.944
 5132SOL     OW16294   3.921   1.923   6.468
 5132SOL    HW116295   3.943   1.965   6.556
 5132SOL    HW216296   3.837   1.869   6.477
 5133SOL     OW16297   4.221   4.465   6.157
 5133SOL    HW116298   4.145   4.409   6.191
 5133SOL    HW216299   4.229   4.453   6.058
 5134SOL     OW16300   5.759   5.919   0.550
 5134SOL    HW116301   5.790   5.930   0.455
 5134SOL    HW216302   5.828   5.870   0.602
 5135SOL     OW16303   0.059   3.317   1.929
 5135SOL    HW116304   7.010   3.237   1.931
 5135SOL    HW216305   0.129   3.308   2.001
 5136SOL     OW16306   0.266   0.485   4.246
 5136SOL    HW116307   0.317   0.453   4.325
 5136SOL    HW216308   0.258   0.585   4.250
 5137SOL     OW16309   5.466   0.270   2.814
 5137SOL    HW116310   5.406   0.196   2.844
 5137SOL    HW216311   5.441   0.297   2.721
 5138SOL     OW16312   3.160   3.971   2.265
 5138SOL    HW116313   3.210   4.055   2.284
 5138SOL    HW216314   3.220   3.893   2.279
 5139SOL     OW16315   5.192   0.295   4.937
 5139SOL    HW116316   5.291   0.282   4.927
 5139SOL    HW216317   5.148   0.207   4.954
 5140SOL     OW16318   2.849   3.760   6.275
 5140SOL    HW116319   2.899   3.781   6.191
 5140SOL    HW216320   2.803   3.842   6.308
 5141SOL     OW16321   0.896   3.234   1.226
 5141SOL    HW116322   0.905   3.296   1.304
 5141SOL    HW216323   0.969   3.253   1.160
 5142SOL     OW16324   0.028   6.804   2.847
 5142SOL    HW116325   6.992   6.839   2.766
 5142SOL    HW216326   7.000   6.846   2.929
 5143SOL     OW16327   6.591   6.615   2.638
 5143SOL    HW116328   6.539   6.678   2.580
 5143SOL    HW216329   6.531   6.544   2.672
 5144SOL     OW16330   2.080   2.727   5.349
 5144SOL    HW116331   2.168   2.706   5.392
 5144SOL    HW216332   2.094   2.790   5.273
 5145SOL     OW16333   1.515   5.404   5.459
 5145SOL    HW116334   1.474   5.320   5.423
 5145SOL    HW216335   1.614   5.390   5.469
 5146SOL     OW16336   6.278   5.544   6.795
 5146SOL    HW116337   6.197   5.602   6.794
 5146SOL    HW216338   6.264   5.466   6.734
 5147SOL     OW16339   5.272   1.531   3.656
 5147SOL    HW116340   5.282   1.563   3.562
 5147SOL    HW216341   5.216   1.595   3.708
 5148SOL     OW16342   6.267   1.786   0.814
 5148SOL    HW116343   6.329   1.806   0.738
 5148SOL    HW216344   6.233   1.692   0.804
 5149SOL     OW16345   3.347   6.007   3.779
 5149SOL    HW116346   3.396   6.091   3.755
 5149SOL    HW216347   3.265   6.030   3.831
 5150SOL     OW16348   6.790   0.598   3.568
 5150SOL    HW116349   6.820   0.504   3.559
 5150SOL    HW216350   6.772   0.618   3.665
 5151SOL     OW16351   5.552   4.958   1.904
 5151SOL    HW116352   5.546   4.864   1.939
 5151SOL    HW216353   5.461   4.990   1.881
 5152SOL     OW16354   2.211   2.086   0.384
 5152SOL    HW116355   2.209   2.109   0.481
 5152SOL    HW216356   2.253   2.160   0.333
 5153SOL     OW16357   2.661   2.671   0.378
 5153SOL    HW116358   2.639   2.659   0.281
 5153SOL    HW216359   2.675   2.582   0.420
 5154SOL     OW16360   0.392   2.594   0.256
 5154SOL    HW116361   0.453   2.626   0.328
 5154SOL    HW216362   0.442   2.588   0.170
 5155SOL     OW16363   1.642   0.892   0.092
 5155SOL    HW116364   1.691   0.975   0.067
 5155SOL    HW216365   1.615   0.843   0.009
 5156SOL     OW16366   5.168   5.398   6.323
 5156SOL    HW116367   5.233   5.470   6.296
 5156SOL    HW216368   5.172   5.385   6.422
 5157SOL     OW16369   3.360   1.374   2.022
 5157SOL    HW116370   3.279   1.316   2.015
 5157SOL    HW216371   3.427   1.345   1.954
 5158SOL     OW16372   1.442   2.349   2.797
 5158SOL    HW116373   1.390   2.435   2.791
 5158SOL    HW216374   1.527   2.366   2.846
 5159SOL     OW16375   6.645   2.912   5.118
 5159SOL    HW116376   6.693   2.894   5.032
 5159SOL    HW216377   6.711   2.924   5.192
 5160SOL     OW16378   6.692   0.363   2.716
 5160SOL    HW116379   6.613   0.310   2.687
 5160SOL    HW216380   6.662   0.452   2.750
 5161SOL     OW16381   1.124   1.679   6.498
 5161SOL    HW116382   1.076   1.603   6.454
 5161SOL    HW216383   1.192   1.644   6.563
 5162SOL     OW16384   0.380   6.762   5.440
 5162SOL    HW116385   0.410   6.847   5.483
 5162SOL    HW216386   0.313   6.784   5.368
 5163SOL     OW16387   3.285   0.783   1.619
 5163SOL    HW116388   3.342   0.865   1.615
 5163SOL    HW216389   3.189   0.810   1.611
 5164SOL     OW16390   2.771   3.320   0.414
 5164SOL    HW116391   2.787   3.389   0.485
 5164SOL    HW216392   2.674   3.295   0.414
 5165SOL     OW16393   1.320   5.257   5.681
 5165SOL    HW116394   1.252   5.288   5.748
 5165SOL    HW216395   1.296   5.291   5.591
 5166SOL     OW16396   0.030   5.794   5.556
 5166SOL    HW116397   0.075   5.883   5.559
 5166SOL    HW216398   6.942   5.805   5.564
 5167SOL     OW16399   6.223   3.868   6.022
 5167SOL    HW116400   6.227   3.946   6.084
 5167SOL    HW216401   6.227   3.783   6.074
 5168SOL     OW16402   4.863   1.978   3.056
 5168SOL    HW116403   4.867   1.985   3.156
 5168SOL    HW216404   4.806   2.052   3.020
 5169SOL     OW16405   4.992   5.499   4.466
 5169SOL    HW116406   4.993   5.460   4.374
 5169SOL    HW216407   4.921   5.455   4.521
 5170SOL     OW16408   1.958   3.869   6.133
 5170SOL    HW116409   1.946   3.872   6.232
 5170SOL    HW216410   1.904   3.795   6.094
 5171SOL     OW16411   2.324   6.655   5.914
 5171SOL    HW116412   2.274   6.733   5.877
 5171SOL    HW216413   2.312   6.652   6.013
 5172SOL     OW16414   5.908   5.701   6.044
 5172SOL    HW116415   5.870   5.637   6.111
 5172SOL    HW216416   6.008   5.699   6.050
 5173SOL     OW16417   4.132   6.110   4.238
 5173SOL    HW116418   4.227   6.084   4.258
 5173SOL    HW216419   4.083   6.030   4.204
 5174SOL     OW16420   0.817   6.072   2.586
 5174SOL    HW116421   0.891   6.094   2.650
 5174SOL    HW216422   0.783   5.980   2.604
 5175SOL     OW16423   2.450   1.171   6.789
 5175SOL    HW116424   2.444   1.071   6.786
 5175SOL    HW216425   2.361   1.210   6.765
 5176SOL     OW16426   6.089   6.216   6.236
 5176SOL    HW116427   6.125   6.310   6.240
 5176SOL    HW216428   6.035   6.197   6.318
 5177SOL     OW16429   5.447   5.942   0.866
 5177SOL    HW116430   5.350   5.920   0.871
 5177SOL    HW216431   5.485   5.944   0.958
 5178SOL     OW16432   0.474   3.864   1.180
 5178SOL    HW116433   0.418   3.938   1.216
 5178SOL    HW216434   0.437   3.776   1.210
 5179SOL     OW16435   4.448   5.163   2.594
 5179SOL    HW116436   4.496   5.180   2.508
 5179SOL    HW216437   4.515   5.155   2.668
 5180SOL     OW16438   2.375   4.870   2.118
 5180SOL    HW116439   2.303   4.804   2.142
 5180SOL    HW216440   2.401   4.856   2.022
 5181SOL     OW16441   6.797   1.497   5.783
 5181SOL    HW116442   6.737   1.531   5.856
 5181SOL    HW216443   6.741   1.467   5.706
 5182SOL     OW16444   2.267   6.508   2.062
 5182SOL    HW116445   2.314   6.597   2.062
 5182SOL    HW216446   2.169   6.523   2.044
 5183SOL     OW16447   5.027   1.888   3.432
 5183SOL    HW116448   5.115   1.889   3.385
 5183SOL    HW216449   5.002   1.981   3.459
 5184SOL     OW16450   2.971   1.538   2.438
 5184SOL    HW116451   2.916   1.610   2.480
 5184SOL    HW216452   3.066   1.547   2.465
 5185SOL     OW16453   6.379   0.293   1.618
 5185SOL    HW116454   6.399   0.203   1.579
 5185SOL    HW216455   6.282   0.312   1.611
 5186SOL     OW16456   6.201   2.305   6.773
 5186SOL    HW116457   6.223   2.370   6.845
 5186SOL    HW216458   6.232   2.340   6.685
 5187SOL     OW16459   1.384   4.242   4.680
 5187SOL    HW116460   1.316   4.199   4.739
 5187SOL    HW216461   1.376   4.205   4.587
 5188SOL     OW16462   7.008   0.091   1.429
 5188SOL    HW116463   0.084   0.085   1.379
 5188SOL    HW216464   6.935   0.048   1.375
 5189SOL     OW16465   5.128   5.873   6.731
 5189SOL    HW116466   5.189   5.817   6.674
 5189SOL    HW216467   5.062   5.921   6.672
 5190SOL     OW16468   1.502   5.085   0.823
 5190SOL    HW116469   1.495   5.060   0.919
 5190SOL    HW216470   1.510   5.184   0.814
 5191SOL     OW16471   2.819   4.159   1.576
 5191SOL    HW116472   2.751   4.088   1.594
 5191SOL    HW216473   2.901   4.142   1.630
 5192SOL     OW16474   0.601   4.490   2.651
 5192SOL    HW116475   0.527   4.503   2.586
 5192SOL    HW216476   0.583   4.409   2.708
 5193SOL     OW16477   3.820   0.605   4.931
 5193SOL    HW116478   3.912   0.587   4.966
 5193SOL    HW216479   3.763   0.524   4.944
 5194SOL     OW16480   4.691   1.648   5.111
 5194SOL    HW116481   4.716   1.582   5.040
 5194SOL    HW216482   4.769   1.665   5.170
 5195SOL     OW16483   1.763   1.297   5.854
 5195SOL    HW116484   1.860   1.294   5.831
 5195SOL    HW216485   1.708   1.271   5.775
 5196SOL     OW16486   5.891   6.256   3.219
 5196SOL    HW116487   5.823   6.234   3.289
 5196SOL    HW216488   5.845   6.268   3.131
 5197SOL     OW16489   1.941   3.720   5.302
 5197SOL    HW116490   2.012   3.678   5.246
 5197SOL    HW216491   1.942   3.679   5.394
 5198SOL     OW16492   6.053   5.681   3.732
 5198SOL    HW116493   6.062   5.779   3.751
 5198SOL    HW216494   6.044   5.631   3.818
 5199SOL     OW16495   0.821   5.308   1.334
 5199SOL    HW116496   0.794   5.240   1.266
 5199SOL    HW216497   0.867   5.263   1.411
 5200SOL     OW16498   6.386   3.701   5.068
 5200SOL    HW116499   6.304   3.687   5.123
 5200SOL    HW216500   6.450   3.760   5.117
 5201SOL     OW16501   0.910   6.348   4.422
 5201SOL    HW116502   0.877   6.321   4.332
 5201SOL    HW216503   0.892   6.274   4.488
 5202SOL     OW16504   0.125   4.198   1.399
 5202SOL    HW116505   0.116   4.099   1.413
 5202SOL    HW216506   0.070   4.246   1.467
 5203SOL     OW16507   6.439   3.127   6.891
 5203SOL    HW116508   6.486   3.178   6.818
 5203SOL    HW216509   6.427   3.186   6.970
 5204SOL     OW16510   5.623   5.352   6.770
 5204SOL    HW116511   5.601   5.264   6.812
 5204SOL    HW216512   5.705   5.343   6.713
 5205SOL     OW16513   2.920   6.152   0.387
 5205SOL    HW116514   2.911   6.126   0.291
 5205SOL    HW216515   2.863   6.093   0.444
 5206SOL     OW16516   0.408   4.424   4.945
 5206SOL    HW116517   0.486   4.480   4.918
 5206SOL    HW216518   0.387   4.440   5.041
 5207SOL     OW16519   1.300   5.258   2.169
 5207SOL    HW116520   1.242   5.318   2.226
 5207SOL    HW216521   1.255   5.242   2.081
 5208SOL     OW16522   5.158   1.429   0.089
 5208SOL    HW116523   5.233   1.368   0.115
 5208SOL    HW216524   5.138   1.417   7.002
 5209SOL     OW16525   5.857   4.879   3.027
 5209SOL    HW116526   5.822   4.810   2.964
 5209SOL    HW216527   5.930   4.840   3.082
 5210SOL     OW16528   5.068   3.848   3.161
 5210SOL    HW116529   5.059   3.945   3.140
 5210SOL    HW216530   5.102   3.837   3.255
 5211SOL     OW16531   3.434   3.817   2.493
 5211SOL    HW116532   3.468   3.760   2.568
 5211SOL    HW216533   3.444   3.914   2.517
 5212SOL     OW16534   1.021   6.846   6.663
 5212SOL    HW116535   1.020   6.909   6.740
 5212SOL    HW216536   1.021   6.752   6.696
 5213SOL     OW16537   4.698   2.186   6.026
 5213SOL    HW116538   4.695   2.199   6.125
 5213SOL    HW216539   4.781   2.228   5.989
 5214SOL     OW16540   4.578   2.063   6.979
 5214SOL    HW116541   4.573   2.007   0.051
 5214SOL    HW216542   4.587   2.159   7.005
 5215SOL     OW16543   5.543   5.601   3.764
 5215SOL    HW116544   5.528   5.532   3.693
 5215SOL    HW216545   5.571   5.556   3.849
 5216SOL     OW16546   4.457   6.055   1.338
 5216SOL    HW116547   4.368   6.017   1.364
 5216SOL    HW216548   4.522   5.980   1.324
 5217SOL     OW16549   3.187   4.928   3.441
 5217SOL    HW116550   3.221   4.954   3.532
 5217SOL    HW216551   3.099   4.972   3.425
 5218SOL     OW16552   1.805   0.234   3.762
 5218SOL    HW116553   1.872   0.288   3.813
 5218SOL    HW216554   1.843   0.144   3.742
 5219SOL     OW16555   3.403   0.289   1.304
 5219SOL    HW116556   3.411   0.216   1.371
 5219SOL    HW216557   3.437   0.374   1.343
 5220SOL     OW16558   0.862   6.640   2.213
 5220SOL    HW116559   0.799   6.654   2.290
 5220SOL    HW216560   0.835   6.697   2.136
 5221SOL     OW16561   4.753   0.866   0.443
 5221SOL    HW116562   4.674   0.810   0.466
 5221SOL    HW216563   4.735   0.961   0.468
 5222SOL     OW16564   0.730   6.361   2.601
 5222SOL    HW116565   0.759   6.267   2.618
 5222SOL    HW216566   0.803   6.423   2.628
 5223SOL     OW16567   4.452   6.821   1.331
 5223SOL    HW116568   4.429   6.795   1.425
 5223SOL    HW216569   4.423   6.748   1.269
 5224SOL     OW16570   5.416   0.889   3.946
 5224SOL    HW116571   5.330   0.909   3.899
 5224SOL    HW216572   5.440   0.793   3.932
 5225SOL     OW16573   0.260   0.058   5.177
 5225SOL    HW116574   0.265   0.027   5.083
 5225SOL    HW216575   0.337   0.120   5.196
 5226SOL     OW16576   2.500   0.570   3.880
 5226SOL    HW116577   2.403   0.591   3.888
 5226SOL    HW216578   2.529   0.514   3.958
 5227SOL     OW16579   5.114   3.457   4.214
 5227SOL    HW116580   5.064   3.467   4.301
 5227SOL    HW216581   5.050   3.469   4.138
 5228SOL     OW16582   5.316   0.341   1.554
 5228SOL    HW116583   5.270   0.340   1.465
 5228SOL    HW216584   5.314   0.433   1.591
 5229SOL     OW16585   0.819   3.983   3.565
 5229SOL    HW116586   0.877   3.931   3.628
 5229SOL    HW216587   0.872   4.008   3.485
 5230SOL     OW16588   0.762   1.349   6.365
 5230SOL    HW116589   0.760   1.297   6.279
 5230SOL    HW216590   0.670   1.381   6.387
 5231SOL     OW16591   3.133   3.430   3.440
 5231SOL    HW116592   3.138   3.529   3.451
 5231SOL    HW216593   3.223   3.390   3.454
 5232SOL     OW16594   5.167   2.850   4.751
 5232SOL    HW116595   5.213   2.818   4.668
 5232SOL    HW216596   5.226   2.916   4.798
 5233SOL     OW16597   0.640   0.137   2.908
 5233SOL    HW116598   0.550   0.100   2.928
 5233SOL    HW216599   0.650   0.228   2.951
 5234SOL     OW16600   4.114   5.202   1.598
 5234SOL    HW116601   4.055   5.147   1.540
 5234SOL    HW216602   4.195   5.149   1.623
 5235SOL     OW16603   0.910   2.659   1.656
 5235SOL    HW116604   0.932   2.580   1.713
 5235SOL    HW216605   0.994   2.699   1.621
 5236SOL     OW16606   6.387   3.329   0.038
 5236SOL    HW116607   6.454   3.404   0.040
 5236SOL    HW216608   6.294   3.368   0.042
 5237SOL     OW16609   2.037   1.819   3.152
 5237SOL    HW116610   1.974   1.747   3.122
 5237SOL    HW216611   2.125   1.808   3.105
 5238SOL     OW16612   2.156   3.144   0.689
 5238SOL    HW116613   2.119   3.236   0.685
 5238SOL    HW216614   2.209   3.133   0.773
 5239SOL     OW16615   2.856   3.378   5.048
 5239SOL    HW116616   2.770   3.389   4.999
 5239SOL    HW216617   2.846   3.306   5.117
 5240SOL     OW16618   3.805   2.161   4.824
 5240SOL    HW116619   3.861   2.136   4.745
 5240SOL    HW216620   3.739   2.231   4.796
 5241SOL     OW16621   3.555   5.758   5.485
 5241SOL    HW116622   3.617   5.684   5.511
 5241SOL    HW216623   3.608   5.843   5.476
 5242SOL     OW16624   3.978   7.004   5.613
 5242SOL    HW116625   4.007   6.914   5.581
 5242SOL    HW216626   3.919   6.993   5.693
 5243SOL     OW16627   1.097   4.247   0.740
 5243SOL    HW116628   1.097   4.325   0.802
 5243SOL    HW216629   1.059   4.274   0.652
 5244SOL     OW16630   5.663   3.652   6.695
 5244SOL    HW116631   5.682   3.642   6.598
 5244SOL    HW216632   5.580   3.601   6.718
 5245SOL     OW16633   4.754   4.185   6.036
 5245SOL    HW116634   4.785   4.090   6.043
 5245SOL    HW216635   4.824   4.240   5.991
 5246SOL     OW16636   1.522   3.275   3.239
 5246SOL    HW116637   1.568   3.212   3.301
 5246SOL    HW216638   1.580   3.355   3.224
 5247SOL     OW16639   0.249   4.832   0.429
 5247SOL    HW116640   0.218   4.741   0.456
 5247SOL    HW216641   0.228   4.847   0.332
 5248SOL     OW16642   5.008   0.751   0.436
 5248SOL    HW116643   5.060   0.828   0.398
 5248SOL    HW216644   4.910   0.770   0.426
 5249SOL     OW16645   1.116   5.812   6.906
 5249SOL    HW116646   1.120   5.819   7.006
 5249SOL    HW216647   1.129   5.902   6.866
 5250SOL     OW16648   1.357   1.611   5.712
 5250SOL    HW116649   1.304   1.527   5.705
 5250SOL    HW216650   1.315   1.672   5.779
 5251SOL     OW16651   0.348   3.052   0.882
 5251SOL    HW116652   0.422   3.020   0.822
 5251SOL    HW216653   0.384   3.120   0.946
 5252SOL     OW16654   5.162   6.380   1.206
 5252SOL    HW116655   5.190   6.451   1.270
 5252SOL    HW216656   5.096   6.319   1.250
 5253SOL     OW16657   5.813   3.072   3.648
 5253SOL    HW116658   5.762   3.025   3.576
 5253SOL    HW216659   5.904   3.096   3.615
 5254SOL     OW16660   5.557   0.430   4.370
 5254SOL    HW116661   5.654   0.423   4.350
 5254SOL    HW216662   5.508   0.460   4.289
 5255SOL     OW16663   2.982   5.497   3.351
 5255SOL    HW116664   3.029   5.466   3.434
 5255SOL    HW216665   2.947   5.590   3.364
 5256SOL     OW16666   4.939   6.374   1.865
 5256SOL    HW116667   5.014   6.436   1.886
 5256SOL    HW216668   4.942   6.296   1.927
 5257SOL     OW16669   3.113   1.476   2.894
 5257SOL    HW116670   3.090   1.382   2.917
 5257SOL    HW216671   3.091   1.535   2.971
 5258SOL     OW16672   5.775   1.555   1.677
 5258SOL    HW116673   5.740   1.648   1.668
 5258SOL    HW216674   5.756   1.520   1.769
 5259SOL     OW16675   6.013   4.589   1.530
 5259SOL    HW116676   5.955   4.641   1.467
 5259SOL    HW216677   6.106   4.625   1.527
 5260SOL     OW16678   4.376   2.697   1.678
 5260SOL    HW116679   4.437   2.618   1.687
 5260SOL    HW216680   4.281   2.667   1.687
 5261SOL     OW16681   2.676   2.685   5.302
 5261SOL    HW116682   2.609   2.628   5.349
 5261SOL    HW216683   2.667   2.672   5.204
 5262SOL     OW16684   1.283   0.241   1.606
 5262SOL    HW116685   1.192   0.227   1.567
 5262SOL    HW216686   1.288   0.331   1.649
 5263SOL     OW16687   1.554   6.721   6.790
 5263SOL    HW116688   1.619   6.707   6.716
 5263SOL    HW216689   1.465   6.748   6.751
 5264SOL     OW16690   0.791   0.954   1.271
 5264SOL    HW116691   0.866   0.901   1.310
 5264SOL    HW216692   0.795   0.949   1.171
 5265SOL     OW16693   5.305   4.680   4.044
 5265SOL    HW116694   5.314   4.631   3.957
 5265SOL    HW216695   5.377   4.750   4.050
 5266SOL     OW16696   1.468   6.995   1.082
 5266SOL    HW116697   1.394   7.008   1.148
 5266SOL    HW216698   1.554   6.979   1.130
 5267SOL     OW16699   4.222   3.651   5.402
 5267SOL    HW116700   4.235   3.591   5.323
 5267SOL    HW216701   4.146   3.713   5.383
 5268SOL     OW16702   5.736   5.185   5.821
 5268SOL    HW116703   5.815   5.149   5.772
 5268SOL    HW216704   5.663   5.116   5.821
 5269SOL     OW16705   1.993   5.192   5.711
 5269SOL    HW116706   2.079   5.163   5.669
 5269SOL    HW216707   1.997   5.290   5.730
 5270SOL     OW16708   6.781   2.254   3.585
 5270SOL    HW116709   6.783   2.174   3.644
 5270SOL    HW216710   6.710   2.243   3.515
 5271SOL     OW16711   5.572   3.546   5.529
 5271SOL    HW116712   5.532   3.536   5.620
 5271SOL    HW216713   5.593   3.642   5.512
 5272SOL     OW16714   2.352   2.070   3.948
 5272SOL    HW116715   2.360   2.107   3.856
 5272SOL    HW216716   2.261   2.090   3.985
 5273SOL     OW16717   6.497   0.449   5.492
 5273SOL    HW116718   6.413   0.481   5.449
 5273SOL    HW216719   6.528   0.516   5.559
 5274SOL     OW16720   0.250   5.446   4.445
 5274SOL    HW116721   0.323   5.410   4.503
 5274SOL    HW216722   0.161   5.432   4.489
 5275SOL     OW16723   2.238   6.298   6.949
 5275SOL    HW116724   2.285   6.359   0.002
 5275SOL    HW216725   2.284   6.299   6.860
 5276SOL     OW16726   0.587   0.241   0.432
 5276SOL    HW116727   0.611   0.315   0.496
 5276SOL    HW216728   0.671   0.196   0.401
 5277SOL     OW16729   0.161   1.435   2.021
 5277SOL    HW116730   0.237   1.479   2.068
 5277SOL    HW216731   0.196   1.379   1.945
 5278SOL     OW16732   0.736   4.575   5.873
 5278SOL    HW116733   0.812   4.602   5.814
 5278SOL    HW216734   0.736   4.632   5.956
 5279SOL     OW16735   2.247   6.655   6.959
 5279SOL    HW116736   2.274   6.705   0.031
 5279SOL    HW216737   2.165   6.697   6.920
 5280SOL     OW16738   4.277   6.818   5.751
 5280SOL    HW116739   4.292   6.719   5.744
 5280SOL    HW216740   4.233   6.838   5.838
 5281SOL     OW16741   3.052   6.891   5.058
 5281SOL    HW116742   2.967   6.874   5.109
 5281SOL    HW216743   3.119   6.933   5.119
 5282SOL     OW16744   0.213   6.301   0.560
 5282SOL    HW116745   0.206   6.352   0.474
 5282SOL    HW216746   0.309   6.283   0.581
 5283SOL     OW16747   1.582   0.827   4.035
 5283SOL    HW116748   1.635   0.888   4.094
 5283SOL    HW216749   1.514   0.779   4.091
 5284SOL     OW16750   4.984   3.107   2.081
 5284SOL    HW116751   5.049   3.056   2.025
 5284SOL    HW216752   4.891   3.087   2.051
 5285SOL     OW16753   1.613   1.939   4.512
 5285SOL    HW116754   1.690   1.987   4.554
 5285SOL    HW216755   1.546   1.915   4.582
 5286SOL     OW16756   6.525   3.143   1.144
 5286SOL    HW116757   6.584   3.199   1.086
 5286SOL    HW216758   6.551   3.046   1.134
 5287SOL     OW16759   0.804   5.366   1.849
 5287SOL    HW116760   0.853   5.420   1.780
 5287SOL    HW216761   0.843   5.386   1.939
 5288SOL     OW16762   4.154   0.576   1.741
 5288SOL    HW116763   4.212   0.565   1.660
 5288SOL    HW216764   4.159   0.494   1.797
 5289SOL     OW16765   2.357   4.701   5.854
 5289SOL    HW116766   2.415   4.781   5.870
 5289SOL    HW216767   2.412   4.618   5.857
 5290SOL     OW16768   1.648   3.046   4.832
 5290SOL    HW116769   1.652   3.116   4.902
 5290SOL    HW216770   1.714   2.974   4.852
 5291SOL     OW16771   2.885   5.096   4.453
 5291SOL    HW116772   2.866   5.063   4.545
 5291SOL    HW216773   2.814   5.063   4.391
 5292SOL     OW16774   0.298   3.759   4.825
 5292SOL    HW116775   0.212   3.774   4.777
 5292SOL    HW216776   0.374   3.796   4.771
 5293SOL     OW16777   2.260   0.327   3.977
 5293SOL    HW116778   2.192   0.396   4.001
 5293SOL    HW216779   2.310   0.299   4.059
 5294SOL     OW16780   4.870   6.888   4.361
 5294SOL    HW116781   4.914   6.816   4.307
 5294SOL    HW216782   4.891   6.874   4.458
 5295SOL     OW16783   2.205   0.826   1.421
 5295SOL    HW116784   2.245   0.853   1.333
 5295SOL    HW216785   2.123   0.771   1.405
 5296SOL     OW16786   4.893   4.933   1.898
 5296SOL    HW116787   4.977   4.916   1.950
 5296SOL    HW216788   4.873   4.853   1.841
 5297SOL     OW16789   3.497   5.523   5.973
 5297SOL    HW116790   3.488   5.426   5.993
 5297SOL    HW216791   3.433   5.575   6.029
 5298SOL     OW16792   2.689   1.830   0.233
 5298SOL    HW116793   2.613   1.872   0.184
 5298SOL    HW216794   2.667   1.734   0.254
 5299SOL     OW16795   2.509   0.602   1.703
 5299SOL    HW116796   2.488   0.689   1.657
 5299SOL    HW216797   2.424   0.551   1.719
 5300SOL     OW16798   3.196   5.270   6.611
 5300SOL    HW116799   3.176   5.311   6.521
 5300SOL    HW216800   3.187   5.339   6.682
 5301SOL     OW16801   6.240   6.855   5.583
 5301SOL    HW116802   6.177   6.829   5.510
 5301SOL    HW216803   6.333   6.857   5.548
 5302SOL     OW16804   4.939   5.566   2.873
 5302SOL    HW116805   4.933   5.664   2.893
 5302SOL    HW216806   4.925   5.514   2.957
 5303SOL     OW16807   1.336   5.922   5.583
 5303SOL    HW116808   1.390   6.006   5.573
 5303SOL    HW216809   1.241   5.946   5.605
 5304SOL     OW16810   0.901   0.656   3.155
 5304SOL    HW116811   0.995   0.623   3.148
 5304SOL    HW216812   0.846   0.590   3.207
 5305SOL     OW16813   6.965   5.486   4.896
 5305SOL    HW116814   6.995   5.409   4.953
 5305SOL    HW216815   6.985   5.466   4.800
 5306SOL     OW16816   0.916   2.180   6.031
 5306SOL    HW116817   0.857   2.133   6.097
 5306SOL    HW216818   0.887   2.160   5.938
 5307SOL     OW16819   6.965   1.402   1.516
 5307SOL    HW116820   6.870   1.370   1.519
 5307SOL    HW216821   6.997   1.420   1.609
 5308SOL     OW16822   1.606   4.454   2.644
 5308SOL    HW116823   1.530   4.450   2.579
 5308SOL    HW216824   1.692   4.462   2.594
 5309SOL     OW16825   5.877   6.101   3.573
 5309SOL    HW116826   5.807   6.089   3.643
 5309SOL    HW216827   5.960   6.139   3.614
 5310SOL     OW16828   6.135   2.464   3.227
 5310SOL    HW116829   6.232   2.474   3.207
 5310SOL    HW216830   6.082   2.525   3.169
 5311SOL     OW16831   5.974   0.265   0.055
 5311SOL    HW116832   6.056   0.223   0.095
 5311SOL    HW216833   6.002   0.333   6.998
 5312SOL     OW16834   6.201   6.498   0.722
 5312SOL    HW116835   6.108   6.460   0.713
 5312SOL    HW216836   6.248   6.491   0.634
 5313SOL     OW16837   1.340   0.074   5.686
 5313SOL    HW116838   1.286   0.008   5.739
 5313SOL    HW216839   1.278   0.132   5.632
 5314SOL     OW16840   5.824   2.197   1.529
 5314SOL    HW116841   5.815   2.102   1.498
 5314SOL    HW216842   5.920   2.217   1.549
 5315SOL     OW16843   4.114   2.260   3.588
 5315SOL    HW116844   4.205   2.250   3.628
 5315SOL    HW216845   4.119   2.245   3.489
 5316SOL     OW16846   0.651   2.821   4.737
 5316SOL    HW116847   0.580   2.773   4.787
 5316SOL    HW216848   0.698   2.758   4.676
 5317SOL     OW16849   5.810   2.907   6.308
 5317SOL    HW116850   5.775   2.917   6.401
 5317SOL    HW216851   5.903   2.870   6.311
 5318SOL     OW16852   0.393   3.709   5.703
 5318SOL    HW116853   0.413   3.752   5.615
 5318SOL    HW216854   0.479   3.686   5.749
 5319SOL     OW16855   3.363   6.079   2.324
 5319SOL    HW116856   3.353   6.175   2.350
 5319SOL    HW216857   3.273   6.041   2.304
 5320SOL     OW16858   4.566   5.764   1.321
 5320SOL    HW116859   4.559   5.666   1.301
 5320SOL    HW216860   4.539   5.781   1.415
 5321SOL     OW16861   1.445   4.113   5.570
 5321SOL    HW116862   1.492   4.164   5.497
 5321SOL    HW216863   1.346   4.124   5.560
 5322SOL     OW16864   3.952   6.315   2.208
 5322SOL    HW116865   3.960   6.277   2.301
 5322SOL    HW216866   4.031   6.374   2.191
 5323SOL     OW16867   4.307   0.264   6.180
 5323SOL    HW116868   4.264   0.289   6.093
 5323SOL    HW216869   4.313   0.345   6.238
 5324SOL     OW16870   1.570   1.647   1.577
 5324SOL    HW116871   1.634   1.641   1.500
 5324SOL    HW216872   1.477   1.631   1.543
 5325SOL     OW16873   2.071   2.480   5.044
 5325SOL    HW116874   2.084   2.406   5.110
 5325SOL    HW216875   2.029   2.559   5.090
 5326SOL     OW16876   6.288   0.107   0.940
 5326SOL    HW116877   6.279   0.026   0.998
 5326SOL    HW216878   6.376   0.151   0.959
 5327SOL     OW16879   0.302   2.698   5.663
 5327SOL    HW116880   0.276   2.665   5.754
 5327SOL    HW216881   0.310   2.797   5.665
 5328SOL     OW16882   4.974   5.176   0.326
 5328SOL    HW116883   4.924   5.225   0.255
 5328SOL    HW216884   5.040   5.238   0.369
 5329SOL     OW16885   2.357   6.686   6.261
 5329SOL    HW116886   2.281   6.624   6.277
 5329SOL    HW216887   2.322   6.775   6.231
 5330SOL     OW16888   2.656   4.869   1.058
 5330SOL    HW116889   2.749   4.845   1.084
 5330SOL    HW216890   2.649   4.873   0.958
 5331SOL     OW16891   6.568   1.220   6.660
 5331SOL    HW116892   6.558   1.319   6.676
 5331SOL    HW216893   6.553   1.171   6.746
 5332SOL     OW16894   0.208   5.084   1.644
 5332SOL    HW116895   0.235   5.179   1.662
 5332SOL    HW216896   0.160   5.048   1.724
 5333SOL     OW16897   1.137   6.062   5.314
 5333SOL    HW116898   1.196   5.982   5.321
 5333SOL    HW216899   1.087   6.059   5.228
 5334SOL     OW16900   3.574   6.833   4.831
 5334SOL    HW116901   3.594   6.804   4.925
 5334SOL    HW216902   3.659   6.855   4.784
 5335SOL     OW16903   6.836   5.912   6.983
 5335SOL    HW116904   6.900   5.961   6.924
 5335SOL    HW216905   6.754   5.967   6.997
 5336SOL     OW16906   1.163   4.476   1.396
 5336SOL    HW116907   1.213   4.432   1.321
 5336SOL    HW216908   1.195   4.570   1.406
 5337SOL     OW16909   5.130   4.223   1.260
 5337SOL    HW116910   5.067   4.262   1.193
 5337SOL    HW216911   5.195   4.163   1.214
 5338SOL     OW16912   5.671   2.604   0.069
 5338SOL    HW116913   5.600   2.545   0.029
 5338SOL    HW216914   5.761   2.573   0.038
 5339SOL     OW16915   6.112   0.476   1.731
 5339SOL    HW116916   6.066   0.563   1.750
 5339SOL    HW216917   6.091   0.411   1.803
 5340SOL     OW16918   5.263   2.365   6.132
 5340SOL    HW116919   5.184   2.404   6.180
 5340SOL    HW216920   5.249   2.375   6.033
 5341SOL     OW16921   4.683   0.484   0.426
 5341SOL    HW116922   4.695   0.398   0.376
 5341SOL    HW216923   4.744   0.485   0.505
 5342SOL     OW16924   2.873   0.870   6.180
 5342SOL    HW116925   2.904   0.879   6.275
 5342SOL    HW216926   2.879   0.774   6.152
 5343SOL     OW16927   3.465   3.966   1.757
 5343SOL    HW116928   3.513   4.051   1.778
 5343SOL    HW216929   3.451   3.914   1.842
 5344SOL     OW16930   2.305   2.648   2.784
 5344SOL    HW116931   2.346   2.682   2.869
 5344SOL    HW216932   2.246   2.719   2.745
 5345SOL     OW16933   4.756   0.481   2.900
 5345SOL    HW116934   4.680   0.525   2.948
 5345SOL    HW216935   4.722   0.434   2.819
 5346SOL     OW16936   2.700   6.972   3.632
 5346SOL    HW116937   2.726   0.052   3.600
 5346SOL    HW216938   2.727   6.962   3.728
 5347SOL     OW16939   6.676   1.809   1.809
 5347SOL    HW116940   6.741   1.783   1.738
 5347SOL    HW216941   6.590   1.837   1.766
 5348SOL     OW16942   6.719   1.652   0.615
 5348SOL    HW116943   6.722   1.657   0.516
 5348SOL    HW216944   6.629   1.617   0.644
 5349SOL     OW16945   6.385   0.250   1.193
 5349SOL    HW116946   6.449   0.252   1.116
 5349SOL    HW216947   6.377   0.157   1.228
 5350SOL     OW16948   2.569   0.462   6.264
 5350SOL    HW116949   2.606   0.551   6.289
 5350SOL    HW216950   2.582   0.398   6.339
 5351SOL     OW16951   4.097   0.801   1.932
 5351SOL    HW116952   4.091   0.732   1.860
 5351SOL    HW216953   4.145   0.763   2.011
 5352SOL     OW16954   3.361   6.339   3.483
 5352SOL    HW116955   3.408   6.327   3.395
 5352SOL    HW216956   3.343   6.436   3.497
 5353SOL     OW16957   5.864   0.294   5.869
 5353SOL    HW116958   5.958   0.308   5.899
 5353SOL    HW216959   5.802   0.309   5.946
 5354SOL     OW16960   1.646   3.437   0.746
 5354SOL    HW116961   1.688   3.347   0.758
 5354SOL    HW216962   1.561   3.427   0.694
 5355SOL     OW16963   4.225   1.505   6.219
 5355SOL    HW116964   4.221   1.527   6.122
 5355SOL    HW216965   4.212   1.588   6.273
 5356SOL     OW16966   6.188   3.389   0.781
 5356SOL    HW116967   6.211   3.460   0.847
 5356SOL    HW216968   6.260   3.319   0.783
 5357SOL     OW16969   4.199   5.924   0.749
 5357SOL    HW116970   4.129   5.924   0.820
 5357SOL    HW216971   4.157   5.904   0.661
 5358SOL     OW16972   4.991   4.251   1.704
 5358SOL    HW116973   4.967   4.247   1.606
 5358SOL    HW216974   4.974   4.162   1.745
 5359SOL     OW16975   2.957   0.124   0.063
 5359SOL    HW116976   3.054   0.134   0.082
 5359SOL    HW216977   2.935   0.028   0.050
 5360SOL     OW16978   4.337   1.104   6.961
 5360SOL    HW116979   4.288   1.017   6.949
 5360SOL    HW216980   4.282   1.165   0.007
 5361SOL     OW16981   1.532   0.866   6.213
 5361SOL    HW116982   1.605   0.798   6.206
 5361SOL    HW216983   1.467   0.838   6.284
 5362SOL     OW16984   4.193   5.521   3.440
 5362SOL    HW116985   4.243   5.546   3.523
 5362SOL    HW216986   4.134   5.442   3.459
 5363SOL     OW16987   0.592   5.424   4.543
 5363SOL    HW116988   0.515   5.415   4.605
 5363SOL    HW216989   0.611   5.520   4.526
 5364SOL     OW16990   1.175   6.064   6.748
 5364SOL    HW116991   1.114   6.132   6.708
 5364SOL    HW216992   1.270   6.084   6.723
 5365SOL     OW16993   3.852   2.050   6.077
 5365SOL    HW116994   3.817   1.962   6.109
 5365SOL    HW216995   3.925   2.081   6.137
 5366SOL     OW16996   3.233   4.036   6.299
 5366SOL    HW116997   3.265   4.115   6.246
 5366SOL    HW216998   3.207   3.963   6.237
 5367SOL     OW16999   0.466   4.425   0.849
 5367SOL    HW117000   0.421   4.346   0.891
 5367SOL    HW217001   0.532   4.464   0.914
 5368SOL     OW17002   0.486   0.592   3.804
 5368SOL    HW117003   0.456   0.533   3.729
 5368SOL    HW217004   0.473   0.544   3.891
 5369SOL     OW17005   2.114   3.435   2.132
 5369SOL    HW117006   2.156   3.465   2.046
 5369SOL    HW217007   2.104   3.336   2.132
 5370SOL     OW17008   4.030   2.972   1.349
 5370SOL    HW117009   4.089   2.975   1.268
 5370SOL    HW217010   4.040   3.057   1.401
 5371SOL     OW17011   1.882   4.122   4.804
 5371SOL    HW117012   1.797   4.082   4.838
 5371SOL    HW217013   1.925   4.175   4.877
 5372SOL     OW17014   3.089   6.170   2.663
 5372SOL    HW117015   3.084   6.200   2.759
 5372SOL    HW217016   3.032   6.229   2.607
 5373SOL     OW17017   1.723   5.204   3.947
 5373SOL    HW117018   1.728   5.210   3.848
 5373SOL    HW217019   1.629   5.184   3.975
 5374SOL     OW17020   3.086   2.672   0.596
 5374SOL    HW117021   3.184   2.656   0.582
 5374SOL    HW217022   3.038   2.667   0.508
 5375SOL     OW17023   0.710   3.730   4.973
 5375SOL    HW117024   0.759   3.700   4.890
 5375SOL    HW217025   0.617   3.693   4.971
 5376SOL     OW17026   3.038   4.422   6.379
 5376SOL    HW117027   3.040   4.323   6.394
 5376SOL    HW217028   2.949   4.458   6.406
 5377SOL     OW17029   0.522   1.927   2.107
 5377SOL    HW117030   0.500   1.907   2.011
 5377SOL    HW217031   0.583   1.856   2.142
 5378SOL     OW17032   5.098   0.014   0.092
 5378SOL    HW117033   5.128   6.930   0.101
 5378SOL    HW217034   5.068   0.031   7.009
 5379SOL     OW17035   0.310   6.809   0.736
 5379SOL    HW117036   0.364   6.782   0.657
 5379SOL    HW217037   0.369   6.848   0.806
 5380SOL     OW17038   1.878   1.150   4.753
 5380SOL    HW117039   1.847   1.181   4.663
 5380SOL    HW217040   1.954   1.207   4.783
 5381SOL     OW17041   6.008   3.640   1.883
 5381SOL    HW117042   6.092   3.690   1.901
 5381SOL    HW217043   5.939   3.666   1.950
 5382SOL     OW17044   1.607   6.945   1.704
 5382SOL    HW117045   1.539   0.007   1.713
 5382SOL    HW217046   1.627   6.908   1.795
 5383SOL     OW17047   2.224   2.113   4.590
 5383SOL    HW117048   2.222   2.108   4.490
 5383SOL    HW217049   2.312   2.148   4.620
 5384SOL     OW17050   5.336   6.542   4.488
 5384SOL    HW117051   5.427   6.584   4.496
 5384SOL    HW217052   5.284   6.559   4.572
 5385SOL     OW17053   3.636   4.108   3.133
 5385SOL    HW117054   3.608   4.071   3.044
 5385SOL    HW217055   3.717   4.166   3.121
 5386SOL     OW17056   5.902   6.901   5.690
 5386SOL    HW117057   5.854   6.924   5.775
 5386SOL    HW217058   5.993   6.942   5.692
 5387SOL     OW17059   3.713   4.990   1.474
 5387SOL    HW117060   3.648   4.985   1.399
 5387SOL    HW217061   3.806   4.993   1.438
 5388SOL     OW17062   6.012   5.916   2.900
 5388SOL    HW117063   5.945   5.845   2.921
 5388SOL    HW217064   6.088   5.876   2.848
 5389SOL     OW17065   5.757   2.904   1.233
 5389SOL    HW117066   5.722   2.889   1.140
 5389SOL    HW217067   5.750   3.001   1.256
 5390SOL     OW17068   6.255   5.120   6.039
 5390SOL    HW117069   6.256   5.077   6.129
 5390SOL    HW217070   6.348   5.129   6.005
 5391SOL     OW17071   3.579   3.794   6.739
 5391SOL    HW117072   3.644   3.802   6.663
 5391SOL    HW217073   3.566   3.884   6.780
 5392SOL     OW17074   0.239   2.805   2.751
 5392SOL    HW117075   0.231   2.757   2.839
 5392SOL    HW217076   0.221   2.902   2.765
 5393SOL     OW17077   6.495   6.710   5.945
 5393SOL    HW117078   6.529   6.738   6.035
 5393SOL    HW217079   6.429   6.777   5.912
 5394SOL     OW17080   2.037   3.668   5.900
 5394SOL    HW117081   2.044   3.648   5.998
 5394SOL    HW217082   2.108   3.618   5.851
 5395SOL     OW17083   4.362   0.259   1.495
 5395SOL    HW117084   4.438   0.296   1.442
 5395SOL    HW217085   4.283   0.247   1.436
 5396SOL     OW17086   4.492   2.431   1.696
 5396SOL    HW117087   4.407   2.401   1.740
 5396SOL    HW217088   4.560   2.358   1.701
 5397SOL     OW17089   0.909   2.427   1.801
 5397SOL    HW117090   0.970   2.364   1.755
 5397SOL    HW217091   0.867   2.381   1.880
 5398SOL     OW17092   3.298   2.973   2.516
 5398SOL    HW117093   3.346   2.908   2.575
 5398SOL    HW217094   3.357   2.998   2.440
 5399SOL     OW17095   0.977   5.311   6.951
 5399SOL    HW117096   1.038   5.383   6.917
 5399SOL    HW217097   0.883   5.332   6.924
 5400SOL     OW17098   2.252   3.229   6.797
 5400SOL    HW117099   2.161   3.217   6.835
 5400SOL    HW217100   2.266   3.164   6.722
 5401SOL     OW17101   6.502   1.885   0.629
 5401SOL    HW117102   6.529   1.872   0.724
 5401SOL    HW217103   6.469   1.798   0.592
 5402SOL     OW17104   1.164   5.958   2.273
 5402SOL    HW117105   1.224   5.924   2.201
 5402SOL    HW217106   1.205   5.939   2.362
 5403SOL     OW17107   6.027   2.720   6.774
 5403SOL    HW117108   6.126   2.726   6.759
 5403SOL    HW217109   5.999   2.624   6.772
 5404SOL     OW17110   1.098   2.960   3.367
 5404SOL    HW117111   1.113   3.059   3.364
 5404SOL    HW217112   1.079   2.933   3.462
 5405SOL     OW17113   0.126   4.377   5.404
 5405SOL    HW117114   0.099   4.445   5.336
 5405SOL    HW217115   0.055   4.308   5.413
 5406SOL     OW17116   1.287   6.908   4.025
 5406SOL    HW117117   1.325   6.816   4.034
 5406SOL    HW217118   1.230   6.913   3.943
 5407SOL     OW17119   4.197   3.519   6.798
 5407SOL    HW117120   4.210   3.429   6.839
 5407SOL    HW217121   4.274   3.541   6.739
 5408SOL     OW17122   3.439   1.194   6.935
 5408SOL    HW117123   3.504   1.121   6.958
 5408SOL    HW217124   3.358   1.185   6.992
 5409SOL     OW17125   4.958   0.514   2.079
 5409SOL    HW117126   4.888   0.575   2.115
 5409SOL    HW217127   4.923   0.421   2.077
 5410SOL     OW17128   1.423   2.677   3.454
 5410SOL    HW117129   1.430   2.683   3.354
 5410SOL    HW217130   1.331   2.648   3.479
 5411SOL     OW17131   2.210   4.662   4.738
 5411SOL    HW117132   2.232   4.576   4.783
 5411SOL    HW217133   2.183   4.730   4.806
 5412SOL     OW17134   6.093   2.179   2.024
 5412SOL    HW117135   6.081   2.224   1.936
 5412SOL    HW217136   6.190   2.176   2.047
 5413SOL     OW17137   1.601   6.728   2.490
 5413SOL    HW117138   1.548   6.662   2.438
 5413SOL    HW217139   1.604   6.815   2.441
 5414SOL     OW17140   3.793   0.413   5.534
 5414SOL    HW117141   3.729   0.343   5.504
 5414SOL    HW217142   3.806   0.406   5.633
 5415SOL     OW17143   6.359   3.699   2.581
 5415SOL    HW117144   6.277   3.644   2.594
 5415SOL    HW217145   6.390   3.734   2.669
 5416SOL     OW17146   4.052   5.383   4.314
 5416SOL    HW117147   4.005   5.416   4.232
 5416SOL    HW217148   3.994   5.317   4.361
 5417SOL     OW17149   3.106   0.136   5.974
 5417SOL    HW117150   3.071   0.061   6.030
 5417SOL    HW217151   3.042   0.155   5.899
 5418SOL     OW17152   3.849   1.206   3.711
 5418SOL    HW117153   3.780   1.139   3.683
 5418SOL    HW217154   3.855   1.209   3.811
 5419SOL     OW17155   3.373   3.905   6.976
 5419SOL    HW117156   3.347   3.851   6.896
 5419SOL    HW217157   3.371   4.002   6.953
 5420SOL     OW17158   0.730   2.443   3.126
 5420SOL    HW117159   0.807   2.423   3.187
 5420SOL    HW217160   0.743   2.534   3.086
 5421SOL     OW17161   1.931   2.431   0.484
 5421SOL    HW117162   1.834   2.431   0.507
 5421SOL    HW217163   1.983   2.471   0.559
 5422SOL     OW17164   0.765   3.804   0.086
 5422SOL    HW117165   0.764   3.707   0.108
 5422SOL    HW217166   0.849   3.827   0.037
 5423SOL     OW17167   5.130   3.232   5.702
 5423SOL    HW117168   5.194   3.227   5.625
 5423SOL    HW217169   5.055   3.168   5.688
 5424SOL     OW17170   5.352   3.510   5.365
 5424SOL    HW117171   5.328   3.592   5.312
 5424SOL    HW217172   5.439   3.526   5.412
 5425SOL     OW17173   5.238   0.855   4.931
 5425SOL    HW117174   5.265   0.763   4.959
 5425SOL    HW217175   5.248   0.863   4.832
 5426SOL     OW17176   0.588   6.977   4.873
 5426SOL    HW117177   0.632   0.054   4.894
 5426SOL    HW217178   0.495   6.977   4.911
 5427SOL     OW17179   4.153   6.925   6.902
 5427SOL    HW117180   4.114   6.846   6.949
 5427SOL    HW217181   4.141   6.914   6.803
 5428SOL     OW17182   1.809   1.082   7.001
 5428SOL    HW117183   1.897   1.067   6.957
 5428SOL    HW217184   1.760   1.155   6.954
 5429SOL     OW17185   0.857   2.455   5.926
 5429SOL    HW117186   0.904   2.371   5.953
 5429SOL    HW217187   0.805   2.490   6.003
 5430SOL     OW17188   1.964   2.868   5.572
 5430SOL    HW117189   1.937   2.863   5.476
 5430SOL    HW217190   1.884   2.886   5.628
 5431SOL     OW17191   3.811   5.748   4.742
 5431SOL    HW117192   3.722   5.710   4.769
 5431SOL    HW217193   3.816   5.844   4.768
 5432SOL     OW17194   5.658   5.390   1.168
 5432SOL    HW117195   5.659   5.475   1.115
 5432SOL    HW217196   5.612   5.405   1.256
 5433SOL     OW17197   0.276   1.773   4.147
 5433SOL    HW117198   0.180   1.784   4.175
 5433SOL    HW217199   0.280   1.750   4.050
 5434SOL     OW17200   2.446   6.810   4.941
 5434SOL    HW117201   2.350   6.838   4.934
 5434SOL    HW217202   2.451   6.719   4.983
 5435SOL     OW17203   5.154   1.595   1.916
 5435SOL    HW117204   5.112   1.683   1.892
 5435SOL    HW217205   5.165   1.540   1.833
 5436SOL     OW17206   5.804   3.847   2.974
 5436SOL    HW117207   5.788   3.764   3.027
 5436SOL    HW217208   5.721   3.903   2.973
 5437SOL     OW17209   3.715   4.711   6.327
 5437SOL    HW117210   3.769   4.736   6.247
 5437SOL    HW217211   3.735   4.773   6.402
 5438SOL     OW17212   6.770   0.781   1.085
 5438SOL    HW117213   6.721   0.696   1.104
 5438SOL    HW217214   6.705   0.855   1.068
 5439SOL     OW17215   1.545   2.992   0.644
 5439SOL    HW117216   1.497   3.004   0.557
 5439SOL    HW217217   1.498   2.924   0.700
 5440SOL     OW17218   1.781   1.246   1.500
 5440SOL    HW117219   1.836   1.164   1.516
 5440SOL    HW217220   1.774   1.299   1.584
 5441SOL     OW17221   3.842   1.864   4.165
 5441SOL    HW117222   3.832   1.959   4.195
 5441SOL    HW217223   3.760   1.837   4.113
 5442SOL     OW17224   3.321   0.906   2.088
 5442SOL    HW117225   3.416   0.932   2.103
 5442SOL    HW217226   3.275   0.893   2.176
 5443SOL     OW17227   1.960   6.655   5.996
 5443SOL    HW117228   1.975   6.563   5.960
 5443SOL    HW217229   1.951   6.720   5.921
 5444SOL     OW17230   0.425   1.114   3.174
 5444SOL    HW117231   0.463   1.022   3.183
 5444SOL    HW217232   0.375   1.138   3.257
 5445SOL     OW17233   6.257   3.232   2.135
 5445SOL    HW117234   6.252   3.305   2.066
 5445SOL    HW217235   6.200   3.257   2.213
 5446SOL     OW17236   6.701   5.743   6.067
 5446SOL    HW117237   6.722   5.800   5.989
 5446SOL    HW217238   6.671   5.800   6.144
 5447SOL     OW17239   2.941   2.457   1.049
 5447SOL    HW117240   3.021   2.516   1.058
 5447SOL    HW217241   2.941   2.415   0.958
 5448SOL     OW17242   5.778   1.776   6.544
 5448SOL    HW117243   5.773   1.859   6.488
 5448SOL    HW217244   5.873   1.747   6.553
 5449SOL     OW17245   0.303   2.647   6.613
 5449SOL    HW117246   0.281   2.740   6.585
 5449SOL    HW217247   0.232   2.585   6.581
 5450SOL     OW17248   2.411   5.999   0.582
 5450SOL    HW117249   2.461   6.085   0.570
 5450SOL    HW217250   2.445   5.951   0.662
 5451SOL     OW17251   2.358   0.509   2.859
 5451SOL    HW117252   2.269   0.504   2.814
 5451SOL    HW217253   2.411   0.583   2.818
 5452SOL     OW17254   2.293   3.640   5.772
 5452SOL    HW117255   2.306   3.692   5.857
 5452SOL    HW217256   2.288   3.704   5.695
 5453SOL     OW17257   0.606   5.103   6.042
 5453SOL    HW117258   0.699   5.107   6.079
 5453SOL    HW217259   0.553   5.181   6.077
 5454SOL     OW17260   0.698   3.991   4.906
 5454SOL    HW117261   0.625   4.027   4.965
 5454SOL    HW217262   0.706   3.892   4.920
 5455SOL     OW17263   6.575   2.354   0.505
 5455SOL    HW117264   6.603   2.439   0.461
 5455SOL    HW217265   6.545   2.373   0.599
 5456SOL     OW17266   3.643   6.733   1.589
 5456SOL    HW117267   3.610   6.782   1.670
 5456SOL    HW217268   3.671   6.641   1.616
 5457SOL     OW17269   6.329   3.870   0.794
 5457SOL    HW117270   6.307   3.831   0.704
 5457SOL    HW217271   6.425   3.896   0.797
 5458SOL     OW17272   1.527   4.215   6.061
 5458SOL    HW117273   1.591   4.207   6.137
 5458SOL    HW217274   1.567   4.273   5.990
 5459SOL     OW17275   2.394   4.187   5.896
 5459SOL    HW117276   2.294   4.187   5.892
 5459SOL    HW217277   2.429   4.111   5.842
 5460SOL     OW17278   3.963   0.076   3.773
 5460SOL    HW117279   3.992   0.143   3.841
 5460SOL    HW217280   3.901   0.120   3.708
 5461SOL     OW17281   4.544   6.973   5.005
 5461SOL    HW117282   4.474   6.999   5.072
 5461SOL    HW217283   4.615   0.033   5.002
 5462SOL     OW17284   0.224   0.580   1.245
 5462SOL    HW117285   0.187   0.582   1.337
 5462SOL    HW217286   0.185   0.656   1.192
 5463SOL     OW17287   0.166   3.418   0.959
 5463SOL    HW117288   0.157   3.331   0.911
 5463SOL    HW217289   0.260   3.427   0.994
 5464SOL     OW17290   1.638   6.088   4.534
 5464SOL    HW117291   1.673   6.058   4.623
 5464SOL    HW217292   1.555   6.142   4.546
 5465SOL     OW17293   2.897   5.537   6.715
 5465SOL    HW117294   2.975   5.484   6.746
 5465SOL    HW217295   2.814   5.502   6.758
 5466SOL     OW17296   5.654   5.495   4.623
 5466SOL    HW117297   5.591   5.456   4.556
 5466SOL    HW217298   5.619   5.479   4.715
 5467SOL     OW17299   5.952   1.356   2.255
 5467SOL    HW117300   5.954   1.361   2.155
 5467SOL    HW217301   6.040   1.387   2.291
 5468SOL     OW17302   4.283   1.127   6.158
 5468SOL    HW117303   4.339   1.132   6.075
 5468SOL    HW217304   4.297   1.209   6.213
 5469SOL     OW17305   4.930   4.496   1.852
 5469SOL    HW117306   4.850   4.439   1.869
 5469SOL    HW217307   5.005   4.440   1.817
 5470SOL     OW17308   0.596   4.801   3.490
 5470SOL    HW117309   0.649   4.776   3.409
 5470SOL    HW217310   0.636   4.882   3.533
 5471SOL     OW17311   6.158   4.308   2.258
 5471SOL    HW117312   6.145   4.361   2.175
 5471SOL    HW217313   6.098   4.344   2.330
 5472SOL     OW17314   3.548   5.126   4.963
 5472SOL    HW117315   3.628   5.185   4.948
 5472SOL    HW217316   3.549   5.051   4.896
 5473SOL     OW17317   1.456   4.267   3.787
 5473SOL    HW117318   1.446   4.228   3.879
 5473SOL    HW217319   1.380   4.237   3.730
 5474SOL     OW17320   1.380   6.165   3.253
 5474SOL    HW117321   1.438   6.235   3.212
 5474SOL    HW217322   1.348   6.196   3.342
 5475SOL     OW17323   3.179   2.831   1.775
 5475SOL    HW117324   3.115   2.893   1.730
 5475SOL    HW217325   3.166   2.837   1.874
 5476SOL     OW17326   1.748   3.278   6.864
 5476SOL    HW117327   1.836   3.230   6.869
 5476SOL    HW217328   1.676   3.222   6.904
 5477SOL     OW17329   2.155   2.221   2.660
 5477SOL    HW117330   2.241   2.249   2.617
 5477SOL    HW217331   2.090   2.191   2.590
 5478SOL     OW17332   6.845   5.444   5.487
 5478SOL    HW117333   6.782   5.478   5.417
 5478SOL    HW217334   6.802   5.453   5.577
 5479SOL     OW17335   4.644   6.899   5.327
 5479SOL    HW117336   4.724   6.873   5.272
 5479SOL    HW217337   4.654   6.863   5.420
 5480SOL     OW17338   0.753   2.369   5.418
 5480SOL    HW117339   0.658   2.381   5.446
 5480SOL    HW217340   0.814   2.388   5.495
 5481SOL     OW17341   4.234   6.533   3.759
 5481SOL    HW117342   4.306   6.547   3.828
 5481SOL    HW217343   4.256   6.585   3.677
 5482SOL     OW17344   1.667   5.984   1.834
 5482SOL    HW117345   1.677   5.912   1.765
 5482SOL    HW217346   1.576   5.977   1.876
 5483SOL     OW17347   0.942   2.200   6.362
 5483SOL    HW117348   0.977   2.106   6.370
 5483SOL    HW217349   0.842   2.199   6.361
 5484SOL     OW17350   5.500   0.252   4.757
 5484SOL    HW117351   5.468   0.342   4.788
 5484SOL    HW217352   5.595   0.238   4.787
 5485SOL     OW17353   3.631   0.268   4.397
 5485SOL    HW117354   3.672   0.355   4.369
 5485SOL    HW217355   3.649   0.252   4.494
 5486SOL     OW17356   3.497   5.014   3.851
 5486SOL    HW117357   3.445   5.073   3.913
 5486SOL    HW217358   3.593   5.043   3.850
 5487SOL     OW17359   3.084   5.806   5.342
 5487SOL    HW117360   3.144   5.730   5.369
 5487SOL    HW217361   3.135   5.871   5.287
 5488SOL     OW17362   4.991   2.019   6.637
 5488SOL    HW117363   4.936   2.100   6.616
 5488SOL    HW217364   5.041   2.035   6.723
 5489SOL     OW17365   0.378   2.449   4.193
 5489SOL    HW117366   0.445   2.517   4.164
 5489SOL    HW217367   0.315   2.430   4.117
 5490SOL     OW17368   0.826   4.972   2.065
 5490SOL    HW117369   0.845   4.889   2.117
 5490SOL    HW217370   0.764   5.030   2.118
 5491SOL     OW17371   5.965   4.141   0.879
 5491SOL    HW117372   5.969   4.167   0.783
 5491SOL    HW217373   5.985   4.043   0.888
 5492SOL     OW17374   0.532   1.881   6.552
 5492SOL    HW117375   0.559   1.976   6.569
 5492SOL    HW217376   0.473   1.876   6.472
 5493SOL     OW17377   4.104   4.068   0.090
 5493SOL    HW117378   4.173   4.033   0.027
 5493SOL    HW217379   4.057   3.992   0.135
 5494SOL     OW17380   5.927   2.531   5.233
 5494SOL    HW117381   5.923   2.432   5.239
 5494SOL    HW217382   5.865   2.570   5.302
 5495SOL     OW17383   6.103   0.472   0.302
 5495SOL    HW117384   6.015   0.447   0.343
 5495SOL    HW217385   6.104   0.570   0.282
 5496SOL     OW17386   4.072   6.631   6.142
 5496SOL    HW117387   4.084   6.708   6.206
 5496SOL    HW217388   4.160   6.611   6.098
 5497SOL     OW17389   0.692   0.571   5.545
 5497SOL    HW117390   0.669   0.625   5.626
 5497SOL    HW217391   0.775   0.518   5.563
 5498SOL     OW17392   0.936   5.571   1.369
 5498SOL    HW117393   1.022   5.591   1.321
 5498SOL    HW217394   0.903   5.481   1.341
 5499SOL     OW17395   2.308   0.347   3.715
 5499SOL    HW117396   2.284   0.357   3.811
 5499SOL    HW217397   2.227   0.322   3.662
 5500SOL     OW17398   1.992   6.547   1.384
 5500SOL    HW117399   1.933   6.623   1.358
 5500SOL    HW217400   1.971   6.519   1.478
 5501SOL     OW17401   5.152   3.119   0.055
 5501SOL    HW117402   5.113   3.071   6.987
 5501SOL    HW217403   5.079   3.139   0.120
 5502SOL     OW17404   4.568   3.322   6.598
 5502SOL    HW117405   4.661   3.343   6.628
 5502SOL    HW217406   4.563   3.225   6.572
 5503SOL     OW17407   5.803   3.479   1.127
 5503SOL    HW117408   5.835   3.417   1.056
 5503SOL    HW217409   5.710   3.510   1.104
 5504SOL     OW17410   3.163   2.042   0.203
 5504SOL    HW117411   3.180   2.004   0.112
 5504SOL    HW217412   3.175   2.141   0.200
 5505SOL     OW17413   2.599   5.005   2.202
 5505SOL    HW117414   2.520   4.962   2.160
 5505SOL    HW217415   2.676   5.001   2.138
 5506SOL     OW17416   6.545   2.499   5.793
 5506SOL    HW117417   6.460   2.449   5.781
 5506SOL    HW217418   6.615   2.460   5.732
 5507SOL     OW17419   4.095   6.670   0.560
 5507SOL    HW117420   4.143   6.755   0.540
 5507SOL    HW217421   4.145   6.593   0.518
 5508SOL     OW17422   6.917   1.403   6.522
 5508SOL    HW117423   6.925   1.459   6.604
 5508SOL    HW217424   6.944   1.457   6.442
 5509SOL     OW17425   6.283   3.809   0.098
 5509SOL    HW117426   6.264   3.874   0.025
 5509SOL    HW217427   6.377   3.776   0.090
 5510SOL     OW17428   5.267   6.050   6.902
 5510SOL    HW117429   5.213   5.996   6.838
 5510SOL    HW217430   5.364   6.030   6.888
 5511SOL     OW17431   0.950   2.499   6.349
 5511SOL    HW117432   0.872   2.440   6.330
 5511SOL    HW217433   1.008   2.505   6.268
 5512SOL     OW17434   2.533   6.923   2.327
 5512SOL    HW117435   2.538   6.895   2.422
 5512SOL    HW217436   2.613   6.889   2.278
 5513SOL     OW17437   3.602   4.392   6.582
 5513SOL    HW117438   3.697   4.423   6.586
 5513SOL    HW217439   3.548   4.461   6.534
 5514SOL     OW17440   3.555   1.158   0.697
 5514SOL    HW117441   3.478   1.096   0.711
 5514SOL    HW217442   3.620   1.148   0.772
 5515SOL     OW17443   3.615   5.145   2.706
 5515SOL    HW117444   3.546   5.124   2.636
 5515SOL    HW217445   3.630   5.064   2.763
 5516SOL     OW17446   1.339   2.359   5.889
 5516SOL    HW117447   1.273   2.423   5.849
 5516SOL    HW217448   1.305   2.266   5.879
 5517SOL     OW17449   0.797   1.972   3.910
 5517SOL    HW117450   0.822   1.876   3.901
 5517SOL    HW217451   0.741   1.985   3.992
 5518SOL     OW17452   4.627   4.543   5.773
 5518SOL    HW117453   4.647   4.459   5.723
 5518SOL    HW217454   4.529   4.565   5.764
 5519SOL     OW17455   5.451   2.417   5.666
 5519SOL    HW117456   5.447   2.506   5.712
 5519SOL    HW217457   5.438   2.344   5.733
 5520SOL     OW17458   5.176   6.110   1.406
 5520SOL    HW117459   5.082   6.143   1.399
 5520SOL    HW217460   5.214   6.100   1.314
 5521SOL     OW17461   4.419   6.913   2.124
 5521SOL    HW117462   4.378   6.823   2.116
 5521SOL    HW217463   4.378   6.962   2.201
 5522SOL     OW17464   5.019   6.410   0.160
 5522SOL    HW117465   5.050   6.326   0.116
 5522SOL    HW217466   4.923   6.427   0.138
 5523SOL     OW17467   5.229   2.253   0.746
 5523SOL    HW117468   5.204   2.330   0.687
 5523SOL    HW217469   5.157   2.184   0.743
 5524SOL     OW17470   2.758   1.382   3.227
 5524SOL    HW117471   2.754   1.305   3.163
 5524SOL    HW217472   2.822   1.361   3.301
 5525SOL     OW17473   6.868   1.727   1.612
 5525SOL    HW117474   6.887   1.629   1.619
 5525SOL    HW217475   6.927   1.767   1.543
 5526SOL     OW17476   5.274   4.340   4.408
 5526SOL    HW117477   5.226   4.424   4.384
 5526SOL    HW217478   5.373   4.356   4.408
 5527SOL     OW17479   6.407   0.293   2.673
 5527SOL    HW117480   6.338   0.291   2.600
 5527SOL    HW217481   6.421   0.387   2.703
 5528SOL     OW17482   1.103   1.652   0.117
 5528SOL    HW117483   1.094   1.614   0.026
 5528SOL    HW217484   1.131   1.748   0.111
 5529SOL     OW17485   3.605   0.366   1.752
 5529SOL    HW117486   3.595   0.464   1.735
 5529SOL    HW217487   3.517   0.320   1.736
 5530SOL     OW17488   0.921   1.340   1.279
 5530SOL    HW117489   0.906   1.337   1.181
 5530SOL    HW217490   0.960   1.429   1.304
 5531SOL     OW17491   1.738   4.682   0.241
 5531SOL    HW117492   1.792   4.623   0.181
 5531SOL    HW217493   1.702   4.628   0.317
 5532SOL     OW17494   6.974   4.148   6.148
 5532SOL    HW117495   6.924   4.223   6.105
 5532SOL    HW217496   0.033   4.185   6.209
 5533SOL     OW17497   3.529   1.000   2.935
 5533SOL    HW117498   3.431   0.981   2.929
 5533SOL    HW217499   3.550   1.082   2.882
 5534SOL     OW17500   1.624   0.408   4.445
 5534SOL    HW117501   1.663   0.491   4.407
 5534SOL    HW217502   1.591   0.426   4.538
 5535SOL     OW17503   0.479   1.904   2.502
 5535SOL    HW117504   0.466   1.826   2.441
 5535SOL    HW217505   0.444   1.882   2.592
 5536SOL     OW17506   4.644   0.002   4.640
 5536SOL    HW117507   4.667   0.095   4.614
 5536SOL    HW217508   4.726   6.965   4.671
 5537SOL     OW17509   2.460   2.401   3.106
 5537SOL    HW117510   2.466   2.338   3.029
 5537SOL    HW217511   2.411   2.483   3.078
 5538SOL     OW17512   4.475   5.814   4.010
 5538SOL    HW117513   4.378   5.808   4.032
 5538SOL    HW217514   4.528   5.758   4.073
 5539SOL     OW17515   2.228   4.169   0.085
 5539SOL    HW117516   2.307   4.119   0.051
 5539SOL    HW217517   2.242   4.267   0.069
 5540SOL     OW17518   3.668   5.503   1.086
 5540SOL    HW117519   3.707   5.499   0.994
 5540SOL    HW217520   3.615   5.586   1.097
 5541SOL     OW17521   4.617   0.519   6.178
 5541SOL    HW117522   4.613   0.557   6.086
 5541SOL    HW217523   4.689   0.450   6.183
 5542SOL     OW17524   5.262   4.632   6.178
 5542SOL    HW117525   5.301   4.540   6.179
 5542SOL    HW217526   5.291   4.682   6.260
 5543SOL     OW17527   0.459   1.920   4.972
 5543SOL    HW117528   0.523   1.870   5.030
 5543SOL    HW217529   0.510   1.983   4.913
 5544SOL     OW17530   5.649   0.543   6.750
 5544SOL    HW117531   5.592   0.625   6.746
 5544SOL    HW217532   5.743   0.567   6.728
 5545SOL     OW17533   2.351   2.149   2.099
 5545SOL    HW117534   2.390   2.235   2.065
 5545SOL    HW217535   2.360   2.146   2.199
 5546SOL     OW17536   3.999   5.654   5.240
 5546SOL    HW117537   4.064   5.605   5.299
 5546SOL    HW217538   4.041   5.739   5.208
 5547SOL     OW17539   3.358   5.283   3.753
 5547SOL    HW117540   3.443   5.282   3.805
 5547SOL    HW217541   3.366   5.224   3.673
 5548SOL     OW17542   0.012   1.788   4.803
 5548SOL    HW117543   0.088   1.788   4.868
 5548SOL    HW217544   6.937   1.804   4.853
 5549SOL     OW17545   3.727   5.288   6.474
 5549SOL    HW117546   3.822   5.260   6.487
 5549SOL    HW217547   3.702   5.277   6.378
 5550SOL     OW17548   2.589   6.443   2.762
 5550SOL    HW117549   2.638   6.530   2.755
 5550SOL    HW217550   2.632   6.385   2.831
 5551SOL     OW17551   0.857   1.235   2.344
 5551SOL    HW117552   0.940   1.271   2.300
 5551SOL    HW217553   0.808   1.311   2.387
 5552SOL     OW17554   2.092   2.453   2.786
 5552SOL    HW117555   2.169   2.517   2.790
 5552SOL    HW217556   2.127   2.359   2.782
 5553SOL     OW17557   4.777   6.178   6.213
 5553SOL    HW117558   4.861   6.128   6.235
 5553SOL    HW217559   4.716   6.179   6.292
 5554SOL     OW17560   3.513   0.500   4.620
 5554SOL    HW117561   3.582   0.547   4.565
 5554SOL    HW217562   3.555   0.465   4.703
 5555SOL     OW17563   0.960   6.040   1.440
 5555SOL    HW117564   0.891   5.972   1.414
 5555SOL    HW217565   1.049   5.995   1.446
 5556SOL     OW17566   0.021   1.149   5.199
 5556SOL    HW117567   6.941   1.160   5.158
 5556SOL    HW217568   0.034   1.055   5.229
 5557SOL     OW17569   3.414   0.653   1.971
 5557SOL    HW117570   3.506   0.636   2.007
 5557SOL    HW217571   3.404   0.750   1.948
 5558SOL     OW17572   5.145   2.543   5.739
 5558SOL    HW117573   5.073   2.499   5.684
 5558SOL    HW217574   5.103   2.590   5.817
 5559SOL     OW17575   2.844   0.410   0.821
 5559SOL    HW117576   2.915   0.373   0.761
 5559SOL    HW217577   2.882   0.483   0.877
 5560SOL     OW17578   6.954   1.365   4.855
 5560SOL    HW117579   7.003   1.313   4.925
 5560SOL    HW217580   0.009   1.404   4.791
 5561SOL     OW17581   1.572   4.410   1.926
 5561SOL    HW117582   1.519   4.430   2.009
 5561SOL    HW217583   1.634   4.334   1.944
 5562SOL     OW17584   3.820   2.211   0.172
 5562SOL    HW117585   3.833   2.259   0.259
 5562SOL    HW217586   3.730   2.168   0.171
 5563SOL     OW17587   3.830   4.445   1.283
 5563SOL    HW117588   3.748   4.448   1.225
 5563SOL    HW217589   3.817   4.504   1.362
 5564SOL     OW17590   6.072   1.443   2.693
 5564SOL    HW117591   6.037   1.487   2.776
 5564SOL    HW217592   6.081   1.344   2.709
 5565SOL     OW17593   1.351   3.043   5.764
 5565SOL    HW117594   1.364   2.948   5.792
 5565SOL    HW217595   1.372   3.052   5.667
 5566SOL     OW17596   2.573   4.217   0.489
 5566SOL    HW117597   2.479   4.245   0.470
 5566SOL    HW217598   2.629   4.234   0.408
 5567SOL     OW17599   1.404   5.495   3.232
 5567SOL    HW117600   1.476   5.436   3.194
 5567SOL    HW217601   1.396   5.478   3.330
 5568SOL     OW17602   3.757   2.525   0.130
 5568SOL    HW117603   3.798   2.604   0.086
 5568SOL    HW217604   3.791   2.518   0.224
 5569SOL     OW17605   4.801   1.823   6.612
 5569SOL    HW117606   4.859   1.904   6.620
 5569SOL    HW217607   4.755   1.806   6.699
 5570SOL     OW17608   1.480   2.478   6.122
 5570SOL    HW117609   1.456   2.419   6.199
 5570SOL    HW217610   1.434   2.445   6.040
 5571SOL     OW17611   0.562   4.456   6.327
 5571SOL    HW117612   0.661   4.456   6.335
 5571SOL    HW217613   0.521   4.440   6.417
 5572SOL     OW17614   0.500   2.897   6.124
 5572SOL    HW117615   0.577   2.936   6.074
 5572SOL    HW217616   0.450   2.969   6.171
 5573SOL     OW17617   6.793   3.522   6.129
 5573SOL    HW117618   6.733   3.592   6.168
 5573SOL    HW217619   6.810   3.543   6.032
 5574SOL     OW17620   1.854   6.138   4.376
 5574SOL    HW117621   1.761   6.132   4.411
 5574SOL    HW217622   1.889   6.231   4.389
 5575SOL     OW17623   1.093   1.339   2.842
 5575SOL    HW117624   1.144   1.316   2.759
 5575SOL    HW217625   1.108   1.436   2.864
 5576SOL     OW17626   5.222   6.623   5.552
 5576SOL    HW117627   5.319   6.603   5.548
 5576SOL    HW217628   5.169   6.542   5.528
 5577SOL     OW17629   1.348   4.534   4.699
 5577SOL    HW117630   1.256   4.572   4.683
 5577SOL    HW217631   1.348   4.437   4.676
 5578SOL     OW17632   4.114   1.844   6.086
 5578SOL    HW117633   4.210   1.870   6.074
 5578SOL    HW217634   4.066   1.915   6.137
 5579SOL     OW17635   4.987   4.534   2.471
 5579SOL    HW117636   5.072   4.495   2.435
 5579SOL    HW217637   4.967   4.493   2.560
 5580SOL     OW17638   6.114   1.261   1.796
 5580SOL    HW117639   6.047   1.188   1.786
 5580SOL    HW217640   6.155   1.280   1.706
 5581SOL     OW17641   2.891   3.211   0.749
 5581SOL    HW117642   2.960   3.193   0.679
 5581SOL    HW217643   2.928   3.275   0.817
 5582SOL     OW17644   3.021   3.345   3.685
 5582SOL    HW117645   3.040   3.371   3.590
 5582SOL    HW217646   2.978   3.421   3.733
 5583SOL     OW17647   3.728   0.585   6.772
 5583SOL    HW117648   3.805   0.536   6.731
 5583SOL    HW217649   3.731   0.681   6.743
 5584SOL     OW17650   4.986   3.157   4.143
 5584SOL    HW117651   5.032   3.133   4.058
 5584SOL    HW217652   5.017   3.247   4.174
 5585SOL     OW17653   0.406   0.417   3.594
 5585SOL    HW117654   0.496   0.375   3.595
 5585SOL    HW217655   0.399   0.479   3.516
 5586SOL     OW17656   1.588   0.709   6.924
 5586SOL    HW117657   1.682   0.722   6.893
 5586SOL    HW217658   1.577   0.617   6.962
 5587SOL     OW17659   3.857   6.122   3.370
 5587SOL    HW117660   3.906   6.040   3.341
 5587SOL    HW217661   3.803   6.101   3.451
 5588SOL     OW17662   4.915   6.265   6.786
 5588SOL    HW117663   4.816   6.275   6.796
 5588SOL    HW217664   4.954   6.235   6.873
 5589SOL     OW17665   1.601   3.080   6.971
 5589SOL    HW117666   1.574   2.989   7.002
 5589SOL    HW217667   1.601   3.143   0.038
 5590SOL     OW17668   6.401   0.368   3.410
 5590SOL    HW117669   6.430   0.292   3.351
 5590SOL    HW217670   6.463   0.446   3.397
 5591SOL     OW17671   5.287   0.993   6.704
 5591SOL    HW117672   5.314   1.079   6.660
 5591SOL    HW217673   5.199   0.962   6.667
 5592SOL     OW17674   1.426   3.097   3.031
 5592SOL    HW117675   1.511   3.064   2.988
 5592SOL    HW217676   1.447   3.174   3.090
 5593SOL     OW17677   2.137   3.632   5.144
 5593SOL    HW117678   2.150   3.533   5.144
 5593SOL    HW217679   2.188   3.673   5.068
 5594SOL     OW17680   2.801   1.347   5.939
 5594SOL    HW117681   2.860   1.362   5.859
 5594SOL    HW217682   2.836   1.268   5.991
 5595SOL     OW17683   6.793   3.239   6.850
 5595SOL    HW117684   6.742   3.243   6.764
 5595SOL    HW217685   6.867   3.172   6.842
 5596SOL     OW17686   4.836   3.752   4.545
 5596SOL    HW117687   4.926   3.756   4.588
 5596SOL    HW217688   4.786   3.672   4.578
 5597SOL     OW17689   0.312   1.476   6.578
 5597SOL    HW117690   0.220   1.454   6.612
 5597SOL    HW217691   0.370   1.501   6.655
 5598SOL     OW17692   6.554   0.016   3.492
 5598SOL    HW117693   6.579   0.043   3.399
 5598SOL    HW217694   6.577   0.089   3.556
 5599SOL     OW17695   5.321   3.257   3.257
 5599SOL    HW117696   5.246   3.320   3.278
 5599SOL    HW217697   5.285   3.164   3.248
 5600SOL     OW17698   1.817   3.196   2.204
 5600SOL    HW117699   1.773   3.254   2.135
 5600SOL    HW217700   1.814   3.101   2.174
 5601SOL     OW17701   5.531   2.582   6.095
 5601SOL    HW117702   5.433   2.566   6.087
 5601SOL    HW217703   5.549   2.636   6.177
 5602SOL     OW17704   5.910   1.504   2.910
 5602SOL    HW117705   5.906   1.405   2.923
 5602SOL    HW217706   5.859   1.549   2.983
 5603SOL     OW17707   3.479   1.720   6.133
 5603SOL    HW117708   3.488   1.624   6.156
 5603SOL    HW217709   3.411   1.731   6.059
 5604SOL     OW17710   1.456   4.873   3.332
 5604SOL    HW117711   1.538   4.900   3.383
 5604SOL    HW217712   1.458   4.775   3.315
 5605SOL     OW17713   3.202   6.355   4.843
 5605SOL    HW117714   3.115   6.376   4.888
 5605SOL    HW217715   3.261   6.435   4.844
 5606SOL     OW17716   4.542   3.777   1.351
 5606SOL    HW117717   4.455   3.732   1.374
 5606SOL    HW217718   4.617   3.729   1.397
 5607SOL     OW17719   1.172   2.040   2.556
 5607SOL    HW117720   1.131   2.126   2.587
 5607SOL    HW217721   1.217   2.054   2.468
 5608SOL     OW17722   6.510   6.774   3.812
 5608SOL    HW117723   6.559   6.760   3.726
 5608SOL    HW217724   6.511   6.689   3.865
 5609SOL     OW17725   6.644   1.299   0.587
 5609SOL    HW117726   6.723   1.360   0.587
 5609SOL    HW217727   6.561   1.352   0.569
 5610SOL     OW17728   5.533   6.502   6.495
 5610SOL    HW117729   5.625   6.463   6.483
 5610SOL    HW217730   5.539   6.601   6.501
 5611SOL     OW17731   6.604   3.846   1.171
 5611SOL    HW117732   6.521   3.902   1.164
 5611SOL    HW217733   6.683   3.906   1.186
 5612SOL     OW17734   4.692   2.658   1.238
 5612SOL    HW117735   4.670   2.661   1.141
 5612SOL    HW217736   4.763   2.590   1.254
 5613SOL     OW17737   6.891   5.178   5.302
 5613SOL    HW117738   6.841   5.132   5.376
 5613SOL    HW217739   6.983   5.200   5.333
 5614SOL     OW17740   5.843   2.616   4.663
 5614SOL    HW117741   5.810   2.671   4.740
 5614SOL    HW217742   5.808   2.523   4.671
 5615SOL     OW17743   0.524   3.575   2.550
 5615SOL    HW117744   0.497   3.484   2.580
 5615SOL    HW217745   0.577   3.568   2.465
 5616SOL     OW17746   1.628   3.044   1.528
 5616SOL    HW117747   1.701   3.059   1.594
 5616SOL    HW217748   1.664   2.996   1.448
 5617SOL     OW17749   0.597   5.129   5.109
 5617SOL    HW117750   0.694   5.113   5.129
 5617SOL    HW217751   0.552   5.164   5.191
 5618SOL     OW17752   5.092   1.036   2.942
 5618SOL    HW117753   5.087   0.992   2.853
 5618SOL    HW217754   5.186   1.035   2.975
 5619SOL     OW17755   3.001   3.925   4.092
 5619SOL    HW117756   2.978   3.827   4.089
 5619SOL    HW217757   3.076   3.943   4.029
 5620SOL     OW17758   4.485   5.090   5.300
 5620SOL    HW117759   4.395   5.078   5.341
 5620SOL    HW217760   4.499   5.187   5.278
 5621SOL     OW17761   0.861   3.225   6.771
 5621SOL    HW117762   0.776   3.263   6.735
 5621SOL    HW217763   0.888   3.277   6.853
 5622SOL     OW17764   5.854   5.702   2.904
 5622SOL    HW117765   5.803   5.628   2.950
 5622SOL    HW217766   5.880   5.672   2.812
 5623SOL     OW17767   4.565   4.853   3.162
 5623SOL    HW117768   4.589   4.772   3.108
 5623SOL    HW217769   4.482   4.894   3.125
 5624SOL     OW17770   4.842   3.968   3.864
 5624SOL    HW117771   4.934   3.992   3.897
 5624SOL    HW217772   4.825   3.871   3.882
 5625SOL     OW17773   3.417   6.919   6.474
 5625SOL    HW117774   3.497   6.861   6.492
 5625SOL    HW217775   3.335   6.862   6.472
 5626SOL     OW17776   2.117   4.440   5.830
 5626SOL    HW117777   2.206   4.479   5.805
 5626SOL    HW217778   2.058   4.512   5.867
 5627SOL     OW17779   1.234   5.304   0.903
 5627SOL    HW117780   1.317   5.301   0.848
 5627SOL    HW217781   1.195   5.212   0.911
 5628SOL     OW17782   0.834   2.734   0.096
 5628SOL    HW117783   0.780   2.649   0.101
 5628SOL    HW217784   0.928   2.712   0.072
 5629SOL     OW17785   0.288   3.457   4.030
 5629SOL    HW117786   0.349   3.489   4.103
 5629SOL    HW217787   0.219   3.397   4.069
 5630SOL     OW17788   1.157   4.754   0.113
 5630SOL    HW117789   1.163   4.709   0.024
 5630SOL    HW217790   1.249   4.761   0.153
 5631SOL     OW17791   3.631   0.445   2.836
 5631SOL    HW117792   3.575   0.459   2.918
 5631SOL    HW217793   3.612   0.517   2.770
 5632SOL     OW17794   3.078   0.212   6.478
 5632SOL    HW117795   3.174   0.201   6.454
 5632SOL    HW217796   3.068   0.209   6.577
 5633SOL     OW17797   1.649   5.552   5.035
 5633SOL    HW117798   1.596   5.538   4.952
 5633SOL    HW217799   1.728   5.491   5.035
 5634SOL     OW17800   2.636   0.175   1.973
 5634SOL    HW117801   2.603   0.263   1.937
 5634SOL    HW217802   2.636   0.108   1.900
 5635SOL     OW17803   3.802   0.169   2.057
 5635SOL    HW117804   3.764   0.077   2.070
 5635SOL    HW217805   3.885   0.179   2.111
 5636SOL     OW17806   5.214   0.428   4.429
 5636SOL    HW117807   5.282   0.468   4.367
 5636SOL    HW217808   5.174   0.347   4.386
 5637SOL     OW17809   5.672   0.193   5.201
 5637SOL    HW117810   5.596   0.128   5.206
 5637SOL    HW217811   5.695   0.226   5.293
 5638SOL     OW17812   1.131   5.496   6.821
 5638SOL    HW117813   1.065   5.546   6.765
 5638SOL    HW217814   1.206   5.558   6.847
 5639SOL     OW17815   3.148   6.870   1.913
 5639SOL    HW117816   3.187   6.885   1.822
 5639SOL    HW217817   3.141   6.957   1.962
 5640SOL     OW17818   3.581   6.656   3.968
 5640SOL    HW117819   3.517   6.660   4.044
 5640SOL    HW217820   3.624   6.746   3.955
 5641SOL     OW17821   6.591   5.024   3.376
 5641SOL    HW117822   6.654   5.100   3.396
 5641SOL    HW217823   6.509   5.059   3.332
 5642SOL     OW17824   2.472   1.699   6.504
 5642SOL    HW117825   2.540   1.715   6.576
 5642SOL    HW217826   2.513   1.644   6.431
 5643SOL     OW17827   4.971   2.930   3.388
 5643SOL    HW117828   4.957   3.014   3.335
 5643SOL    HW217829   5.058   2.936   3.438
 5644SOL     OW17830   3.286   0.796   5.987
 5644SOL    HW117831   3.345   0.876   5.978
 5644SOL    HW217832   3.265   0.780   6.084
 5645SOL     OW17833   6.228   6.304   3.951
 5645SOL    HW117834   6.193   6.252   3.873
 5645SOL    HW217835   6.267   6.390   3.918
 5646SOL     OW17836   6.888   0.721   2.440
 5646SOL    HW117837   6.864   0.626   2.423
 5646SOL    HW217838   6.806   0.773   2.462
 5647SOL     OW17839   6.050   3.696   5.885
 5647SOL    HW117840   6.114   3.772   5.897
 5647SOL    HW217841   6.008   3.702   5.794
 5648SOL     OW17842   1.571   1.677   3.937
 5648SOL    HW117843   1.634   1.730   3.993
 5648SOL    HW217844   1.583   1.701   3.841
 5649SOL     OW17845   6.786   0.496   4.258
 5649SOL    HW117846   6.737   0.580   4.237
 5649SOL    HW217847   6.829   0.503   4.348
 5650SOL     OW17848   6.299   4.958   4.905
 5650SOL    HW117849   6.396   4.983   4.902
 5650SOL    HW217850   6.285   4.891   4.978
 5651SOL     OW17851   6.060   0.515   2.434
 5651SOL    HW117852   6.051   0.595   2.375
 5651SOL    HW217853   6.019   0.535   2.523
 5652SOL     OW17854   4.714   4.299   0.183
 5652SOL    HW117855   4.700   4.374   0.247
 5652SOL    HW217856   4.682   4.325   0.093
 5653SOL     OW17857   2.253   6.020   0.072
 5653SOL    HW117858   2.275   6.116   0.054
 5653SOL    HW217859   2.267   5.966   6.999
 5654SOL     OW17860   2.315   6.939   0.643
 5654SOL    HW117861   2.327   0.027   0.631
 5654SOL    HW217862   2.361   6.910   0.727
 5655SOL     OW17863   6.302   5.528   2.557
 5655SOL    HW117864   6.295   5.451   2.494
 5655SOL    HW217865   6.307   5.494   2.651
 5656SOL     OW17866   3.440   5.190   5.866
 5656SOL    HW117867   3.491   5.176   5.951
 5656SOL    HW217868   3.470   5.124   5.798
 5657SOL     OW17869   4.585   5.364   2.156
 5657SOL    HW117870   4.580   5.341   2.059
 5657SOL    HW217871   4.673   5.405   2.177
 5658SOL     OW17872   4.563   6.454   6.168
 5658SOL    HW117873   4.586   6.405   6.252
 5658SOL    HW217874   4.647   6.494   6.130
 5659SOL     OW17875   3.531   4.112   2.092
 5659SOL    HW117876   3.478   4.195   2.104
 5659SOL    HW217877   3.476   4.033   2.120
 5660SOL     OW17878   6.559   5.613   1.622
 5660SOL    HW117879   6.513   5.635   1.709
 5660SOL    HW217880   6.537   5.683   1.554
 5661SOL     OW17881   6.521   6.031   4.547
 5661SOL    HW117882   6.515   5.965   4.622
 5661SOL    HW217883   6.489   5.988   4.463
 5662SOL     OW17884   1.639   3.939   4.550
 5662SOL    HW117885   1.680   3.870   4.609
 5662SOL    HW217886   1.646   4.029   4.593
 5663SOL     OW17887   2.250   3.619   0.795
 5663SOL    HW117888   2.328   3.572   0.834
 5663SOL    HW217889   2.217   3.688   0.860
 5664SOL     OW17890   6.259   6.491   1.613
 5664SOL    HW117891   6.271   6.456   1.520
 5664SOL    HW217892   6.177   6.450   1.653
 5665SOL     OW17893   2.025   0.947   5.630
 5665SOL    HW117894   2.087   1.009   5.679
 5665SOL    HW217895   1.963   1.001   5.573
 5666SOL     OW17896   5.411   5.813   6.339
 5666SOL    HW117897   5.391   5.910   6.331
 5666SOL    HW217898   5.511   5.800   6.343
 5667SOL     OW17899   5.638   4.350   2.421
 5667SOL    HW117900   5.653   4.355   2.322
 5667SOL    HW217901   5.590   4.432   2.452
 5668SOL     OW17902   6.547   2.195   6.794
 5668SOL    HW117903   6.517   2.289   6.775
 5668SOL    HW217904   6.638   2.197   6.834
 5669SOL     OW17905   6.771   2.490   4.933
 5669SOL    HW117906   6.862   2.448   4.934
 5669SOL    HW217907   6.768   2.563   5.001
 5670SOL     OW17908   1.414   3.096   2.013
 5670SOL    HW117909   1.377   3.103   2.105
 5670SOL    HW217910   1.380   3.173   1.958
 5671SOL     OW17911   1.171   0.818   5.710
 5671SOL    HW117912   1.230   0.883   5.661
 5671SOL    HW217913   1.211   0.727   5.704
 5672SOL     OW17914   4.118   4.525   5.589
 5672SOL    HW117915   4.164   4.437   5.592
 5672SOL    HW217916   4.110   4.555   5.494
 5673SOL     OW17917   1.695   6.688   1.582
 5673SOL    HW117918   1.671   6.773   1.628
 5673SOL    HW217919   1.778   6.650   1.624
 5674SOL     OW17920   1.012   2.914   0.968
 5674SOL    HW117921   1.012   2.874   0.876
 5674SOL    HW217922   1.087   2.979   0.976
 5675SOL     OW17923   4.204   1.161   5.774
 5675SOL    HW117924   4.210   1.165   5.674
 5675SOL    HW217925   4.125   1.104   5.800
 5676SOL     OW17926   2.025   6.486   2.472
 5676SOL    HW117927   2.052   6.400   2.516
 5676SOL    HW217928   2.107   6.537   2.446
 5677SOL     OW17929   6.569   7.002   2.614
 5677SOL    HW117930   6.640   6.994   2.544
 5677SOL    HW217931   6.539   0.086   2.621
 5678SOL     OW17932   1.261   5.231   3.022
 5678SOL    HW117933   1.333   5.222   3.090
 5678SOL    HW217934   1.172   5.234   3.067
 5679SOL     OW17935   3.729   5.937   5.484
 5679SOL    HW117936   3.715   5.970   5.390
 5679SOL    HW217937   3.776   6.008   5.537
 5680SOL     OW17938   2.083   6.643   6.552
 5680SOL    HW117939   2.160   6.703   6.528
 5680SOL    HW217940   1.999   6.697   6.559
 5681SOL     OW17941   2.990   3.606   0.006
 5681SOL    HW117942   2.917   3.636   6.956
 5681SOL    HW217943   2.959   3.610   0.101
 5682SOL     OW17944   1.793   3.654   4.557
 5682SOL    HW117945   1.883   3.622   4.527
 5682SOL    HW217946   1.727   3.644   4.482
 5683SOL     OW17947   4.375   2.839   5.418
 5683SOL    HW117948   4.318   2.919   5.439
 5683SOL    HW217949   4.456   2.840   5.477
 5684SOL     OW17950   3.278   4.124   3.232
 5684SOL    HW117951   3.313   4.218   3.224
 5684SOL    HW217952   3.334   4.064   3.175
 5685SOL     OW17953   0.188   6.439   1.149
 5685SOL    HW117954   0.126   6.432   1.070
 5685SOL    HW217955   0.135   6.459   1.231
 5686SOL     OW17956   3.194   4.671   6.419
 5686SOL    HW117957   3.125   4.606   6.451
 5686SOL    HW217958   3.228   4.724   6.497
 5687SOL     OW17959   4.564   6.230   6.420
 5687SOL    HW117960   4.580   6.318   6.465
 5687SOL    HW217961   4.478   6.191   6.453
 5688SOL     OW17962   5.404   1.528   2.522
 5688SOL    HW117963   5.451   1.602   2.472
 5688SOL    HW217964   5.469   1.453   2.539
 5689SOL     OW17965   3.676   3.143   5.517
 5689SOL    HW117966   3.593   3.127   5.464
 5689SOL    HW217967   3.724   3.057   5.532
 5690SOL     OW17968   3.772   0.520   3.199
 5690SOL    HW117969   3.812   0.507   3.108
 5690SOL    HW217970   3.675   0.543   3.190
 5691SOL     OW17971   3.432   0.304   4.193
 5691SOL    HW117972   3.503   0.294   4.262
 5691SOL    HW217973   3.343   0.313   4.238
 5692SOL     OW17974   5.839   2.843   6.929
 5692SOL    HW117975   5.760   2.804   6.881
 5692SOL    HW217976   5.923   2.800   6.896
 5693SOL     OW17977   5.192   2.851   1.754
 5693SOL    HW117978   5.192   2.937   1.702
 5693SOL    HW217979   5.270   2.795   1.726
 5694SOL     OW17980   1.414   2.322   4.656
 5694SOL    HW117981   1.379   2.258   4.725
 5694SOL    HW217982   1.475   2.388   4.700
 5695SOL     OW17983   1.775   3.934   3.433
 5695SOL    HW117984   1.737   3.880   3.508
 5695SOL    HW217985   1.807   4.022   3.469
 5696SOL     OW17986   3.362   1.482   6.449
 5696SOL    HW117987   3.282   1.537   6.424
 5696SOL    HW217988   3.333   1.388   6.466
 5697SOL     OW17989   6.756   3.662   0.334
 5697SOL    HW117990   6.801   3.720   0.401
 5697SOL    HW217991   6.670   3.627   0.372
 5698SOL     OW17992   1.579   4.055   3.664
 5698SOL    HW117993   1.539   4.141   3.695
 5698SOL    HW217994   1.507   3.997   3.626
 5699SOL     OW17995   0.816   2.173   4.955
 5699SOL    HW117996   0.798   2.171   5.053
 5699SOL    HW217997   0.817   2.079   4.919
 5700SOL     OW17998   1.464   4.770   4.609
 5700SOL    HW117999   1.453   4.682   4.656
 5700SOL    HW218000   1.516   4.832   4.668
 5701SOL     OW18001   4.749   2.834   3.093
 5701SOL    HW118002   4.783   2.853   3.001
 5701SOL    HW218003   4.809   2.879   3.160
 5702SOL     OW18004   3.595   0.251   0.274
 5702SOL    HW118005   3.667   0.275   0.338
 5702SOL    HW218006   3.590   0.151   0.265
 5703SOL     OW18007   4.951   4.288   2.125
 5703SOL    HW118008   4.882   4.307   2.055
 5703SOL    HW218009   4.906   4.268   2.211
 5704SOL     OW18010   5.239   4.579   3.263
 5704SOL    HW118011   5.339   4.572   3.260
 5704SOL    HW218012   5.212   4.632   3.344
 5705SOL     OW18013   6.806   1.104   3.987
 5705SOL    HW118014   6.853   1.152   3.913
 5705SOL    HW218015   6.808   1.161   4.070
 5706SOL     OW18016   2.124   1.378   6.874
 5706SOL    HW118017   2.132   1.280   6.890
 5706SOL    HW218018   2.175   1.403   6.792
 5707SOL     OW18019   3.825   1.395   0.854
 5707SOL    HW118020   3.734   1.405   0.813
 5707SOL    HW218021   3.876   1.481   0.843
 5708SOL     OW18022   0.873   6.931   0.864
 5708SOL    HW118023   0.860   6.834   0.840
 5708SOL    HW218024   0.818   6.953   0.944
 5709SOL     OW18025   0.771   2.377   1.033
 5709SOL    HW118026   0.805   2.447   0.969
 5709SOL    HW218027   0.847   2.342   1.087
 5710SOL     OW18028   3.583   4.906   7.003
 5710SOL    HW118029   3.491   4.877   0.018
 5710SOL    HW218030   3.589   4.911   6.903
 5711SOL     OW18031   5.353   1.356   4.789
 5711SOL    HW118032   5.363   1.448   4.753
 5711SOL    HW218033   5.428   1.338   4.854
 5712SOL     OW18034   6.053   6.920   6.569
 5712SOL    HW118035   6.007   6.965   6.493
 5712SOL    HW218036   6.068   6.986   6.643
 5713SOL     OW18037   0.535   3.242   2.559
 5713SOL    HW118038   0.607   3.200   2.504
 5713SOL    HW218039   0.454   3.184   2.558
 5714SOL     OW18040   2.206   0.644   6.954
 5714SOL    HW118041   2.200   0.566   0.005
 5714SOL    HW218042   2.139   0.633   6.880
 5715SOL     OW18043   0.788   6.449   3.445
 5715SOL    HW118044   0.754   6.411   3.359
 5715SOL    HW218045   0.710   6.470   3.505
 5716SOL     OW18046   2.199   2.188   5.427
 5716SOL    HW118047   2.188   2.286   5.411
 5716SOL    HW218048   2.111   2.148   5.451
 5717SOL     OW18049   0.847   3.193   5.741
 5717SOL    HW118050   0.882   3.284   5.719
 5717SOL    HW218051   0.826   3.144   5.656
 5718SOL     OW18052   3.141   5.824   6.169
 5718SOL    HW118053   3.234   5.855   6.150
 5718SOL    HW218054   3.141   5.725   6.184
 5719SOL     OW18055   2.556   0.869   6.943
 5719SOL    HW118056   2.598   0.788   6.983
 5719SOL    HW218057   2.526   0.848   6.849
 5720SOL     OW18058   2.024   5.788   3.947
 5720SOL    HW118059   2.016   5.859   3.876
 5720SOL    HW218060   1.942   5.731   3.945
 5721SOL     OW18061   6.863   4.705   6.981
 5721SOL    HW118062   6.786   4.670   6.927
 5721SOL    HW218063   6.886   4.797   6.950
 5722SOL     OW18064   5.303   0.893   4.651
 5722SOL    HW118065   5.266   0.811   4.608
 5722SOL    HW218066   5.291   0.971   4.589
 5723SOL     OW18067   0.042   4.382   1.175
 5723SOL    HW118068   6.971   4.437   1.192
 5723SOL    HW218069   0.078   4.348   1.263
 5724SOL     OW18070   5.100   2.905   5.904
 5724SOL    HW118071   5.191   2.934   5.874
 5724SOL    HW218072   5.031   2.943   5.842
 5725SOL     OW18073   5.678   6.826   5.533
 5725SOL    HW118074   5.633   6.738   5.547
 5725SOL    HW218075   5.758   6.833   5.593
 5726SOL     OW18076   3.795   5.182   5.817
 5726SOL    HW118077   3.706   5.180   5.771
 5726SOL    HW218078   3.840   5.269   5.797
 5727SOL     OW18079   5.969   2.358   3.774
 5727SOL    HW118080   6.000   2.451   3.752
 5727SOL    HW218081   5.989   2.338   3.870
 5728SOL     OW18082   3.952   0.752   4.475
 5728SOL    HW118083   3.976   0.849   4.472
 5728SOL    HW218084   3.890   0.734   4.551
 5729SOL     OW18085   2.316   2.368   4.300
 5729SOL    HW118086   2.265   2.285   4.322
 5729SOL    HW218087   2.261   2.448   4.322
 5730SOL     OW18088   3.976   4.479   6.892
 5730SOL    HW118089   3.935   4.533   6.966
 5730SOL    HW218090   4.075   4.490   6.893
 5731SOL     OW18091   4.541   1.107   4.999
 5731SOL    HW118092   4.593   1.164   4.935
 5731SOL    HW218093   4.466   1.160   5.037
 5732SOL     OW18094   5.820   4.621   4.004
 5732SOL    HW118095   5.766   4.545   4.040
 5732SOL    HW218096   5.812   4.624   3.905
 5733SOL     OW18097   2.288   6.920   1.623
 5733SOL    HW118098   2.337   6.871   1.695
 5733SOL    HW218099   2.297   0.008   1.637
 5734SOL     OW18100   1.928   0.080   5.917
 5734SOL    HW118101   1.946   6.996   5.891
 5734SOL    HW218102   1.830   0.098   5.912
 5735SOL     OW18103   5.349   1.609   0.760
 5735SOL    HW118104   5.307   1.697   0.782
 5735SOL    HW218105   5.448   1.620   0.757
 5736SOL     OW18106   5.197   3.719   6.812
 5736SOL    HW118107   5.214   3.663   6.893
 5736SOL    HW218108   5.128   3.675   6.755
 5737SOL     OW18109   5.066   6.336   2.573
 5737SOL    HW118110   5.125   6.282   2.634
 5737SOL    HW218111   4.980   6.356   2.620
 5738SOL     OW18112   3.077   1.160   1.351
 5738SOL    HW118113   3.001   1.195   1.295
 5738SOL    HW218114   3.071   1.197   1.443
 5739SOL     OW18115   1.867   1.167   5.540
 5739SOL    HW118116   1.777   1.173   5.497
 5739SOL    HW218117   1.898   1.259   5.564
 5740SOL     OW18118   4.867   3.201   2.789
 5740SOL    HW118119   4.833   3.108   2.780
 5740SOL    HW218120   4.861   3.247   2.700
 5741SOL     OW18121   1.639   3.356   4.045
 5741SOL    HW118122   1.708   3.321   3.981
 5741SOL    HW218123   1.653   3.454   4.059
 5742SOL     OW18124   5.756   5.321   2.006
 5742SOL    HW118125   5.825   5.383   2.043
 5742SOL    HW218126   5.701   5.284   2.081
 5743SOL     OW18127   4.284   6.431   6.616
 5743SOL    HW118128   4.336   6.513   6.592
 5743SOL    HW218129   4.295   6.412   6.714
 5744SOL     OW18130   5.408   6.300   3.143
 5744SOL    HW118131   5.439   6.275   3.235
 5744SOL    HW218132   5.333   6.366   3.151
 5745SOL     OW18133   1.026   3.833   2.274
 5745SOL    HW118134   1.056   3.786   2.191
 5745SOL    HW218135   1.054   3.780   2.354
 5746SOL     OW18136   5.626   0.345   3.259
 5746SOL    HW118137   5.576   0.270   3.301
 5746SOL    HW218138   5.617   0.428   3.315
 5747SOL     OW18139   2.456   6.818   1.410
 5747SOL    HW118140   2.430   6.872   1.491
 5747SOL    HW218141   2.374   6.789   1.362
 5748SOL     OW18142   6.375   6.629   6.939
 5748SOL    HW118143   6.393   6.697   7.010
 5748SOL    HW218144   6.368   6.538   6.982
 5749SOL     OW18145   2.095   6.376   6.568
 5749SOL    HW118146   2.066   6.346   6.659
 5749SOL    HW218147   2.082   6.475   6.560
 5750SOL     OW18148   6.574   2.671   3.901
 5750SOL    HW118149   6.478   2.640   3.904
 5750SOL    HW218150   6.602   2.699   3.992
 5751SOL     OW18151   0.294   3.698   3.855
 5751SOL    HW118152   0.385   3.731   3.830
 5751SOL    HW218153   0.292   3.676   3.953
 5752SOL     OW18154   6.054   1.328   6.717
 5752SOL    HW118155   5.978   1.299   6.774
 5752SOL    HW218156   6.103   1.402   6.762
 5753SOL     OW18157   3.669   3.657   4.537
 5753SOL    HW118158   3.743   3.601   4.501
 5753SOL    HW218159   3.590   3.599   4.558
 5754SOL     OW18160   6.268   6.735   0.831
 5754SOL    HW118161   6.228   6.814   0.784
 5754SOL    HW218162   6.227   6.651   0.795
 5755SOL     OW18163   0.330   3.181   6.565
 5755SOL    HW118164   0.352   3.279   6.569
 5755SOL    HW218165   0.351   3.146   6.474
 5756SOL     OW18166   6.541   6.531   1.553
 5756SOL    HW118167   6.591   6.461   1.604
 5756SOL    HW218168   6.447   6.535   1.587
 5757SOL     OW18169   0.900   1.540   3.903
 5757SOL    HW118170   0.901   1.451   3.950
 5757SOL    HW218171   0.867   1.528   3.810
 5758SOL     OW18172   6.300   6.848   3.284
 5758SOL    HW118173   6.312   6.908   3.205
 5758SOL    HW218174   6.361   6.770   3.277
 5759SOL     OW18175   1.964   6.525   3.330
 5759SOL    HW118176   1.985   6.466   3.408
 5759SOL    HW218177   1.947   6.618   3.362
 5760SOL     OW18178   0.554   1.922   0.436
 5760SOL    HW118179   0.549   1.838   0.382
 5760SOL    HW218180   0.650   1.946   0.452
 5761SOL     OW18181   6.556   6.567   5.237
 5761SOL    HW118182   6.552   6.470   5.259
 5761SOL    HW218183   6.628   6.610   5.292
 5762SOL     OW18184   0.792   5.703   5.446
 5762SOL    HW118185   0.876   5.741   5.406
 5762SOL    HW218186   0.752   5.769   5.509
 5763SOL     OW18187   4.899   0.544   0.266
 5763SOL    HW118188   4.810   0.524   0.308
 5763SOL    HW218189   4.950   0.606   0.326
 5764SOL     OW18190   3.997   6.343   4.146
 5764SOL    HW118191   3.919   6.329   4.085
 5764SOL    HW218192   4.040   6.255   4.168
 5765SOL     OW18193   6.948   6.159   2.576
 5765SOL    HW118194   6.920   6.254   2.561
 5765SOL    HW218195   6.970   6.145   2.673
 5766SOL     OW18196   0.976   0.842   4.393
 5766SOL    HW118197   0.997   0.863   4.298
 5766SOL    HW218198   1.047   0.879   4.452
 5767SOL     OW18199   6.036   6.488   0.088
 5767SOL    HW118200   6.030   6.459   7.003
 5767SOL    HW218201   5.945   6.482   0.129
 5768SOL     OW18202   1.143   1.098   4.924
 5768SOL    HW118203   1.227   1.110   4.978
 5768SOL    HW218204   1.098   1.013   4.952
 5769SOL     OW18205   0.997   2.748   5.821
 5769SOL    HW118206   1.076   2.782   5.770
 5769SOL    HW218207   0.995   2.788   5.912
 5770SOL     OW18208   1.376   4.429   2.482
 5770SOL    HW118209   1.347   4.411   2.388
 5770SOL    HW218210   1.300   4.467   2.534
 5771SOL     OW18211   2.864   5.661   2.925
 5771SOL    HW118212   2.765   5.673   2.931
 5771SOL    HW218213   2.886   5.605   2.846
 5772SOL     OW18214   2.909   0.499   3.132
 5772SOL    HW118215   2.859   0.575   3.091
 5772SOL    HW218216   2.846   0.438   3.179
 5773SOL     OW18217   5.885   0.620   4.092
 5773SOL    HW118218   5.851   0.549   4.153
 5773SOL    HW218219   5.823   0.630   4.014
 5774SOL     OW18220   1.087   6.093   3.480
 5774SOL    HW118221   1.044   6.041   3.406
 5774SOL    HW218222   1.070   6.190   3.466
 5775SOL     OW18223   5.797   5.134   2.354
 5775SOL    HW118224   5.798   5.234   2.349
 5775SOL    HW218225   5.717   5.104   2.407
 5776SOL     OW18226   3.751   0.610   3.982
 5776SOL    HW118227   3.785   0.546   3.912
 5776SOL    HW218228   3.664   0.577   4.017
 5777SOL     OW18229   0.903   0.401   1.592
 5777SOL    HW118230   0.959   0.331   1.547
 5777SOL    HW218231   0.895   0.380   1.689
 5778SOL     OW18232   0.441   1.178   0.072
 5778SOL    HW118233   0.496   1.257   0.046
 5778SOL    HW218234   0.500   1.108   0.112
 5779SOL     OW18235   5.757   1.865   0.770
 5779SOL    HW118236   5.690   1.836   0.838
 5779SOL    HW218237   5.725   1.948   0.725
 5780SOL     OW18238   5.165   5.146   4.522
 5780SOL    HW118239   5.095   5.187   4.580
 5780SOL    HW218240   5.251   5.140   4.573
 5781SOL     OW18241   1.530   6.007   5.848
 5781SOL    HW118242   1.587   6.035   5.926
 5781SOL    HW218243   1.589   5.969   5.777
 5782SOL     OW18244   6.209   0.709   0.478
 5782SOL    HW118245   6.188   0.719   0.381
 5782SOL    HW218246   6.135   0.658   0.523
 5783SOL     OW18247   2.588   2.523   6.510
 5783SOL    HW118248   2.685   2.520   6.483
 5783SOL    HW218249   2.556   2.618   6.506
 5784SOL     OW18250   6.657   6.605   0.266
 5784SOL    HW118251   6.672   6.519   0.316
 5784SOL    HW218252   6.701   6.680   0.316
 5785SOL     OW18253   1.302   1.838   1.755
 5785SOL    HW118254   1.243   1.759   1.744
 5785SOL    HW218255   1.340   1.864   1.666
 5786SOL     OW18256   6.515   5.721   1.873
 5786SOL    HW118257   6.425   5.733   1.913
 5786SOL    HW218258   6.578   5.790   1.911
 5787SOL     OW18259   1.861   3.295   6.469
 5787SOL    HW118260   1.939   3.242   6.434
 5787SOL    HW218261   1.871   3.391   6.443
 5788SOL     OW18262   3.425   0.191   3.680
 5788SOL    HW118263   3.362   0.117   3.658
 5788SOL    HW218264   3.437   0.198   3.779
 5789SOL     OW18265   3.152   4.964   5.852
 5789SOL    HW118266   3.175   4.873   5.820
 5789SOL    HW218267   3.192   5.032   5.791
 5790SOL     OW18268   1.421   4.127   4.051
 5790SOL    HW118269   1.425   4.071   4.133
 5790SOL    HW218270   1.382   4.216   4.074
 5791SOL     OW18271   1.631   0.606   3.390
 5791SOL    HW118272   1.659   0.700   3.407
 5791SOL    HW218273   1.706   0.556   3.345
 5792SOL     OW18274   0.103   2.498   2.860
 5792SOL    HW118275   0.150   2.572   2.907
 5792SOL    HW218276   0.127   2.411   2.903
 5793SOL     OW18277   6.312   0.786   4.720
 5793SOL    HW118278   6.328   0.763   4.816
 5793SOL    HW218279   6.229   0.840   4.713
 5794SOL     OW18280   6.765   4.042   6.584
 5794SOL    HW118281   6.832   3.992   6.528
 5794SOL    HW218282   6.801   4.133   6.605
 5795SOL     OW18283   6.606   4.700   6.623
 5795SOL    HW118284   6.544   4.746   6.560
 5795SOL    HW218285   6.605   4.748   6.711
 5796SOL     OW18286   2.723   2.387   0.757
 5796SOL    HW118287   2.640   2.441   0.766
 5796SOL    HW218288   2.803   2.448   0.760
 5797SOL     OW18289   3.153   2.754   5.316
 5797SOL    HW118290   3.058   2.725   5.321
 5797SOL    HW218291   3.211   2.673   5.303
 5798SOL     OW18292   6.335   5.415   4.414
 5798SOL    HW118293   6.272   5.417   4.492
 5798SOL    HW218294   6.298   5.469   4.339
 5799SOL     OW18295   5.650   0.883   4.192
 5799SOL    HW118296   5.716   0.930   4.134
 5799SOL    HW218297   5.570   0.858   4.138
 5800SOL     OW18298   5.966   5.844   6.458
 5800SOL    HW118299   5.908   5.764   6.442
 5800SOL    HW218300   5.920   5.906   6.520
 5801SOL     OW18301   1.717   1.307   2.599
 5801SOL    HW118302   1.681   1.226   2.646
 5801SOL    HW218303   1.753   1.279   2.510
 5802SOL     OW18304   0.306   2.701   4.624
 5802SOL    HW118305   0.265   2.695   4.533
 5802SOL    HW218306   0.250   2.759   4.682
 5803SOL     OW18307   1.555   5.095   1.137
 5803SOL    HW118308   1.626   5.087   1.207
 5803SOL    HW218309   1.507   5.008   1.127
 5804SOL     OW18310   0.237   2.337   6.258
 5804SOL    HW118311   0.224   2.299   6.167
 5804SOL    HW218312   0.202   2.430   6.262
 5805SOL     OW18313   5.351   3.200   6.692
 5805SOL    HW118314   5.448   3.206   6.716
 5805SOL    HW218315   5.324   3.279   6.637
 5806SOL     OW18316   6.462   0.055   6.437
 5806SOL    HW118317   6.405   0.126   6.478
 5806SOL    HW218318   6.426   6.976   6.461
 5807SOL     OW18319   2.940   3.949   1.398
 5807SOL    HW118320   3.000   4.026   1.418
 5807SOL    HW218321   2.882   3.931   1.477
 5808SOL     OW18322   6.379   1.406   3.699
 5808SOL    HW118323   6.392   1.502   3.724
 5808SOL    HW218324   6.335   1.358   3.775
 5809SOL     OW18325   0.353   2.680   3.325
 5809SOL    HW118326   0.405   2.595   3.335
 5809SOL    HW218327   0.411   2.758   3.348
 5810SOL     OW18328   2.808   2.333   2.788
 5810SOL    HW118329   2.882   2.273   2.816
 5810SOL    HW218330   2.797   2.328   2.688
 5811SOL     OW18331   3.050   0.110   2.379
 5811SOL    HW118332   3.019   0.151   2.465
 5811SOL    HW218333   3.065   0.181   2.311
 5812SOL     OW18334   4.198   0.612   4.779
 5812SOL    HW118335   4.106   0.579   4.799
 5812SOL    HW218336   4.241   0.643   4.864
 5813SOL     OW18337   1.909   1.609   5.436
 5813SOL    HW118338   1.905   1.683   5.502
 5813SOL    HW218339   1.818   1.568   5.427
 5814SOL     OW18340   0.328   5.417   1.362
 5814SOL    HW118341   0.396   5.480   1.398
 5814SOL    HW218342   0.322   5.426   1.263
 5815SOL     OW18343   4.030   6.847   4.011
 5815SOL    HW118344   4.039   6.935   3.965
 5815SOL    HW218345   4.066   6.854   4.104
 5816SOL     OW18346   5.391   6.795   0.317
 5816SOL    HW118347   5.474   6.769   0.269
 5816SOL    HW218348   5.330   6.844   0.254
 5817SOL     OW18349   6.046   2.757   6.356
 5817SOL    HW118350   6.062   2.712   6.268
 5817SOL    HW218351   6.133   2.775   6.401
 5818SOL     OW18352   6.671   6.215   5.538
 5818SOL    HW118353   6.623   6.128   5.524
 5818SOL    HW218354   6.621   6.270   5.605
 5819SOL     OW18355   6.235   0.099   0.641
 5819SOL    HW118356   6.254   0.191   0.607
 5819SOL    HW218357   6.255   0.095   0.739
 5820SOL     OW18358   5.832   4.786   1.986
 5820SOL    HW118359   5.850   4.794   2.084
 5820SOL    HW218360   5.745   4.739   1.972
 5821SOL     OW18361   2.966   0.205   2.628
 5821SOL    HW118362   2.906   0.279   2.600
 5821SOL    HW218363   3.061   0.229   2.608
 5822SOL     OW18364   0.358   1.071   2.490
 5822SOL    HW118365   0.286   1.073   2.558
 5822SOL    HW218366   0.404   1.160   2.486
 5823SOL     OW18367   1.729   2.825   4.281
 5823SOL    HW118368   1.767   2.860   4.195
 5823SOL    HW218369   1.691   2.734   4.266
 5824SOL     OW18370   4.969   0.398   4.233
 5824SOL    HW118371   4.956   0.494   4.257
 5824SOL    HW218372   4.984   0.390   4.134
 5825SOL     OW18373   3.611   1.584   1.836
 5825SOL    HW118374   3.688   1.624   1.886
 5825SOL    HW218375   3.556   1.657   1.796
 5826SOL     OW18376   0.251   6.587   3.685
 5826SOL    HW118377   0.210   6.529   3.614
 5826SOL    HW218378   0.180   6.614   3.750
 5827SOL     OW18379   2.140   4.750   5.643
 5827SOL    HW118380   2.207   4.796   5.701
 5827SOL    HW218381   2.161   4.652   5.640
 5828SOL     OW18382   6.242   2.346   1.077
 5828SOL    HW118383   6.246   2.438   1.115
 5828SOL    HW218384   6.328   2.324   1.031
 5829SOL     OW18385   1.961   1.909   1.675
 5829SOL    HW118386   1.940   2.006   1.681
 5829SOL    HW218387   2.015   1.882   1.755
 5830SOL     OW18388   2.277   0.409   5.415
 5830SOL    HW118389   2.243   0.316   5.398
 5830SOL    HW218390   2.217   0.455   5.479
 5831SOL     OW18391   5.405   5.604   2.881
 5831SOL    HW118392   5.461   5.660   2.819
 5831SOL    HW218393   5.448   5.515   2.894
 5832SOL     OW18394   3.818   3.433   4.493
 5832SOL    HW118395   3.856   3.414   4.403
 5832SOL    HW218396   3.741   3.372   4.510
 5833SOL     OW18397   3.229   3.247   4.773
 5833SOL    HW118398   3.214   3.244   4.674
 5833SOL    HW218399   3.251   3.341   4.801
 5834SOL     OW18400   6.191   0.946   0.073
 5834SOL    HW118401   6.110   0.983   0.118
 5834SOL    HW218402   6.212   1.000   7.003
 5835SOL     OW18403   5.271   3.121   4.403
 5835SOL    HW118404   5.172   3.127   4.390
 5835SOL    HW218405   5.294   3.145   4.497
 5836SOL     OW18406   3.116   6.825   3.174
 5836SOL    HW118407   3.082   6.899   3.115
 5836SOL    HW218408   3.179   6.768   3.121
 5837SOL     OW18409   4.270   4.399   5.898
 5837SOL    HW118410   4.342   4.331   5.909
 5837SOL    HW218411   4.198   4.363   5.840
 5838SOL     OW18412   0.901   0.850   5.613
 5838SOL    HW118413   0.897   0.839   5.513
 5838SOL    HW218414   0.993   0.829   5.645
 5839SOL     OW18415   6.734   2.264   2.153
 5839SOL    HW118416   6.654   2.283   2.210
 5839SOL    HW218417   6.781   2.350   2.133
 5840SOL     OW18418   3.463   5.509   0.452
 5840SOL    HW118419   3.512   5.512   0.539
 5840SOL    HW218420   3.484   5.424   0.404
 5841SOL     OW18421   5.855   2.309   3.319
 5841SOL    HW118422   5.824   2.358   3.400
 5841SOL    HW218423   5.844   2.367   3.238
 5842SOL     OW18424   3.887   2.499   0.930
 5842SOL    HW118425   3.960   2.530   0.991
 5842SOL    HW218426   3.888   2.555   0.847
 5843SOL     OW18427   0.993   3.011   1.399
 5843SOL    HW118428   0.928   3.021   1.324
 5843SOL    HW218429   1.031   3.100   1.423
 5844SOL     OW18430   1.795   6.379   6.535
 5844SOL    HW118431   1.789   6.313   6.610
 5844SOL    HW218432   1.832   6.334   6.454
 5845SOL     OW18433   1.919   2.764   4.596
 5845SOL    HW118434   1.910   2.853   4.551
 5845SOL    HW218435   2.002   2.763   4.652
 5846SOL     OW18436   0.146   3.721   6.425
 5846SOL    HW118437   0.173   3.706   6.520
 5846SOL    HW218438   0.094   3.643   6.392
 5847SOL     OW18439   0.975   2.115   4.282
 5847SOL    HW118440   0.988   2.212   4.301
 5847SOL    HW218441   1.061   2.066   4.297
 5848SOL     OW18442   1.121   4.628   3.477
 5848SOL    HW118443   1.033   4.649   3.519
 5848SOL    HW218444   1.185   4.597   3.548
 5849SOL     OW18445   3.008   6.859   5.898
 5849SOL    HW118446   2.942   6.872   5.972
 5849SOL    HW218447   3.051   6.770   5.907
 5850SOL     OW18448   0.781   4.553   2.939
 5850SOL    HW118449   0.741   4.461   2.947
 5850SOL    HW218450   0.836   4.572   3.021
 5851SOL     OW18451   5.689   3.282   1.991
 5851SOL    HW118452   5.770   3.225   2.008
 5851SOL    HW218453   5.616   3.224   1.955
 5852SOL     OW18454   3.928   6.842   3.190
 5852SOL    HW118455   3.994   6.768   3.180
 5852SOL    HW218456   3.933   6.902   3.111
 5853SOL     OW18457   5.012   4.214   5.208
 5853SOL    HW118458   5.095   4.159   5.200
 5853SOL    HW218459   4.937   4.168   5.160
 5854SOL     OW18460   0.854   1.455   6.594
 5854SOL    HW118461   0.804   1.542   6.596
 5854SOL    HW218462   0.854   1.419   6.501
 5855SOL     OW18463   1.456   1.856   4.700
 5855SOL    HW118464   1.393   1.925   4.735
 5855SOL    HW218465   1.431   1.766   4.736
 5856SOL     OW18466   1.085   5.405   3.409
 5856SOL    HW118467   1.090   5.504   3.414
 5856SOL    HW218468   1.002   5.373   3.454
 5857SOL     OW18469   0.492   2.495   5.609
 5857SOL    HW118470   0.435   2.536   5.680
 5857SOL    HW218471   0.433   2.453   5.539
 5858SOL     OW18472   3.116   6.617   3.740
 5858SOL    HW118473   3.045   6.557   3.778
 5858SOL    HW218474   3.079   6.668   3.663
 5859SOL     OW18475   5.920   5.423   1.497
 5859SOL    HW118476   5.935   5.496   1.563
 5859SOL    HW218477   5.841   5.369   1.524
 5860SOL     OW18478   0.027   4.012   0.834
 5860SOL    HW118479   0.045   4.088   0.897
 5860SOL    HW218480   7.007   3.932   0.886
 5861SOL     OW18481   6.253   1.192   3.877
 5861SOL    HW118482   6.256   1.126   3.802
 5861SOL    HW218483   6.323   1.170   3.944
 5862SOL     OW18484   5.439   5.098   3.971
 5862SOL    HW118485   5.482   5.159   4.038
 5862SOL    HW218486   5.456   5.003   3.999
 5863SOL     OW18487   2.118   1.767   0.500
 5863SOL    HW118488   2.131   1.668   0.505
 5863SOL    HW218489   2.192   1.806   0.445
 5864SOL     OW18490   4.477   5.344   0.795
 5864SOL    HW118491   4.488   5.245   0.791
 5864SOL    HW218492   4.383   5.369   0.769
 5865SOL     OW18493   4.006   0.820   2.820
 5865SOL    HW118494   3.911   0.837   2.846
 5865SOL    HW218495   4.011   0.740   2.761
 5866SOL     OW18496   3.368   1.487   6.904
 5866SOL    HW118497   3.355   1.388   6.910
 5866SOL    HW218498   3.392   1.511   6.810
 5867SOL     OW18499   6.366   2.886   1.452
 5867SOL    HW118500   6.375   2.984   1.436
 5867SOL    HW218501   6.449   2.850   1.494
 5868SOL     OW18502   0.784   6.576   4.855
 5868SOL    HW118503   0.806   6.668   4.822
 5868SOL    HW218504   0.687   6.571   4.877
 5869SOL     OW18505   2.603   4.592   4.008
 5869SOL    HW118506   2.678   4.654   4.030
 5869SOL    HW218507   2.519   4.626   4.051
 5870SOL     OW18508   4.698   5.915   4.204
 5870SOL    HW118509   4.673   6.002   4.246
 5870SOL    HW218510   4.752   5.861   4.270
 5871SOL     OW18511   3.131   3.601   0.684
 5871SOL    HW118512   3.129   3.533   0.758
 5871SOL    HW218513   3.133   3.693   0.722
 5872SOL     OW18514   4.435   5.454   3.979
 5872SOL    HW118515   4.391   5.414   4.060
 5872SOL    HW218516   4.496   5.528   4.007
 5873SOL     OW18517   1.954   2.854   6.951
 5873SOL    HW118518   2.036   2.797   6.960
 5873SOL    HW218519   1.891   2.833   0.015
 5874SOL     OW18520   0.814   4.575   6.300
 5874SOL    HW118521   0.903   4.553   6.261
 5874SOL    HW218522   0.761   4.628   6.234
 5875SOL     OW18523   3.552   2.411   0.824
 5875SOL    HW118524   3.579   2.350   0.749
 5875SOL    HW218525   3.595   2.382   0.909
 5876SOL     OW18526   4.526   3.906   6.155
 5876SOL    HW118527   4.562   3.819   6.122
 5876SOL    HW218528   4.427   3.908   6.142
 5877SOL     OW18529   5.479   0.284   2.432
 5877SOL    HW118530   5.502   0.193   2.398
 5877SOL    HW218531   5.561   0.327   2.469
 5878SOL     OW18532   5.112   3.772   2.847
 5878SOL    HW118533   5.202   3.810   2.867
 5878SOL    HW218534   5.049   3.798   2.921
 5879SOL     OW18535   3.178   4.655   5.271
 5879SOL    HW118536   3.099   4.643   5.210
 5879SOL    HW218537   3.202   4.567   5.311
 5880SOL     OW18538   6.015   2.550   0.324
 5880SOL    HW118539   6.112   2.555   0.301
 5880SOL    HW218540   5.969   2.632   0.290
 5881SOL     OW18541   1.339   5.832   2.468
 5881SOL    HW118542   1.385   5.747   2.492
 5881SOL    HW218543   1.336   5.892   2.548
 5882SOL     OW18544   1.393   5.165   5.359
 5882SOL    HW118545   1.375   5.071   5.388
 5882SOL    HW218546   1.306   5.215   5.350
 5883SOL     OW18547   0.276   5.611   6.879
 5883SOL    HW118548   0.222   5.683   6.835
 5883SOL    HW218549   0.215   5.547   6.926
 5884SOL     OW18550   6.872   1.157   2.555
 5884SOL    HW118551   6.788   1.174   2.606
 5884SOL    HW218552   6.850   1.109   2.470
 5885SOL     OW18553   6.969   5.759   1.421
 5885SOL    HW118554   6.920   5.833   1.376
 5885SOL    HW218555   6.907   5.709   1.481
 5886SOL     OW18556   2.317   4.590   3.442
 5886SOL    HW118557   2.402   4.575   3.492
 5886SOL    HW218558   2.244   4.613   3.507
 5887SOL     OW18559   2.840   3.919   0.496
 5887SOL    HW118560   2.783   3.868   0.561
 5887SOL    HW218561   2.909   3.971   0.547
 5888SOL     OW18562   2.664   5.895   1.333
 5888SOL    HW118563   2.759   5.876   1.359
 5888SOL    HW218564   2.655   5.885   1.234
 5889SOL     OW18565   5.211   1.843   2.424
 5889SOL    HW118566   5.118   1.846   2.386
 5889SOL    HW218567   5.213   1.783   2.504
 5890SOL     OW18568   2.572   4.564   3.543
 5890SOL    HW118569   2.583   4.659   3.512
 5890SOL    HW218570   2.649   4.510   3.511
 5891SOL     OW18571   2.372   3.179   6.467
 5891SOL    HW118572   2.338   3.247   6.403
 5891SOL    HW218573   2.295   3.130   6.508
 5892SOL     OW18574   0.801   2.451   0.567
 5892SOL    HW118575   0.851   2.538   0.571
 5892SOL    HW218576   0.738   2.453   0.489
 5893SOL     OW18577   0.455   5.984   1.771
 5893SOL    HW118578   0.447   5.909   1.705
 5893SOL    HW218579   0.398   6.060   1.742
 5894SOL     OW18580   2.629   5.035   6.656
 5894SOL    HW118581   2.558   5.095   6.619
 5894SOL    HW218582   2.639   5.051   6.754
 5895SOL     OW18583   5.908   3.314   3.832
 5895SOL    HW118584   6.004   3.288   3.837
 5895SOL    HW218585   5.901   3.411   3.808
 5896SOL     OW18586   5.604   2.599   1.553
 5896SOL    HW118587   5.571   2.510   1.523
 5896SOL    HW218588   5.693   2.618   1.512
 5897SOL     OW18589   3.372   2.933   0.436
 5897SOL    HW118590   3.281   2.948   0.397
 5897SOL    HW218591   3.433   2.898   0.365
 5898SOL     OW18592   3.047   1.034   6.930
 5898SOL    HW118593   2.982   0.961   6.954
 5898SOL    HW218594   3.133   1.020   6.978
 5899SOL     OW18595   0.295   6.863   6.770
 5899SOL    HW118596   0.284   6.797   6.845
 5899SOL    HW218597   0.391   6.863   6.740
 5900SOL     OW18598   5.720   6.669   2.460
 5900SOL    HW118599   5.639   6.697   2.511
 5900SOL    HW218600   5.694   6.647   2.366
 5901SOL     OW18601   2.172   0.826   4.889
 5901SOL    HW118602   2.127   0.881   4.819
 5901SOL    HW218603   2.158   0.729   4.871
 5902SOL     OW18604   3.757   3.891   6.070
 5902SOL    HW118605   3.718   3.835   5.997
 5902SOL    HW218606   3.692   3.900   6.144
 5903SOL     OW18607   6.102   2.190   5.047
 5903SOL    HW118608   6.005   2.215   5.046
 5903SOL    HW218609   6.119   2.123   5.119
 5904SOL     OW18610   6.798   4.970   1.710
 5904SOL    HW118611   6.845   4.890   1.673
 5904SOL    HW218612   6.797   4.965   1.810
 5905SOL     OW18613   6.636   2.478   4.650
 5905SOL    HW118614   6.691   2.510   4.727
 5905SOL    HW218615   6.549   2.528   4.648
 5906SOL     OW18616   4.416   0.758   5.617
 5906SOL    HW118617   4.317   0.773   5.610
 5906SOL    HW218618   4.462   0.803   5.541
 5907SOL     OW18619   0.907   3.392   6.319
 5907SOL    HW118620   0.955   3.353   6.398
 5907SOL    HW218621   0.937   3.345   6.236
 5908SOL     OW18622   4.480   3.835   6.797
 5908SOL    HW118623   4.572   3.860   6.830
 5908SOL    HW218624   4.479   3.836   6.697
 5909SOL     OW18625   5.863   5.505   3.472
 5909SOL    HW118626   5.829   5.597   3.490
 5909SOL    HW218627   5.830   5.443   3.543
 5910SOL     OW18628   2.804   4.518   1.403
 5910SOL    HW118629   2.894   4.547   1.436
 5910SOL    HW218630   2.762   4.457   1.469
 5911SOL     OW18631   5.926   0.692   5.821
 5911SOL    HW118632   5.998   0.739   5.769
 5911SOL    HW218633   5.941   0.593   5.816
 5912SOL     OW18634   0.657   3.295   5.886
 5912SOL    HW118635   0.719   3.265   5.814
 5912SOL    HW218636   0.595   3.364   5.849
 5913SOL     OW18637   2.151   2.566   4.338
 5913SOL    HW118638   2.068   2.568   4.282
 5913SOL    HW218639   2.176   2.659   4.363
 5914SOL     OW18640   1.153   5.665   0.381
 5914SOL    HW118641   1.068   5.616   0.396
 5914SOL    HW218642   1.177   5.716   0.464
 5915SOL     OW18643   5.688   3.753   3.994
 5915SOL    HW118644   5.681   3.676   3.931
 5915SOL    HW218645   5.597   3.792   4.008
 5916SOL     OW18646   3.053   0.634   6.778
 5916SOL    HW118647   3.082   0.611   6.871
 5916SOL    HW218648   2.954   0.628   6.772
 5917SOL     OW18649   3.792   4.001   2.050
 5917SOL    HW118650   3.834   3.991   2.141
 5917SOL    HW218651   3.701   4.041   2.060
 5918SOL     OW18652   2.737   1.989   4.092
 5918SOL    HW118653   2.770   2.081   4.109
 5918SOL    HW218654   2.797   1.923   4.138
 5919SOL     OW18655   1.639   2.030   6.927
 5919SOL    HW118656   1.631   1.931   6.916
 5919SOL    HW218657   1.654   2.072   6.837
 5920SOL     OW18658   2.876   5.088   0.018
 5920SOL    HW118659   2.777   5.087   0.003
 5920SOL    HW218660   2.922   5.057   6.945
 5921SOL     OW18661   3.947   5.604   4.965
 5921SOL    HW118662   3.876   5.672   4.949
 5921SOL    HW218663   3.966   5.598   5.062
 5922SOL     OW18664   6.554   5.150   2.178
 5922SOL    HW118665   6.625   5.081   2.190
 5922SOL    HW218666   6.592   5.229   2.129
 5923SOL     OW18667   0.909   1.119   3.239
 5923SOL    HW118668   0.940   1.188   3.173
 5923SOL    HW218669   0.837   1.158   3.296
 5924SOL     OW18670   6.004   1.793   4.631
 5924SOL    HW118671   6.022   1.823   4.724
 5924SOL    HW218672   6.049   1.855   4.566
 5925SOL     OW18673   6.673   5.897   0.617
 5925SOL    HW118674   6.717   5.884   0.528
 5925SOL    HW218675   6.650   5.993   0.630
 5926SOL     OW18676   3.527   6.152   2.031
 5926SOL    HW118677   3.466   6.221   2.068
 5926SOL    HW218678   3.601   6.134   2.095
 5927SOL     OW18679   2.222   5.035   1.462
 5927SOL    HW118680   2.131   5.076   1.457
 5927SOL    HW218681   2.278   5.085   1.529
 5928SOL     OW18682   0.655   6.088   0.600
 5928SOL    HW118683   0.748   6.077   0.565
 5928SOL    HW218684   0.631   6.009   0.657
 5929SOL     OW18685   0.277   6.600   5.631
 5929SOL    HW118686   0.342   6.661   5.585
 5929SOL    HW218687   0.230   6.543   5.564
 5930SOL     OW18688   6.308   1.344   5.329
 5930SOL    HW118689   6.299   1.417   5.262
 5930SOL    HW218690   6.225   1.288   5.328
 5931SOL     OW18691   5.250   5.093   0.962
 5931SOL    HW118692   5.207   5.005   0.984
 5931SOL    HW218693   5.336   5.102   1.011
 5932SOL     OW18694   2.392   0.339   6.929
 5932SOL    HW118695   2.434   0.254   6.960
 5932SOL    HW218696   2.337   0.322   6.848
 5933SOL     OW18697   6.072   2.743   2.843
 5933SOL    HW118698   5.985   2.751   2.794
 5933SOL    HW218699   6.148   2.763   2.781
 5934SOL     OW18700   4.100   3.250   2.272
 5934SOL    HW118701   4.199   3.240   2.283
 5934SOL    HW218702   4.079   3.344   2.248
 5935SOL     OW18703   3.675   2.944   3.161
 5935SOL    HW118704   3.716   2.956   3.071
 5935SOL    HW218705   3.588   2.894   3.152
 5936SOL     OW18706   6.767   6.141   6.647
 5936SOL    HW118707   6.742   6.210   6.715
 5936SOL    HW218708   6.771   6.051   6.691
 5937SOL     OW18709   0.851   4.289   0.135
 5937SOL    HW118710   0.845   4.368   0.075
 5937SOL    HW218711   0.818   4.314   0.226
 5938SOL     OW18712   2.642   4.519   0.511
 5938SOL    HW118713   2.614   4.465   0.432
 5938SOL    HW218714   2.565   4.528   0.575
 5939SOL     OW18715   1.506   0.685   2.390
 5939SOL    HW118716   1.464   0.616   2.448
 5939SOL    HW218717   1.437   0.751   2.361
 5940SOL     OW18718   3.967   4.793   3.448
 5940SOL    HW118719   3.910   4.755   3.376
 5940SOL    HW218720   4.035   4.855   3.408
 5941SOL     OW18721   6.104   2.389   3.484
 5941SOL    HW118722   6.111   2.407   3.386
 5941SOL    HW218723   6.057   2.302   3.499
 5942SOL     OW18724   6.659   0.993   4.814
 5942SOL    HW118725   6.566   0.993   4.777
 5942SOL    HW218726   6.687   1.087   4.833
 5943SOL     OW18727   1.516   5.379   1.070
 5943SOL    HW118728   1.565   5.292   1.066
 5943SOL    HW218729   1.500   5.413   0.977
 5944SOL     OW18730   5.511   2.505   2.611
 5944SOL    HW118731   5.463   2.532   2.528
 5944SOL    HW218732   5.487   2.410   2.633
 5945SOL     OW18733   6.869   5.656   6.423
 5945SOL    HW118734   6.793   5.592   6.417
 5945SOL    HW218735   6.900   5.663   6.518
 5946SOL     OW18736   3.760   2.556   5.404
 5946SOL    HW118737   3.859   2.572   5.400
 5946SOL    HW218738   3.740   2.494   5.479
 5947SOL     OW18739   4.961   4.088   2.400
 5947SOL    HW118740   4.949   3.992   2.377
 5947SOL    HW218741   4.872   4.128   2.422
 5948SOL     OW18742   3.640   5.279   3.255
 5948SOL    HW118743   3.542   5.291   3.272
 5948SOL    HW218744   3.652   5.220   3.175
 5949SOL     OW18745   4.751   4.536   3.334
 5949SOL    HW118746   4.771   4.455   3.389
 5949SOL    HW218747   4.685   4.594   3.381
 5950SOL     OW18748   6.642   2.523   4.352
 5950SOL    HW118749   6.673   2.430   4.334
 5950SOL    HW218750   6.655   2.544   4.449
 5951SOL     OW18751   2.029   0.560   4.071
 5951SOL    HW118752   1.931   0.579   4.079
 5951SOL    HW218753   2.079   0.647   4.075
 5952SOL     OW18754   0.555   5.927   4.709
 5952SOL    HW118755   0.615   5.992   4.661
 5952SOL    HW218756   0.527   5.855   4.645
 5953SOL     OW18757   0.448   3.111   6.281
 5953SOL    HW118758   0.541   3.105   6.318
 5953SOL    HW218759   0.449   3.161   6.194
 5954SOL     OW18760   1.494   4.886   6.442
 5954SOL    HW118761   1.482   4.790   6.466
 5954SOL    HW218762   1.460   4.902   6.349
 5955SOL     OW18763   4.597   5.068   2.834
 5955SOL    HW118764   4.669   4.999   2.830
 5955SOL    HW218765   4.627   5.144   2.891
 5956SOL     OW18766   0.091   2.324   0.039
 5956SOL    HW118767   0.128   2.409   0.076
 5956SOL    HW218768   0.069   2.262   0.114
 5957SOL     OW18769   4.265   0.078   5.659
 5957SOL    HW118770   4.316   7.003   5.669
 5957SOL    HW218771   4.168   0.057   5.650
 5958SOL     OW18772   0.986   5.279   2.435
 5958SOL    HW118773   0.940   5.356   2.477
 5958SOL    HW218774   0.967   5.196   2.488
 5959SOL     OW18775   1.960   1.001   6.292
 5959SOL    HW118776   1.890   0.932   6.309
 5959SOL    HW218777   2.039   0.983   6.351
 5960SOL     OW18778   3.576   6.234   5.763
 5960SOL    HW118779   3.620   6.246   5.675
 5960SOL    HW218780   3.477   6.244   5.753
 5961SOL     OW18781   2.379   1.104   5.467
 5961SOL    HW118782   2.453   1.146   5.520
 5961SOL    HW218783   2.385   1.135   5.372
 5962SOL     OW18784   5.402   4.265   2.024
 5962SOL    HW118785   5.472   4.238   2.090
 5962SOL    HW218786   5.443   4.277   1.934
 5963SOL     OW18787   4.265   4.362   1.656
 5963SOL    HW118788   4.177   4.335   1.616
 5963SOL    HW218789   4.308   4.283   1.699
 5964SOL     OW18790   1.310   3.481   5.834
 5964SOL    HW118791   1.403   3.452   5.857
 5964SOL    HW218792   1.307   3.581   5.830
 5965SOL     OW18793   2.101   2.101   4.027
 5965SOL    HW118794   2.040   2.081   3.951
 5965SOL    HW218795   2.070   2.185   4.073
 5966SOL     OW18796   1.700   5.840   4.173
 5966SOL    HW118797   1.743   5.799   4.092
 5966SOL    HW218798   1.754   5.817   4.254
 5967SOL     OW18799   4.553   5.682   1.897
 5967SOL    HW118800   4.523   5.590   1.875
 5967SOL    HW218801   4.507   5.713   1.980
 5968SOL     OW18802   0.681   1.249   4.180
 5968SOL    HW118803   0.613   1.309   4.222
 5968SOL    HW218804   0.770   1.296   4.180
 5969SOL     OW18805   6.610   2.006   2.754
 5969SOL    HW118806   6.677   1.949   2.800
 5969SOL    HW218807   6.547   2.045   2.821
 5970SOL     OW18808   2.142   3.682   3.674
 5970SOL    HW118809   2.130   3.702   3.772
 5970SOL    HW218810   2.194   3.756   3.631
 5971SOL     OW18811   3.172   5.703   3.410
 5971SOL    HW118812   3.218   5.659   3.333
 5971SOL    HW218813   3.092   5.753   3.377
 5972SOL     OW18814   5.767   0.527   1.601
 5972SOL    HW118815   5.833   0.457   1.627
 5972SOL    HW218816   5.813   0.601   1.554
 5973SOL     OW18817   2.302   4.508   3.197
 5973SOL    HW118818   2.293   4.537   3.292
 5973SOL    HW218819   2.215   4.521   3.150
 5974SOL     OW18820   0.675   4.048   6.563
 5974SOL    HW118821   0.758   4.036   6.619
 5974SOL    HW218822   0.595   4.026   6.619
 5975SOL     OW18823   2.107   2.568   6.345
 5975SOL    HW118824   2.094   2.616   6.259
 5975SOL    HW218825   2.199   2.529   6.348
 5976SOL     OW18826   3.489   3.096   4.719
 5976SOL    HW118827   3.404   3.131   4.759
 5976SOL    HW218828   3.498   2.998   4.738
 5977SOL     OW18829   0.561   3.503   3.035
 5977SOL    HW118830   0.570   3.445   2.955
 5977SOL    HW218831   0.651   3.530   3.068
 5978SOL     OW18832   4.906   5.363   2.411
 5978SOL    HW118833   4.886   5.411   2.496
 5978SOL    HW218834   4.897   5.425   2.334
 5979SOL     OW18835   0.807   1.015   1.686
 5979SOL    HW118836   0.843   0.982   1.773
 5979SOL    HW218837   0.821   0.945   1.616
 5980SOL     OW18838   5.774   2.953   5.815
 5980SOL    HW118839   5.811   2.904   5.895
 5980SOL    HW218840   5.770   3.051   5.836
 5981SOL     OW18841   3.578   1.808   0.561
 5981SOL    HW118842   3.509   1.782   0.493
 5981SOL    HW218843   3.536   1.809   0.652
 5982SOL     OW18844   6.230   2.491   6.970
 5982SOL    HW118845   6.302   2.553   6.940
 5982SOL    HW218846   6.228   2.489   0.059
 5983SOL     OW18847   1.108   0.381   5.170
 5983SOL    HW118848   1.025   0.418   5.211
 5983SOL    HW218849   1.105   0.281   5.174
 5984SOL     OW18850   0.860   0.177   6.024
 5984SOL    HW118851   0.838   0.221   5.937
 5984SOL    HW218852   0.959   0.180   6.039
 5985SOL     OW18853   5.782   3.208   4.143
 5985SOL    HW118854   5.692   3.200   4.185
 5985SOL    HW218855   5.783   3.159   4.055
 5986SOL     OW18856   2.977   3.562   2.700
 5986SOL    HW118857   3.019   3.621   2.630
 5986SOL    HW218858   2.962   3.471   2.661
 5987SOL     OW18859   4.539   0.325   5.813
 5987SOL    HW118860   4.581   0.304   5.725
 5987SOL    HW218861   4.558   0.421   5.837
 5988SOL     OW18862   3.733   0.002   5.755
 5988SOL    HW118863   3.716   6.934   5.814
 5988SOL    HW218864   3.772   0.077   5.809
 5989SOL     OW18865   2.915   1.650   0.038
 5989SOL    HW118866   2.904   1.640   0.137
 5989SOL    HW218867   3.012   1.659   0.016
 5990SOL     OW18868   3.722   5.121   3.056
 5990SOL    HW118869   3.816   5.153   3.043
 5990SOL    HW218870   3.714   5.026   3.024
 5991SOL     OW18871   3.426   4.998   3.251
 5991SOL    HW118872   3.413   5.092   3.220
 5991SOL    HW218873   3.354   4.975   3.317
 5992SOL     OW18874   4.325   1.880   3.969
 5992SOL    HW118875   4.279   1.810   4.024
 5992SOL    HW218876   4.260   1.920   3.904
 5993SOL     OW18877   2.464   5.289   3.938
 5993SOL    HW118878   2.412   5.264   3.857
 5993SOL    HW218879   2.404   5.291   4.018
 5994SOL     OW18880   5.819   2.569   0.771
 5994SOL    HW118881   5.839   2.515   0.689
 5994SOL    HW218882   5.899   2.624   0.796
 5995SOL     OW18883   0.639   3.862   1.756
 5995SOL    HW118884   0.682   3.928   1.818
 5995SOL    HW218885   0.651   3.893   1.662
 5996SOL     OW18886   1.389   5.795   5.960
 5996SOL    HW118887   1.440   5.874   5.929
 5996SOL    HW218888   1.433   5.711   5.928
 5997SOL     OW18889   0.472   0.768   1.518
 5997SOL    HW118890   0.500   0.839   1.454
 5997SOL    HW218891   0.470   0.680   1.471
 5998SOL     OW18892   4.965   2.483   3.106
 5998SOL    HW118893   5.006   2.558   3.159
 5998SOL    HW218894   5.016   2.471   3.021
 5999SOL     OW18895   2.375   2.670   3.068
 5999SOL    HW118896   2.322   2.754   3.060
 5999SOL    HW218897   2.411   2.662   3.161
 6000SOL     OW18898   4.827   0.823   3.638
 6000SOL    HW118899   4.739   0.786   3.608
 6000SOL    HW218900   4.812   0.910   3.686
 6001SOL     OW18901   6.400   1.403   0.504
 6001SOL    HW118902   6.384   1.469   0.430
 6001SOL    HW218903   6.313   1.362   0.530
 6002SOL     OW18904   1.512   6.959   2.357
 6002SOL    HW118905   1.423   6.976   2.399
 6002SOL    HW218906   1.503   6.965   2.257
 6003SOL     OW18907   5.087   4.053   3.965
 6003SOL    HW118908   5.173   4.035   3.917
 6003SOL    HW218909   5.105   4.104   4.049
 6004SOL     OW18910   7.006   3.432   1.696
 6004SOL    HW118911   0.029   3.395   1.782
 6004SOL    HW218912   0.068   3.484   1.651
 6005SOL     OW18913   1.458   6.028   2.242
 6005SOL    HW118914   1.512   5.975   2.307
 6005SOL    HW218915   1.492   6.122   2.239
 6006SOL     OW18916   2.638   5.569   0.115
 6006SOL    HW118917   2.706   5.509   0.073
 6006SOL    HW218918   2.610   5.533   0.204
 6007SOL     OW18919   5.266   3.606   4.499
 6007SOL    HW118920   5.221   3.521   4.472
 6007SOL    HW218921   5.286   3.604   4.597
 6008SOL     OW18922   4.850   3.985   1.562
 6008SOL    HW118923   4.905   3.907   1.533
 6008SOL    HW218924   4.820   3.972   1.657
 6009SOL     OW18925   4.902   1.963   5.150
 6009SOL    HW118926   4.991   2.007   5.136
 6009SOL    HW218927   4.837   1.997   5.082
 6010SOL     OW18928   1.876   4.429   3.209
 6010SOL    HW118929   1.789   4.457   3.170
 6010SOL    HW218930   1.935   4.394   3.137
 6011SOL     OW18931   6.061   2.019   1.712
 6011SOL    HW118932   6.102   1.948   1.769
 6011SOL    HW218933   6.010   1.977   1.637
 6012SOL     OW18934   0.346   2.983   1.526
 6012SOL    HW118935   0.336   2.884   1.528
 6012SOL    HW218936   0.319   3.017   1.436
 6013SOL     OW18937   5.263   0.331   2.599
 6013SOL    HW118938   5.343   0.299   2.548
 6013SOL    HW218939   5.185   0.272   2.577
 6014SOL     OW18940   6.262   0.650   1.104
 6014SOL    HW118941   6.359   0.634   1.085
 6014SOL    HW218942   6.234   0.738   1.064
 6015SOL     OW18943   5.616   0.192   4.000
 6015SOL    HW118944   5.547   0.233   4.059
 6015SOL    HW218945   5.571   0.152   3.920
 6016SOL     OW18946   2.000   0.262   5.294
 6016SOL    HW118947   2.017   0.343   5.350
 6016SOL    HW218948   1.987   0.289   5.199
 6017SOL     OW18949   0.385   3.796   2.450
 6017SOL    HW118950   0.292   3.801   2.485
 6017SOL    HW218951   0.436   3.727   2.501
 6018SOL     OW18952   2.800   4.899   1.540
 6018SOL    HW118953   2.865   4.823   1.533
 6018SOL    HW218954   2.842   4.975   1.590
 6019SOL     OW18955   6.537   6.129   3.314
 6019SOL    HW118956   6.546   6.157   3.218
 6019SOL    HW218957   6.445   6.150   3.346
 6020SOL     OW18958   1.557   6.777   2.760
 6020SOL    HW118959   1.558   6.770   2.661
 6020SOL    HW218960   1.475   6.825   2.790
 6021SOL     OW18961   3.832   0.613   3.508
 6021SOL    HW118962   3.734   0.598   3.508
 6021SOL    HW218963   3.880   0.525   3.505
 6022SOL     OW18964   3.875   0.848   5.277
 6022SOL    HW118965   3.974   0.840   5.268
 6022SOL    HW218966   3.839   0.767   5.324
 6023SOL     OW18967   0.230   2.301   2.134
 6023SOL    HW118968   0.165   2.353   2.189
 6023SOL    HW218969   0.291   2.250   2.194
 6024SOL     OW18970   6.576   5.635   2.618
 6024SOL    HW118971   6.541   5.649   2.711
 6024SOL    HW218972   6.503   5.598   2.560
 6025SOL     OW18973   4.394   2.046   2.654
 6025SOL    HW118974   4.332   1.989   2.600
 6025SOL    HW218975   4.345   2.125   2.690
 6026SOL     OW18976   0.739   4.340   5.454
 6026SOL    HW118977   0.733   4.257   5.398
 6026SOL    HW218978   0.688   4.328   5.538
 6027SOL     OW18979   4.019   3.734   0.624
 6027SOL    HW118980   3.933   3.697   0.659
 6027SOL    HW218981   4.033   3.826   0.660
 6028SOL     OW18982   0.903   4.511   6.961
 6028SOL    HW118983   0.825   4.549   6.913
 6028SOL    HW218984   0.987   4.557   6.931
 6029SOL     OW18985   1.165   5.320   1.700
 6029SOL    HW118986   1.181   5.301   1.603
 6029SOL    HW218987   1.098   5.394   1.708
 6030SOL     OW18988   1.919   6.591   1.736
 6030SOL    HW118989   1.926   6.500   1.694
 6030SOL    HW218990   1.936   6.583   1.834
 6031SOL     OW18991   4.930   1.063   4.258
 6031SOL    HW118992   4.901   1.065   4.354
 6031SOL    HW218993   5.029   1.061   4.253
 6032SOL     OW18994   0.752   2.767   2.285
 6032SOL    HW118995   0.793   2.693   2.232
 6032SOL    HW218996   0.678   2.809   2.233
 6033SOL     OW18997   0.505   6.997   4.518
 6033SOL    HW118998   0.535   0.031   4.602
 6033SOL    HW218999   0.584   6.981   4.459
 6034SOL     OW19000   2.290   4.456   4.901
 6034SOL    HW119001   2.374   4.424   4.945
 6034SOL    HW219002   2.218   4.388   4.915
 6035SOL     OW19003   5.148   0.110   3.786
 6035SOL    HW119004   5.189   0.046   3.850
 6035SOL    HW219005   5.064   0.070   3.748
 6036SOL     OW19006   6.675   0.539   4.671
 6036SOL    HW119007   6.735   0.529   4.592
 6036SOL    HW219008   6.579   0.535   4.641
 6037SOL     OW19009   0.308   5.667   4.736
 6037SOL    HW119010   0.317   5.570   4.714
 6037SOL    HW219011   0.270   5.676   4.828
 6038SOL     OW19012   6.505   4.122   6.880
 6038SOL    HW119013   6.555   4.098   6.797
 6038SOL    HW219014   6.467   4.214   6.871
 6039SOL     OW19015   4.008   3.119   4.565
 6039SOL    HW119016   4.068   3.079   4.496
 6039SOL    HW219017   3.913   3.100   4.541
 6040SOL     OW19018   1.262   0.931   1.085
 6040SOL    HW119019   1.338   0.961   1.143
 6040SOL    HW219020   1.298   0.876   1.009
 6041SOL     OW19021   0.469   3.102   0.070
 6041SOL    HW119022   0.536   3.099   0.144
 6041SOL    HW219023   0.398   3.034   0.086
 6042SOL     OW19024   4.933   5.356   5.058
 6042SOL    HW119025   4.890   5.378   5.146
 6042SOL    HW219026   4.900   5.267   5.027
 6043SOL     OW19027   0.270   4.097   3.945
 6043SOL    HW119028   0.222   4.182   3.966
 6043SOL    HW219029   0.213   4.040   3.885
 6044SOL     OW19030   1.683   0.445   1.311
 6044SOL    HW119031   1.709   0.430   1.406
 6044SOL    HW219032   1.663   0.542   1.297
 6045SOL     OW19033   6.484   3.835   0.520
 6045SOL    HW119034   6.483   3.735   0.511
 6045SOL    HW219035   6.538   3.860   0.601
 6046SOL     OW19036   1.558   3.674   6.949
 6046SOL    HW119037   1.586   3.613   6.875
 6046SOL    HW219038   1.637   3.726   6.981
 6047SOL     OW19039   0.754   6.013   4.896
 6047SOL    HW119040   0.705   6.094   4.928
 6047SOL    HW219041   0.694   5.958   4.838
 6048SOL     OW19042   4.536   6.246   4.617
 6048SOL    HW119043   4.467   6.318   4.612
 6048SOL    HW219044   4.502   6.171   4.674
 6049SOL     OW19045   6.805   5.549   0.072
 6049SOL    HW119046   6.841   5.473   0.125
 6049SOL    HW219047   6.860   5.630   0.088
 6050SOL     OW19048   5.489   4.572   5.379
 6050SOL    HW119049   5.417   4.560   5.310
 6050SOL    HW219050   5.468   4.516   5.459
 6051SOL     OW19051   3.311   2.150   3.961
 6051SOL    HW119052   3.257   2.115   3.885
 6051SOL    HW219053   3.251   2.168   4.039
 6052SOL     OW19054   0.164   1.715   0.207
 6052SOL    HW119055   0.239   1.650   0.212
 6052SOL    HW219056   0.179   1.789   0.273
 6053SOL     OW19057   1.562   0.435   6.242
 6053SOL    HW119058   1.576   0.502   6.169
 6053SOL    HW219059   1.572   0.343   6.205
 6054SOL     OW19060   1.330   4.151   6.438
 6054SOL    HW119061   1.427   4.156   6.463
 6054SOL    HW219062   1.310   4.060   6.400
 6055SOL     OW19063   5.586   7.007   3.008
 6055SOL    HW119064   5.667   0.035   2.963
 6055SOL    HW219065   5.574   6.912   2.979
 6056SOL     OW19066   5.524   3.336   6.243
 6056SOL    HW119067   5.439   3.323   6.193
 6056SOL    HW219068   5.504   3.374   6.334
 6057SOL     OW19069   3.932   0.921   6.483
 6057SOL    HW119070   3.955   0.974   6.565
 6057SOL    HW219071   3.963   0.827   6.495
 6058SOL     OW19072   5.360   1.620   5.014
 6058SOL    HW119073   5.413   1.658   5.089
 6058SOL    HW219074   5.410   1.634   4.928
 6059SOL     OW19075   0.149   6.234   6.293
 6059SOL    HW119076   0.177   6.241   6.389
 6059SOL    HW219077   0.176   6.318   6.245
 6060SOL     OW19078   3.220   6.019   6.458
 6060SOL    HW119079   3.226   5.922   6.435
 6060SOL    HW219080   3.213   6.073   6.374
 6061SOL     OW19081   2.017   1.804   0.055
 6061SOL    HW119082   2.117   1.808   0.056
 6061SOL    HW219083   1.980   1.891   0.087
 6062SOL     OW19084   1.236   0.066   4.257
 6062SOL    HW119085   1.300   0.135   4.290
 6062SOL    HW219086   1.274   0.020   4.177
 6063SOL     OW19087   6.037   5.911   0.212
 6063SOL    HW119088   5.944   5.922   0.246
 6063SOL    HW219089   6.071   5.998   0.177
 6064SOL     OW19090   1.078   4.823   2.475
 6064SOL    HW119091   1.089   4.922   2.474
 6064SOL    HW219092   0.982   4.800   2.488
 6065SOL     OW19093   5.553   6.721   1.879
 6065SOL    HW119094   5.613   6.741   1.801
 6065SOL    HW219095   5.608   6.714   1.962
 6066SOL     OW19096   4.071   1.621   5.692
 6066SOL    HW119097   4.009   1.647   5.618
 6066SOL    HW219098   4.022   1.626   5.779
 6067SOL     OW19099   4.710   2.198   6.764
 6067SOL    HW119100   4.685   2.285   6.807
 6067SOL    HW219101   4.719   2.128   6.834
 6068SOL     OW19102   5.307   1.281   5.603
 6068SOL    HW119103   5.330   1.286   5.701
 6068SOL    HW219104   5.266   1.192   5.583
 6069SOL     OW19105   6.160   5.439   3.621
 6069SOL    HW119106   6.220   5.506   3.664
 6069SOL    HW219107   6.073   5.482   3.598
 6070SOL     OW19108   4.869   2.987   0.292
 6070SOL    HW119109   4.913   3.049   0.357
 6070SOL    HW219110   4.895   2.893   0.314
 6071SOL     OW19111   5.428   0.041   5.171
 6071SOL    HW119112   5.413   6.976   5.234
 6071SOL    HW219113   5.357   0.110   5.184
 6072SOL     OW19114   6.327   1.564   1.136
 6072SOL    HW119115   6.390   1.634   1.104
 6072SOL    HW219116   6.233   1.595   1.121
 6073SOL     OW19117   6.064   1.041   1.447
 6073SOL    HW119118   6.142   1.103   1.438
 6073SOL    HW219119   6.046   0.997   1.360
 6074SOL     OW19120   0.916   0.411   5.543
 6074SOL    HW119121   0.997   0.469   5.536
 6074SOL    HW219122   0.927   0.330   5.485
 6075SOL     OW19123   4.679   3.632   6.132
 6075SOL    HW119124   4.696   3.628   6.230
 6075SOL    HW219125   4.650   3.541   6.100
 6076SOL     OW19126   2.549   0.351   3.607
 6076SOL    HW119127   2.592   0.440   3.625
 6076SOL    HW219128   2.456   0.351   3.645
 6077SOL     OW19129   4.903   4.554   3.100
 6077SOL    HW119130   4.955   4.637   3.082
 6077SOL    HW219131   4.846   4.567   3.181
 6078SOL     OW19132   1.973   4.072   3.628
 6078SOL    HW119133   2.071   4.053   3.624
 6078SOL    HW219134   1.927   4.001   3.681
 6079SOL     OW19135   3.158   1.982   0.866
 6079SOL    HW119136   3.127   2.076   0.851
 6079SOL    HW219137   3.223   1.980   0.943
 6080SOL     OW19138   5.949   2.876   3.233
 6080SOL    HW119139   6.022   2.830   3.182
 6080SOL    HW219140   5.984   2.907   3.321
 6081SOL     OW19141   0.491   4.040   2.680
 6081SOL    HW119142   0.561   4.057   2.612
 6081SOL    HW219143   0.447   3.951   2.662
 6082SOL     OW19144   4.016   1.677   4.790
 6082SOL    HW119145   4.084   1.616   4.831
 6082SOL    HW219146   3.925   1.634   4.797
 6083SOL     OW19147   1.989   6.272   0.122
 6083SOL    HW119148   1.961   6.178   0.141
 6083SOL    HW219149   2.071   6.272   0.065
 6084SOL     OW19150   0.188   5.114   6.057
 6084SOL    HW119151   0.092   5.137   6.072
 6084SOL    HW219152   0.203   5.091   5.961
 6085SOL     OW19153   5.082   5.188   1.602
 6085SOL    HW119154   5.051   5.107   1.551
 6085SOL    HW219155   5.178   5.206   1.582
 6086SOL     OW19156   3.261   1.584   2.499
 6086SOL    HW119157   3.267   1.667   2.553
 6086SOL    HW219158   3.316   1.594   2.416
 6087SOL     OW19159   3.544   0.234   0.623
 6087SOL    HW119160   3.630   0.246   0.673
 6087SOL    HW219161   3.492   0.320   0.624
 6088SOL     OW19162   0.034   0.207   4.787
 6088SOL    HW119163   0.017   0.111   4.766
 6088SOL    HW219164   0.131   0.227   4.774
 6089SOL     OW19165   6.392   4.029   1.095
 6089SOL    HW119166   6.387   4.022   0.996
 6089SOL    HW219167   6.299   4.034   1.132
 6090SOL     OW19168   6.826   5.621   4.522
 6090SOL    HW119169   6.831   5.710   4.476
 6090SOL    HW219170   6.735   5.582   4.510
 6091SOL     OW19171   6.521   2.412   1.961
 6091SOL    HW119172   6.502   2.451   2.051
 6091SOL    HW219173   6.617   2.425   1.938
 6092SOL     OW19174   1.318   3.468   0.903
 6092SOL    HW119175   1.399   3.526   0.916
 6092SOL    HW219176   1.346   3.381   0.863
 6093SOL     OW19177   1.210   4.542   0.679
 6093SOL    HW119178   1.261   4.625   0.700
 6093SOL    HW219179   1.137   4.562   0.613
 6094SOL     OW19180   0.558   1.345   0.701
 6094SOL    HW119181   0.525   1.435   0.728
 6094SOL    HW219182   0.492   1.276   0.729
 6095SOL     OW19183   6.247   4.060   5.162
 6095SOL    HW119184   6.214   4.057   5.067
 6095SOL    HW219185   6.345   4.040   5.163
 6096SOL     OW19186   5.003   2.268   2.913
 6096SOL    HW119187   4.909   2.233   2.913
 6096SOL    HW219188   5.018   2.322   2.830
 6097SOL     OW19189   3.315   2.037   2.919
 6097SOL    HW119190   3.342   1.941   2.929
 6097SOL    HW219191   3.384   2.085   2.865
 6098SOL     OW19192   0.948   0.263   6.578
 6098SOL    HW119193   0.906   0.176   6.552
 6098SOL    HW219194   0.976   0.259   6.674
 6099SOL     OW19195   5.751   4.651   4.747
 6099SOL    HW119196   5.838   4.700   4.751
 6099SOL    HW219197   5.736   4.603   4.833
 6100SOL     OW19198   0.033   2.846   0.243
 6100SOL    HW119199   0.048   2.904   0.323
 6100SOL    HW219200   6.948   2.816   0.241
 6101SOL     OW19201   6.119   6.828   3.519
 6101SOL    HW119202   6.195   6.842   3.456
 6101SOL    HW219203   6.101   6.913   3.569
 6102SOL     OW19204   2.749   6.641   4.854
 6102SOL    HW119205   2.838   6.644   4.899
 6102SOL    HW219206   2.716   6.735   4.840
 6103SOL     OW19207   5.548   1.688   5.240
 6103SOL    HW119208   5.598   1.766   5.201
 6103SOL    HW219209   5.529   1.706   5.336
 6104SOL     OW19210   1.688   2.634   1.148
 6104SOL    HW119211   1.590   2.628   1.128
 6104SOL    HW219212   1.740   2.615   1.065
 6105SOL     OW19213   2.989   4.916   4.818
 6105SOL    HW119214   2.974   5.004   4.864
 6105SOL    HW219215   2.902   4.872   4.800
 6106SOL     OW19216   2.126   4.733   4.260
 6106SOL    HW119217   2.048   4.789   4.232
 6106SOL    HW219218   2.159   4.762   4.349
 6107SOL     OW19219   2.320   5.195   5.920
 6107SOL    HW119220   2.254   5.235   5.984
 6107SOL    HW219221   2.381   5.133   5.970
 6108SOL     OW19222   5.470   1.686   4.793
 6108SOL    HW119223   5.551   1.690   4.735
 6108SOL    HW219224   5.395   1.734   4.749
 6109SOL     OW19225   0.017   4.023   1.761
 6109SOL    HW119226   0.018   3.925   1.781
 6109SOL    HW219227   6.977   4.040   1.677
 6110SOL     OW19228   3.508   1.995   3.630
 6110SOL    HW119229   3.572   1.925   3.661
 6110SOL    HW219230   3.436   1.953   3.576
 6111SOL     OW19231   0.275   4.412   3.738
 6111SOL    HW119232   0.370   4.438   3.754
 6111SOL    HW219233   0.268   4.363   3.652
 6112SOL     OW19234   1.228   1.908   1.048
 6112SOL    HW119235   1.304   1.924   1.111
 6112SOL    HW219236   1.263   1.876   0.960
 6113SOL     OW19237   1.829   4.751   5.109
 6113SOL    HW119238   1.807   4.747   5.206
 6113SOL    HW219239   1.839   4.658   5.073
 6114SOL     OW19240   4.602   4.464   0.787
 6114SOL    HW119241   4.563   4.447   0.696
 6114SOL    HW219242   4.529   4.481   0.852
 6115SOL     OW19243   6.530   4.852   2.025
 6115SOL    HW119244   6.471   4.926   1.991
 6115SOL    HW219245   6.477   4.768   2.033
 6116SOL     OW19246   3.694   2.329   1.051
 6116SOL    HW119247   3.758   2.403   1.030
 6116SOL    HW219248   3.696   2.312   1.150
 6117SOL     OW19249   5.540   6.316   3.838
 6117SOL    HW119250   5.466   6.305   3.905
 6117SOL    HW219251   5.526   6.401   3.787
 6118SOL     OW19252   6.701   0.108   3.255
 6118SOL    HW119253   6.799   0.119   3.272
 6118SOL    HW219254   6.681   0.012   3.237
 6119SOL     OW19255   5.223   5.767   4.465
 6119SOL    HW119256   5.241   5.673   4.494
 6119SOL    HW219257   5.174   5.815   4.538
 6120SOL     OW19258   2.277   1.676   3.336
 6120SOL    HW119259   2.294   1.761   3.386
 6120SOL    HW219260   2.293   1.692   3.238
 6121SOL     OW19261   6.829   1.749   4.601
 6121SOL    HW119262   6.733   1.730   4.623
 6121SOL    HW219263   6.881   1.760   4.686
 6122SOL     OW19264   3.820   6.001   4.282
 6122SOL    HW119265   3.775   5.928   4.334
 6122SOL    HW219266   3.866   5.961   4.202
 6123SOL     OW19267   5.505   1.466   2.933
 6123SOL    HW119268   5.585   1.419   2.895
 6123SOL    HW219269   5.430   1.464   2.867
 6124SOL     OW19270   2.984   0.391   4.720
 6124SOL    HW119271   3.068   0.344   4.748
 6124SOL    HW219272   2.984   0.484   4.755
 6125SOL     OW19273   1.136   4.469   2.319
 6125SOL    HW119274   1.103   4.489   2.411
 6125SOL    HW219275   1.150   4.554   2.269
 6126SOL     OW19276   3.562   6.430   2.755
 6126SOL    HW119277   3.464   6.438   2.741
 6126SOL    HW219278   3.605   6.395   2.672
 6127SOL     OW19279   1.652   5.494   1.764
 6127SOL    HW119280   1.651   5.400   1.731
 6127SOL    HW219281   1.704   5.551   1.700
 6128SOL     OW19282   5.274   3.922   1.383
 6128SOL    HW119283   5.362   3.960   1.410
 6128SOL    HW219284   5.228   3.884   1.464
 6129SOL     OW19285   6.393   3.785   3.519
 6129SOL    HW119286   6.377   3.851   3.593
 6129SOL    HW219287   6.426   3.834   3.438
 6130SOL     OW19288   5.813   3.363   2.934
 6130SOL    HW119289   5.752   3.288   2.906
 6130SOL    HW219290   5.757   3.442   2.960
 6131SOL     OW19291   6.565   0.741   5.167
 6131SOL    HW119292   6.655   0.722   5.206
 6131SOL    HW219293   6.496   0.738   5.238
 6132SOL     OW19294   0.287   2.355   0.352
 6132SOL    HW119295   0.318   2.439   0.308
 6132SOL    HW219296   0.250   2.293   0.283
 6133SOL     OW19297   1.395   4.792   0.244
 6133SOL    HW119298   1.391   4.811   0.342
 6133SOL    HW219299   1.489   4.769   0.218
 6134SOL     OW19300   4.750   4.179   6.799
 6134SOL    HW119301   4.686   4.166   6.723
 6134SOL    HW219302   4.756   4.094   6.852
 6135SOL     OW19303   6.009   6.988   2.823
 6135SOL    HW119304   5.928   6.939   2.791
 6135SOL    HW219305   6.020   0.062   2.771
 6136SOL     OW19306   1.550   1.710   2.402
 6136SOL    HW119307   1.458   1.700   2.366
 6136SOL    HW219308   1.553   1.789   2.464
 6137SOL     OW19309   3.474   0.343   6.568
 6137SOL    HW119310   3.406   0.416   6.574
 6137SOL    HW219311   3.446   0.276   6.500
 6138SOL     OW19312   5.011   0.611   2.923
 6138SOL    HW119313   4.925   0.562   2.936
 6138SOL    HW219314   5.054   0.582   2.837
 6139SOL     OW19315   2.916   6.004   3.551
 6139SOL    HW119316   2.969   6.086   3.572
 6139SOL    HW219317   2.843   6.027   3.487
 6140SOL     OW19318   2.335   5.588   1.225
 6140SOL    HW119319   2.265   5.534   1.177
 6140SOL    HW219320   2.426   5.562   1.190
 6141SOL     OW19321   0.672   5.897   5.172
 6141SOL    HW119322   0.745   5.843   5.131
 6141SOL    HW219323   0.604   5.920   5.103
 6142SOL     OW19324   0.272   3.662   3.569
 6142SOL    HW119325   0.284   3.670   3.668
 6142SOL    HW219326   0.191   3.713   3.541
 6143SOL     OW19327   6.067   4.931   6.670
 6143SOL    HW119328   6.022   4.915   6.583
 6143SOL    HW219329   6.143   4.994   6.657
 6144SOL     OW19330   0.126   5.400   4.201
 6144SOL    HW119331   0.171   5.432   4.284
 6144SOL    HW219332   0.027   5.410   4.210
 6145SOL     OW19333   5.495   5.268   3.162
 6145SOL    HW119334   5.419   5.212   3.193
 6145SOL    HW219335   5.514   5.340   3.229
 6146SOL     OW19336   5.835   1.917   3.595
 6146SOL    HW119337   5.746   1.938   3.634
 6146SOL    HW219338   5.900   1.988   3.620
 6147SOL     OW19339   1.115   3.486   3.477
 6147SOL    HW119340   1.136   3.529   3.565
 6147SOL    HW219341   1.194   3.433   3.446
 6148SOL     OW19342   6.477   5.995   2.888
 6148SOL    HW119343   6.551   5.932   2.909
 6148SOL    HW219344   6.494   6.038   2.799
 6149SOL     OW19345   1.267   5.519   4.802
 6149SOL    HW119346   1.194   5.487   4.740
 6149SOL    HW219347   1.338   5.449   4.808
 6150SOL     OW19348   4.360   6.609   6.070
 6150SOL    HW119349   4.327   6.575   5.982
 6150SOL    HW219350   4.448   6.566   6.092
 6151SOL     OW19351   4.736   0.243   5.621
 6151SOL    HW119352   4.805   0.202   5.680
 6151SOL    HW219353   4.778   0.313   5.563
 6152SOL     OW19354   6.432   4.174   5.542
 6152SOL    HW119355   6.336   4.147   5.552
 6152SOL    HW219356   6.486   4.132   5.615
 6153SOL     OW19357   3.858   5.450   5.575
 6153SOL    HW119358   3.914   5.404   5.643
 6153SOL    HW219359   3.894   5.542   5.559
 6154SOL     OW19360   5.282   2.984   3.245
 6154SOL    HW119361   5.353   2.935   3.295
 6154SOL    HW219362   5.249   2.928   3.169
 6155SOL     OW19363   2.546   4.551   4.597
 6155SOL    HW119364   2.485   4.473   4.585
 6155SOL    HW219365   2.623   4.524   4.655
 6156SOL     OW19366   5.722   0.561   4.742
 6156SOL    HW119367   5.787   0.571   4.817
 6156SOL    HW219368   5.742   0.477   4.691
 6157SOL     OW19369   0.862   1.302   4.505
 6157SOL    HW119370   0.779   1.318   4.559
 6157SOL    HW219371   0.914   1.227   4.545
 6158SOL     OW19372   5.469   0.045   6.850
 6158SOL    HW119373   5.557   0.085   6.876
 6158SOL    HW219374   5.437   6.994   6.921
 6159SOL     OW19375   4.967   3.296   6.743
 6159SOL    HW119376   4.924   3.276   6.831
 6159SOL    HW219377   4.910   3.259   6.669
 6160SOL     OW19378   6.656   4.895   0.089
 6160SOL    HW119379   6.748   4.856   0.090
 6160SOL    HW219380   6.661   4.993   0.069
 6161SOL     OW19381   6.097   0.066   6.073
 6161SOL    HW119382   6.135   0.138   6.014
 6161SOL    HW219383   6.171   0.005   6.102
 6162SOL     OW19384   5.301   5.544   4.169
 6162SOL    HW119385   5.304   5.452   4.209
 6162SOL    HW219386   5.379   5.596   4.202
 6163SOL     OW19387   6.439   3.797   2.812
 6163SOL    HW119388   6.381   3.840   2.881
 6163SOL    HW219389   6.534   3.825   2.826
 6164SOL     OW19390   4.376   3.266   1.304
 6164SOL    HW119391   4.350   3.171   1.322
 6164SOL    HW219392   4.446   3.295   1.369
 6165SOL     OW19393   4.085   0.326   1.357
 6165SOL    HW119394   4.082   0.424   1.340
 6165SOL    HW219395   4.153   0.284   1.296
 6166SOL     OW19396   3.221   0.596   0.525
 6166SOL    HW119397   3.212   0.676   0.585
 6166SOL    HW219398   3.130   0.569   0.492
 6167SOL     OW19399   6.645   5.256   3.541
 6167SOL    HW119400   6.648   5.354   3.523
 6167SOL    HW219401   6.550   5.227   3.549
 6168SOL     OW19402   0.224   3.126   1.292
 6168SOL    HW119403   0.317   3.122   1.255
 6168SOL    HW219404   0.160   3.147   1.218
 6169SOL     OW19405   1.797   3.980   1.137
 6169SOL    HW119406   1.716   3.929   1.107
 6169SOL    HW219407   1.878   3.946   1.088
 6170SOL     OW19408   6.656   1.951   3.446
 6170SOL    HW119409   6.660   1.855   3.472
 6170SOL    HW219410   6.603   2.002   3.514
 6171SOL     OW19411   6.032   1.624   6.225
 6171SOL    HW119412   6.026   1.659   6.318
 6171SOL    HW219413   6.068   1.531   6.226
 6172SOL     OW19414   0.173   4.658   3.781
 6172SOL    HW119415   0.236   4.728   3.748
 6172SOL    HW219416   0.217   4.568   3.774
 6173SOL     OW19417   5.453   6.467   2.910
 6173SOL    HW119418   5.475   6.407   2.832
 6173SOL    HW219419   5.431   6.410   2.990
 6174SOL     OW19420   0.076   2.144   3.472
 6174SOL    HW119421   0.090   2.240   3.449
 6174SOL    HW219422   0.064   2.135   3.571
 6175SOL     OW19423   3.802   1.542   0.027
 6175SOL    HW119424   3.745   1.460   0.014
 6175SOL    HW219425   3.744   1.623   0.019
 6176SOL     OW19426   2.914   4.539   6.100
 6176SOL    HW119427   2.918   4.584   6.011
 6176SOL    HW219428   3.004   4.502   6.122
 6177SOL     OW19429   5.713   5.409   1.760
 6177SOL    HW119430   5.732   5.369   1.849
 6177SOL    HW219431   5.614   5.408   1.743
 6178SOL     OW19432   4.082   4.772   1.936
 6178SOL    HW119433   4.159   4.718   1.903
 6178SOL    HW219434   4.007   4.767   1.869
 6179SOL     OW19435   5.065   5.620   5.065
 6179SOL    HW119436   5.158   5.584   5.074
 6179SOL    HW219437   5.001   5.564   5.117
 6180SOL     OW19438   2.006   3.758   6.872
 6180SOL    HW119439   2.067   3.838   6.866
 6180SOL    HW219440   1.972   3.750   6.966
 6181SOL     OW19441   6.675   6.568   6.983
 6181SOL    HW119442   6.700   6.639   6.917
 6181SOL    HW219443   6.684   6.604   0.065
 6182SOL     OW19444   3.502   2.490   6.556
 6182SOL    HW119445   3.511   2.532   6.466
 6182SOL    HW219446   3.560   2.537   6.622
 6183SOL     OW19447   0.232   0.625   6.986
 6183SOL    HW119448   0.295   0.559   0.014
 6183SOL    HW219449   0.138   0.595   7.002
 6184SOL     OW19450   3.265   6.699   5.663
 6184SOL    HW119451   3.207   6.680   5.743
 6184SOL    HW219452   3.277   6.798   5.653
 6185SOL     OW19453   3.841   2.972   4.279
 6185SOL    HW119454   3.821   2.939   4.372
 6185SOL    HW219455   3.765   3.027   4.246
 6186SOL     OW19456   0.877   1.998   2.341
 6186SOL    HW119457   0.977   2.006   2.340
 6186SOL    HW219458   0.836   2.087   2.361
 6187SOL     OW19459   3.355   2.034   5.897
 6187SOL    HW119460   3.416   1.993   5.965
 6187SOL    HW219461   3.294   1.964   5.860
 6188SOL     OW19462   1.838   1.837   5.611
 6188SOL    HW119463   1.905   1.889   5.664
 6188SOL    HW219464   1.802   1.762   5.666
 6189SOL     OW19465   6.396   5.596   0.398
 6189SOL    HW119466   6.445   5.655   0.463
 6189SOL    HW219467   6.430   5.503   0.405
 6190SOL     OW19468   0.543   3.168   3.536
 6190SOL    HW119469   0.551   3.267   3.541
 6190SOL    HW219470   0.596   3.126   3.609
 6191SOL     OW19471   2.852   4.445   0.160
 6191SOL    HW119472   2.864   4.402   0.250
 6191SOL    HW219473   2.754   4.454   0.141
 6192SOL     OW19474   3.597   1.491   1.452
 6192SOL    HW119475   3.535   1.413   1.460
 6192SOL    HW219476   3.557   1.560   1.392
 6193SOL     OW19477   4.360   5.591   6.636
 6193SOL    HW119478   4.442   5.644   6.616
 6193SOL    HW219479   4.326   5.614   6.727
 6194SOL     OW19480   5.157   0.171   5.874
 6194SOL    HW119481   5.217   0.092   5.861
 6194SOL    HW219482   5.206   0.254   5.848
 6195SOL     OW19483   4.394   5.878   5.543
 6195SOL    HW119484   4.419   5.836   5.630
 6195SOL    HW219485   4.455   5.846   5.472
 6196SOL     OW19486   6.750   3.574   3.345
 6196SOL    HW119487   6.768   3.611   3.436
 6196SOL    HW219488   6.757   3.475   3.347
 6197SOL     OW19489   1.131   5.470   0.647
 6197SOL    HW119490   1.201   5.473   0.718
 6197SOL    HW219491   1.044   5.500   0.685
 6198SOL     OW19492   6.247   1.469   6.475
 6198SOL    HW119493   6.331   1.447   6.424
 6198SOL    HW219494   6.256   1.438   6.569
 6199SOL     OW19495   2.459   6.963   6.305
 6199SOL    HW119496   2.406   0.028   6.266
 6199SOL    HW219497   2.512   6.919   6.233
 6200SOL     OW19498   1.746   6.741   0.170
 6200SOL    HW119499   1.722   6.769   0.263
 6200SOL    HW219500   1.759   6.641   0.168
 6201SOL     OW19501   0.396   4.623   3.512
 6201SOL    HW119502   0.466   4.689   3.537
 6201SOL    HW219503   0.423   4.532   3.544
 6202SOL     OW19504   5.434   0.993   1.905
 6202SOL    HW119505   5.503   0.992   1.977
 6202SOL    HW219506   5.477   0.973   1.817
 6203SOL     OW19507   6.648   1.354   2.427
 6203SOL    HW119508   6.723   1.417   2.408
 6203SOL    HW219509   6.614   1.315   2.341
 6204SOL     OW19510   0.993   6.106   4.583
 6204SOL    HW119511   1.020   6.096   4.679
 6204SOL    HW219512   1.049   6.046   4.526
 6205SOL     OW19513   6.359   4.494   3.294
 6205SOL    HW119514   6.307   4.408   3.290
 6205SOL    HW219515   6.432   4.485   3.362
 6206SOL     OW19516   4.764   1.930   3.341
 6206SOL    HW119517   4.853   1.891   3.364
 6206SOL    HW219518   4.693   1.860   3.351
 6207SOL     OW19519   1.964   5.994   3.780
 6207SOL    HW119520   1.897   5.982   3.707
 6207SOL    HW219521   1.938   6.074   3.836
 6208SOL     OW19522   3.609   4.199   6.375
 6208SOL    HW119523   3.627   4.215   6.472
 6208SOL    HW219524   3.649   4.272   6.321
 6209SOL     OW19525   3.617   1.127   2.347
 6209SOL    HW119526   3.531   1.161   2.387
 6209SOL    HW219527   3.686   1.200   2.350
 6210SOL     OW19528   6.092   1.101   4.058
 6210SOL    HW119529   6.155   1.145   3.994
 6210SOL    HW219530   6.121   1.007   4.073
 6211SOL     OW19531   5.339   2.858   5.108
 6211SOL    HW119532   5.261   2.796   5.114
 6211SOL    HW219533   5.424   2.804   5.109
 6212SOL     OW19534   5.394   4.188   4.904
 6212SOL    HW119535   5.431   4.250   4.835
 6212SOL    HW219536   5.344   4.114   4.858
 6213SOL     OW19537   5.044   5.775   0.333
 6213SOL    HW119538   5.086   5.814   0.416
 6213SOL    HW219539   5.080   5.683   0.318
 6214SOL     OW19540   6.818   6.818   6.167
 6214SOL    HW119541   6.827   6.806   6.068
 6214SOL    HW219542   6.901   6.784   6.212
 6215SOL     OW19543   5.869   2.100   4.798
 6215SOL    HW119544   5.845   2.136   4.888
 6215SOL    HW219545   5.937   2.028   4.808
 6216SOL     OW19546   5.449   2.539   5.432
 6216SOL    HW119547   5.372   2.602   5.423
 6216SOL    HW219548   5.433   2.478   5.510
 6217SOL     OW19549   6.745   4.163   2.026
 6217SOL    HW119550   6.664   4.158   1.968
 6217SOL    HW219551   6.789   4.073   2.029
 6218SOL     OW19552   4.879   6.550   1.126
 6218SOL    HW119553   4.954   6.495   1.163
 6218SOL    HW219554   4.831   6.595   1.201
 6219SOL     OW19555   2.591   0.634   0.351
 6219SOL    HW119556   2.652   0.559   0.377
 6219SOL    HW219557   2.554   0.617   0.260
 6220SOL     OW19558   3.079   0.610   2.415
 6220SOL    HW119559   3.122   0.676   2.476
 6220SOL    HW219560   3.141   0.588   2.340
 6221SOL     OW19561   4.265   5.387   5.179
 6221SOL    HW119562   4.227   5.438   5.256
 6221SOL    HW219563   4.230   5.293   5.181
 6222SOL     OW19564   6.218   1.657   2.280
 6222SOL    HW119565   6.172   1.691   2.362
 6222SOL    HW219566   6.302   1.709   2.264
 6223SOL     OW19567   6.384   5.091   3.809
 6223SOL    HW119568   6.317   5.070   3.880
 6223SOL    HW219569   6.455   5.151   3.847
 6224SOL     OW19570   3.844   6.714   0.053
 6224SOL    HW119571   3.913   6.703   0.124
 6224SOL    HW219572   3.813   6.624   0.022
 6225SOL     OW19573   4.959   6.072   6.600
 6225SOL    HW119574   4.935   6.138   6.671
 6225SOL    HW219575   4.992   6.121   6.519
 6226SOL     OW19576   1.086   0.923   4.158
 6226SOL    HW119577   1.045   0.944   4.070
 6226SOL    HW219578   1.157   0.853   4.146
 6227SOL     OW19579   2.279   4.160   6.191
 6227SOL    HW119580   2.324   4.100   6.125
 6227SOL    HW219581   2.255   4.247   6.146
 6228SOL     OW19582   0.465   3.268   3.999
 6228SOL    HW119583   0.384   3.327   4.012
 6228SOL    HW219584   0.471   3.203   4.075
 6229SOL     OW19585   0.208   4.014   5.005
 6229SOL    HW119586   0.188   3.976   4.915
 6229SOL    HW219587   0.236   4.110   4.994
 6230SOL     OW19588   0.880   0.804   1.538
 6230SOL    HW119589   0.895   0.762   1.627
 6230SOL    HW219590   0.838   0.738   1.476
 6231SOL     OW19591   2.187   5.601   5.906
 6231SOL    HW119592   2.134   5.521   5.931
 6231SOL    HW219593   2.126   5.669   5.864
 6232SOL     OW19594   4.246   0.138   6.654
 6232SOL    HW119595   4.181   0.214   6.648
 6232SOL    HW219596   4.200   0.053   6.628
 6233SOL     OW19597   6.913   4.393   1.488
 6233SOL    HW119598   6.834   4.455   1.495
 6233SOL    HW219599   6.970   4.403   1.570
 6234SOL     OW19600   4.637   5.497   3.488
 6234SOL    HW119601   4.655   5.502   3.586
 6234SOL    HW219602   4.614   5.588   3.454
 6235SOL     OW19603   0.113   0.725   1.738
 6235SOL    HW119604   0.154   0.801   1.688
 6235SOL    HW219605   0.015   0.741   1.749
 6236SOL     OW19606   6.653   5.952   1.602
 6236SOL    HW119607   6.585   6.017   1.637
 6236SOL    HW219608   6.613   5.901   1.526
 6237SOL     OW19609   4.347   1.322   2.559
 6237SOL    HW119610   4.337   1.408   2.509
 6237SOL    HW219611   4.317   1.246   2.501
 6238SOL     OW19612   2.642   0.636   3.642
 6238SOL    HW119613   2.597   0.685   3.567
 6238SOL    HW219614   2.579   0.630   3.719
 6239SOL     OW19615   3.731   1.523   3.846
 6239SOL    HW119616   3.736   1.429   3.880
 6239SOL    HW219617   3.721   1.586   3.923
 6240SOL     OW19618   4.039   3.446   4.022
 6240SOL    HW119619   4.089   3.532   4.020
 6240SOL    HW219620   3.945   3.464   4.051
 6241SOL     OW19621   3.946   0.195   2.965
 6241SOL    HW119622   3.920   0.221   2.872
 6241SOL    HW219623   4.003   0.113   2.962
 6242SOL     OW19624   3.123   2.084   4.555
 6242SOL    HW119625   3.060   2.127   4.620
 6242SOL    HW219626   3.208   2.061   4.602
 6243SOL     OW19627   3.479   1.247   0.404
 6243SOL    HW119628   3.532   1.188   0.343
 6243SOL    HW219629   3.452   1.196   0.485
 6244SOL     OW19630   4.580   2.532   1.963
 6244SOL    HW119631   4.652   2.598   1.942
 6244SOL    HW219632   4.538   2.500   1.878
 6245SOL     OW19633   6.735   4.593   1.970
 6245SOL    HW119634   6.722   4.692   1.976
 6245SOL    HW219635   6.777   4.571   1.882
 6246SOL     OW19636   0.886   5.792   5.017
 6246SOL    HW119637   0.843   5.881   5.002
 6246SOL    HW219638   0.969   5.785   4.962
 6247SOL     OW19639   5.728   5.146   2.845
 6247SOL    HW119640   5.786   5.165   2.766
 6247SOL    HW219641   5.716   5.047   2.855
 6248SOL     OW19642   4.906   3.069   5.708
 6248SOL    HW119643   4.857   2.981   5.703
 6248SOL    HW219644   4.855   3.131   5.768
 6249SOL     OW19645   5.547   2.580   3.326
 6249SOL    HW119646   5.493   2.525   3.262
 6249SOL    HW219647   5.595   2.652   3.276
 6250SOL     OW19648   5.267   0.421   5.779
 6250SOL    HW119649   5.195   0.485   5.808
 6250SOL    HW219650   5.331   0.406   5.854
 6251SOL     OW19651   2.540   0.984   4.276
 6251SOL    HW119652   2.447   0.962   4.303
 6251SOL    HW219653   2.576   0.911   4.218
 6252SOL     OW19654   3.304   5.039   0.611
 6252SOL    HW119655   3.214   5.001   0.627
 6252SOL    HW219656   3.315   5.058   0.513
 6253SOL     OW19657   5.211   6.496   3.527
 6253SOL    HW119658   5.149   6.541   3.463
 6253SOL    HW219659   5.301   6.486   3.484
 6254SOL     OW19660   0.178   0.014   1.985
 6254SOL    HW119661   0.113   0.043   2.055
 6254SOL    HW219662   0.176   6.925   1.976
 6255SOL     OW19663   2.157   0.559   0.725
 6255SOL    HW119664   2.141   0.622   0.649
 6255SOL    HW219665   2.070   0.528   0.761
 6256SOL     OW19666   6.463   4.585   2.423
 6256SOL    HW119667   6.473   4.491   2.388
 6256SOL    HW219668   6.372   4.619   2.401
 6257SOL     OW19669   3.961   4.154   0.844
 6257SOL    HW119670   3.957   4.188   0.938
 6257SOL    HW219671   3.972   4.230   0.781
 6258SOL     OW19672   3.956   4.854   4.756
 6258SOL    HW119673   3.937   4.858   4.854
 6258SOL    HW219674   4.055   4.857   4.740
 6259SOL     OW19675   4.552   0.890   4.867
 6259SOL    HW119676   4.541   0.980   4.910
 6259SOL    HW219677   4.520   0.893   4.773
 6260SOL     OW19678   3.580   2.117   0.230
 6260SOL    HW119679   3.556   2.022   0.206
 6260SOL    HW219680   3.544   2.138   0.321
 6261SOL     OW19681   4.109   6.877   0.834
 6261SOL    HW119682   4.176   6.925   0.890
 6261SOL    HW219683   4.155   6.831   0.758
 6262SOL     OW19684   6.191   0.936   3.120
 6262SOL    HW119685   6.158   1.023   3.084
 6262SOL    HW219686   6.254   0.953   3.196
 6263SOL     OW19687   6.258   5.858   6.200
 6263SOL    HW119688   6.294   5.946   6.230
 6263SOL    HW219689   6.300   5.785   6.255
 6264SOL     OW19690   0.808   6.210   0.836
 6264SOL    HW119691   0.759   6.127   0.811
 6264SOL    HW219692   0.749   6.290   0.822
 6265SOL     OW19693   3.878   6.669   6.758
 6265SOL    HW119694   3.798   6.631   6.711
 6265SOL    HW219695   3.863   6.766   6.776
 6266SOL     OW19696   3.006   5.072   2.721
 6266SOL    HW119697   3.010   5.075   2.621
 6266SOL    HW219698   2.999   4.977   2.751
 6267SOL     OW19699   0.316   6.587   4.466
 6267SOL    HW119700   0.263   6.671   4.460
 6267SOL    HW219701   0.255   6.508   4.460
 6268SOL     OW19702   3.203   1.528   1.709
 6268SOL    HW119703   3.166   1.618   1.687
 6268SOL    HW219704   3.132   1.458   1.694
 6269SOL     OW19705   6.851   6.357   0.100
 6269SOL    HW119706   6.942   6.333   0.065
 6269SOL    HW219707   6.829   6.450   0.072
 6270SOL     OW19708   1.277   6.526   0.792
 6270SOL    HW119709   1.238   6.436   0.813
 6270SOL    HW219710   1.372   6.530   0.823
 6271SOL     OW19711   6.765   3.363   5.235
 6271SOL    HW119712   6.764   3.338   5.332
 6271SOL    HW219713   6.671   3.380   5.204
 6272SOL     OW19714   0.849   1.067   0.581
 6272SOL    HW119715   0.917   1.046   0.510
 6272SOL    HW219716   0.758   1.074   0.538
 6273SOL     OW19717   1.034   6.597   3.114
 6273SOL    HW119718   1.112   6.553   3.161
 6273SOL    HW219719   0.983   6.528   3.063
 6274SOL     OW19720   2.973   5.698   4.219
 6274SOL    HW119721   3.058   5.689   4.270
 6274SOL    HW219722   2.959   5.616   4.163
 6275SOL     OW19723   2.868   5.421   1.155
 6275SOL    HW119724   2.960   5.403   1.188
 6275SOL    HW219725   2.829   5.337   1.118
 6276SOL     OW19726   1.742   4.895   2.696
 6276SOL    HW119727   1.715   4.835   2.621
 6276SOL    HW219728   1.749   4.843   2.781
 6277SOL     OW19729   4.634   2.858   1.648
 6277SOL    HW119730   4.613   2.767   1.683
 6277SOL    HW219731   4.610   2.927   1.717
 6278SOL     OW19732   3.084   2.986   0.352
 6278SOL    HW119733   3.057   3.082   0.348
 6278SOL    HW219734   3.005   2.931   0.380
 6279SOL     OW19735   1.570   6.422   1.979
 6279SOL    HW119736   1.608   6.500   2.029
 6279SOL    HW219737   1.610   6.337   2.014
 6280SOL     OW19738   5.031   0.995   0.108
 6280SOL    HW119739   4.961   0.923   0.104
 6280SOL    HW219740   5.048   1.019   0.204
 6281SOL     OW19741   5.397   3.996   5.578
 6281SOL    HW119742   5.342   4.043   5.509
 6281SOL    HW219743   5.428   4.062   5.646
 6282SOL     OW19744   0.563   3.837   5.505
 6282SOL    HW119745   0.484   3.855   5.446
 6282SOL    HW219746   0.647   3.852   5.453
 6283SOL     OW19747   2.503   0.480   4.299
 6283SOL    HW119748   2.566   0.472   4.222
 6283SOL    HW219749   2.555   0.485   4.384
 6284SOL     OW19750   1.670   4.100   6.692
 6284SOL    HW119751   1.730   4.168   6.649
 6284SOL    HW219752   1.640   4.034   6.623
 6285SOL     OW19753   1.379   4.140   3.191
 6285SOL    HW119754   1.456   4.154   3.252
 6285SOL    HW219755   1.408   4.154   3.097
 6286SOL     OW19756   0.836   2.996   0.017
 6286SOL    HW119757   0.830   2.897   0.028
 6286SOL    HW219758   0.874   3.017   6.937
 6287SOL     OW19759   4.623   5.077   4.775
 6287SOL    HW119760   4.616   5.152   4.841
 6287SOL    HW219761   4.569   4.999   4.808
 6288SOL     OW19762   3.058   3.647   5.781
 6288SOL    HW119763   3.132   3.707   5.752
 6288SOL    HW219764   2.970   3.685   5.751
 6289SOL     OW19765   2.576   4.713   5.096
 6289SOL    HW119766   2.595   4.794   5.152
 6289SOL    HW219767   2.662   4.674   5.063
 6290SOL     OW19768   6.500   6.641   3.162
 6290SOL    HW119769   6.438   6.565   3.182
 6290SOL    HW219770   6.535   6.633   3.069
 6291SOL     OW19771   3.004   3.292   2.324
 6291SOL    HW119772   2.985   3.293   2.422
 6291SOL    HW219773   2.965   3.373   2.281
 6292SOL     OW19774   1.127   4.040   4.771
 6292SOL    HW119775   1.092   4.067   4.860
 6292SOL    HW219776   1.066   4.074   4.699
 6293SOL     OW19777   3.201   1.288   0.576
 6293SOL    HW119778   3.190   1.387   0.580
 6293SOL    HW219779   3.112   1.246   0.554
 6294SOL     OW19780   1.970   0.499   2.155
 6294SOL    HW119781   1.908   0.559   2.205
 6294SOL    HW219782   1.973   0.410   2.201
 6295SOL     OW19783   4.554   2.373   5.674
 6295SOL    HW119784   4.641   2.326   5.657
 6295SOL    HW219785   4.544   2.448   5.608
 6296SOL     OW19786   0.127   2.591   0.193
 6296SOL    HW119787   0.227   2.594   0.203
 6296SOL    HW219788   0.089   2.683   0.203
 6297SOL     OW19789   6.697   1.056   4.314
 6297SOL    HW119790   6.745   1.069   4.401
 6297SOL    HW219791   6.701   1.141   4.261
 6298SOL     OW19792   6.657   0.329   6.734
 6298SOL    HW119793   6.641   0.240   6.779
 6298SOL    HW219794   6.635   0.321   6.637
 6299SOL     OW19795   3.341   1.812   3.799
 6299SOL    HW119796   3.309   1.906   3.790
 6299SOL    HW219797   3.353   1.772   3.708
 6300SOL     OW19798   2.555   2.205   1.336
 6300SOL    HW119799   2.617   2.280   1.312
 6300SOL    HW219800   2.492   2.188   1.260
 6301SOL     OW19801   4.177   6.477   0.980
 6301SOL    HW119802   4.117   6.504   0.904
 6301SOL    HW219803   4.124   6.423   1.045
 6302SOL     OW19804   1.470   3.655   0.258
 6302SOL    HW119805   1.560   3.698   0.250
 6302SOL    HW219806   1.471   3.590   0.334
 6303SOL     OW19807   6.589   5.192   4.607
 6303SOL    HW119808   6.680   5.156   4.627
 6303SOL    HW219809   6.526   5.116   4.590
 6304SOL     OW19810   2.201   1.912   4.215
 6304SOL    HW119811   2.258   1.972   4.271
 6304SOL    HW219812   2.185   1.954   4.125
 6305SOL     OW19813   0.557   5.618   5.345
 6305SOL    HW119814   0.654   5.640   5.350
 6305SOL    HW219815   0.534   5.550   5.415
 6306SOL     OW19816   0.633   4.272   4.220
 6306SOL    HW119817   0.602   4.202   4.155
 6306SOL    HW219818   0.658   4.355   4.170
 6307SOL     OW19819   2.980   3.467   3.126
 6307SOL    HW119820   2.992   3.372   3.099
 6307SOL    HW219821   2.990   3.476   3.225
 6308SOL     OW19822   0.589   1.318   1.346
 6308SOL    HW119823   0.627   1.399   1.392
 6308SOL    HW219824   0.664   1.256   1.321
 6309SOL     OW19825   2.139   5.525   5.138
 6309SOL    HW119826   2.190   5.587   5.077
 6309SOL    HW219827   2.198   5.497   5.213
 6310SOL     OW19828   0.727   6.864   3.197
 6310SOL    HW119829   0.761   6.823   3.113
 6310SOL    HW219830   0.796   6.857   3.269
 6311SOL     OW19831   6.562   0.994   6.004
 6311SOL    HW119832   6.547   0.953   6.094
 6311SOL    HW219833   6.659   1.017   5.994
 6312SOL     OW19834   3.492   5.764   1.374
 6312SOL    HW119835   3.524   5.756   1.279
 6312SOL    HW219836   3.532   5.847   1.415
 6313SOL     OW19837   5.415   5.014   2.681
 6313SOL    HW119838   5.344   4.957   2.640
 6313SOL    HW219839   5.500   4.961   2.688
 6314SOL     OW19840   1.922   6.780   3.423
 6314SOL    HW119841   2.006   6.796   3.475
 6314SOL    HW219842   1.872   6.866   3.411
 6315SOL     OW19843   2.140   2.347   3.268
 6315SOL    HW119844   2.119   2.418   3.200
 6315SOL    HW219845   2.165   2.263   3.221
 6316SOL     OW19846   4.071   0.552   5.013
 6316SOL    HW119847   4.082   0.460   4.976
 6316SOL    HW219848   4.133   0.564   5.090
 6317SOL     OW19849   4.749   4.053   2.919
 6317SOL    HW119850   4.745   4.067   2.820
 6317SOL    HW219851   4.690   4.120   2.965
 6318SOL     OW19852   5.956   6.974   0.160
 6318SOL    HW119853   5.933   0.041   0.102
 6318SOL    HW219854   5.914   6.986   0.250
 6319SOL     OW19855   4.783   2.406   4.602
 6319SOL    HW119856   4.840   2.458   4.666
 6319SOL    HW219857   4.703   2.461   4.577
 6320SOL     OW19858   6.297   1.751   6.502
 6320SOL    HW119859   6.293   1.651   6.496
 6320SOL    HW219860   6.382   1.784   6.459
 6321SOL     OW19861   1.015   3.909   0.379
 6321SOL    HW119862   0.916   3.927   0.375
 6321SOL    HW219863   1.034   3.819   0.340
 6322SOL     OW19864   2.006   1.345   2.675
 6322SOL    HW119865   1.919   1.306   2.705
 6322SOL    HW219866   2.033   1.303   2.588
 6323SOL     OW19867   1.872   5.898   1.078
 6323SOL    HW119868   1.926   5.819   1.105
 6323SOL    HW219869   1.931   5.978   1.071
 6324SOL     OW19870   5.075   3.942   1.183
 6324SOL    HW119871   5.147   3.960   1.251
 6324SOL    HW219872   5.026   3.858   1.207
 6325SOL     OW19873   1.118   3.289   4.108
 6325SOL    HW119874   1.082   3.200   4.081
 6325SOL    HW219875   1.209   3.277   4.148
 6326SOL     OW19876   4.574   5.326   5.167
 6326SOL    HW119877   4.566   5.347   5.070
 6326SOL    HW219878   4.537   5.401   5.221
 6327SOL     OW19879   0.607   0.857   2.541
 6327SOL    HW119880   0.592   0.759   2.529
 6327SOL    HW219881   0.525   0.898   2.583
 6328SOL     OW19882   3.786   3.607   5.000
 6328SOL    HW119883   3.794   3.692   4.948
 6328SOL    HW219884   3.781   3.529   4.938
 6329SOL     OW19885   6.754   3.001   4.858
 6329SOL    HW119886   6.741   3.078   4.921
 6329SOL    HW219887   6.798   3.033   4.774
 6330SOL     OW19888   4.177   1.977   3.749
 6330SOL    HW119889   4.238   1.985   3.670
 6330SOL    HW219890   4.093   1.932   3.721
 6331SOL     OW19891   1.691   3.701   3.604
 6331SOL    HW119892   1.710   3.695   3.702
 6331SOL    HW219893   1.741   3.629   3.556
 6332SOL     OW19894   4.263   1.682   6.913
 6332SOL    HW119895   4.303   1.652   6.826
 6332SOL    HW219896   4.260   1.782   6.916
 6333SOL     OW19897   5.806   0.835   0.351
 6333SOL    HW119898   5.793   0.923   0.397
 6333SOL    HW219899   5.799   0.762   0.419
 6334SOL     OW19900   1.927   1.278   1.785
 6334SOL    HW119901   2.008   1.323   1.822
 6334SOL    HW219902   1.955   1.203   1.725
 6335SOL     OW19903   6.053   2.770   5.279
 6335SOL    HW119904   5.984   2.708   5.242
 6335SOL    HW219905   6.036   2.785   5.376
 6336SOL     OW19906   0.443   4.873   6.100
 6336SOL    HW119907   0.359   4.848   6.053
 6336SOL    HW219908   0.476   4.960   6.063
 6337SOL     OW19909   6.259   6.905   5.151
 6337SOL    HW119910   6.212   6.877   5.235
 6337SOL    HW219911   6.356   6.921   5.172
 6338SOL     OW19912   0.762   0.489   2.328
 6338SOL    HW119913   0.837   0.426   2.309
 6338SOL    HW219914   0.795   0.566   2.382
 6339SOL     OW19915   0.201   4.099   3.289
 6339SOL    HW119916   0.197   4.198   3.286
 6339SOL    HW219917   0.203   4.062   3.196
 6340SOL     OW19918   2.408   5.218   6.590
 6340SOL    HW119919   2.331   5.156   6.579
 6340SOL    HW219920   2.389   5.305   6.543
 6341SOL     OW19921   0.350   4.320   2.575
 6341SOL    HW119922   0.372   4.336   2.672
 6341SOL    HW219923   0.310   4.229   2.565
 6342SOL     OW19924   2.073   0.313   1.655
 6342SOL    HW119925   1.987   0.327   1.705
 6342SOL    HW219926   2.115   0.228   1.685
 6343SOL     OW19927   1.739   4.951   6.897
 6343SOL    HW119928   1.821   4.984   6.848
 6343SOL    HW219929   1.766   4.912   6.984
 6344SOL     OW19930   1.168   1.184   4.206
 6344SOL    HW119931   1.127   1.095   4.185
 6344SOL    HW219932   1.241   1.203   4.140
 6345SOL     OW19933   0.122   3.059   2.913
 6345SOL    HW119934   0.063   3.084   2.836
 6345SOL    HW219935   0.218   3.077   2.889
 6346SOL     OW19936   0.717   4.666   4.301
 6346SOL    HW119937   0.642   4.633   4.244
 6346SOL    HW219938   0.804   4.638   4.261
 6347SOL     OW19939   1.989   2.383   3.480
 6347SOL    HW119940   2.037   2.357   3.396
 6347SOL    HW219941   1.897   2.343   3.480
 6348SOL     OW19942   1.309   2.989   0.155
 6348SOL    HW119943   1.255   2.986   0.072
 6348SOL    HW219944   1.389   2.929   0.145
 6349SOL     OW19945   6.300   1.525   0.735
 6349SOL    HW119946   6.236   1.448   0.742
 6349SOL    HW219947   6.322   1.541   0.639
 6350SOL     OW19948   0.447   6.086   1.443
 6350SOL    HW119949   0.475   5.996   1.475
 6350SOL    HW219950   0.416   6.141   1.521
 6351SOL     OW19951   6.267   2.543   2.094
 6351SOL    HW119952   6.270   2.547   1.994
 6351SOL    HW219953   6.359   2.551   2.130
 6352SOL     OW19954   4.462   0.565   4.300
 6352SOL    HW119955   4.527   0.495   4.330
 6352SOL    HW219956   4.370   0.526   4.295
 6353SOL     OW19957   3.773   6.395   5.871
 6353SOL    HW119958   3.793   6.374   5.967
 6353SOL    HW219959   3.706   6.330   5.836
 6354SOL     OW19960   5.655   4.707   2.293
 6354SOL    HW119961   5.608   4.792   2.266
 6354SOL    HW219962   5.744   4.730   2.332
 6355SOL     OW19963   5.255   6.133   0.253
 6355SOL    HW119964   5.205   6.149   0.168
 6355SOL    HW219965   5.329   6.067   0.237
 6356SOL     OW19966   0.705   6.488   5.876
 6356SOL    HW119967   0.802   6.510   5.891
 6356SOL    HW219968   0.651   6.571   5.886
 6357SOL     OW19969   5.000   1.906   2.672
 6357SOL    HW119970   4.940   1.827   2.682
 6357SOL    HW219971   4.953   1.977   2.619
 6358SOL     OW19972   1.438   1.600   4.797
 6358SOL    HW119973   1.438   1.567   4.891
 6358SOL    HW219974   1.510   1.553   4.745
 6359SOL     OW19975   6.003   4.788   0.777
 6359SOL    HW119976   6.018   4.714   0.842
 6359SOL    HW219977   5.975   4.870   0.825
 6360SOL     OW19978   2.407   2.777   0.822
 6360SOL    HW119979   2.376   2.803   0.914
 6360SOL    HW219980   2.342   2.810   0.754
 6361SOL     OW19981   0.443   2.274   2.618
 6361SOL    HW119982   0.364   2.226   2.657
 6361SOL    HW219983   0.510   2.207   2.585
 6362SOL     OW19984   2.194   5.411   0.600
 6362SOL    HW119985   2.291   5.405   0.624
 6362SOL    HW219986   2.144   5.336   0.644
 6363SOL     OW19987   0.567   2.414   1.682
 6363SOL    HW119988   0.649   2.360   1.701
 6363SOL    HW219989   0.580   2.508   1.715
 6364SOL     OW19990   2.407   1.385   4.474
 6364SOL    HW119991   2.414   1.335   4.388
 6364SOL    HW219992   2.334   1.345   4.529
 6365SOL     OW19993   6.647   6.732   2.343
 6365SOL    HW119994   6.708   6.810   2.356
 6365SOL    HW219995   6.698   6.657   2.301
 6366SOL     OW19996   5.565   1.297   4.957
 6366SOL    HW119997   5.596   1.203   4.963
 6366SOL    HW219998   5.637   1.353   4.916
 6367SOL     OW19999   1.259   2.821   4.600
 6367SOL    HW120000   1.319   2.827   4.680
 6367SOL    HW220001   1.301   2.763   4.531
 6368SOL     OW20002   4.858   3.290   4.985
 6368SOL    HW120003   4.930   3.248   5.040
 6368SOL    HW220004   4.857   3.389   4.999
 6369SOL     OW20005   3.346   4.321   0.828
 6369SOL    HW120006   3.265   4.269   0.856
 6369SOL    HW220007   3.383   4.369   0.908
 6370SOL     OW20008   5.917   3.764   4.468
 6370SOL    HW120009   5.997   3.719   4.427
 6370SOL    HW220010   5.835   3.737   4.419
 6371SOL     OW20011   5.986   4.546   0.947
 6371SOL    HW120012   5.915   4.509   1.007
 6371SOL    HW220013   6.003   4.482   0.872
 6372SOL     OW20014   6.355   1.286   1.099
 6372SOL    HW120015   6.323   1.381   1.109
 6372SOL    HW220016   6.426   1.283   1.029
 6373SOL     OW20017   5.159   2.061   1.353
 6373SOL    HW120018   5.206   2.043   1.266
 6373SOL    HW220019   5.173   2.156   1.379
 6374SOL     OW20020   4.071   2.911   6.618
 6374SOL    HW120021   4.089   2.941   6.524
 6374SOL    HW220022   4.012   2.978   6.663
 6375SOL     OW20023   5.218   1.174   2.001
 6375SOL    HW120024   5.273   1.203   2.080
 6375SOL    HW220025   5.274   1.116   1.941
 6376SOL     OW20026   2.595   6.784   0.732
 6376SOL    HW120027   2.556   6.718   0.667
 6376SOL    HW220028   2.573   6.756   0.825
 6377SOL     OW20029   6.904   0.930   0.157
 6377SOL    HW120030   6.912   1.026   0.130
 6377SOL    HW220031   6.978   0.907   0.220
 6378SOL     OW20032   6.068   3.812   3.287
 6378SOL    HW120033   6.047   3.881   3.357
 6378SOL    HW220034   6.090   3.858   3.201
 6379SOL     OW20035   2.797   5.379   6.956
 6379SOL    HW120036   2.857   5.334   0.012
 6379SOL    HW220037   2.762   5.310   6.892
 6380SOL     OW20038   2.170   2.968   4.813
 6380SOL    HW120039   2.160   2.870   4.798
 6380SOL    HW220040   2.247   2.984   4.876
 6381SOL     OW20041   3.129   4.158   0.906
 6381SOL    HW120042   3.184   4.076   0.918
 6381SOL    HW220043   3.051   4.157   0.969
 6382SOL     OW20044   2.013   0.951   0.880
 6382SOL    HW120045   1.947   0.882   0.910
 6382SOL    HW220046   1.968   1.040   0.875
 6383SOL     OW20047   2.820   1.980   2.881
 6383SOL    HW120048   2.798   1.992   2.784
 6383SOL    HW220049   2.889   2.047   2.909
 6384SOL     OW20050   6.762   1.726   2.598
 6384SOL    HW120051   6.680   1.749   2.545
 6384SOL    HW220052   6.739   1.655   2.665
 6385SOL     OW20053   0.118   3.817   1.555
 6385SOL    HW120054   0.201   3.873   1.559
 6385SOL    HW220055   0.091   3.790   1.648
 6386SOL     OW20056   2.944   4.116   0.123
 6386SOL    HW120057   2.968   4.142   0.029
 6386SOL    HW220058   3.028   4.108   0.177
 6387SOL     OW20059   6.419   1.086   5.781
 6387SOL    HW120060   6.428   1.034   5.696
 6387SOL    HW220061   6.468   1.039   5.854
 6388SOL     OW20062   6.104   5.156   1.864
 6388SOL    HW120063   6.178   5.089   1.875
 6388SOL    HW220064   6.017   5.108   1.853
 6389SOL     OW20065   6.626   6.462   0.833
 6389SOL    HW120066   6.605   6.545   0.885
 6389SOL    HW220067   6.603   6.477   0.736
 6390SOL     OW20068   4.722   6.405   0.159
 6390SOL    HW120069   4.652   6.470   0.187
 6390SOL    HW220070   4.679   6.326   0.114
 6391SOL     OW20071   1.590   2.274   5.162
 6391SOL    HW120072   1.666   2.304   5.104
 6391SOL    HW220073   1.609   2.182   5.197
 6392SOL     OW20074   4.975   6.438   3.836
 6392SOL    HW120075   4.878   6.416   3.837
 6392SOL    HW220076   5.011   6.428   3.743
 6393SOL     OW20077   2.583   5.160   0.298
 6393SOL    HW120078   2.534   5.133   0.215
 6393SOL    HW220079   2.585   5.260   0.304
 6394SOL     OW20080   1.357   5.567   1.789
 6394SOL    HW120081   1.456   5.552   1.791
 6394SOL    HW220082   1.314   5.516   1.863
 6395SOL     OW20083   1.314   3.799   5.180
 6395SOL    HW120084   1.282   3.750   5.261
 6395SOL    HW220085   1.255   3.878   5.163
 6396SOL     OW20086   1.026   2.988   4.844
 6396SOL    HW120087   1.035   2.889   4.834
 6396SOL    HW220088   0.930   3.012   4.850
 6397SOL     OW20089   6.888   3.084   4.620
 6397SOL    HW120090   6.900   3.181   4.641
 6397SOL    HW220091   6.965   3.052   4.565
 6398SOL     OW20092   1.048   0.552   2.663
 6398SOL    HW120093   0.949   0.558   2.653
 6398SOL    HW220094   1.070   0.496   2.743
 6399SOL     OW20095   2.613   6.993   6.915
 6399SOL    HW120096   2.635   6.950   7.003
 6399SOL    HW220097   2.678   6.962   6.846
 6400SOL     OW20098   0.905   6.175   2.839
 6400SOL    HW120099   0.985   6.125   2.873
 6400SOL    HW220100   0.895   6.260   2.891
 6401SOL     OW20101   3.819   4.976   1.723
 6401SOL    HW120102   3.789   4.974   1.627
 6401SOL    HW220103   3.858   4.887   1.747
 6402SOL     OW20104   3.916   3.871   5.731
 6402SOL    HW120105   3.918   3.772   5.714
 6402SOL    HW220106   3.830   3.909   5.696
 6403SOL     OW20107   4.322   5.525   5.638
 6403SOL    HW120108   4.355   5.600   5.696
 6403SOL    HW220109   4.380   5.445   5.651
 6404SOL     OW20110   4.692   5.552   6.273
 6404SOL    HW120111   4.762   5.610   6.313
 6404SOL    HW220112   4.684   5.468   6.326
 6405SOL     OW20113   4.325   0.918   2.734
 6405SOL    HW120114   4.331   0.930   2.635
 6405SOL    HW220115   4.246   0.860   2.756
 6406SOL     OW20116   0.175   3.946   2.088
 6406SOL    HW120117   0.088   3.940   2.136
 6406SOL    HW220118   0.249   3.955   2.154
 6407SOL     OW20119   0.535   6.914   1.832
 6407SOL    HW120120   0.448   6.917   1.784
 6407SOL    HW220121   0.589   6.837   1.797
 6408SOL     OW20122   6.701   1.317   1.931
 6408SOL    HW120123   6.648   1.360   1.857
 6408SOL    HW220124   6.780   1.375   1.952
 6409SOL     OW20125   5.856   4.692   3.722
 6409SOL    HW120126   5.948   4.654   3.729
 6409SOL    HW220127   5.843   4.733   3.632
 6410SOL     OW20128   1.311   0.404   0.005
 6410SOL    HW120129   1.402   0.413   0.045
 6410SOL    HW220130   1.314   0.339   6.940
 6411SOL     OW20131   1.301   2.446   4.269
 6411SOL    HW120132   1.336   2.359   4.303
 6411SOL    HW220133   1.375   2.514   4.269
 6412SOL     OW20134   4.253   0.144   0.057
 6412SOL    HW120135   4.336   0.176   0.010
 6412SOL    HW220136   4.211   0.071   0.003
 6413SOL     OW20137   4.652   5.932   3.022
 6413SOL    HW120138   4.687   6.024   3.038
 6413SOL    HW220139   4.706   5.866   3.075
 6414SOL     OW20140   3.336   0.338   0.248
 6414SOL    HW120141   3.274   0.318   0.324
 6414SOL    HW220142   3.423   0.291   0.262
 6415SOL     OW20143   7.004   2.049   3.802
 6415SOL    HW120144   6.904   2.045   3.800
 6415SOL    HW220145   0.030   1.956   3.801
 6416SOL     OW20146   2.864   4.718   0.181
 6416SOL    HW120147   2.849   4.619   0.183
 6416SOL    HW220148   2.796   4.762   0.122
 6417SOL     OW20149   4.298   3.617   6.350
 6417SOL    HW120150   4.204   3.652   6.355
 6417SOL    HW220151   4.357   3.673   6.409
 6418SOL     OW20152   5.162   5.520   0.268
 6418SOL    HW120153   5.252   5.519   0.226
 6418SOL    HW220154   5.160   5.456   0.345
 6419SOL     OW20155   1.698   6.639   6.572
 6419SOL    HW120156   1.635   6.639   6.494
 6419SOL    HW220157   1.742   6.549   6.578
 6420SOL     OW20158   2.363   4.933   3.266
 6420SOL    HW120159   2.271   4.901   3.290
 6420SOL    HW220160   2.377   5.024   3.305
 6421SOL     OW20161   5.543   6.755   1.376
 6421SOL    HW120162   5.620   6.785   1.432
 6421SOL    HW220163   5.475   6.828   1.372
 6422SOL     OW20164   1.013   1.443   4.782
 6422SOL    HW120165   0.929   1.488   4.751
 6422SOL    HW220166   1.069   1.418   4.703
 6423SOL     OW20167   1.430   3.795   4.459
 6423SOL    HW120168   1.365   3.773   4.532
 6423SOL    HW220169   1.511   3.837   4.498
 6424SOL     OW20170   6.518   3.802   5.409
 6424SOL    HW120171   6.478   3.893   5.400
 6424SOL    HW220172   6.614   3.811   5.439
 6425SOL     OW20173   1.155   6.648   5.368
 6425SOL    HW120174   1.118   6.556   5.383
 6425SOL    HW220175   1.209   6.676   5.447
 6426SOL     OW20176   3.946   5.702   3.707
 6426SOL    HW120177   3.895   5.684   3.623
 6426SOL    HW220178   3.884   5.698   3.785
 6427SOL     OW20179   3.782   3.529   3.515
 6427SOL    HW120180   3.839   3.500   3.592
 6427SOL    HW220181   3.716   3.457   3.493
 6428SOL     OW20182   6.288   2.268   0.369
 6428SOL    HW120183   6.355   2.209   0.413
 6428SOL    HW220184   6.230   2.311   0.439
 6429SOL     OW20185   2.709   1.955   4.702
 6429SOL    HW120186   2.620   1.958   4.746
 6429SOL    HW220187   2.702   1.992   4.609
 6430SOL     OW20188   6.012   1.450   4.881
 6430SOL    HW120189   6.008   1.528   4.943
 6430SOL    HW220190   6.045   1.480   4.791
 6431SOL     OW20191   3.119   4.848   2.995
 6431SOL    HW120192   3.176   4.776   3.034
 6431SOL    HW220193   3.061   4.887   3.067
 6432SOL     OW20194   4.298   3.127   6.633
 6432SOL    HW120195   4.244   3.129   6.548
 6432SOL    HW220196   4.339   3.037   6.644
 6433SOL     OW20197   3.767   5.144   6.098
 6433SOL    HW120198   3.854   5.129   6.145
 6433SOL    HW220199   3.784   5.186   6.009
 6434SOL     OW20200   6.384   4.784   6.123
 6434SOL    HW120201   6.356   4.803   6.029
 6434SOL    HW220202   6.481   4.760   6.124
 6435SOL     OW20203   4.344   1.575   0.996
 6435SOL    HW120204   4.307   1.577   1.089
 6435SOL    HW220205   4.422   1.636   0.989
 6436SOL     OW20206   0.498   2.461   3.735
 6436SOL    HW120207   0.413   2.510   3.756
 6436SOL    HW220208   0.476   2.369   3.702
 6437SOL     OW20209   1.552   2.886   6.424
 6437SOL    HW120210   1.527   2.933   6.339
 6437SOL    HW220211   1.595   2.951   6.487
 6438SOL     OW20212   0.197   5.411   1.096
 6438SOL    HW120213   0.194   5.346   1.021
 6438SOL    HW220214   0.170   5.502   1.063
 6439SOL     OW20215   4.471   6.240   3.191
 6439SOL    HW120216   4.421   6.172   3.245
 6439SOL    HW220217   4.519   6.303   3.252
 6440SOL     OW20218   2.451   2.366   5.800
 6440SOL    HW120219   2.417   2.309   5.726
 6440SOL    HW220220   2.545   2.339   5.822
 6441SOL     OW20221   1.376   1.957   1.517
 6441SOL    HW120222   1.472   1.985   1.510
 6441SOL    HW220223   1.317   2.036   1.507
 6442SOL     OW20224   2.897   1.812   4.240
 6442SOL    HW120225   2.918   1.803   4.337
 6442SOL    HW220226   2.905   1.722   4.196
 6443SOL     OW20227   2.642   2.610   5.919
 6443SOL    HW120228   2.549   2.584   5.945
 6443SOL    HW220229   2.690   2.531   5.882
 6444SOL     OW20230   0.122   3.975   5.259
 6444SOL    HW120231   0.023   3.986   5.266
 6444SOL    HW220232   0.150   3.985   5.164
 6445SOL     OW20233   3.393   3.064   3.391
 6445SOL    HW120234   3.304   3.097   3.423
 6445SOL    HW220235   3.440   3.017   3.466
 6446SOL     OW20236   1.213   0.509   1.640
 6446SOL    HW120237   1.153   0.562   1.701
 6446SOL    HW220238   1.214   0.552   1.550
 6447SOL     OW20239   6.210   3.651   1.240
 6447SOL    HW120240   6.133   3.600   1.278
 6447SOL    HW220241   6.261   3.693   1.315
 6448SOL     OW20242   4.039   4.262   1.511
 6448SOL    HW120243   4.044   4.273   1.412
 6448SOL    HW220244   3.989   4.177   1.533
 6449SOL     OW20245   4.156   5.271   0.239
 6449SOL    HW120246   4.251   5.291   0.215
 6449SOL    HW220247   4.135   5.311   0.329
 6450SOL     OW20248   4.443   3.609   6.995
 6450SOL    HW120249   4.447   3.590   0.083
 6450SOL    HW220250   4.490   3.695   6.976
 6451SOL     OW20251   4.194   2.539   1.403
 6451SOL    HW120252   4.119   2.598   1.371
 6451SOL    HW220253   4.280   2.590   1.399
 6452SOL     OW20254   4.543   2.065   4.555
 6452SOL    HW120255   4.615   2.116   4.603
 6452SOL    HW220256   4.573   2.047   4.461
 6453SOL     OW20257   2.733   0.717   2.962
 6453SOL    HW120258   2.682   0.669   2.890
 6453SOL    HW220259   2.676   0.790   2.999
 6454SOL     OW20260   5.171   3.965   5.144
 6454SOL    HW120261   5.177   3.980   5.045
 6454SOL    HW220262   5.098   3.900   5.163
 6455SOL     OW20263   0.186   2.864   4.807
 6455SOL    HW120264   0.236   2.949   4.822
 6455SOL    HW220265   0.107   2.860   4.869
 6456SOL     OW20266   6.180   1.710   3.322
 6456SOL    HW120267   6.116   1.633   3.313
 6456SOL    HW220268   6.185   1.760   3.236
 6457SOL     OW20269   1.771   5.978   3.562
 6457SOL    HW120270   1.693   5.951   3.506
 6457SOL    HW220271   1.774   6.078   3.570
 6458SOL     OW20272   1.213   0.531   4.958
 6458SOL    HW120273   1.182   0.448   5.004
 6458SOL    HW220274   1.223   0.605   5.025
 6459SOL     OW20275   0.947   3.537   2.784
 6459SOL    HW120276   1.029   3.480   2.774
 6459SOL    HW220277   0.924   3.545   2.881
 6460SOL     OW20278   1.776   5.379   5.487
 6460SOL    HW120279   1.798   5.401   5.582
 6460SOL    HW220280   1.770   5.279   5.477
 6461SOL     OW20281   0.337   6.925   1.668
 6461SOL    HW120282   0.295   0.004   1.655
 6461SOL    HW220283   0.348   6.880   1.580
 6462SOL     OW20284   2.530   4.001   5.743
 6462SOL    HW120285   2.515   3.981   5.646
 6462SOL    HW220286   2.549   3.915   5.792
 6463SOL     OW20287   4.578   3.347   1.460
 6463SOL    HW120288   4.546   3.424   1.515
 6463SOL    HW220289   4.621   3.279   1.520
 6464SOL     OW20290   1.379   3.356   3.502
 6464SOL    HW120291   1.465   3.326   3.460
 6464SOL    HW220292   1.378   3.329   3.599
 6465SOL     OW20293   2.450   1.664   2.870
 6465SOL    HW120294   2.419   1.583   2.821
 6465SOL    HW220295   2.504   1.635   2.949
 6466SOL     OW20296   6.608   5.132   6.736
 6466SOL    HW120297   6.677   5.076   6.691
 6466SOL    HW220298   6.582   5.207   6.675
 6467SOL     OW20299   2.590   3.452   5.985
 6467SOL    HW120300   2.642   3.406   5.914
 6467SOL    HW220301   2.623   3.423   6.075
 6468SOL     OW20302   1.023   0.817   1.099
 6468SOL    HW120303   1.107   0.871   1.094
 6468SOL    HW220304   0.953   0.859   1.040
 6469SOL     OW20305   2.403   0.800   0.769
 6469SOL    HW120306   2.431   0.724   0.710
 6469SOL    HW220307   2.325   0.772   0.825
 6470SOL     OW20308   5.702   1.133   0.020
 6470SOL    HW120309   5.660   1.222   0.005
 6470SOL    HW220310   5.706   1.114   0.118
 6471SOL     OW20311   1.358   6.421   6.002
 6471SOL    HW120312   1.452   6.428   5.969
 6471SOL    HW220313   1.310   6.507   5.983
 6472SOL     OW20314   0.577   6.324   1.400
 6472SOL    HW120315   0.550   6.229   1.384
 6472SOL    HW220316   0.648   6.350   1.335
 6473SOL     OW20317   2.929   1.896   3.793
 6473SOL    HW120318   2.872   1.963   3.840
 6473SOL    HW220319   2.870   1.829   3.746
 6474SOL     OW20320   3.900   6.957   4.484
 6474SOL    HW120321   3.993   6.991   4.498
 6474SOL    HW220322   3.882   6.949   4.386
 6475SOL     OW20323   5.417   6.117   3.394
 6475SOL    HW120324   5.389   6.023   3.372
 6475SOL    HW220325   5.342   6.163   3.442
 6476SOL     OW20326   5.422   4.119   5.188
 6476SOL    HW120327   5.422   4.171   5.103
 6476SOL    HW220328   5.389   4.027   5.171
 6477SOL     OW20329   1.123   6.705   0.653
 6477SOL    HW120330   1.189   6.642   0.694
 6477SOL    HW220331   1.112   6.785   0.713
 6478SOL     OW20332   1.649   6.073   0.581
 6478SOL    HW120333   1.605   6.119   0.658
 6478SOL    HW220334   1.726   6.129   0.549
 6479SOL     OW20335   4.497   6.085   4.033
 6479SOL    HW120336   4.587   6.081   4.077
 6479SOL    HW220337   4.470   5.993   4.004
 6480SOL     OW20338   3.376   1.468   4.934
 6480SOL    HW120339   3.320   1.497   5.012
 6480SOL    HW220340   3.359   1.371   4.915
 6481SOL     OW20341   4.142   3.181   1.944
 6481SOL    HW120342   4.142   3.106   1.877
 6481SOL    HW220343   4.169   3.146   2.034
 6482SOL     OW20344   5.462   2.831   4.309
 6482SOL    HW120345   5.526   2.777   4.364
 6482SOL    HW220346   5.472   2.806   4.212
 6483SOL     OW20347   1.660   5.542   5.735
 6483SOL    HW120348   1.671   5.578   5.827
 6483SOL    HW220349   1.637   5.617   5.672
 6484SOL     OW20350   4.000   0.963   3.334
 6484SOL    HW120351   3.996   0.914   3.422
 6484SOL    HW220352   3.946   0.913   3.266
 6485SOL     OW20353   1.982   4.963   4.679
 6485SOL    HW120354   1.910   4.895   4.665
 6485SOL    HW220355   1.942   5.045   4.720
 6486SOL     OW20356   6.981   4.324   2.350
 6486SOL    HW120357   6.989   4.337   2.449
 6486SOL    HW220358   6.900   4.267   2.331
 6487SOL     OW20359   6.088   5.593   4.447
 6487SOL    HW120360   6.168   5.614   4.390
 6487SOL    HW220361   6.005   5.626   4.401
 6488SOL     OW20362   3.593   5.337   3.892
 6488SOL    HW120363   3.566   5.410   3.955
 6488SOL    HW220364   3.693   5.333   3.887
 6489SOL     OW20365   6.462   3.403   5.149
 6489SOL    HW120366   6.376   3.399   5.098
 6489SOL    HW220367   6.453   3.465   5.227
 6490SOL     OW20368   1.759   3.511   0.069
 6490SOL    HW120369   1.752   3.475   6.986
 6490SOL    HW220370   1.667   3.514   0.110
 6491SOL     OW20371   1.168   0.371   2.162
 6491SOL    HW120372   1.250   0.406   2.117
 6491SOL    HW220373   1.158   0.413   2.251
 6492SOL     OW20374   4.016   3.153   3.575
 6492SOL    HW120375   4.078   3.163   3.653
 6492SOL    HW220376   3.926   3.125   3.607
 6493SOL     OW20377   1.626   4.499   4.090
 6493SOL    HW120378   1.716   4.537   4.109
 6493SOL    HW220379   1.572   4.565   4.038
 6494SOL     OW20380   6.289   1.307   1.568
 6494SOL    HW120381   6.272   1.396   1.526
 6494SOL    HW220382   6.305   1.239   1.497
 6495SOL     OW20383   6.058   6.491   2.545
 6495SOL    HW120384   6.019   6.447   2.626
 6495SOL    HW220385   6.071   6.588   2.562
 6496SOL     OW20386   2.714   2.529   1.413
 6496SOL    HW120387   2.706   2.521   1.512
 6496SOL    HW220388   2.715   2.626   1.387
 6497SOL     OW20389   0.359   2.421   0.649
 6497SOL    HW120390   0.363   2.322   0.664
 6497SOL    HW220391   0.314   2.440   0.561
 6498SOL     OW20392   2.754   4.712   4.474
 6498SOL    HW120393   2.793   4.733   4.563
 6498SOL    HW220394   2.676   4.650   4.485
 6499SOL     OW20395   5.935   2.498   2.396
 6499SOL    HW120396   6.017   2.476   2.449
 6499SOL    HW220397   5.865   2.428   2.414
 6500SOL     OW20398   1.787   3.969   2.646
 6500SOL    HW120399   1.784   3.869   2.650
 6500SOL    HW220400   1.840   4.004   2.724
 6501SOL     OW20401   6.430   1.154   2.784
 6501SOL    HW120402   6.453   1.130   2.878
 6501SOL    HW220403   6.441   1.073   2.726
 6502SOL     OW20404   1.212   2.643   2.400
 6502SOL    HW120405   1.179   2.548   2.398
 6502SOL    HW220406   1.184   2.686   2.485
 6503SOL     OW20407   0.296   2.140   5.743
 6503SOL    HW120408   0.209   2.189   5.735
 6503SOL    HW220409   0.284   2.061   5.803
 6504SOL     OW20410   3.762   6.756   6.311
 6504SOL    HW120411   3.849   6.763   6.359
 6504SOL    HW220412   3.778   6.723   6.218
 6505SOL     OW20413   0.696   6.753   6.969
 6505SOL    HW120414   0.648   6.762   6.881
 6505SOL    HW220415   0.633   6.778   0.032
 6506SOL     OW20416   0.327   4.077   1.780
 6506SOL    HW120417   0.341   4.017   1.701
 6506SOL    HW220418   0.229   4.087   1.797
 6507SOL     OW20419   4.852   5.360   1.011
 6507SOL    HW120420   4.780   5.311   1.059
 6507SOL    HW220421   4.813   5.405   0.930
 6508SOL     OW20422   6.671   0.730   4.169
 6508SOL    HW120423   6.685   0.776   4.257
 6508SOL    HW220424   6.641   0.798   4.101
 6509SOL     OW20425   2.339   1.861   0.333
 6509SOL    HW120426   2.389   1.841   0.417
 6509SOL    HW220427   2.296   1.951   0.340
 6510SOL     OW20428   3.283   4.924   4.448
 6510SOL    HW120429   3.243   4.994   4.506
 6510SOL    HW220430   3.340   4.863   4.502
 6511SOL     OW20431   3.597   3.052   0.145
 6511SOL    HW120432   3.650   3.097   0.216
 6511SOL    HW220433   3.527   2.994   0.187
 6512SOL     OW20434   4.860   0.994   1.406
 6512SOL    HW120435   4.847   1.014   1.503
 6512SOL    HW220436   4.772   0.972   1.364
 6513SOL     OW20437   2.730   5.295   2.196
 6513SOL    HW120438   2.679   5.298   2.110
 6513SOL    HW220439   2.667   5.282   2.272
 6514SOL     OW20440   5.028   5.935   6.066
 6514SOL    HW120441   4.928   5.934   6.052
 6514SOL    HW220442   5.068   5.858   6.017
 6515SOL     OW20443   1.046   5.051   2.269
 6515SOL    HW120444   1.018   5.067   2.174
 6515SOL    HW220445   1.040   5.136   2.320
 6516SOL     OW20446   5.645   0.816   3.436
 6516SOL    HW120447   5.579   0.855   3.500
 6516SOL    HW220448   5.711   0.887   3.410
 6517SOL     OW20449   6.736   4.316   0.641
 6517SOL    HW120450   6.811   4.381   0.655
 6517SOL    HW220451   6.710   4.314   0.544
 6518SOL     OW20452   1.160   1.682   2.343
 6518SOL    HW120453   1.072   1.637   2.330
 6518SOL    HW220454   1.150   1.781   2.332
 6519SOL     OW20455   1.188   1.638   3.542
 6519SOL    HW120456   1.104   1.585   3.559
 6519SOL    HW220457   1.165   1.725   3.499
 6520SOL     OW20458   5.909   6.217   6.454
 6520SOL    HW120459   5.969   6.252   6.526
 6520SOL    HW220460   5.855   6.292   6.415
 6521SOL     OW20461   1.348   4.468   4.354
 6521SOL    HW120462   1.381   4.561   4.366
 6521SOL    HW220463   1.425   4.405   4.353
 6522SOL     OW20464   2.371   2.931   5.403
 6522SOL    HW120465   2.432   2.963   5.475
 6522SOL    HW220466   2.390   2.981   5.318
 6523SOL     OW20467   4.972   6.850   0.462
 6523SOL    HW120468   4.994   6.777   0.397
 6523SOL    HW220469   5.056   6.894   0.493
 6524SOL     OW20470   3.294   2.457   1.353
 6524SOL    HW120471   3.269   2.509   1.434
 6524SOL    HW220472   3.380   2.409   1.369
 6525SOL     OW20473   2.310   4.957   3.784
 6525SOL    HW120474   2.272   4.962   3.876
 6525SOL    HW220475   2.384   4.890   3.781
 6526SOL     OW20476   6.582   6.446   0.547
 6526SOL    HW120477   6.508   6.402   0.496
 6526SOL    HW220478   6.670   6.414   0.511
 6527SOL     OW20479   5.204   2.667   0.972
 6527SOL    HW120480   5.175   2.694   0.881
 6527SOL    HW220481   5.213   2.567   0.977
 6528SOL     OW20482   4.838   6.428   0.423
 6528SOL    HW120483   4.842   6.396   0.328
 6528SOL    HW220484   4.803   6.354   0.481
 6529SOL     OW20485   4.218   0.075   1.643
 6529SOL    HW120486   4.169   0.147   1.693
 6529SOL    HW220487   4.297   0.115   1.597
 6530SOL     OW20488   0.135   2.213   4.242
 6530SOL    HW120489   0.092   2.264   4.316
 6530SOL    HW220490   0.173   2.277   4.175
 6531SOL     OW20491   3.684   3.638   3.787
 6531SOL    HW120492   3.748   3.672   3.719
 6531SOL    HW220493   3.697   3.540   3.800
 6532SOL     OW20494   1.111   5.868   0.188
 6532SOL    HW120495   1.124   5.783   0.239
 6532SOL    HW220496   1.155   5.943   0.235
 6533SOL     OW20497   4.953   5.153   1.256
 6533SOL    HW120498   4.895   5.203   1.193
 6533SOL    HW220499   5.047   5.188   1.251
 6534SOL     OW20500   6.533   2.971   4.088
 6534SOL    HW120501   6.611   2.908   4.082
 6534SOL    HW220502   6.448   2.921   4.077
 6535SOL     OW20503   5.421   3.516   6.712
 6535SOL    HW120504   5.397   3.496   6.807
 6535SOL    HW220505   5.341   3.505   6.654
 6536SOL     OW20506   0.274   4.953   5.408
 6536SOL    HW120507   0.265   4.908   5.497
 6536SOL    HW220508   0.282   4.883   5.337
 6537SOL     OW20509   6.550   5.568   4.574
 6537SOL    HW120510   6.483   5.618   4.630
 6537SOL    HW220511   6.507   5.487   4.535
 6538SOL     OW20512   1.812   3.178   3.618
 6538SOL    HW120513   1.911   3.171   3.606
 6538SOL    HW220514   1.768   3.172   3.528
 6539SOL     OW20515   5.266   0.154   5.509
 6539SOL    HW120516   5.322   0.153   5.427
 6539SOL    HW220517   5.249   0.249   5.536
 6540SOL     OW20518   1.118   2.579   5.302
 6540SOL    HW120519   1.200   2.587   5.359
 6540SOL    HW220520   1.086   2.671   5.278
 6541SOL     OW20521   3.968   1.320   5.442
 6541SOL    HW120522   4.003   1.414   5.439
 6541SOL    HW220523   3.994   1.273   5.358
 6542SOL     OW20524   2.101   4.696   2.105
 6542SOL    HW120525   2.056   4.614   2.070
 6542SOL    HW220526   2.052   4.777   2.073
 6543SOL     OW20527   4.110   1.428   4.021
 6543SOL    HW120528   4.088   1.523   4.047
 6543SOL    HW220529   4.121   1.423   3.922
 6544SOL     OW20530   0.959   0.570   1.186
 6544SOL    HW120531   0.899   0.575   1.266
 6544SOL    HW220532   0.964   0.660   1.143
 6545SOL     OW20533   5.899   5.359   0.910
 6545SOL    HW120534   5.923   5.352   1.007
 6545SOL    HW220535   5.800   5.348   0.900
 6546SOL     OW20536   4.235   5.066   4.853
 6546SOL    HW120537   4.228   4.992   4.785
 6546SOL    HW220538   4.275   5.147   4.809
 6547SOL     OW20539   1.202   6.317   5.352
 6547SOL    HW120540   1.301   6.315   5.366
 6547SOL    HW220541   1.169   6.223   5.341
 6548SOL     OW20542   1.343   2.097   5.877
 6548SOL    HW120543   1.427   2.139   5.910
 6548SOL    HW220544   1.360   2.051   5.789
 6549SOL     OW20545   3.677   0.956   3.154
 6549SOL    HW120546   3.625   0.974   3.071
 6549SOL    HW220547   3.716   1.041   3.189
 6550SOL     OW20548   5.972   0.102   1.900
 6550SOL    HW120549   6.045   0.041   1.870
 6550SOL    HW220550   5.903   0.049   1.950
 6551SOL     OW20551   2.574   5.039   1.449
 6551SOL    HW120552   2.665   5.004   1.473
 6551SOL    HW220553   2.524   4.968   1.400
 6552SOL     OW20554   2.135   3.528   6.792
 6552SOL    HW120555   2.118   3.608   6.850
 6552SOL    HW220556   2.047   3.491   6.760
 6553SOL     OW20557   0.209   1.559   3.463
 6553SOL    HW120558   0.152   1.618   3.520
 6553SOL    HW220559   0.274   1.616   3.412
 6554SOL     OW20560   1.241   1.841   3.792
 6554SOL    HW120561   1.228   1.937   3.770
 6554SOL    HW220562   1.207   1.784   3.717
 6555SOL     OW20563   1.634   3.605   2.462
 6555SOL    HW120564   1.677   3.676   2.405
 6555SOL    HW220565   1.705   3.549   2.504
 6556SOL     OW20566   4.868   3.536   3.480
 6556SOL    HW120567   4.872   3.528   3.380
 6556SOL    HW220568   4.773   3.535   3.510
 6557SOL     OW20569   1.897   6.817   2.732
 6557SOL    HW120570   1.906   6.733   2.786
 6557SOL    HW220571   1.982   6.869   2.737
 6558SOL     OW20572   5.429   5.598   0.953
 6558SOL    HW120573   5.403   5.635   0.864
 6558SOL    HW220574   5.347   5.570   1.003
 6559SOL     OW20575   0.506   1.754   6.132
 6559SOL    HW120576   0.466   1.667   6.162
 6559SOL    HW220577   0.467   1.829   6.186
 6560SOL     OW20578   6.908   4.748   6.075
 6560SOL    HW120579   6.898   4.674   6.009
 6560SOL    HW220580   6.961   4.822   6.034
 6561SOL     OW20581   2.821   5.480   0.452
 6561SOL    HW120582   2.898   5.418   0.467
 6561SOL    HW220583   2.856   5.568   0.418
 6562SOL     OW20584   4.533   2.474   1.406
 6562SOL    HW120585   4.512   2.479   1.504
 6562SOL    HW220586   4.556   2.565   1.372
 6563SOL     OW20587   6.236   5.389   5.422
 6563SOL    HW120588   6.198   5.333   5.496
 6563SOL    HW220589   6.215   5.348   5.334
 6564SOL     OW20590   5.214   3.891   2.093
 6564SOL    HW120591   5.153   3.969   2.077
 6564SOL    HW220592   5.278   3.913   2.166
 6565SOL     OW20593   5.072   6.044   2.276
 6565SOL    HW120594   5.085   5.971   2.344
 6565SOL    HW220595   5.129   6.122   2.301
 6566SOL     OW20596   5.284   5.464   3.869
 6566SOL    HW120597   5.284   5.478   3.968
 6566SOL    HW220598   5.360   5.515   3.828
 6567SOL     OW20599   3.105   0.743   2.786
 6567SOL    HW120600   3.050   0.660   2.794
 6567SOL    HW220601   3.135   0.754   2.691
 6568SOL     OW20602   4.850   1.611   0.547
 6568SOL    HW120603   4.916   1.567   0.486
 6568SOL    HW220604   4.777   1.546   0.569
 6569SOL     OW20605   1.583   4.167   3.380
 6569SOL    HW120606   1.597   4.097   3.450
 6569SOL    HW220607   1.672   4.195   3.344
 6570SOL     OW20608   4.293   6.861   2.830
 6570SOL    HW120609   4.266   6.947   2.787
 6570SOL    HW220610   4.290   6.787   2.762
 6571SOL     OW20611   3.273   6.656   3.002
 6571SOL    HW120612   3.318   6.589   3.061
 6571SOL    HW220613   3.341   6.703   2.947
 6572SOL     OW20614   1.296   6.368   3.685
 6572SOL    HW120615   1.247   6.388   3.770
 6572SOL    HW220616   1.355   6.445   3.662
 6573SOL     OW20617   1.317   2.354   3.390
 6573SOL    HW120618   1.283   2.413   3.464
 6573SOL    HW220619   1.329   2.261   3.423
 6574SOL     OW20620   0.796   4.747   1.262
 6574SOL    HW120621   0.701   4.733   1.236
 6574SOL    HW220622   0.843   4.800   1.192
 6575SOL     OW20623   0.387   0.831   3.702
 6575SOL    HW120624   0.303   0.807   3.653
 6575SOL    HW220625   0.441   0.748   3.718
 6576SOL     OW20626   3.880   6.916   2.161
 6576SOL    HW120627   3.919   6.839   2.210
 6576SOL    HW220628   3.950   6.960   2.105
 6577SOL     OW20629   3.388   0.786   5.260
 6577SOL    HW120630   3.321   0.803   5.332
 6577SOL    HW220631   3.440   0.870   5.242
 6578SOL     OW20632   0.830   5.817   0.134
 6578SOL    HW120633   0.927   5.794   0.145
 6578SOL    HW220634   0.808   5.824   0.037
 6579SOL     OW20635   1.602   1.377   3.355
 6579SOL    HW120636   1.555   1.446   3.410
 6579SOL    HW220637   1.570   1.381   3.261
 6580SOL     OW20638   3.219   2.833   0.130
 6580SOL    HW120639   3.175   2.901   0.189
 6580SOL    HW220640   3.317   2.852   0.124
 6581SOL     OW20641   0.408   2.544   2.534
 6581SOL    HW120642   0.425   2.447   2.547
 6581SOL    HW220643   0.317   2.567   2.568
 6582SOL     OW20644   3.950   0.361   3.392
 6582SOL    HW120645   3.889   0.421   3.339
 6582SOL    HW220646   3.911   0.269   3.395
 6583SOL     OW20647   2.413   4.080   1.694
 6583SOL    HW120648   2.426   4.163   1.639
 6583SOL    HW220649   2.337   4.093   1.756
 6584SOL     OW20650   4.345   3.344   6.414
 6584SOL    HW120651   4.341   3.434   6.369
 6584SOL    HW220652   4.411   3.347   6.489
 6585SOL     OW20653   5.824   0.252   1.688
 6585SOL    HW120654   5.906   0.207   1.724
 6585SOL    HW220655   5.776   0.190   1.626
 6586SOL     OW20656   6.687   1.720   0.342
 6586SOL    HW120657   6.750   1.793   0.315
 6586SOL    HW220658   6.593   1.753   0.338
 6587SOL     OW20659   2.722   5.068   5.470
 6587SOL    HW120660   2.655   5.052   5.542
 6587SOL    HW220661   2.678   5.059   5.381
 6588SOL     OW20662   1.012   1.667   0.790
 6588SOL    HW120663   0.962   1.750   0.767
 6588SOL    HW220664   0.955   1.587   0.767
 6589SOL     OW20665   5.594   6.870   0.670
 6589SOL    HW120666   5.515   6.821   0.636
 6589SOL    HW220667   5.675   6.846   0.616
 6590SOL     OW20668   1.379   6.176   4.585
 6590SOL    HW120669   1.391   6.085   4.623
 6590SOL    HW220670   1.282   6.200   4.585
 6591SOL     OW20671   6.514   3.255   3.767
 6591SOL    HW120672   6.524   3.205   3.681
 6591SOL    HW220673   6.600   3.251   3.818
 6592SOL     OW20674   0.396   0.772   4.287
 6592SOL    HW120675   0.314   0.826   4.308
 6592SOL    HW220676   0.436   0.804   4.201
 6593SOL     OW20677   1.161   0.577   3.144
 6593SOL    HW120678   1.198   0.492   3.182
 6593SOL    HW220679   1.189   0.654   3.202
 6594SOL     OW20680   5.446   6.994   6.423
 6594SOL    HW120681   5.399   0.047   6.484
 6594SOL    HW220682   5.460   6.907   6.470
 6595SOL     OW20683   1.461   1.298   5.122
 6595SOL    HW120684   1.522   1.218   5.114
 6595SOL    HW220685   1.414   1.312   5.035
 6596SOL     OW20686   5.396   0.764   3.064
 6596SOL    HW120687   5.426   0.668   3.062
 6596SOL    HW220688   5.297   0.767   3.082
 6597SOL     OW20689   1.104   4.984   1.450
 6597SOL    HW120690   1.034   4.998   1.520
 6597SOL    HW220691   1.147   5.071   1.427
 6598SOL     OW20692   1.170   5.210   1.936
 6598SOL    HW120693   1.162   5.111   1.927
 6598SOL    HW220694   1.175   5.251   1.845
 6599SOL     OW20695   0.960   5.844   6.156
 6599SOL    HW120696   0.893   5.916   6.171
 6599SOL    HW220697   1.049   5.874   6.191
 6600SOL     OW20698   4.885   6.870   4.670
 6600SOL    HW120699   4.837   6.782   4.677
 6600SOL    HW220700   4.983   6.855   4.683
 6601SOL     OW20701   1.120   2.747   2.697
 6601SOL    HW120702   1.041   2.738   2.636
 6601SOL    HW220703   1.136   2.843   2.717
 6602SOL     OW20704   5.937   6.264   0.467
 6602SOL    HW120705   6.005   6.331   0.434
 6602SOL    HW220706   5.982   6.197   0.526
 6603SOL     OW20707   0.057   4.640   2.631
 6603SOL    HW120708   0.104   4.620   2.545
 6603SOL    HW220709   6.985   4.694   2.612
 6604SOL     OW20710   1.463   5.156   2.680
 6604SOL    HW120711   1.452   5.085   2.750
 6604SOL    HW220712   1.478   5.244   2.725
 6605SOL     OW20713   6.887   5.314   0.822
 6605SOL    HW120714   6.842   5.391   0.867
 6605SOL    HW220715   6.981   5.306   0.855
 6606SOL     OW20716   1.319   4.500   2.816
 6606SOL    HW120717   1.388   4.441   2.857
 6606SOL    HW220718   1.307   4.581   2.873
 6607SOL     OW20719   6.423   3.448   3.945
 6607SOL    HW120720   6.466   3.414   3.861
 6607SOL    HW220721   6.376   3.374   3.991
 6608SOL     OW20722   1.603   0.768   5.340
 6608SOL    HW120723   1.588   0.707   5.263
 6608SOL    HW220724   1.567   0.727   5.423
 6609SOL     OW20725   2.644   2.181   6.995
 6609SOL    HW120726   2.700   2.253   6.956
 6609SOL    HW220727   2.702   2.119   0.037
 6610SOL     OW20728   3.196   6.226   1.047
 6610SOL    HW120729   3.189   6.134   1.009
 6610SOL    HW220730   3.194   6.221   1.147
 6611SOL     OW20731   3.174   1.609   4.578
 6611SOL    HW120732   3.269   1.624   4.607
 6611SOL    HW220733   3.130   1.698   4.563
 6612SOL     OW20734   6.726   0.509   0.088
 6612SOL    HW120735   6.693   0.422   0.127
 6612SOL    HW220736   6.665   0.583   0.116
 6613SOL     OW20737   4.274   0.189   1.240
 6613SOL    HW120738   4.365   0.157   1.214
 6613SOL    HW220739   4.208   0.115   1.228
 6614SOL     OW20740   4.085   4.525   0.908
 6614SOL    HW120741   4.143   4.451   0.875
 6614SOL    HW220742   4.007   4.536   0.847
 6615SOL     OW20743   3.770   6.055   6.180
 6615SOL    HW120744   3.785   5.967   6.135
 6615SOL    HW220745   3.676   6.060   6.214
 6616SOL     OW20746   4.233   2.254   6.241
 6616SOL    HW120747   4.316   2.205   6.266
 6616SOL    HW220748   4.256   2.334   6.186
 6617SOL     OW20749   3.618   1.739   4.038
 6617SOL    HW120750   3.564   1.784   4.109
 6617SOL    HW220751   3.596   1.778   3.949
 6618SOL     OW20752   6.504   3.056   3.605
 6618SOL    HW120753   6.450   2.977   3.632
 6618SOL    HW220754   6.549   3.038   3.518
 6619SOL     OW20755   4.743   5.160   4.160
 6619SOL    HW120756   4.755   5.079   4.217
 6619SOL    HW220757   4.646   5.182   4.153
 6620SOL     OW20758   1.025   2.744   3.553
 6620SOL    HW120759   1.110   2.695   3.569
 6620SOL    HW220760   0.980   2.708   3.471
 6621SOL     OW20761   3.368   3.351   3.578
 6621SOL    HW120762   3.373   3.432   3.636
 6621SOL    HW220763   3.442   3.288   3.603
 6622SOL     OW20764   0.300   4.670   1.793
 6622SOL    HW120765   0.214   4.651   1.839
 6622SOL    HW220766   0.345   4.584   1.769
 6623SOL     OW20767   3.583   3.215   3.649
 6623SOL    HW120768   3.578   3.259   3.738
 6623SOL    HW220769   3.646   3.138   3.653
 6624SOL     OW20770   2.530   2.301   2.854
 6624SOL    HW120771   2.493   2.242   2.783
 6624SOL    HW220772   2.624   2.325   2.831
 6625SOL     OW20773   0.410   4.397   5.768
 6625SOL    HW120774   0.415   4.452   5.685
 6625SOL    HW220775   0.491   4.339   5.775
 6626SOL     OW20776   3.521   6.137   5.420
 6626SOL    HW120777   3.587   6.201   5.460
 6626SOL    HW220778   3.470   6.091   5.493
 6627SOL     OW20779   2.359   6.644   4.680
 6627SOL    HW120780   2.369   6.565   4.740
 6627SOL    HW220781   2.311   6.717   4.729
 6628SOL     OW20782   3.826   0.146   3.515
 6628SOL    HW120783   3.806   0.054   3.482
 6628SOL    HW220784   3.746   0.204   3.501
 6629SOL     OW20785   4.790   6.237   4.907
 6629SOL    HW120786   4.690   6.228   4.911
 6629SOL    HW220787   4.821   6.221   4.813
 6630SOL     OW20788   2.022   7.009   0.296
 6630SOL    HW120789   2.027   0.001   0.395
 6630SOL    HW220790   1.930   6.983   0.267
 6631SOL     OW20791   1.635   1.720   5.940
 6631SOL    HW120792   1.642   1.750   5.845
 6631SOL    HW220793   1.680   1.631   5.951
 6632SOL     OW20794   1.195   0.475   6.194
 6632SOL    HW120795   1.216   0.393   6.141
 6632SOL    HW220796   1.246   0.474   6.280
 6633SOL     OW20797   4.544   6.804   6.268
 6633SOL    HW120798   4.534   6.873   6.196
 6633SOL    HW220799   4.627   6.750   6.251
 6634SOL     OW20800   2.858   2.273   4.125
 6634SOL    HW120801   2.893   2.250   4.216
 6634SOL    HW220802   2.803   2.357   4.131
 6635SOL     OW20803   5.105   5.290   5.943
 6635SOL    HW120804   5.160   5.249   6.016
 6635SOL    HW220805   5.061   5.373   5.977
 6636SOL     OW20806   4.075   1.507   1.220
 6636SOL    HW120807   4.085   1.409   1.236
 6636SOL    HW220808   4.162   1.553   1.237
 6637SOL     OW20809   0.184   2.676   6.883
 6637SOL    HW120810   0.090   2.694   6.852
 6637SOL    HW220811   0.244   2.666   6.804
 6638SOL     OW20812   3.142   3.732   3.437
 6638SOL    HW120813   3.139   3.779   3.525
 6638SOL    HW220814   3.117   3.796   3.364
 6639SOL     OW20815   5.005   3.191   1.485
 6639SOL    HW120816   4.951   3.143   1.417
 6639SOL    HW220817   4.959   3.275   1.513
 6640SOL     OW20818   0.921   3.342   4.515
 6640SOL    HW120819   1.020   3.340   4.534
 6640SOL    HW220820   0.903   3.407   4.442
 6641SOL     OW20821   5.264   2.695   6.867
 6641SOL    HW120822   5.243   2.729   6.775
 6641SOL    HW220823   5.199   2.734   6.932
 6642SOL     OW20824   1.394   4.875   6.183
 6642SOL    HW120825   1.398   4.948   6.114
 6642SOL    HW220826   1.299   4.846   6.195
 6643SOL     OW20827   4.713   5.648   5.836
 6643SOL    HW120828   4.733   5.577   5.904
 6643SOL    HW220829   4.782   5.645   5.764
 6644SOL     OW20830   1.921   6.969   3.805
 6644SOL    HW120831   1.836   6.937   3.763
 6644SOL    HW220832   1.998   6.918   3.766
 6645SOL     OW20833   4.905   2.513   5.166
 6645SOL    HW120834   4.863   2.437   5.216
 6645SOL    HW220835   4.846   2.593   5.171
 6646SOL     OW20836   4.971   6.943   6.144
 6646SOL    HW120837   4.982   0.031   6.155
 6646SOL    HW220838   5.058   6.902   6.115
 6647SOL     OW20839   3.696   4.766   0.760
 6647SOL    HW120840   3.607   4.780   0.718
 6647SOL    HW220841   3.757   4.841   0.736
 6648SOL     OW20842   3.296   5.600   5.467
 6648SOL    HW120843   3.308   5.520   5.407
 6648SOL    HW220844   3.383   5.650   5.473
 6649SOL     OW20845   5.432   2.873   5.465
 6649SOL    HW120846   5.529   2.879   5.487
 6649SOL    HW220847   5.404   2.953   5.412
 6650SOL     OW20848   3.030   0.999   4.697
 6650SOL    HW120849   3.070   0.911   4.671
 6650SOL    HW220850   2.932   0.997   4.678
 6651SOL     OW20851   6.986   0.898   3.652
 6651SOL    HW120852   6.965   0.909   3.555
 6651SOL    HW220853   0.040   0.822   3.664
 6652SOL     OW20854   0.213   5.084   6.895
 6652SOL    HW120855   0.277   5.015   6.930
 6652SOL    HW220856   0.119   5.052   6.908
 6653SOL     OW20857   5.583   4.072   6.670
 6653SOL    HW120858   5.673   4.052   6.708
 6653SOL    HW220859   5.519   4.000   6.698
 6654SOL     OW20860   6.879   2.069   3.318
 6654SOL    HW120861   6.816   2.026   3.382
 6654SOL    HW220862   6.966   2.087   3.364
 6655SOL     OW20863   6.823   5.616   1.583
 6655SOL    HW120864   6.852   5.570   1.667
 6655SOL    HW220865   6.725   5.636   1.588
 6656SOL     OW20866   4.800   0.806   2.384
 6656SOL    HW120867   4.760   0.897   2.397
 6656SOL    HW220868   4.794   0.754   2.469
 6657SOL     OW20869   4.881   1.917   4.343
 6657SOL    HW120870   4.809   1.865   4.297
 6657SOL    HW220871   4.846   2.008   4.367
 6658SOL     OW20872   6.753   5.764   4.942
 6658SOL    HW120873   6.741   5.666   4.927
 6658SOL    HW220874   6.688   5.795   5.012
 6659SOL     OW20875   0.447   6.260   0.641
 6659SOL    HW120876   0.513   6.193   0.607
 6659SOL    HW220877   0.433   6.245   0.739
 6660SOL     OW20878   1.385   0.455   4.048
 6660SOL    HW120879   1.314   0.394   4.012
 6660SOL    HW220880   1.468   0.446   3.992
 6661SOL     OW20881   4.093   6.949   3.483
 6661SOL    HW120882   4.121   7.010   3.558
 6661SOL    HW220883   3.993   6.938   3.486
 6662SOL     OW20884   3.444   6.895   2.181
 6662SOL    HW120885   3.478   6.980   2.141
 6662SOL    HW220886   3.345   6.900   2.191
 6663SOL     OW20887   1.358   3.862   5.604
 6663SOL    HW120888   1.397   3.954   5.611
 6663SOL    HW220889   1.427   3.799   5.568
 6664SOL     OW20890   3.105   0.146   1.967
 6664SOL    HW120891   3.097   0.164   1.869
 6664SOL    HW220892   3.015   0.152   2.009
 6665SOL     OW20893   2.640   0.295   6.483
 6665SOL    HW120894   2.683   0.330   6.567
 6665SOL    HW220895   2.663   0.198   6.472
 6666SOL     OW20896   3.057   5.983   5.948
 6666SOL    HW120897   3.098   5.962   6.037
 6666SOL    HW220898   2.981   5.920   5.931
 6667SOL     OW20899   2.010   5.789   0.225
 6667SOL    HW120900   2.050   5.829   0.307
 6667SOL    HW220901   1.951   5.712   0.251
 6668SOL     OW20902   0.480   3.329   6.103
 6668SOL    HW120903   0.482   3.427   6.124
 6668SOL    HW220904   0.554   3.307   6.040
 6669SOL     OW20905   0.710   3.166   3.189
 6669SOL    HW120906   0.690   3.206   3.279
 6669SOL    HW220907   0.742   3.072   3.201
 6670SOL     OW20908   2.483   3.955   0.544
 6670SOL    HW120909   2.422   3.967   0.623
 6670SOL    HW220910   2.546   4.032   0.539
 6671SOL     OW20911   4.686   4.834   0.300
 6671SOL    HW120912   4.741   4.807   0.221
 6671SOL    HW220913   4.742   4.886   0.364
 6672SOL     OW20914   1.931   2.168   1.073
 6672SOL    HW120915   1.949   2.266   1.079
 6672SOL    HW220916   1.934   2.128   1.164
 6673SOL     OW20917   5.475   3.713   4.351
 6673SOL    HW120918   5.414   3.679   4.423
 6673SOL    HW220919   5.444   3.804   4.322
 6674SOL     OW20920   0.043   1.081   0.463
 6674SOL    HW120921   0.139   1.102   0.442
 6674SOL    HW220922   0.036   1.043   0.555
 6675SOL     OW20923   4.853   1.393   0.356
 6675SOL    HW120924   4.793   1.341   0.296
 6675SOL    HW220925   4.948   1.369   0.337
 6676SOL     OW20926   1.085   3.624   5.438
 6676SOL    HW120927   1.043   3.702   5.484
 6676SOL    HW220928   1.029   3.596   5.360
 6677SOL     OW20929   0.131   2.206   6.787
 6677SOL    HW120930   0.124   2.107   6.780
 6677SOL    HW220931   0.120   2.234   6.882
 6678SOL     OW20932   2.748   3.785   6.630
 6678SOL    HW120933   2.672   3.720   6.624
 6678SOL    HW220934   2.749   3.842   6.548
 6679SOL     OW20935   1.772   0.653   4.355
 6679SOL    HW120936   1.795   0.749   4.373
 6679SOL    HW220937   1.793   0.630   4.260
 6680SOL     OW20938   6.281   5.575   1.993
 6680SOL    HW120939   6.210   5.602   1.928
 6680SOL    HW220940   6.292   5.476   1.991
 6681SOL     OW20941   3.321   5.695   0.975
 6681SOL    HW120942   3.267   5.676   0.893
 6681SOL    HW220943   3.261   5.709   1.053
 6682SOL     OW20944   2.606   5.019   6.335
 6682SOL    HW120945   2.520   5.054   6.299
 6682SOL    HW220946   2.631   4.936   6.285
 6683SOL     OW20947   6.635   5.855   6.326
 6683SOL    HW120948   6.718   5.825   6.372
 6683SOL    HW220949   6.616   5.950   6.350
 6684SOL     OW20950   2.896   6.292   5.960
 6684SOL    HW120951   2.910   6.347   5.877
 6684SOL    HW220952   2.879   6.197   5.935
 6685SOL     OW20953   3.789   2.820   0.340
 6685SOL    HW120954   3.850   2.883   0.388
 6685SOL    HW220955   3.842   2.745   0.300
 6686SOL     OW20956   4.490   4.272   5.287
 6686SOL    HW120957   4.457   4.206   5.354
 6686SOL    HW220958   4.411   4.314   5.241
 6687SOL     OW20959   0.231   2.539   0.872
 6687SOL    HW120960   0.140   2.514   0.839
 6687SOL    HW220961   0.296   2.533   0.796
 6688SOL     OW20962   5.647   5.370   0.821
 6688SOL    HW120963   5.666   5.466   0.799
 6688SOL    HW220964   5.549   5.353   0.812
 6689SOL     OW20965   3.515   5.245   6.125
 6689SOL    HW120966   3.499   5.328   6.178
 6689SOL    HW220967   3.612   5.220   6.130
 6690SOL     OW20968   1.157   0.474   0.508
 6690SOL    HW120969   1.225   0.435   0.445
 6690SOL    HW220970   1.065   0.452   0.475
 6691SOL     OW20971   2.537   1.683   2.106
 6691SOL    HW120972   2.557   1.751   2.035
 6691SOL    HW220973   2.620   1.632   2.128
 6692SOL     OW20974   4.374   6.481   2.064
 6692SOL    HW120975   4.369   6.442   2.156
 6692SOL    HW220976   4.469   6.503   2.043
 6693SOL     OW20977   3.152   1.311   5.786
 6693SOL    HW120978   3.095   1.350   5.713
 6693SOL    HW220979   3.246   1.304   5.754
 6694SOL     OW20980   4.514   4.124   1.418
 6694SOL    HW120981   4.531   4.194   1.488
 6694SOL    HW220982   4.593   4.119   1.356
 6695SOL     OW20983   2.891   2.294   0.227
 6695SOL    HW120984   2.810   2.238   0.240
 6695SOL    HW220985   2.959   2.243   0.175
 6696SOL     OW20986   3.700   2.770   5.240
 6696SOL    HW120987   3.702   2.691   5.300
 6696SOL    HW220988   3.605   2.801   5.229
 6697SOL     OW20989   4.727   2.560   2.656
 6697SOL    HW120990   4.701   2.611   2.738
 6697SOL    HW220991   4.689   2.605   2.576
 6698SOL     OW20992   2.740   3.909   1.595
 6698SOL    HW120993   2.796   3.844   1.645
 6698SOL    HW220994   2.644   3.881   1.600
 6699SOL     OW20995   1.664   3.101   6.541
 6699SOL    HW120996   1.707   3.042   6.610
 6699SOL    HW220997   1.733   3.160   6.500
 6700SOL     OW20998   4.996   0.754   1.374
 6700SOL    HW120999   4.955   0.833   1.328
 6700SOL    HW221000   4.944   0.734   1.457
 6701SOL     OW21001   5.995   0.083   1.549
 6701SOL    HW121002   6.048   0.048   1.626
 6701SOL    HW221003   6.028   0.174   1.523
 6702SOL     OW21004   4.424   2.476   1.071
 6702SOL    HW121005   4.428   2.529   0.986
 6702SOL    HW221006   4.354   2.405   1.062
 6703SOL     OW21007   0.875   1.504   0.171
 6703SOL    HW121008   0.889   1.405   0.163
 6703SOL    HW221009   0.961   1.551   0.149
 6704SOL     OW21010   2.531   6.772   5.773
 6704SOL    HW121011   2.487   6.698   5.824
 6704SOL    HW221012   2.552   6.848   5.836
 6705SOL     OW21013   0.190   4.601   2.400
 6705SOL    HW121014   0.283   4.630   2.424
 6705SOL    HW221015   0.195   4.528   2.331
 6706SOL     OW21016   0.245   6.034   0.036
 6706SOL    HW121017   0.224   5.963   0.103
 6706SOL    HW221018   0.343   6.032   0.015
 6707SOL     OW21019   4.770   1.239   2.910
 6707SOL    HW121020   4.792   1.216   2.815
 6707SOL    HW221021   4.674   1.217   2.927
 6708SOL     OW21022   0.709   3.538   0.502
 6708SOL    HW121023   0.611   3.526   0.485
 6708SOL    HW221024   0.725   3.628   0.543
 6709SOL     OW21025   2.018   4.428   2.026
 6709SOL    HW121026   2.066   4.379   1.953
 6709SOL    HW221027   2.020   4.373   2.110
 6710SOL     OW21028   4.280   1.962   1.385
 6710SOL    HW121029   4.299   1.996   1.477
 6710SOL    HW221030   4.211   1.890   1.390
 6711SOL     OW21031   4.318   5.473   6.175
 6711SOL    HW121032   4.283   5.530   6.249
 6711SOL    HW221033   4.404   5.511   6.141
 6712SOL     OW21034   5.603   3.819   1.371
 6712SOL    HW121035   5.580   3.904   1.419
 6712SOL    HW221036   5.692   3.828   1.328
 6713SOL     OW21037   1.901   4.598   4.105
 6713SOL    HW121038   1.933   4.553   4.188
 6713SOL    HW221039   1.918   4.540   4.026
 6714SOL     OW21040   5.701   1.064   2.056
 6714SOL    HW121041   5.682   1.112   2.141
 6714SOL    HW221042   5.693   1.128   1.979
 6715SOL     OW21043   1.372   0.277   6.013
 6715SOL    HW121044   1.466   0.299   5.986
 6715SOL    HW221045   1.308   0.333   5.962
 6716SOL     OW21046   1.083   4.678   1.772
 6716SOL    HW121047   1.113   4.656   1.679
 6716SOL    HW221048   0.998   4.730   1.767
 6717SOL     OW21049   6.235   2.550   5.248
 6717SOL    HW121050   6.213   2.469   5.303
 6717SOL    HW221051   6.187   2.629   5.287
 6718SOL     OW21052   4.574   2.163   0.598
 6718SOL    HW121053   4.603   2.149   0.693
 6718SOL    HW221054   4.653   2.179   0.540
 6719SOL     OW21055   1.506   1.075   0.542
 6719SOL    HW121056   1.596   1.045   0.509
 6719SOL    HW221057   1.515   1.164   0.585
 6720SOL     OW21058   1.573   1.646   5.173
 6720SOL    HW121059   1.517   1.582   5.226
 6720SOL    HW221060   1.625   1.596   5.104
 6721SOL     OW21061   6.722   6.829   0.494
 6721SOL    HW121062   6.715   6.926   0.515
 6721SOL    HW221063   6.771   6.782   0.567
 6722SOL     OW21064   6.133   4.740   1.091
 6722SOL    HW121065   6.232   4.728   1.099
 6722SOL    HW221066   6.093   4.661   1.044
 6723SOL     OW21067   1.627   3.232   4.619
 6723SOL    HW121068   1.687   3.219   4.541
 6723SOL    HW221069   1.635   3.154   4.681
 6724SOL     OW21070   1.972   3.323   5.323
 6724SOL    HW121071   2.041   3.392   5.341
 6724SOL    HW221072   1.962   3.309   5.225
 6725SOL     OW21073   4.809   2.972   4.044
 6725SOL    HW121074   4.786   2.998   3.950
 6725SOL    HW221075   4.855   3.049   4.089
 6726SOL     OW21076   6.847   1.781   7.003
 6726SOL    HW121077   6.859   1.701   0.052
 6726SOL    HW221078   6.760   1.825   0.014
 6727SOL     OW21079   0.745   5.234   5.700
 6727SOL    HW121080   0.745   5.314   5.640
 6727SOL    HW221081   0.767   5.261   5.793
 6728SOL     OW21082   3.626   1.408   5.076
 6728SOL    HW121083   3.554   1.460   5.030
 6728SOL    HW221084   3.614   1.311   5.056
 6729SOL     OW21085   4.386   1.004   2.462
 6729SOL    HW121086   4.417   0.970   2.373
 6729SOL    HW221087   4.294   1.042   2.453
 6730SOL     OW21088   0.414   1.912   1.252
 6730SOL    HW121089   0.454   1.852   1.181
 6730SOL    HW221090   0.318   1.888   1.266
 6731SOL     OW21091   4.054   0.683   6.515
 6731SOL    HW121092   4.017   0.594   6.487
 6731SOL    HW221093   4.139   0.700   6.465
 6732SOL     OW21094   6.149   5.245   5.626
 6732SOL    HW121095   6.192   5.166   5.669
 6732SOL    HW221096   6.127   5.314   5.695
 6733SOL     OW21097   4.816   5.118   5.658
 6733SOL    HW121098   4.731   5.133   5.707
 6733SOL    HW221099   4.882   5.073   5.719
 6734SOL     OW21100   5.596   2.100   5.254
 6734SOL    HW121101   5.520   2.086   5.318
 6734SOL    HW221102   5.588   2.191   5.213
 6735SOL     OW21103   5.685   3.232   4.501
 6735SOL    HW121104   5.701   3.331   4.508
 6735SOL    HW221105   5.657   3.209   4.408
 6736SOL     OW21106   3.775   3.946   0.753
 6736SOL    HW121107   3.843   4.018   0.766
 6736SOL    HW221108   3.767   3.925   0.655
 6737SOL     OW21109   5.913   3.758   0.641
 6737SOL    HW121110   5.845   3.825   0.609
 6737SOL    HW221111   5.969   3.800   0.712
 6738SOL     OW21112   2.289   6.628   4.418
 6738SOL    HW121113   2.321   6.609   4.511
 6738SOL    HW221114   2.303   6.548   4.361
 6739SOL     OW21115   0.125   0.191   5.805
 6739SOL    HW121116   0.150   0.234   5.718
 6739SOL    HW221117   0.149   0.252   5.881
 6740SOL     OW21118   0.450   6.749   2.125
 6740SOL    HW121119   0.502   6.796   2.054
 6740SOL    HW221120   0.460   6.798   2.212
 6741SOL     OW21121   3.225   2.344   0.550
 6741SOL    HW121122   3.137   2.381   0.520
 6741SOL    HW221123   3.250   2.267   0.493
 6742SOL     OW21124   6.552   4.704   2.674
 6742SOL    HW121125   6.500   4.684   2.591
 6742SOL    HW221126   6.634   4.757   2.650
 6743SOL     OW21127   3.832   3.797   0.004
 6743SOL    HW121128   3.808   3.878   6.960
 6743SOL    HW221129   3.761   3.727   7.002
 6744SOL     OW21130   6.689   6.497   6.008
 6744SOL    HW121131   6.697   6.503   5.908
 6744SOL    HW221132   6.592   6.491   6.033
 6745SOL     OW21133   5.567   3.825   5.478
 6745SOL    HW121134   5.494   3.891   5.499
 6745SOL    HW221135   5.628   3.864   5.409
 6746SOL     OW21136   1.120   2.156   3.054
 6746SOL    HW121137   1.146   2.253   3.055
 6746SOL    HW221138   1.101   2.128   2.960
 6747SOL     OW21139   1.421   5.974   4.751
 6747SOL    HW121140   1.409   5.874   4.745
 6747SOL    HW221141   1.333   6.016   4.773
 6748SOL     OW21142   1.507   1.735   4.334
 6748SOL    HW121143   1.417   1.760   4.300
 6748SOL    HW221144   1.546   1.811   4.385
 6749SOL     OW21145   4.000   4.824   2.280
 6749SOL    HW121146   4.055   4.812   2.362
 6749SOL    HW221147   3.981   4.735   2.239
 6750SOL     OW21148   3.885   1.070   6.034
 6750SOL    HW121149   3.837   1.045   6.119
 6750SOL    HW221150   3.850   1.158   6.002
 6751SOL     OW21151   4.073   1.049   4.636
 6751SOL    HW121152   4.015   1.096   4.702
 6751SOL    HW221153   4.104   1.114   4.566
 6752SOL     OW21154   1.950   4.788   3.033
 6752SOL    HW121155   1.944   4.760   2.938
 6752SOL    HW221156   2.006   4.721   3.084
 6753SOL     OW21157   3.523   4.107   0.417
 6753SOL    HW121158   3.621   4.092   0.428
 6753SOL    HW221159   3.488   4.046   0.346
 6754SOL     OW21160   6.148   1.311   0.576
 6754SOL    HW121161   6.124   1.235   0.637
 6754SOL    HW221162   6.090   1.306   0.494
 6755SOL     OW21163   3.938   6.061   5.621
 6755SOL    HW121164   4.003   5.985   5.622
 6755SOL    HW221165   3.986   6.145   5.598
 6756SOL     OW21166   4.265   3.070   6.161
 6756SOL    HW121167   4.234   3.073   6.257
 6756SOL    HW221168   4.228   3.149   6.112
 6757SOL     OW21169   4.515   7.006   1.883
 6757SOL    HW121170   4.485   0.085   1.851
 6757SOL    HW221171   4.477   6.989   1.974
 6758SOL     OW21172   4.865   3.103   3.207
 6758SOL    HW121173   4.767   3.091   3.222
 6758SOL    HW221174   4.880   3.176   3.140
 6759SOL     OW21175   1.551   1.901   2.605
 6759SOL    HW121176   1.492   1.955   2.545
 6759SOL    HW221177   1.645   1.934   2.597
 6760SOL     OW21178   5.750   1.924   5.675
 6760SOL    HW121179   5.673   1.964   5.724
 6760SOL    HW221180   5.792   1.852   5.730
 6761SOL     OW21181   2.829   0.546   5.080
 6761SOL    HW121182   2.756   0.611   5.099
 6761SOL    HW221183   2.873   0.569   4.993
 6762SOL     OW21184   5.679   4.859   4.381
 6762SOL    HW121185   5.777   4.870   4.392
 6762SOL    HW221186   5.649   4.775   4.427
 6763SOL     OW21187   5.572   6.750   3.988
 6763SOL    HW121188   5.572   6.699   3.902
 6763SOL    HW221189   5.654   6.727   4.041
 6764SOL     OW21190   0.748   4.835   1.512
 6764SOL    HW121191   0.763   4.800   1.420
 6764SOL    HW221192   0.657   4.808   1.544
 6765SOL     OW21193   6.847   4.109   2.765
 6765SOL    HW121194   6.795   4.142   2.687
 6765SOL    HW221195   6.836   4.172   2.842
 6766SOL     OW21196   5.765   0.076   1.243
 6766SOL    HW121197   5.672   0.083   1.280
 6766SOL    HW221198   5.816   0.159   1.266
 6767SOL     OW21199   3.219   0.602   1.406
 6767SOL    HW121200   3.175   0.544   1.474
 6767SOL    HW221201   3.314   0.575   1.394
 6768SOL     OW21202   2.180   6.984   6.848
 6768SOL    HW121203   2.144   6.891   6.842
 6768SOL    HW221204   2.120   0.036   6.798
 6769SOL     OW21205   5.145   3.432   1.324
 6769SOL    HW121206   5.182   3.369   1.256
 6769SOL    HW221207   5.045   3.428   1.322
 6770SOL     OW21208   0.026   1.511   1.763
 6770SOL    HW121209   0.014   1.608   1.784
 6770SOL    HW221210   0.080   1.468   1.835
 6771SOL     OW21211   5.077   1.688   3.745
 6771SOL    HW121212   5.070   1.785   3.720
 6771SOL    HW221213   4.998   1.662   3.801
 6772SOL     OW21214   3.436   1.632   4.714
 6772SOL    HW121215   3.414   1.729   4.725
 6772SOL    HW221216   3.413   1.583   4.798
 6773SOL     OW21217   0.453   3.671   1.731
 6773SOL    HW121218   0.399   3.668   1.816
 6773SOL    HW221219   0.516   3.749   1.735
 6774SOL     OW21220   1.342   2.193   6.682
 6774SOL    HW121221   1.305   2.269   6.628
 6774SOL    HW221222   1.297   2.108   6.657
 6775SOL     OW21223   0.608   4.023   0.059
 6775SOL    HW121224   0.653   3.939   0.029
 6775SOL    HW221225   0.647   4.052   0.147
 6776SOL     OW21226   5.955   5.787   6.932
 6776SOL    HW121227   6.035   5.805   6.875
 6776SOL    HW221228   5.959   5.844   0.004
 6777SOL     OW21229   4.731   4.808   6.703
 6777SOL    HW121230   4.801   4.867   6.662
 6777SOL    HW221231   4.775   4.730   6.748
 6778SOL     OW21232   6.285   5.815   3.524
 6778SOL    HW121233   6.298   5.733   3.580
 6778SOL    HW221234   6.190   5.819   3.492
 6779SOL     OW21235   6.007   4.012   6.181
 6779SOL    HW121236   5.965   3.990   6.093
 6779SOL    HW221237   5.944   3.988   6.255
 6780SOL     OW21238   0.558   3.161   1.549
 6780SOL    HW121239   0.574   3.170   1.451
 6780SOL    HW221240   0.484   3.097   1.566
 6781SOL     OW21241   5.162   5.224   5.683
 6781SOL    HW121242   5.104   5.288   5.633
 6781SOL    HW221243   5.149   5.238   5.782
 6782SOL     OW21244   5.758   1.062   3.278
 6782SOL    HW121245   5.813   0.991   3.233
 6782SOL    HW221246   5.802   1.151   3.265
 6783SOL     OW21247   1.515   5.617   6.450
 6783SOL    HW121248   1.525   5.649   6.545
 6783SOL    HW221249   1.443   5.548   6.446
 6784SOL     OW21250   3.715   3.580   0.196
 6784SOL    HW121251   3.655   3.514   0.242
 6784SOL    HW221252   3.676   3.603   0.107
 6785SOL     OW21253   5.649   5.635   2.084
 6785SOL    HW121254   5.735   5.622   2.132
 6785SOL    HW221255   5.665   5.683   1.998
 6786SOL     OW21256   1.651   3.441   5.579
 6786SOL    HW121257   1.726   3.377   5.596
 6786SOL    HW221258   1.594   3.407   5.504
 6787SOL     OW21259   1.302   3.933   1.638
 6787SOL    HW121260   1.378   3.989   1.605
 6787SOL    HW221261   1.218   3.987   1.634
 6788SOL     OW21262   2.628   3.664   1.432
 6788SOL    HW121263   2.636   3.569   1.464
 6788SOL    HW221264   2.717   3.695   1.397
 6789SOL     OW21265   1.284   4.956   3.128
 6789SOL    HW121266   1.322   5.005   3.049
 6789SOL    HW221267   1.356   4.941   3.196
 6790SOL     OW21268   1.473   2.402   1.046
 6790SOL    HW121269   1.571   2.387   1.041
 6790SOL    HW221270   1.425   2.322   1.009
 6791SOL     OW21271   3.451   3.955   5.896
 6791SOL    HW121272   3.417   3.865   5.925
 6791SOL    HW221273   3.551   3.954   5.894
 6792SOL     OW21274   0.518   4.898   0.478
 6792SOL    HW121275   0.534   4.817   0.534
 6792SOL    HW221276   0.443   4.881   0.414
 6793SOL     OW21277   5.631   1.697   0.987
 6793SOL    HW121278   5.569   1.622   1.009
 6793SOL    HW221279   5.722   1.678   1.025
 6794SOL     OW21280   3.651   1.181   4.658
 6794SOL    HW121281   3.737   1.221   4.626
 6794SOL    HW221282   3.581   1.194   4.587
 6795SOL     OW21283   3.405   6.104   0.172
 6795SOL    HW121284   3.429   6.159   0.092
 6795SOL    HW221285   3.465   6.128   0.249
 6796SOL     OW21286   4.243   1.861   2.501
 6796SOL    HW121287   4.284   1.885   2.413
 6796SOL    HW221288   4.143   1.859   2.491
 6797SOL     OW21289   6.591   2.045   2.496
 6797SOL    HW121290   6.551   1.963   2.456
 6797SOL    HW221291   6.624   2.024   2.588
 6798SOL     OW21292   6.852   6.911   2.427
 6798SOL    HW121293   6.925   6.978   2.441
 6798SOL    HW221294   6.861   6.837   2.494
 6799SOL     OW21295   5.653   5.833   1.648
 6799SOL    HW121296   5.597   5.808   1.728
 6799SOL    HW221297   5.621   5.782   1.568
 6800SOL     OW21298   3.540   4.094   6.703
 6800SOL    HW121299   3.464   4.076   6.641
 6800SOL    HW221300   3.531   4.185   6.743
 6801SOL     OW21301   0.711   3.136   2.934
 6801SOL    HW121302   0.708   3.039   2.911
 6801SOL    HW221303   0.670   3.150   3.024
 6802SOL     OW21304   2.790   4.710   2.572
 6802SOL    HW121305   2.744   4.798   2.558
 6802SOL    HW221306   2.846   4.689   2.492
 6803SOL     OW21307   4.016   2.267   0.876
 6803SOL    HW121308   3.966   2.353   0.887
 6803SOL    HW221309   3.964   2.192   0.917
 6804SOL     OW21310   0.996   6.669   3.561
 6804SOL    HW121311   0.949   6.700   3.644
 6804SOL    HW221312   0.949   6.589   3.523
 6805SOL     OW21313   5.693   1.198   5.465
 6805SOL    HW121314   5.649   1.115   5.431
 6805SOL    HW221315   5.681   1.204   5.564
 6806SOL     OW21316   5.394   6.416   5.295
 6806SOL    HW121317   5.352   6.500   5.261
 6806SOL    HW221318   5.426   6.361   5.219
 6807SOL     OW21319   3.193   3.437   6.925
 6807SOL    HW121320   3.126   3.501   6.964
 6807SOL    HW221321   3.258   3.409   6.997
 6808SOL     OW21322   2.116   3.805   4.195
 6808SOL    HW121323   2.017   3.811   4.208
 6808SOL    HW221324   2.157   3.896   4.203
 6809SOL     OW21325   1.332   4.067   0.051
 6809SOL    HW121326   1.360   4.008   6.985
 6809SOL    HW221327   1.299   4.010   0.126
 6810SOL     OW21328   5.725   1.430   3.588
 6810SOL    HW121329   5.791   1.434   3.663
 6810SOL    HW221330   5.644   1.380   3.620
 6811SOL     OW21331   5.042   5.953   1.901
 6811SOL    HW121332   5.051   5.985   1.807
 6811SOL    HW221333   4.961   5.995   1.943
 6812SOL     OW21334   3.569   3.203   2.494
 6812SOL    HW121335   3.554   3.301   2.479
 6812SOL    HW221336   3.525   3.151   2.421
 6813SOL     OW21337   5.193   3.647   1.494
 6813SOL    HW121338   5.132   3.615   1.421
 6813SOL    HW221339   5.139   3.687   1.568
 6814SOL     OW21340   2.336   3.053   0.461
 6814SOL    HW121341   2.250   3.057   0.513
 6814SOL    HW221342   2.389   2.974   0.491
 6815SOL     OW21343   1.368   0.318   0.755
 6815SOL    HW121344   1.391   0.348   0.663
 6815SOL    HW221345   1.421   0.370   0.822
 6816SOL     OW21346   5.980   4.351   1.354
 6816SOL    HW121347   6.066   4.394   1.382
 6816SOL    HW221348   5.979   4.339   1.255
 6817SOL     OW21349   0.472   2.646   5.988
 6817SOL    HW121350   0.474   2.732   6.039
 6817SOL    HW221351   0.536   2.651   5.911
 6818SOL     OW21352   3.818   5.318   1.238
 6818SOL    HW121353   3.813   5.323   1.338
 6818SOL    HW221354   3.750   5.380   1.199
 6819SOL     OW21355   2.615   1.672   4.006
 6819SOL    HW121356   2.643   1.729   3.929
 6819SOL    HW221357   2.606   1.729   4.088
 6820SOL     OW21358   1.737   5.291   4.674
 6820SOL    HW121359   1.811   5.297   4.742
 6820SOL    HW221360   1.762   5.223   4.605
 6821SOL     OW21361   2.100   3.092   4.109
 6821SOL    HW121362   2.123   2.995   4.116
 6821SOL    HW221363   2.133   3.141   4.190
 6822SOL     OW21364   4.950   1.765   6.014
 6822SOL    HW121365   4.917   1.824   5.941
 6822SOL    HW221366   5.026   1.709   5.980
 6823SOL     OW21367   3.963   3.371   1.992
 6823SOL    HW121368   4.030   3.301   1.968
 6823SOL    HW221369   3.999   3.428   2.066
 6824SOL     OW21370   0.842   5.322   5.298
 6824SOL    HW121371   0.853   5.390   5.226
 6824SOL    HW221372   0.829   5.231   5.258
 6825SOL     OW21373   5.682   0.168   3.516
 6825SOL    HW121374   5.583   0.165   3.502
 6825SOL    HW221375   5.728   0.155   3.428
 6826SOL     OW21376   1.054   3.014   3.040
 6826SOL    HW121377   1.080   3.083   2.973
 6826SOL    HW221378   1.103   3.030   3.126
 6827SOL     OW21379   4.884   5.552   5.299
 6827SOL    HW121380   4.982   5.554   5.323
 6827SOL    HW221381   4.844   5.466   5.330
 6828SOL     OW21382   2.123   1.637   1.278
 6828SOL    HW121383   2.065   1.717   1.263
 6828SOL    HW221384   2.066   1.558   1.300
 6829SOL     OW21385   5.640   5.049   3.647
 6829SOL    HW121386   5.556   5.079   3.692
 6829SOL    HW221387   5.617   5.000   3.562
 6830SOL     OW21388   5.079   2.010   4.187
 6830SOL    HW121389   5.012   2.003   4.262
 6830SOL    HW221390   5.105   1.919   4.157
 6831SOL     OW21391   0.156   1.495   5.978
 6831SOL    HW121392   0.099   1.414   5.962
 6831SOL    HW221393   0.229   1.499   5.910
 6832SOL     OW21394   3.427   4.716   1.242
 6832SOL    HW121395   3.460   4.649   1.309
 6832SOL    HW221396   3.343   4.683   1.199
 6833SOL     OW21397   4.665   5.809   0.030
 6833SOL    HW121398   4.676   5.878   6.969
 6833SOL    HW221399   4.601   5.739   7.009
 6834SOL     OW21400   3.143   5.275   2.382
 6834SOL    HW121401   3.140   5.362   2.431
 6834SOL    HW221402   3.226   5.226   2.407
 6835SOL     OW21403   3.979   0.201   4.701
 6835SOL    HW121404   3.997   0.105   4.681
 6835SOL    HW221405   4.036   0.259   4.641
 6836SOL     OW21406   3.806   5.784   6.945
 6836SOL    HW121407   3.886   5.830   6.906
 6836SOL    HW221408   3.782   5.705   6.887
 6837SOL     OW21409   0.391   3.092   2.857
 6837SOL    HW121410   0.443   3.175   2.838
 6837SOL    HW221411   0.423   3.017   2.798
 6838SOL     OW21412   2.605   1.412   1.393
 6838SOL    HW121413   2.630   1.509   1.398
 6838SOL    HW221414   2.560   1.393   1.306
 6839SOL     OW21415   4.598   0.882   1.587
 6839SOL    HW121416   4.667   0.937   1.634
 6839SOL    HW221417   4.578   0.922   1.497
 6840SOL     OW21418   1.057   1.262   6.558
 6840SOL    HW121419   1.106   1.268   6.471
 6840SOL    HW221420   1.004   1.346   6.572
 6841SOL     OW21421   0.224   2.990   5.616
 6841SOL    HW121422   0.306   3.047   5.609
 6841SOL    HW221423   0.148   3.035   5.570
 6842SOL     OW21424   2.484   4.581   2.327
 6842SOL    HW121425   2.550   4.632   2.273
 6842SOL    HW221426   2.414   4.543   2.267
 6843SOL     OW21427   4.570   0.324   1.333
 6843SOL    HW121428   4.634   0.399   1.348
 6843SOL    HW221429   4.619   0.237   1.336
 6844SOL     OW21430   5.474   0.486   5.605
 6844SOL    HW121431   5.388   0.512   5.648
 6844SOL    HW221432   5.489   0.542   5.524
 6845SOL     OW21433   5.505   2.049   2.767
 6845SOL    HW121434   5.425   2.028   2.823
 6845SOL    HW221435   5.540   2.140   2.793
 6846SOL     OW21436   1.968   3.671   0.133
 6846SOL    HW121437   2.048   3.642   0.186
 6846SOL    HW221438   1.913   3.591   0.109
 6847SOL     OW21439   7.006   2.380   4.441
 6847SOL    HW121440   6.917   2.356   4.403
 6847SOL    HW221441   6.992   2.431   4.526
 6848SOL     OW21442   0.103   5.120   3.687
 6848SOL    HW121443   0.031   5.174   3.731
 6848SOL    HW221444   0.062   5.059   3.620
 6849SOL     OW21445   2.875   4.402   5.733
 6849SOL    HW121446   2.816   4.322   5.723
 6849SOL    HW221447   2.835   4.479   5.684
 6850SOL     OW21448   5.078   0.098   4.181
 6850SOL    HW121449   5.082   0.195   4.157
 6850SOL    HW221450   5.089   0.088   4.280
 6851SOL     OW21451   1.878   4.044   2.927
 6851SOL    HW121452   1.972   4.024   2.955
 6851SOL    HW221453   1.814   3.997   2.987
 6852SOL     OW21454   4.214   3.659   0.373
 6852SOL    HW121455   4.193   3.609   0.288
 6852SOL    HW221456   4.134   3.655   0.434
 6853SOL     OW21457   3.843   4.813   6.085
 6853SOL    HW121458   3.852   4.747   6.010
 6853SOL    HW221459   3.752   4.853   6.084
 6854SOL     OW21460   4.826   6.195   5.936
 6854SOL    HW121461   4.814   6.207   6.035
 6854SOL    HW221462   4.749   6.145   5.898
 6855SOL     OW21463   4.375   5.003   2.999
 6855SOL    HW121464   4.465   4.990   2.957
 6855SOL    HW221465   4.312   4.934   2.965
 6856SOL     OW21466   6.407   2.924   0.449
 6856SOL    HW121467   6.308   2.919   0.440
 6856SOL    HW221468   6.449   2.925   0.359
 6857SOL     OW21469   1.247   4.353   5.654
 6857SOL    HW121470   1.328   4.322   5.704
 6857SOL    HW221471   1.183   4.396   5.718
 6858SOL     OW21472   1.239   3.263   1.400
 6858SOL    HW121473   1.168   3.272   1.470
 6858SOL    HW221474   1.326   3.239   1.444
 6859SOL     OW21475   2.239   2.087   0.961
 6859SOL    HW121476   2.206   2.101   0.868
 6859SOL    HW221477   2.174   2.028   1.010
 6860SOL     OW21478   0.260   6.644   6.933
 6860SOL    HW121479   0.305   6.556   6.922
 6860SOL    HW221480   0.161   6.631   6.928
 6861SOL     OW21481   6.669   3.281   6.615
 6861SOL    HW121482   6.606   3.318   6.547
 6861SOL    HW221483   6.710   3.197   6.580
 6862SOL     OW21484   0.551   4.444   3.775
 6862SOL    HW121485   0.623   4.388   3.734
 6862SOL    HW221486   0.592   4.525   3.819
 6863SOL     OW21487   4.950   1.458   4.871
 6863SOL    HW121488   4.852   1.439   4.881
 6863SOL    HW221489   5.002   1.373   4.880
 6864SOL     OW21490   2.274   3.711   6.414
 6864SOL    HW121491   2.283   3.718   6.315
 6864SOL    HW221492   2.266   3.615   6.440
 6865SOL     OW21493   1.975   6.987   4.408
 6865SOL    HW121494   2.037   6.914   4.378
 6865SOL    HW221495   1.881   6.962   4.385
 6866SOL     OW21496   2.030   4.806   6.917
 6866SOL    HW121497   2.052   4.718   6.958
 6866SOL    HW221498   2.016   4.795   6.818
 6867SOL     OW21499   1.949   2.388   6.456
 6867SOL    HW121500   2.004   2.455   6.407
 6867SOL    HW221501   1.869   2.365   6.402
 6868SOL     OW21502   3.720   4.881   3.277
 6868SOL    HW121503   3.682   4.912   3.363
 6868SOL    HW221504   3.654   4.897   3.203
 6869SOL     OW21505   1.614   0.938   5.594
 6869SOL    HW121506   1.691   0.889   5.552
 6869SOL    HW221507   1.639   0.968   5.686
 6870SOL     OW21508   5.588   2.680   6.341
 6870SOL    HW121509   5.672   2.652   6.388
 6870SOL    HW221510   5.515   2.694   6.409
 6871SOL     OW21511   6.598   2.671   2.953
 6871SOL    HW121512   6.579   2.590   2.897
 6871SOL    HW221513   6.690   2.665   2.990
 6872SOL     OW21514   1.578   4.479   1.095
 6872SOL    HW121515   1.526   4.490   1.011
 6872SOL    HW221516   1.582   4.567   1.144
 6873SOL     OW21517   0.565   4.273   2.814
 6873SOL    HW121518   0.553   4.263   2.913
 6873SOL    HW221519   0.518   4.198   2.768
 6874SOL     OW21520   4.613   6.408   2.221
 6874SOL    HW121521   4.629   6.345   2.145
 6874SOL    HW221522   4.574   6.357   2.298
 6875SOL     OW21523   2.698   0.824   6.591
 6875SOL    HW121524   2.752   0.741   6.602
 6875SOL    HW221525   2.743   0.899   6.639
 6876SOL     OW21526   5.630   5.033   3.161
 6876SOL    HW121527   5.586   5.122   3.169
 6876SOL    HW221528   5.702   5.038   3.092
 6877SOL     OW21529   0.549   4.578   1.350
 6877SOL    HW121530   0.635   4.594   1.399
 6877SOL    HW221531   0.513   4.665   1.318
 6878SOL     OW21532   2.313   0.657   4.384
 6878SOL    HW121533   2.250   0.585   4.412
 6878SOL    HW221534   2.407   0.622   4.389
 6879SOL     OW21535   1.331   1.588   1.458
 6879SOL    HW121536   1.282   1.653   1.401
 6879SOL    HW221537   1.314   1.495   1.424
 6880SOL     OW21538   1.954   6.504   0.702
 6880SOL    HW121539   1.892   6.427   0.720
 6880SOL    HW221540   1.928   6.581   0.760
 6881SOL     OW21541   6.987   3.936   0.156
 6881SOL    HW121542   6.930   3.863   0.117
 6881SOL    HW221543   0.037   3.898   0.226
 6882SOL     OW21544   2.741   6.522   0.259
 6882SOL    HW121545   2.671   6.546   0.326
 6882SOL    HW221546   2.705   6.533   0.167
 6883SOL     OW21547   4.978   0.420   1.144
 6883SOL    HW121548   4.936   0.433   1.234
 6883SOL    HW221549   4.911   0.440   1.072
 6884SOL     OW21550   2.182   4.684   3.636
 6884SOL    HW121551   2.092   4.671   3.678
 6884SOL    HW221552   2.196   4.781   3.616
 6885SOL     OW21553   5.605   5.170   4.728
 6885SOL    HW121554   5.615   5.085   4.780
 6885SOL    HW221555   5.508   5.191   4.716
 6886SOL     OW21556   5.403   3.211   0.160
 6886SOL    HW121557   5.401   3.151   0.240
 6886SOL    HW221558   5.324   3.191   0.101
 6887SOL     OW21559   5.579   6.564   5.636
 6887SOL    HW121560   5.527   6.482   5.613
 6887SOL    HW221561   5.539   6.609   5.716
 6888SOL     OW21562   6.664   4.218   0.403
 6888SOL    HW121563   6.732   4.196   0.334
 6888SOL    HW221564   6.579   4.168   0.385
 6889SOL     OW21565   0.050   2.195   5.811
 6889SOL    HW121566   0.021   2.100   5.817
 6889SOL    HW221567   6.985   2.251   5.778
 6890SOL     OW21568   4.884   4.570   3.998
 6890SOL    HW121569   4.795   4.601   4.031
 6890SOL    HW221570   4.911   4.625   3.918
 6891SOL     OW21571   1.969   1.424   0.828
 6891SOL    HW121572   2.014   1.446   0.741
 6891SOL    HW221573   2.034   1.437   0.903
 6892SOL     OW21574   2.442   0.815   4.946
 6892SOL    HW121575   2.466   0.874   5.023
 6892SOL    HW221576   2.348   0.834   4.917
 6893SOL     OW21577   5.775   2.797   0.400
 6893SOL    HW121578   5.810   2.885   0.432
 6893SOL    HW221579   5.736   2.747   0.477
 6894SOL     OW21580   5.309   4.969   0.194
 6894SOL    HW121581   5.357   4.903   0.137
 6894SOL    HW221582   5.320   5.061   0.156
 6895SOL     OW21583   0.997   5.385   2.043
 6895SOL    HW121584   1.037   5.400   2.134
 6895SOL    HW221585   1.058   5.326   1.989
 6896SOL     OW21586   5.355   1.131   6.211
 6896SOL    HW121587   5.424   1.058   6.208
 6896SOL    HW221588   5.296   1.125   6.131
 6897SOL     OW21589   4.407   2.651   5.194
 6897SOL    HW121590   4.336   2.581   5.188
 6897SOL    HW221591   4.381   2.719   5.262
 6898SOL     OW21592   1.847   6.798   1.350
 6898SOL    HW121593   1.799   6.786   1.437
 6898SOL    HW221594   1.897   6.885   1.350
 6899SOL     OW21595   5.264   5.378   2.508
 6899SOL    HW121596   5.215   5.375   2.595
 6899SOL    HW221597   5.222   5.446   2.449
 6900SOL     OW21598   6.680   3.936   4.250
 6900SOL    HW121599   6.597   3.900   4.206
 6900SOL    HW221600   6.655   3.991   4.329
 6901SOL     OW21601   4.798   4.681   5.958
 6901SOL    HW121602   4.752   4.764   5.926
 6901SOL    HW221603   4.758   4.601   5.914
 6902SOL     OW21604   0.020   5.342   5.945
 6902SOL    HW121605   0.077   5.422   5.960
 6902SOL    HW221606   0.069   5.276   5.888
 6903SOL     OW21607   1.851   6.178   5.757
 6903SOL    HW121608   1.783   6.239   5.715
 6903SOL    HW221609   1.930   6.172   5.697
 6904SOL     OW21610   0.672   0.468   5.856
 6904SOL    HW121611   0.685   0.565   5.835
 6904SOL    HW221612   0.590   0.457   5.912
 6905SOL     OW21613   4.426   6.544   5.373
 6905SOL    HW121614   4.408   6.632   5.329
 6905SOL    HW221615   4.497   6.495   5.322
 6906SOL     OW21616   3.034   1.278   3.778
 6906SOL    HW121617   3.003   1.201   3.834
 6906SOL    HW221618   3.022   1.363   3.828
 6907SOL     OW21619   5.476   2.512   0.634
 6907SOL    HW121620   5.384   2.494   0.599
 6907SOL    HW221621   5.542   2.458   0.582
 6908SOL     OW21622   3.848   6.212   0.558
 6908SOL    HW121623   3.942   6.216   0.592
 6908SOL    HW221624   3.835   6.280   0.485
 6909SOL     OW21625   5.881   4.163   1.840
 6909SOL    HW121626   5.794   4.114   1.834
 6909SOL    HW221627   5.948   4.108   1.891
 6910SOL     OW21628   1.204   2.487   1.975
 6910SOL    HW121629   1.188   2.405   2.031
 6910SOL    HW221630   1.145   2.561   2.008
 6911SOL     OW21631   2.785   6.361   5.252
 6911SOL    HW121632   2.847   6.330   5.324
 6911SOL    HW221633   2.788   6.461   5.246
 6912SOL     OW21634   3.495   4.406   6.821
 6912SOL    HW121635   3.528   4.400   6.727
 6912SOL    HW221636   3.503   4.501   6.853
 6913SOL     OW21637   4.000   5.698   5.873
 6913SOL    HW121638   3.910   5.735   5.849
 6913SOL    HW221639   4.009   5.695   5.972
 6914SOL     OW21640   0.103   2.240   2.987
 6914SOL    HW121641   0.016   2.194   3.004
 6914SOL    HW221642   0.169   2.212   3.057
 6915SOL     OW21643   0.016   3.427   3.856
 6915SOL    HW121644   0.043   3.331   3.867
 6915SOL    HW221645   0.023   3.474   3.944
 6916SOL     OW21646   4.356   6.433   5.614
 6916SOL    HW121647   4.380   6.464   5.522
 6916SOL    HW221648   4.388   6.339   5.626
 6917SOL     OW21649   3.750   6.108   2.181
 6917SOL    HW121650   3.759   6.024   2.235
 6917SOL    HW221651   3.820   6.174   2.210
 6918SOL     OW21652   1.716   3.763   0.228
 6918SOL    HW121653   1.798   3.712   0.201
 6918SOL    HW221654   1.724   3.858   0.197
 6919SOL     OW21655   6.592   5.790   3.174
 6919SOL    HW121656   6.495   5.794   3.196
 6919SOL    HW221657   6.644   5.843   3.242
 6920SOL     OW21658   0.050   2.684   5.519
 6920SOL    HW121659   6.996   2.750   5.557
 6920SOL    HW221660   0.139   2.695   5.563
 6921SOL     OW21661   2.935   0.368   4.366
 6921SOL    HW121662   2.989   0.307   4.308
 6921SOL    HW221663   2.850   0.322   4.393
 6922SOL     OW21664   2.941   4.884   6.787
 6922SOL    HW121665   2.911   4.914   6.697
 6922SOL    HW221666   2.946   4.784   6.788
 6923SOL     OW21667   5.104   0.110   3.130
 6923SOL    HW121668   5.190   0.147   3.166
 6923SOL    HW221669   5.070   0.169   3.057
 6924SOL     OW21670   2.889   5.205   1.918
 6924SOL    HW121671   2.971   5.234   1.967
 6924SOL    HW221672   2.854   5.120   1.958
 6925SOL     OW21673   6.616   6.347   4.719
 6925SOL    HW121674   6.663   6.306   4.797
 6925SOL    HW221675   6.518   6.353   4.738
 6926SOL     OW21676   2.826   2.140   0.564
 6926SOL    HW121677   2.923   2.117   0.573
 6926SOL    HW221678   2.799   2.200   0.640
 6927SOL     OW21679   3.262   0.552   6.621
 6927SOL    HW121680   3.180   0.543   6.677
 6927SOL    HW221681   3.237   0.562   6.525
 6928SOL     OW21682   4.004   5.936   0.528
 6928SOL    HW121683   4.037   5.955   0.436
 6928SOL    HW221684   3.905   5.946   0.531
 6929SOL     OW21685   4.649   5.281   2.999
 6929SOL    HW121686   4.581   5.352   2.980
 6929SOL    HW221687   4.663   5.273   3.097
 6930SOL     OW21688   0.894   6.218   1.691
 6930SOL    HW121689   0.971   6.269   1.730
 6930SOL    HW221690   0.927   6.158   1.618
 6931SOL     OW21691   3.278   3.232   0.926
 6931SOL    HW121692   3.371   3.252   0.895
 6931SOL    HW221693   3.277   3.144   0.974
 6932SOL     OW21694   4.310   0.649   6.869
 6932SOL    HW121695   4.259   0.565   6.885
 6932SOL    HW221696   4.259   0.727   6.905
 6933SOL     OW21697   3.255   6.157   6.198
 6933SOL    HW121698   3.205   6.232   6.243
 6933SOL    HW221699   3.208   6.132   6.113
 6934SOL     OW21700   5.032   4.951   0.187
 6934SOL    HW121701   5.129   4.963   0.169
 6934SOL    HW221702   4.998   5.026   0.244
 6935SOL     OW21703   4.395   5.970   1.914
 6935SOL    HW121704   4.327   5.918   1.861
 6935SOL    HW221705   4.459   6.013   1.851
 6936SOL     OW21706   1.073   1.952   6.872
 6936SOL    HW121707   1.034   2.019   6.809
 6936SOL    HW221708   1.163   1.982   6.901
 6937SOL     OW21709   5.491   4.768   0.393
 6937SOL    HW121710   5.399   4.738   0.371
 6937SOL    HW221711   5.492   4.868   0.403
 6938SOL     OW21712   3.621   0.364   4.865
 6938SOL    HW121713   3.617   0.309   4.949
 6938SOL    HW221714   3.625   0.302   4.786
 6939SOL     OW21715   5.440   2.835   3.389
 6939SOL    HW121716   5.465   2.738   3.393
 6939SOL    HW221717   5.514   2.890   3.428
 6940SOL     OW21718   2.287   6.488   1.604
 6940SOL    HW121719   2.272   6.430   1.684
 6940SOL    HW221720   2.200   6.527   1.574
 6941SOL     OW21721   3.577   2.937   2.631
 6941SOL    HW121722   3.654   2.891   2.586
 6941SOL    HW221723   3.569   3.030   2.596
 6942SOL     OW21724   6.328   4.801   3.249
 6942SOL    HW121725   6.356   4.826   3.342
 6942SOL    HW221726   6.342   4.703   3.235
 6943SOL     OW21727   3.598   5.466   5.406
 6943SOL    HW121728   3.638   5.500   5.321
 6943SOL    HW221729   3.671   5.435   5.467
 6944SOL     OW21730   0.460   5.008   4.899
 6944SOL    HW121731   0.530   4.965   4.841
 6944SOL    HW221732   0.505   5.058   4.973
 6945SOL     OW21733   4.407   1.396   0.572
 6945SOL    HW121734   4.336   1.325   0.575
 6945SOL    HW221735   4.419   1.428   0.478
 6946SOL     OW21736   5.626   6.071   2.610
 6946SOL    HW121737   5.661   6.092   2.518
 6946SOL    HW221738   5.546   6.011   2.602
 6947SOL     OW21739   6.008   4.198   5.230
 6947SOL    HW121740   6.003   4.119   5.291
 6947SOL    HW221741   6.098   4.201   5.188
 6948SOL     OW21742   6.925   4.705   6.604
 6948SOL    HW121743   6.941   4.618   6.650
 6948SOL    HW221744   6.827   4.727   6.607
 6949SOL     OW21745   2.706   1.223   3.030
 6949SOL    HW121746   2.676   1.286   2.959
 6949SOL    HW221747   2.675   1.131   3.008
 6950SOL     OW21748   1.962   1.248   3.721
 6950SOL    HW121749   1.940   1.165   3.670
 6950SOL    HW221750   1.965   1.228   3.819
 6951SOL     OW21751   1.284   3.718   0.075
 6951SOL    HW121752   1.306   3.682   6.995
 6951SOL    HW221753   1.359   3.699   0.138
 6952SOL     OW21754   4.178   5.783   3.336
 6952SOL    HW121755   4.174   5.696   3.384
 6952SOL    HW221756   4.274   5.806   3.318
 6953SOL     OW21757   0.203   1.244   1.771
 6953SOL    HW121758   0.209   1.161   1.827
 6953SOL    HW221759   0.219   1.221   1.675
 6954SOL     OW21760   6.365   4.814   5.816
 6954SOL    HW121761   6.455   4.855   5.802
 6954SOL    HW221762   6.358   4.729   5.764
 6955SOL     OW21763   4.491   5.767   2.510
 6955SOL    HW121764   4.434   5.737   2.587
 6955SOL    HW221765   4.453   5.731   2.425
 6956SOL     OW21766   5.623   4.913   1.381
 6956SOL    HW121767   5.535   4.939   1.343
 6956SOL    HW221768   5.654   4.984   1.444
 6957SOL     OW21769   6.150   4.518   4.954
 6957SOL    HW121770   6.054   4.524   4.981
 6957SOL    HW221771   6.202   4.467   5.023
 6958SOL     OW21772   3.352   3.735   2.245
 6958SOL    HW121773   3.355   3.636   2.230
 6958SOL    HW221774   3.395   3.756   2.333
 6959SOL     OW21775   1.354   4.070   2.466
 6959SOL    HW121776   1.394   4.114   2.386
 6959SOL    HW221777   1.273   4.120   2.495
 6960SOL     OW21778   5.146   4.736   1.472
 6960SOL    HW121779   5.093   4.652   1.460
 6960SOL    HW221780   5.083   4.814   1.480
 6961SOL     OW21781   5.384   2.406   4.684
 6961SOL    HW121782   5.329   2.323   4.696
 6961SOL    HW221783   5.374   2.465   4.764
 6962SOL     OW21784   2.479   6.283   0.595
 6962SOL    HW121785   2.441   6.267   0.504
 6962SOL    HW221786   2.572   6.319   0.586
 6963SOL     OW21787   0.808   6.606   6.407
 6963SOL    HW121788   0.797   6.507   6.397
 6963SOL    HW221789   0.842   6.625   6.499
 6964SOL     OW21790   2.173   1.772   4.906
 6964SOL    HW121791   2.189   1.839   4.978
 6964SOL    HW221792   2.216   1.685   4.931
 6965SOL     OW21793   1.741   1.342   6.915
 6965SOL    HW121794   1.686   1.336   6.998
 6965SOL    HW221795   1.812   1.410   6.927
 6966SOL     OW21796   1.715   6.726   1.079
 6966SOL    HW121797   1.665   6.737   1.165
 6966SOL    HW221798   1.810   6.700   1.099
 6967SOL     OW21799   3.700   0.152   6.658
 6967SOL    HW121800   3.761   0.188   6.729
 6967SOL    HW221801   3.622   0.212   6.647
 6968SOL     OW21802   3.265   0.617   2.228
 6968SOL    HW121803   3.267   0.646   2.132
 6968SOL    HW221804   3.311   0.528   2.236
 6969SOL     OW21805   1.524   2.872   2.695
 6969SOL    HW121806   1.557   2.779   2.682
 6969SOL    HW221807   1.549   2.928   2.616
 6970SOL     OW21808   3.310   6.273   5.807
 6970SOL    HW121809   3.310   6.330   5.725
 6970SOL    HW221810   3.259   6.189   5.790
 6971SOL     OW21811   6.512   4.111   6.596
 6971SOL    HW121812   6.605   4.085   6.569
 6971SOL    HW221813   6.447   4.049   6.554
 6972SOL     OW21814   5.700   3.850   1.665
 6972SOL    HW121815   5.778   3.798   1.631
 6972SOL    HW221816   5.615   3.802   1.641
 6973SOL     OW21817   1.001   1.555   3.230
 6973SOL    HW121818   0.920   1.608   3.257
 6973SOL    HW221819   1.070   1.617   3.192
 6974SOL     OW21820   4.050   3.233   2.620
 6974SOL    HW121821   4.074   3.137   2.637
 6974SOL    HW221822   3.976   3.237   2.552
 6975SOL     OW21823   3.057   5.660   4.839
 6975SOL    HW121824   3.064   5.759   4.837
 6975SOL    HW221825   3.004   5.632   4.918
 6976SOL     OW21826   4.613   5.265   6.223
 6976SOL    HW121827   4.649   5.171   6.222
 6976SOL    HW221828   4.517   5.263   6.252
 6977SOL     OW21829   4.812   4.651   2.688
 6977SOL    HW121830   4.861   4.581   2.741
 6977SOL    HW221831   4.797   4.619   2.595
 6978SOL     OW21832   1.119   4.031   0.919
 6978SOL    HW121833   1.176   3.964   0.872
 6978SOL    HW221834   1.123   4.119   0.870
 6979SOL     OW21835   1.292   3.685   3.030
 6979SOL    HW121836   1.210   3.716   2.983
 6979SOL    HW221837   1.287   3.587   3.046
 6980SOL     OW21838   2.085   4.521   3.002
 6980SOL    HW121839   2.171   4.568   2.981
 6980SOL    HW221840   2.042   4.490   2.917
 6981SOL     OW21841   4.121   2.431   6.906
 6981SOL    HW121842   4.038   2.455   6.856
 6981SOL    HW221843   4.172   2.361   6.855
 6982SOL     OW21844   6.434   0.564   1.922
 6982SOL    HW121845   6.367   0.492   1.938
 6982SOL    HW221846   6.526   0.524   1.922
 6983SOL     OW21847   0.076   0.102   4.066
 6983SOL    HW121848   0.040   0.173   4.126
 6983SOL    HW221849   0.175   0.096   4.077
 6984SOL     OW21850   2.018   4.506   3.442
 6984SOL    HW121851   1.963   4.470   3.366
 6984SOL    HW221852   2.114   4.481   3.429
 6985SOL     OW21853   5.063   3.347   0.810
 6985SOL    HW121854   5.086   3.405   0.732
 6985SOL    HW221855   5.117   3.263   0.807
 6986SOL     OW21856   3.486   5.810   5.208
 6986SOL    HW121857   3.526   5.743   5.144
 6986SOL    HW221858   3.509   5.784   5.301
 6987SOL     OW21859   6.831   1.086   6.853
 6987SOL    HW121860   6.868   1.155   6.915
 6987SOL    HW221861   6.732   1.080   6.865
 6988SOL     OW21862   2.378   0.607   5.640
 6988SOL    HW121863   2.319   0.679   5.602
 6988SOL    HW221864   2.321   0.539   5.686
 6989SOL     OW21865   0.644   3.542   2.290
 6989SOL    HW121866   0.596   3.607   2.232
 6989SOL    HW221867   0.734   3.523   2.251
 6990SOL     OW21868   3.724   4.018   6.867
 6990SOL    HW121869   3.669   4.038   6.785
 6990SOL    HW221870   3.752   4.104   6.909
 6991SOL     OW21871   5.301   3.959   3.582
 6991SOL    HW121872   5.227   4.024   3.567
 6991SOL    HW221873   5.304   3.894   3.506
 6992SOL     OW21874   2.037   5.087   6.094
 6992SOL    HW121875   1.958   5.130   6.051
 6992SOL    HW221876   2.044   4.992   6.063
 6993SOL     OW21877   4.269   2.347   1.826
 6993SOL    HW121878   4.215   2.412   1.773
 6993SOL    HW221879   4.215   2.315   1.904
 6994SOL     OW21880   2.623   1.342   2.808
 6994SOL    HW121881   2.712   1.388   2.800
 6994SOL    HW221882   2.555   1.391   2.754
 6995SOL     OW21883   7.001   4.408   0.750
 6995SOL    HW121884   0.032   4.368   0.669
 6995SOL    HW221885   7.004   4.342   0.825
 6996SOL     OW21886   1.037   1.469   6.341
 6996SOL    HW121887   1.099   1.393   6.329
 6996SOL    HW221888   0.985   1.484   6.257
 6997SOL     OW21889   5.947   6.149   6.015
 6997SOL    HW121890   6.001   6.086   5.961
 6997SOL    HW221891   6.008   6.208   6.069
 6998SOL     OW21892   0.398   0.443   0.115
 6998SOL    HW121893   0.494   0.430   0.089
 6998SOL    HW221894   0.393   0.473   0.211
 6999SOL     OW21895   6.927   2.789   6.850
 6999SOL    HW121896   6.876   2.773   6.934
 6999SOL    HW221897   6.866   2.779   6.771
 7000SOL     OW21898   0.740   5.280   3.771
 7000SOL    HW121899   0.656   5.334   3.763
 7000SOL    HW221900   0.812   5.337   3.811
 7001SOL     OW21901   0.489   1.348   3.678
 7001SOL    HW121902   0.415   1.344   3.610
 7001SOL    HW221903   0.561   1.283   3.652
 7002SOL     OW21904   1.166   4.590   2.601
 7002SOL    HW121905   1.190   4.575   2.698
 7002SOL    HW221906   1.137   4.684   2.588
 7003SOL     OW21907   0.739   5.427   6.149
 7003SOL    HW121908   0.785   5.380   6.225
 7003SOL    HW221909   0.710   5.518   6.180
 7004SOL     OW21910   1.542   0.743   6.554
 7004SOL    HW121911   1.480   0.751   6.476
 7004SOL    HW221912   1.504   0.678   6.620
 7005SOL     OW21913   1.845   5.582   0.330
 7005SOL    HW121914   1.891   5.496   0.312
 7005SOL    HW221915   1.827   5.591   0.428
 7006SOL     OW21916   0.926   0.579   3.612
 7006SOL    HW121917   0.881   0.651   3.561
 7006SOL    HW221918   0.962   0.616   3.697
 7007SOL     OW21919   1.965   0.279   6.254
 7007SOL    HW121920   2.039   0.324   6.305
 7007SOL    HW221921   2.004   0.223   6.182
 7008SOL     OW21922   5.234   3.034   2.650
 7008SOL    HW121923   5.157   3.033   2.714
 7008SOL    HW221924   5.297   3.107   2.675
 7009SOL     OW21925   5.282   6.205   2.300
 7009SOL    HW121926   5.332   6.292   2.300
 7009SOL    HW221927   5.299   6.157   2.386
 7010SOL     OW21928   5.158   3.468   2.435
 7010SOL    HW121929   5.095   3.529   2.388
 7010SOL    HW221930   5.215   3.421   2.369
 7011SOL     OW21931   2.474   6.383   6.194
 7011SOL    HW121932   2.451   6.290   6.220
 7011SOL    HW221933   2.469   6.442   6.275
 7012SOL     OW21934   0.245   4.130   0.671
 7012SOL    HW121935   0.168   4.066   0.677
 7012SOL    HW221936   0.280   4.148   0.763
 7013SOL     OW21937   3.044   2.679   0.304
 7013SOL    HW121938   3.122   2.733   0.272
 7013SOL    HW221939   2.960   2.732   0.292
 7014SOL     OW21940   6.390   3.229   0.324
 7014SOL    HW121941   6.403   3.254   0.228
 7014SOL    HW221942   6.298   3.192   0.336
 7015SOL     OW21943   5.948   6.631   0.913
 7015SOL    HW121944   5.993   6.559   0.862
 7015SOL    HW221945   5.975   6.720   0.876
 7016SOL     OW21946   3.469   5.266   1.012
 7016SOL    HW121947   3.403   5.220   1.071
 7016SOL    HW221948   3.556   5.218   1.014
 7017SOL     OW21949   6.265   4.571   6.541
 7017SOL    HW121950   6.331   4.497   6.552
 7017SOL    HW221951   6.268   4.605   6.447
 7018SOL     OW21952   5.603   3.107   5.132
 7018SOL    HW121953   5.593   3.201   5.101
 7018SOL    HW221954   5.659   3.105   5.215
 7019SOL     OW21955   3.913   5.658   1.910
 7019SOL    HW121956   3.864   5.609   1.982
 7019SOL    HW221957   3.911   5.756   1.928
 7020SOL     OW21958   0.387   1.710   0.760
 7020SOL    HW121959   0.477   1.711   0.805
 7020SOL    HW221960   0.349   1.803   0.759
 7021SOL     OW21961   0.575   1.649   4.886
 7021SOL    HW121962   0.616   1.706   4.957
 7021SOL    HW221963   0.530   1.707   4.818
 7022SOL     OW21964   1.922   3.741   0.967
 7022SOL    HW121965   1.909   3.677   0.892
 7022SOL    HW221966   2.009   3.723   1.013
 7023SOL     OW21967   0.101   1.910   1.172
 7023SOL    HW121968   0.078   1.965   1.092
 7023SOL    HW221969   0.080   1.814   1.155
 7024SOL     OW21970   3.675   4.042   5.359
 7024SOL    HW121971   3.718   3.981   5.292
 7024SOL    HW221972   3.676   3.998   5.449
 7025SOL     OW21973   2.751   0.933   1.072
 7025SOL    HW121974   2.829   0.990   1.099
 7025SOL    HW221975   2.730   0.868   1.146
 7026SOL     OW21976   2.765   2.159   0.916
 7026SOL    HW121977   2.753   2.235   0.852
 7026SOL    HW221978   2.774   2.074   0.864
 7027SOL     OW21979   3.202   4.611   1.125
 7027SOL    HW121980   3.114   4.594   1.171
 7027SOL    HW221981   3.188   4.678   1.052
 7028SOL     OW21982   3.442   0.214   3.175
 7028SOL    HW121983   3.537   0.226   3.203
 7028SOL    HW221984   3.382   0.230   3.254
 7029SOL     OW21985   3.327   4.135   3.626
 7029SOL    HW121986   3.328   4.152   3.725
 7029SOL    HW221987   3.420   4.140   3.590
 7030SOL     OW21988   6.342   6.629   5.087
 7030SOL    HW121989   6.302   6.701   5.143
 7030SOL    HW221990   6.440   6.621   5.109
 7031SOL     OW21991   5.408   5.342   0.704
 7031SOL    HW121992   5.369   5.432   0.688
 7031SOL    HW221993   5.342   5.284   0.752
 7032SOL     OW21994   4.263   5.300   4.538
 7032SOL    HW121995   4.169   5.298   4.572
 7032SOL    HW221996   4.295   5.206   4.524
 7033SOL     OW21997   2.373   2.115   5.209
 7033SOL    HW121998   2.339   2.143   5.299
 7033SOL    HW221999   2.433   2.187   5.173
 7034SOL     OW22000   6.800   1.904   2.299
 7034SOL    HW122001   6.762   1.862   2.217
 7034SOL    HW222002   6.760   1.995   2.311
 7035SOL     OW22003   2.577   2.344   1.070
 7035SOL    HW122004   2.596   2.370   0.975
 7035SOL    HW222005   2.649   2.281   1.102
 7036SOL     OW22006   6.423   1.892   1.730
 7036SOL    HW122007   6.397   1.906   1.635
 7036SOL    HW222008   6.345   1.853   1.780
 7037SOL     OW22009   1.288   0.707   6.080
 7037SOL    HW122010   1.241   0.632   6.127
 7037SOL    HW222011   1.223   0.754   6.020
 7038SOL     OW22012   0.705   4.994   0.291
 7038SOL    HW122013   0.792   4.948   0.278
 7038SOL    HW222014   0.649   4.942   0.356
 7039SOL     OW22015   6.639   0.093   1.349
 7039SOL    HW122016   6.661   0.179   1.396
 7039SOL    HW222017   6.544   0.069   1.368
 7040SOL     OW22018   5.340   3.073   4.938
 7040SOL    HW122019   5.433   3.081   4.903
 7040SOL    HW222020   5.331   2.988   4.990
 7041SOL     OW22021   1.053   0.272   4.078
 7041SOL    HW122022   1.076   0.201   4.145
 7041SOL    HW222023   0.994   0.233   4.008
 7042SOL     OW22024   5.701   6.021   5.033
 7042SOL    HW122025   5.722   5.969   4.950
 7042SOL    HW222026   5.607   6.002   5.061
 7043SOL     OW22027   1.977   6.155   0.737
 7043SOL    HW122028   2.040   6.171   0.661
 7043SOL    HW222029   1.975   6.057   0.759
 7044SOL     OW22030   4.328   6.267   5.122
 7044SOL    HW122031   4.318   6.184   5.177
 7044SOL    HW222032   4.258   6.334   5.150
 7045SOL     OW22033   5.783   6.638   1.689
 7045SOL    HW122034   5.829   6.570   1.631
 7045SOL    HW222035   5.800   6.730   1.653
 7046SOL     OW22036   2.778   1.326   2.534
 7046SOL    HW122037   2.843   1.396   2.502
 7046SOL    HW222038   2.822   1.270   2.604
 7047SOL     OW22039   1.660   0.104   0.877
 7047SOL    HW122040   1.717   0.117   0.958
 7047SOL    HW222041   1.579   0.052   0.901
 7048SOL     OW22042   0.527   5.759   3.999
 7048SOL    HW122043   0.485   5.848   3.978
 7048SOL    HW222044   0.545   5.710   3.913
 7049SOL     OW22045   3.006   1.444   4.752
 7049SOL    HW122046   3.072   1.488   4.691
 7049SOL    HW222047   2.938   1.511   4.782
 7050SOL     OW22048   4.035   4.301   1.207
 7050SOL    HW122049   4.097   4.380   1.203
 7050SOL    HW222050   3.942   4.333   1.227
 7051SOL     OW22051   1.724   1.385   2.142
 7051SOL    HW122052   1.682   1.426   2.061
 7051SOL    HW222053   1.777   1.305   2.115
 7052SOL     OW22054   5.352   2.580   3.145
 7052SOL    HW122055   5.366   2.501   3.086
 7052SOL    HW222056   5.346   2.663   3.089
 7053SOL     OW22057   1.330   4.526   3.619
 7053SOL    HW122058   1.408   4.585   3.598
 7053SOL    HW222059   1.362   4.447   3.671
 7054SOL     OW22060   5.216   0.276   0.253
 7054SOL    HW122061   5.312   0.249   0.261
 7054SOL    HW222062   5.164   0.202   0.211
 7055SOL     OW22063   2.168   0.406   0.088
 7055SOL    HW122064   2.245   0.379   0.030
 7055SOL    HW222065   2.187   0.380   0.183
 7056SOL     OW22066   6.677   5.251   0.591
 7056SOL    HW122067   6.700   5.154   0.598
 7056SOL    HW222068   6.636   5.283   0.676
 7057SOL     OW22069   3.162   5.399   4.497
 7057SOL    HW122070   3.150   5.323   4.433
 7057SOL    HW222071   3.094   5.392   4.570
 7058SOL     OW22072   5.980   2.232   6.417
 7058SOL    HW122073   6.052   2.167   6.440
 7058SOL    HW222074   5.977   2.245   6.318
 7059SOL     OW22075   1.895   1.096   5.049
 7059SOL    HW122076   1.908   1.135   4.958
 7059SOL    HW222077   1.976   1.043   5.075
 7060SOL     OW22078   2.889   2.255   1.719
 7060SOL    HW122079   2.975   2.278   1.673
 7060SOL    HW222080   2.871   2.322   1.791
 7061SOL     OW22081   2.025   0.613   1.364
 7061SOL    HW122082   1.987   0.532   1.408
 7061SOL    HW222083   2.059   0.590   1.273
 7062SOL     OW22084   3.753   0.864   5.020
 7062SOL    HW122085   3.787   0.774   4.994
 7062SOL    HW222086   3.710   0.859   5.110
 7063SOL     OW22087   0.274   1.164   1.514
 7063SOL    HW122088   0.265   1.235   1.445
 7063SOL    HW222089   0.371   1.149   1.534
 7064SOL     OW22090   2.989   1.438   5.147
 7064SOL    HW122091   3.015   1.467   5.239
 7064SOL    HW222092   2.977   1.339   5.146
 7065SOL     OW22093   3.361   6.607   4.447
 7065SOL    HW122094   3.304   6.630   4.368
 7065SOL    HW222095   3.449   6.654   4.440
 7066SOL     OW22096   3.982   0.979   1.329
 7066SOL    HW122097   3.953   1.005   1.421
 7066SOL    HW222098   4.070   0.933   1.333
 7067SOL     OW22099   2.450   4.530   6.641
 7067SOL    HW122100   2.439   4.430   6.639
 7067SOL    HW222101   2.402   4.570   6.563
 7068SOL     OW22102   4.902   4.368   3.655
 7068SOL    HW122103   4.837   4.346   3.729
 7068SOL    HW222104   4.862   4.341   3.568
 7069SOL     OW22105   4.386   0.699   4.977
 7069SOL    HW122106   4.460   0.766   4.984
 7069SOL    HW222107   4.399   0.628   5.046
 7070SOL     OW22108   6.882   0.845   5.872
 7070SOL    HW122109   6.873   0.895   5.958
 7070SOL    HW222110   6.861   0.748   5.887
 7071SOL     OW22111   4.377   5.327   6.571
 7071SOL    HW122112   4.316   5.286   6.640
 7071SOL    HW222113   4.380   5.426   6.584
 7072SOL     OW22114   0.633   4.000   6.298
 7072SOL    HW122115   0.636   3.901   6.290
 7072SOL    HW222116   0.635   4.026   6.395
 7073SOL     OW22117   4.173   0.856   3.655
 7073SOL    HW122118   4.197   0.770   3.611
 7073SOL    HW222119   4.079   0.879   3.634
 7074SOL     OW22120   6.345   3.644   1.722
 7074SOL    HW122121   6.362   3.546   1.735
 7074SOL    HW222122   6.316   3.660   1.627
 7075SOL     OW22123   2.297   5.384   2.252
 7075SOL    HW122124   2.226   5.338   2.305
 7075SOL    HW222125   2.270   5.387   2.156
 7076SOL     OW22126   5.538   2.524   0.934
 7076SOL    HW122127   5.513   2.580   0.855
 7076SOL    HW222128   5.598   2.450   0.906
 7077SOL     OW22129   3.611   5.990   1.449
 7077SOL    HW122130   3.669   6.055   1.400
 7077SOL    HW222131   3.630   5.995   1.547
 7078SOL     OW22132   0.126   1.709   6.519
 7078SOL    HW122133   0.090   1.650   6.591
 7078SOL    HW222134   0.129   1.659   6.433
 7079SOL     OW22135   2.112   5.413   5.505
 7079SOL    HW122136   2.194   5.458   5.470
 7079SOL    HW222137   2.081   5.344   5.439
 7080SOL     OW22138   3.958   1.664   5.940
 7080SOL    HW122139   4.005   1.744   5.978
 7080SOL    HW222140   3.887   1.634   6.004
 7081SOL     OW22141   2.078   6.432   0.478
 7081SOL    HW122142   2.055   6.506   0.415
 7081SOL    HW222143   2.054   6.459   0.571
 7082SOL     OW22144   1.099   4.715   2.209
 7082SOL    HW122145   1.006   4.722   2.172
 7082SOL    HW222146   1.100   4.753   2.301
 7083SOL     OW22147   5.661   3.173   2.398
 7083SOL    HW122148   5.593   3.229   2.445
 7083SOL    HW222149   5.628   3.078   2.393
 7084SOL     OW22150   1.061   5.213   0.546
 7084SOL    HW122151   0.965   5.219   0.518
 7084SOL    HW222152   1.093   5.304   0.572
 7085SOL     OW22153   0.342   4.009   2.287
 7085SOL    HW122154   0.381   3.947   2.354
 7085SOL    HW222155   0.278   4.071   2.332
 7086SOL     OW22156   4.527   0.781   3.613
 7086SOL    HW122157   4.464   0.785   3.535
 7086SOL    HW222158   4.519   0.692   3.658
 7087SOL     OW22159   5.108   2.840   3.747
 7087SOL    HW122160   5.183   2.859   3.684
 7087SOL    HW222161   5.059   2.759   3.717
 7088SOL     OW22162   6.031   2.533   4.951
 7088SOL    HW122163   5.987   2.498   5.034
 7088SOL    HW222164   6.124   2.497   4.944
 7089SOL     OW22165   2.873   6.122   1.122
 7089SOL    HW122166   2.892   6.123   1.024
 7089SOL    HW222167   2.908   6.037   1.162
 7090SOL     OW22168   5.013   3.684   1.234
 7090SOL    HW122169   4.920   3.648   1.244
 7090SOL    HW222170   5.073   3.612   1.200
 7091SOL     OW22171   6.254   0.895   6.628
 7091SOL    HW122172   6.321   0.942   6.570
 7091SOL    HW222173   6.298   0.819   6.676
 7092SOL     OW22174   3.953   6.930   6.039
 7092SOL    HW122175   3.858   6.939   6.008
 7092SOL    HW222176   3.955   6.931   6.139
 7093SOL     OW22177   4.207   2.992   0.857
 7093SOL    HW122178   4.194   3.091   0.854
 7093SOL    HW222179   4.305   2.971   0.863
 7094SOL     OW22180   4.296   0.880   4.649
 7094SOL    HW122181   4.239   0.961   4.633
 7094SOL    HW222182   4.242   0.809   4.695
 7095SOL     OW22183   2.465   4.748   3.819
 7095SOL    HW122184   2.515   4.736   3.733
 7095SOL    HW222185   2.475   4.665   3.875
 7096SOL     OW22186   6.977   5.756   0.151
 7096SOL    HW122187   0.049   5.787   0.196
 7096SOL    HW222188   6.926   5.835   0.116
 7097SOL     OW22189   4.662   2.066   2.678
 7097SOL    HW122190   4.566   2.089   2.661
 7097SOL    HW222191   4.715   2.084   2.595
 7098SOL     OW22192   0.885   1.441   2.549
 7098SOL    HW122193   0.895   1.537   2.575
 7098SOL    HW222194   0.850   1.389   2.627
 7099SOL     OW22195   3.421   1.916   4.644
 7099SOL    HW122196   3.402   1.995   4.703
 7099SOL    HW222197   3.510   1.927   4.601
 7100SOL     OW22198   0.572   4.162   1.817
 7100SOL    HW122199   0.490   4.110   1.843
 7100SOL    HW222200   0.547   4.257   1.799
 7101SOL     OW22201   2.142   5.062   4.192
 7101SOL    HW122202   2.141   5.107   4.281
 7101SOL    HW222203   2.067   4.997   4.186
 7102SOL     OW22204   5.686   1.740   2.876
 7102SOL    HW122205   5.664   1.800   2.798
 7102SOL    HW222206   5.627   1.660   2.874
 7103SOL     OW22207   5.942   3.875   4.144
 7103SOL    HW122208   5.860   3.822   4.164
 7103SOL    HW222209   6.021   3.832   4.187
 7104SOL     OW22210   5.076   2.674   4.329
 7104SOL    HW122211   5.005   2.610   4.302
 7104SOL    HW222212   5.092   2.740   4.256
 7105SOL     OW22213   3.092   3.956   1.949
 7105SOL    HW122214   3.028   3.957   2.026
 7105SOL    HW222215   3.161   3.885   1.964
 7106SOL     OW22216   2.786   2.303   2.516
 7106SOL    HW122217   2.874   2.256   2.508
 7106SOL    HW222218   2.758   2.338   2.427
 7107SOL     OW22219   4.189   0.716   0.401
 7107SOL    HW122220   4.195   0.812   0.375
 7107SOL    HW222221   4.274   0.669   0.375
 7108SOL     OW22222   3.131   6.647   2.087
 7108SOL    HW122223   3.152   6.729   2.034
 7108SOL    HW222224   3.160   6.565   2.036
 7109SOL     OW22225   2.911   4.900   5.687
 7109SOL    HW122226   2.965   4.923   5.768
 7109SOL    HW222227   2.964   4.918   5.605
 7110SOL     OW22228   2.831   5.795   5.899
 7110SOL    HW122229   2.753   5.747   5.938
 7110SOL    HW222230   2.894   5.728   5.858
 7111SOL     OW22231   6.778   0.737   4.830
 7111SOL    HW122232   6.726   0.821   4.824
 7111SOL    HW222233   6.736   0.666   4.774
 7112SOL     OW22234   6.468   5.029   5.455
 7112SOL    HW122235   6.563   4.996   5.454
 7112SOL    HW222236   6.464   5.118   5.500
 7113SOL     OW22237   3.341   0.066   5.083
 7113SOL    HW122238   3.342   0.165   5.085
 7113SOL    HW222239   3.352   0.034   4.989
 7114SOL     OW22240   5.286   4.469   0.452
 7114SOL    HW122241   5.300   4.510   0.361
 7114SOL    HW222242   5.226   4.390   0.444
 7115SOL     OW22243   4.803   2.706   5.515
 7115SOL    HW122244   4.750   2.790   5.528
 7115SOL    HW222245   4.881   2.726   5.455
 7116SOL     OW22246   6.540   5.245   4.858
 7116SOL    HW122247   6.550   5.248   4.759
 7116SOL    HW222248   6.554   5.337   4.896
 7117SOL     OW22249   4.221   0.218   3.135
 7117SOL    HW122250   4.230   0.203   3.234
 7117SOL    HW222251   4.137   0.269   3.117
 7118SOL     OW22252   4.438   4.185   5.731
 7118SOL    HW122253   4.484   4.271   5.708
 7118SOL    HW222254   4.468   4.154   5.821
 7119SOL     OW22255   2.768   6.784   4.416
 7119SOL    HW122256   2.686   6.788   4.473
 7119SOL    HW222257   2.820   6.868   4.426
 7120SOL     OW22258   4.463   1.668   2.466
 7120SOL    HW122259   4.444   1.625   2.378
 7120SOL    HW222260   4.406   1.750   2.476
 7121SOL     OW22261   1.204   6.015   1.857
 7121SOL    HW122262   1.247   6.096   1.895
 7121SOL    HW222263   1.108   6.010   1.887
 7122SOL     OW22264   3.150   1.968   6.517
 7122SOL    HW122265   3.190   1.912   6.444
 7122SOL    HW222266   3.113   1.909   6.588
 7123SOL     OW22267   5.140   4.541   6.841
 7123SOL    HW122268   5.068   4.504   6.783
 7123SOL    HW222269   5.229   4.511   6.808
 7124SOL     OW22270   2.930   2.886   6.516
 7124SOL    HW122271   2.924   2.837   6.603
 7124SOL    HW222272   3.015   2.861   6.469
 7125SOL     OW22273   0.907   6.340   1.414
 7125SOL    HW122274   0.889   6.256   1.465
 7125SOL    HW222275   1.005   6.348   1.396
 7126SOL     OW22276   3.982   4.878   1.119
 7126SOL    HW122277   3.888   4.871   1.088
 7126SOL    HW222278   4.019   4.786   1.134
 7127SOL     OW22279   3.086   6.750   5.440
 7127SOL    HW122280   3.134   6.704   5.515
 7127SOL    HW222281   3.100   6.849   5.446
 7128SOL     OW22282   3.169   4.438   0.231
 7128SOL    HW122283   3.248   4.381   0.209
 7128SOL    HW222284   3.160   4.510   0.162
 7129SOL     OW22285   7.000   1.641   0.424
 7129SOL    HW122286   0.037   1.720   0.384
 7129SOL    HW222287   0.026   1.557   0.384
 7130SOL     OW22288   3.562   0.176   3.968
 7130SOL    HW122289   3.545   0.257   4.023
 7130SOL    HW222290   3.569   0.096   4.027
 7131SOL     OW22291   2.201   1.448   2.868
 7131SOL    HW122292   2.132   1.514   2.898
 7131SOL    HW222293   2.157   1.373   2.820
 7132SOL     OW22294   5.580   4.693   1.556
 7132SOL    HW122295   5.618   4.764   1.496
 7132SOL    HW222296   5.654   4.649   1.607
 7133SOL     OW22297   3.540   5.866   2.349
 7133SOL    HW122298   3.496   5.953   2.324
 7133SOL    HW222299   3.469   5.799   2.372
 7134SOL     OW22300   4.706   4.729   0.039
 7134SOL    HW122301   4.719   4.664   6.975
 7134SOL    HW222302   4.748   4.817   0.015
 7135SOL     OW22303   2.269   4.590   1.543
 7135SOL    HW122304   2.343   4.548   1.594
 7135SOL    HW222305   2.182   4.545   1.564
 7136SOL     OW22306   1.562   2.979   2.457
 7136SOL    HW122307   1.499   3.013   2.387
 7136SOL    HW222308   1.607   2.897   2.424
 7137SOL     OW22309   1.742   0.173   2.057
 7137SOL    HW122310   1.796   0.179   2.141
 7137SOL    HW222311   1.725   0.077   2.036
 7138SOL     OW22312   6.656   3.487   0.074
 7138SOL    HW122313   6.706   3.553   0.018
 7138SOL    HW222314   6.710   3.403   0.082
 7139SOL     OW22315   5.770   5.883   1.205
 7139SOL    HW122316   5.724   5.972   1.217
 7139SOL    HW222317   5.703   5.810   1.215
 7140SOL     OW22318   0.086   5.055   0.514
 7140SOL    HW122319   0.159   5.077   0.579
 7140SOL    HW222320   0.114   4.977   0.458
 7141SOL     OW22321   2.788   1.682   0.920
 7141SOL    HW122322   2.694   1.679   0.953
 7141SOL    HW222323   2.842   1.610   0.964
 7142SOL     OW22324   4.637   6.765   5.815
 7142SOL    HW122325   4.589   6.827   5.876
 7142SOL    HW222326   4.635   6.672   5.854
 7143SOL     OW22327   3.486   2.947   5.816
 7143SOL    HW122328   3.424   2.976   5.889
 7143SOL    HW222329   3.438   2.951   5.728
 7144SOL     OW22330   6.355   1.370   5.725
 7144SOL    HW122331   6.261   1.384   5.693
 7144SOL    HW222332   6.361   1.282   5.772
 7145SOL     OW22333   6.797   2.944   6.218
 7145SOL    HW122334   6.877   2.919   6.163
 7145SOL    HW222335   6.775   3.040   6.204
 7146SOL     OW22336   0.086   1.526   4.695
 7146SOL    HW122337   0.125   1.540   4.604
 7146SOL    HW222338   0.064   1.615   4.735
 7147SOL     OW22339   6.934   6.942   0.901
 7147SOL    HW122340   0.004   6.976   0.852
 7147SOL    HW222341   6.963   6.893   0.983
 7148SOL     OW22342   5.341   6.394   0.790
 7148SOL    HW122343   5.283   6.315   0.813
 7148SOL    HW222344   5.413   6.365   0.727
 7149SOL     OW22345   5.719   4.169   6.346
 7149SOL    HW122346   5.786   4.240   6.324
 7149SOL    HW222347   5.768   4.084   6.369
 7150SOL     OW22348   2.837   2.016   0.108
 7150SOL    HW122349   2.776   1.942   0.138
 7150SOL    HW222350   2.906   2.032   0.178
 7151SOL     OW22351   5.655   2.143   0.348
 7151SOL    HW122352   5.692   2.115   0.437
 7151SOL    HW222353   5.669   2.070   0.281
 7152SOL     OW22354   5.247   0.268   5.220
 7152SOL    HW122355   5.165   0.224   5.184
 7152SOL    HW222356   5.228   0.365   5.236
 7153SOL     OW22357   5.037   5.607   0.974
 7153SOL    HW122358   5.015   5.664   1.054
 7153SOL    HW222359   5.062   5.515   1.005
 7154SOL     OW22360   5.099   0.577   1.583
 7154SOL    HW122361   5.185   0.589   1.632
 7154SOL    HW222362   5.101   0.629   1.498
 7155SOL     OW22363   2.236   0.091   1.338
 7155SOL    HW122364   2.313   0.076   1.276
 7155SOL    HW222365   2.270   0.101   1.431
 7156SOL     OW22366   6.272   3.420   4.773
 7156SOL    HW122367   6.280   3.470   4.687
 7156SOL    HW222368   6.356   3.369   4.790
 7157SOL     OW22369   6.785   3.790   4.939
 7157SOL    HW122370   6.774   3.886   4.914
 7157SOL    HW222371   6.706   3.738   4.905
 7158SOL     OW22372   4.746   0.321   3.661
 7158SOL    HW122373   4.729   0.254   3.733
 7158SOL    HW222374   4.784   0.404   3.701
 7159SOL     OW22375   0.492   6.536   3.080
 7159SOL    HW122376   0.523   6.488   2.998
 7159SOL    HW222377   0.560   6.523   3.153
 7160SOL     OW22378   5.766   6.781   2.835
 7160SOL    HW122379   5.803   6.712   2.896
 7160SOL    HW222380   5.705   6.738   2.769
 7161SOL     OW22381   3.607   3.347   1.992
 7161SOL    HW122382   3.636   3.432   1.948
 7161SOL    HW222383   3.533   3.306   1.939
 7162SOL     OW22384   0.609   6.297   0.382
 7162SOL    HW122385   0.653   6.214   0.415
 7162SOL    HW222386   0.536   6.324   0.446
 7163SOL     OW22387   6.897   6.958   0.084
 7163SOL    HW122388   6.805   6.982   0.114
 7163SOL    HW222389   6.957   0.027   0.096
 7164SOL     OW22390   1.851   6.906   6.993
 7164SOL    HW122391   1.831   6.999   0.013
 7164SOL    HW222392   1.799   6.841   0.037
 7165SOL     OW22393   4.440   2.124   6.378
 7165SOL    HW122394   4.427   2.072   6.462
 7165SOL    HW222395   4.534   2.158   6.374
 7166SOL     OW22396   6.688   6.320   4.991
 7166SOL    HW122397   6.629   6.311   5.071
 7166SOL    HW222398   6.761   6.386   5.010
 7167SOL     OW22399   0.476   3.294   5.458
 7167SOL    HW122400   0.494   3.214   5.516
 7167SOL    HW222401   0.520   3.375   5.497
 7168SOL     OW22402   1.355   0.503   2.567
 7168SOL    HW122403   1.379   0.429   2.630
 7168SOL    HW222404   1.278   0.556   2.605
 7169SOL     OW22405   1.729   4.642   5.807
 7169SOL    HW122406   1.694   4.685   5.891
 7169SOL    HW222407   1.664   4.658   5.732
 7170SOL     OW22408   3.987   2.174   1.185
 7170SOL    HW122409   3.968   2.255   1.240
 7170SOL    HW222410   3.915   2.106   1.199
 7171SOL     OW22411   0.332   5.117   1.142
 7171SOL    HW122412   0.295   5.141   1.232
 7171SOL    HW222413   0.293   5.030   1.112
 7172SOL     OW22414   0.863   2.687   3.356
 7172SOL    HW122415   0.805   2.659   3.432
 7172SOL    HW222416   0.825   2.771   3.316
 7173SOL     OW22417   3.592   5.432   4.695
 7173SOL    HW122418   3.617   5.380   4.777
 7173SOL    HW222419   3.504   5.476   4.709
 7174SOL     OW22420   6.541   3.715   1.957
 7174SOL    HW122421   6.485   3.699   2.038
 7174SOL    HW222422   6.486   3.699   1.875
 7175SOL     OW22423   6.556   3.038   5.804
 7175SOL    HW122424   6.630   3.099   5.778
 7175SOL    HW222425   6.471   3.066   5.758
 7176SOL     OW22426   6.772   1.637   6.768
 7176SOL    HW122427   6.806   1.691   6.846
 7176SOL    HW222428   6.769   1.695   6.686
 7177SOL     OW22429   1.015   5.703   3.122
 7177SOL    HW122430   0.948   5.708   3.048
 7177SOL    HW222431   1.095   5.650   3.091
 7178SOL     OW22432   1.301   6.627   5.606
 7178SOL    HW122433   1.347   6.538   5.610
 7178SOL    HW222434   1.209   6.618   5.642
 7179SOL     OW22435   4.648   4.335   5.613
 7179SOL    HW122436   4.677   4.383   5.531
 7179SOL    HW222437   4.681   4.240   5.610
 7180SOL     OW22438   0.233   2.664   1.663
 7180SOL    HW122439   0.197   2.605   1.590
 7180SOL    HW222440   0.162   2.680   1.731
 7181SOL     OW22441   3.186   0.113   0.180
 7181SOL    HW122442   3.242   0.054   0.238
 7181SOL    HW222443   3.204   0.209   0.201
 7182SOL     OW22444   2.177   1.153   2.951
 7182SOL    HW122445   2.118   1.075   2.930
 7182SOL    HW222446   2.159   1.183   3.045
 7183SOL     OW22447   1.593   0.027   1.342
 7183SOL    HW122448   1.506   0.044   1.390
 7183SOL    HW222449   1.666   0.077   1.388
 7184SOL     OW22450   0.237   1.071   3.392
 7184SOL    HW122451   0.156   1.012   3.383
 7184SOL    HW222452   0.313   1.017   3.428
 7185SOL     OW22453   4.114   0.610   3.301
 7185SOL    HW122454   4.105   0.686   3.236
 7185SOL    HW222455   4.025   0.589   3.341
 7186SOL     OW22456   6.541   1.500   6.794
 7186SOL    HW122457   6.463   1.559   6.815
 7186SOL    HW222458   6.618   1.556   6.764
 7187SOL     OW22459   3.764   3.405   4.109
 7187SOL    HW122460   3.830   3.338   4.145
 7187SOL    HW222461   3.775   3.491   4.158
 7188SOL     OW22462   5.053   4.537   0.109
 7188SOL    HW122463   5.076   4.544   0.012
 7188SOL    HW222464   5.008   4.450   0.126
 7189SOL     OW22465   6.784   2.064   5.917
 7189SOL    HW122466   6.802   2.142   5.977
 7189SOL    HW222467   6.709   2.009   5.954
 7190SOL     OW22468   6.001   6.098   0.659
 7190SOL    HW122469   5.951   6.161   0.719
 7190SOL    HW222470   6.026   6.016   0.711
 7191SOL     OW22471   0.292   4.995   2.578
 7191SOL    HW122472   0.315   5.076   2.633
 7191SOL    HW222473   0.356   4.921   2.599
 7192SOL     OW22474   3.058   3.922   5.406
 7192SOL    HW122475   3.108   3.936   5.491
 7192SOL    HW222476   2.961   3.911   5.426
 7193SOL     OW22477   3.701   1.463   3.597
 7193SOL    HW122478   3.713   1.517   3.681
 7193SOL    HW222479   3.762   1.384   3.599
 7194SOL     OW22480   3.518   2.288   5.367
 7194SOL    HW122481   3.609   2.307   5.331
 7194SOL    HW222482   3.501   2.345   5.447
 7195SOL     OW22483   0.670   4.348   5.726
 7195SOL    HW122484   0.707   4.428   5.773
 7195SOL    HW222485   0.730   4.270   5.739
 7196SOL     OW22486   3.080   4.079   1.676
 7196SOL    HW122487   3.172   4.070   1.639
 7196SOL    HW222488   3.084   4.084   1.776
 7197SOL     OW22489   3.496   4.583   6.438
 7197SOL    HW122490   3.407   4.619   6.411
 7197SOL    HW222491   3.568   4.631   6.387
 7198SOL     OW22492   0.920   0.261   2.295
 7198SOL    HW122493   0.878   0.170   2.288
 7198SOL    HW222494   1.017   0.254   2.274
 7199SOL     OW22495   5.923   0.893   3.162
 7199SOL    HW122496   6.022   0.907   3.154
 7199SOL    HW222497   5.890   0.842   3.083
 7200SOL     OW22498   0.702   3.586   6.803
 7200SOL    HW122499   0.619   3.628   6.841
 7200SOL    HW222500   0.780   3.644   6.823
 7201SOL     OW22501   5.519   5.994   4.410
 7201SOL    HW122502   5.450   6.047   4.460
 7201SOL    HW222503   5.576   5.944   4.475
 7202SOL     OW22504   4.943   0.839   6.206
 7202SOL    HW122505   4.902   0.775   6.141
 7202SOL    HW222506   5.042   0.827   6.206
 7203SOL     OW22507   0.822   1.651   1.332
 7203SOL    HW122508   0.861   1.660   1.241
 7203SOL    HW222509   0.733   1.696   1.335
 7204SOL     OW22510   6.143   0.574   3.129
 7204SOL    HW122511   6.187   0.602   3.214
 7204SOL    HW222512   6.047   0.551   3.147
 7205SOL     OW22513   3.188   1.428   4.195
 7205SOL    HW122514   3.245   1.375   4.132
 7205SOL    HW222515   3.228   1.519   4.207
 7206SOL     OW22516   2.005   3.124   6.308
 7206SOL    HW122517   1.977   3.031   6.331
 7206SOL    HW222518   1.977   3.146   6.215
 7207SOL     OW22519   1.636   1.732   3.347
 7207SOL    HW122520   1.585   1.811   3.313
 7207SOL    HW222521   1.572   1.667   3.389
 7208SOL     OW22522   3.234   6.924   3.412
 7208SOL    HW122523   3.324   6.880   3.416
 7208SOL    HW222524   3.182   6.888   3.335
 7209SOL     OW22525   4.027   0.216   2.218
 7209SOL    HW122526   4.053   0.289   2.154
 7209SOL    HW222527   4.004   0.256   2.307
 7210SOL     OW22528   3.258   1.129   4.202
 7210SOL    HW122529   3.282   1.067   4.276
 7210SOL    HW222530   3.158   1.134   4.194
 7211SOL     OW22531   4.103   6.237   5.810
 7211SOL    HW122532   4.091   6.257   5.907
 7211SOL    HW222533   4.076   6.317   5.756
 7212SOL     OW22534   0.667   5.577   4.838
 7212SOL    HW122535   0.623   5.645   4.779
 7212SOL    HW222536   0.598   5.537   4.899
 7213SOL     OW22537   4.601   2.654   0.179
 7213SOL    HW122538   4.534   2.586   0.209
 7213SOL    HW222539   4.556   2.744   0.172
 7214SOL     OW22540   6.481   1.278   6.001
 7214SOL    HW122541   6.541   1.325   5.937
 7214SOL    HW222542   6.512   1.184   6.014
 7215SOL     OW22543   5.949   1.736   2.748
 7215SOL    HW122544   5.944   1.675   2.827
 7215SOL    HW222545   6.022   1.803   2.763
 7216SOL     OW22546   5.424   6.857   3.769
 7216SOL    HW122547   5.443   6.942   3.720
 7216SOL    HW222548   5.450   6.868   3.865
 7217SOL     OW22549   1.080   3.241   3.336
 7217SOL    HW122550   1.058   3.301   3.413
 7217SOL    HW222551   1.016   3.258   3.261
 7218SOL     OW22552   6.481   2.652   5.236
 7218SOL    HW122553   6.400   2.597   5.215
 7218SOL    HW222554   6.464   2.704   5.320
 7219SOL     OW22555   2.764   5.931   1.826
 7219SOL    HW122556   2.728   5.841   1.803
 7219SOL    HW222557   2.697   6.001   1.802
 7220SOL     OW22558   6.834   3.618   3.605
 7220SOL    HW122559   6.909   3.561   3.571
 7220SOL    HW222560   6.860   3.661   3.691
 7221SOL     OW22561   4.505   5.007   3.631
 7221SOL    HW122562   4.512   5.102   3.662
 7221SOL    HW222563   4.534   4.946   3.704
 7222SOL     OW22564   6.669   5.964   4.072
 7222SOL    HW122565   6.612   5.956   3.989
 7222SOL    HW222566   6.679   6.061   4.096
 7223SOL     OW22567   6.682   5.946   2.021
 7223SOL    HW122568   6.722   5.896   1.943
 7223SOL    HW222569   6.749   5.950   2.095
 7224SOL     OW22570   4.964   2.443   2.661
 7224SOL    HW122571   4.874   2.485   2.648
 7224SOL    HW222572   4.982   2.379   2.586
 7225SOL     OW22573   0.713   5.463   6.945
 7225SOL    HW122574   0.752   5.532   6.883
 7225SOL    HW222575   0.621   5.490   6.972
 7226SOL     OW22576   6.253   6.330   0.177
 7226SOL    HW122577   6.340   6.346   0.131
 7226SOL    HW222578   6.181   6.385   0.134
 7227SOL     OW22579   2.022   0.934   2.154
 7227SOL    HW122580   2.099   0.997   2.150
 7227SOL    HW222581   1.980   0.940   2.245
 7228SOL     OW22582   5.799   3.048   2.825
 7228SOL    HW122583   5.829   3.109   2.751
 7228SOL    HW222584   5.700   3.055   2.835
 7229SOL     OW22585   6.305   0.248   5.130
 7229SOL    HW122586   6.370   0.249   5.206
 7229SOL    HW222587   6.345   0.197   5.053
 7230SOL     OW22588   2.118   4.814   4.947
 7230SOL    HW122589   2.155   4.891   4.997
 7230SOL    HW222590   2.023   4.833   4.921
 7231SOL     OW22591   4.093   3.478   6.198
 7231SOL    HW122592   4.108   3.575   6.177
 7231SOL    HW222593   4.073   3.468   6.295
 7232SOL     OW22594   4.217   6.234   3.358
 7232SOL    HW122595   4.173   6.190   3.436
 7232SOL    HW222596   4.269   6.313   3.389
 7233SOL     OW22597   0.420   1.508   6.198
 7233SOL    HW122598   0.328   1.512   6.237
 7233SOL    HW222599   0.481   1.464   6.264
 7234SOL     OW22600   5.654   4.859   2.705
 7234SOL    HW122601   5.751   4.837   2.698
 7234SOL    HW222602   5.607   4.785   2.753
 7235SOL     OW22603   6.155   0.835   1.906
 7235SOL    HW122604   6.180   0.889   1.825
 7235SOL    HW222605   6.234   0.828   1.967
 7236SOL     OW22606   0.666   3.818   2.971
 7236SOL    HW122607   0.681   3.788   2.877
 7236SOL    HW222608   0.680   3.741   3.033
 7237SOL     OW22609   5.388   1.417   0.348
 7237SOL    HW122610   5.299   1.447   0.382
 7237SOL    HW222611   5.375   1.348   0.278
 7238SOL     OW22612   4.054   3.447   0.167
 7238SOL    HW122613   3.975   3.469   0.224
 7238SOL    HW222614   4.079   3.526   0.112
 7239SOL     OW22615   5.529   2.717   1.813
 7239SOL    HW122616   5.556   2.813   1.818
 7239SOL    HW222617   5.567   2.676   1.729
 7240SOL     OW22618   0.313   2.005   0.052
 7240SOL    HW122619   0.222   1.967   0.070
 7240SOL    HW222620   0.353   1.959   6.984
 7241SOL     OW22621   1.821   0.200   2.560
 7241SOL    HW122622   1.751   0.150   2.612
 7241SOL    HW222623   1.780   0.281   2.518
 7242SOL     OW22624   6.529   4.102   5.307
 7242SOL    HW122625   6.586   4.174   5.268
 7242SOL    HW222626   6.492   4.132   5.395
 7243SOL     OW22627   5.734   4.496   6.209
 7243SOL    HW122628   5.674   4.456   6.139
 7243SOL    HW222629   5.790   4.424   6.250
 7244SOL     OW22630   6.743   5.859   6.664
 7244SOL    HW122631   6.820   5.797   6.677
 7244SOL    HW222632   6.658   5.812   6.690
 7245SOL     OW22633   1.612   2.316   6.853
 7245SOL    HW122634   1.625   2.402   6.902
 7245SOL    HW222635   1.584   2.245   6.917
 7246SOL     OW22636   4.214   6.967   3.761
 7246SOL    HW122637   4.253   6.952   3.852
 7246SOL    HW222638   4.117   6.990   3.771
 7247SOL     OW22639   3.059   4.044   4.499
 7247SOL    HW122640   2.972   3.998   4.483
 7247SOL    HW222641   3.111   4.047   4.413
 7248SOL     OW22642   2.841   1.837   5.620
 7248SOL    HW122643   2.795   1.921   5.650
 7248SOL    HW222644   2.890   1.796   5.697
 7249SOL     OW22645   3.083   5.662   2.750
 7249SOL    HW122646   3.057   5.758   2.747
 7249SOL    HW222647   3.141   5.645   2.829
 7250SOL     OW22648   5.224   5.646   5.722
 7250SOL    HW122649   5.267   5.557   5.735
 7250SOL    HW222650   5.269   5.693   5.646
 7251SOL     OW22651   0.891   5.756   4.406
 7251SOL    HW122652   0.884   5.776   4.504
 7251SOL    HW222653   0.865   5.662   4.389
 7252SOL     OW22654   4.110   3.736   2.116
 7252SOL    HW122655   4.202   3.704   2.091
 7252SOL    HW222656   4.072   3.788   2.039
 7253SOL     OW22657   2.223   5.135   4.897
 7253SOL    HW122658   2.223   5.125   4.997
 7253SOL    HW222659   2.314   5.114   4.861
 7254SOL     OW22660   6.812   3.746   4.064
 7254SOL    HW122661   6.753   3.669   4.085
 7254SOL    HW222662   6.802   3.817   4.134
 7255SOL     OW22663   4.731   3.929   6.920
 7255SOL    HW122664   4.757   3.833   6.911
 7255SOL    HW222665   4.688   3.944   7.009
 7256SOL     OW22666   3.146   6.802   4.324
 7256SOL    HW122667   3.200   6.866   4.271
 7256SOL    HW222668   3.067   6.849   4.364
 7257SOL     OW22669   0.748   1.217   5.104
 7257SOL    HW122670   0.802   1.301   5.105
 7257SOL    HW222671   0.651   1.240   5.096
 7258SOL     OW22672   6.521   2.284   2.349
 7258SOL    HW122673   6.436   2.334   2.361
 7258SOL    HW222674   6.530   2.215   2.421
 7259SOL     OW22675   1.072   4.051   2.853
 7259SOL    HW122676   0.987   4.086   2.892
 7259SOL    HW222677   1.093   4.101   2.769
 7260SOL     OW22678   6.023   3.059   1.210
 7260SOL    HW122679   6.092   3.089   1.144
 7260SOL    HW222680   5.932   3.075   1.173
 7261SOL     OW22681   0.149   4.287   6.880
 7261SOL    HW122682   0.083   4.224   6.921
 7261SOL    HW222683   0.235   4.239   6.861
 7262SOL     OW22684   4.235   0.933   4.956
 7262SOL    HW122685   4.292   0.872   4.901
 7262SOL    HW222686   4.221   0.892   5.047
 7263SOL     OW22687   6.459   5.282   5.580
 7263SOL    HW122688   6.529   5.332   5.630
 7263SOL    HW222689   6.390   5.347   5.546
 7264SOL     OW22690   5.509   1.411   1.421
 7264SOL    HW122691   5.421   1.365   1.409
 7264SOL    HW222692   5.518   1.485   1.355
 7265SOL     OW22693   3.662   0.407   5.783
 7265SOL    HW122694   3.694   0.492   5.824
 7265SOL    HW222695   3.706   0.330   5.828
 7266SOL     OW22696   0.244   0.781   3.306
 7266SOL    HW122697   0.307   0.789   3.229
 7266SOL    HW222698   0.150   0.799   3.275
 7267SOL     OW22699   0.001   4.252   4.908
 7267SOL    HW122700   0.022   4.171   4.854
 7267SOL    HW222701   6.949   4.228   4.983
 7268SOL     OW22702   5.662   6.204   4.305
 7268SOL    HW122703   5.626   6.117   4.339
 7268SOL    HW222704   5.643   6.211   4.207
 7269SOL     OW22705   2.646   5.302   4.305
 7269SOL    HW122706   2.678   5.337   4.216
 7269SOL    HW222707   2.645   5.203   4.303
 7270SOL     OW22708   0.605   0.365   4.625
 7270SOL    HW122709   0.618   0.410   4.713
 7270SOL    HW222710   0.668   0.289   4.616
 7271SOL     OW22711   0.718   4.748   3.255
 7271SOL    HW122712   0.776   4.669   3.271
 7271SOL    HW222713   0.743   4.793   3.169
 7272SOL     OW22714   6.147   4.049   1.779
 7272SOL    HW122715   6.103   4.139   1.772
 7272SOL    HW222716   6.152   4.008   1.688
 7273SOL     OW22717   0.527   1.211   5.407
 7273SOL    HW122718   0.515   1.265   5.324
 7273SOL    HW222719   0.437   1.179   5.439
 7274SOL     OW22720   0.169   4.893   6.235
 7274SOL    HW122721   0.255   4.863   6.274
 7274SOL    HW222722   0.187   4.961   6.163
 7275SOL     OW22723   0.849   5.298   3.504
 7275SOL    HW122724   0.825   5.286   3.600
 7275SOL    HW222725   0.772   5.337   3.454
 7276SOL     OW22726   4.725   6.147   3.486
 7276SOL    HW122727   4.657   6.075   3.492
 7276SOL    HW222728   4.815   6.110   3.508
 7277SOL     OW22729   5.181   0.651   0.648
 7277SOL    HW122730   5.188   0.552   0.659
 7277SOL    HW222731   5.098   0.673   0.597
 7278SOL     OW22732   3.432   2.803   2.128
 7278SOL    HW122733   3.424   2.707   2.154
 7278SOL    HW222734   3.500   2.812   2.054
 7279SOL     OW22735   3.450   6.891   6.081
 7279SOL    HW122736   3.444   6.962   6.011
 7279SOL    HW222737   3.438   6.801   6.039
 7280SOL     OW22738   5.181   1.042   6.399
 7280SOL    HW122739   5.230   1.077   6.319
 7280SOL    HW222740   5.083   1.054   6.386
 7281SOL     OW22741   5.774   1.702   6.073
 7281SOL    HW122742   5.685   1.726   6.113
 7281SOL    HW222743   5.831   1.658   6.142
 7282SOL     OW22744   5.732   6.122   2.368
 7282SOL    HW122745   5.772   6.191   2.307
 7282SOL    HW222746   5.787   6.039   2.366
 7283SOL     OW22747   2.458   1.431   3.974
 7283SOL    HW122748   2.478   1.372   3.895
 7283SOL    HW222749   2.516   1.512   3.970
 7284SOL     OW22750   1.469   1.878   5.376
 7284SOL    HW122751   1.502   1.830   5.294
 7284SOL    HW222752   1.507   1.970   5.378
 7285SOL     OW22753   6.149   5.260   1.600
 7285SOL    HW122754   6.136   5.219   1.690
 7285SOL    HW222755   6.061   5.296   1.567
 7286SOL     OW22756   2.037   3.935   0.804
 7286SOL    HW122757   2.030   4.027   0.844
 7286SOL    HW222758   1.990   3.869   0.864
 7287SOL     OW22759   6.401   1.630   5.469
 7287SOL    HW122760   6.428   1.553   5.527
 7287SOL    HW222761   6.458   1.633   5.388
 7288SOL     OW22762   2.839   7.002   0.364
 7288SOL    HW122763   2.807   0.022   0.453
 7288SOL    HW222764   2.919   6.943   0.375
 7289SOL     OW22765   4.688   2.263   4.159
 7289SOL    HW122766   4.751   2.340   4.166
 7289SOL    HW222767   4.600   2.295   4.123
 7290SOL     OW22768   2.589   5.791   4.397
 7290SOL    HW122769   2.637   5.720   4.345
 7290SOL    HW222770   2.539   5.851   4.335
 7291SOL     OW22771   3.792   4.633   1.480
 7291SOL    HW122772   3.763   4.575   1.556
 7291SOL    HW222773   3.799   4.728   1.512
 7292SOL     OW22774   3.224   0.241   4.796
 7292SOL    HW122775   3.262   0.269   4.707
 7292SOL    HW222776   3.279   0.166   4.832
 7293SOL     OW22777   1.975   1.303   6.504
 7293SOL    HW122778   1.912   1.379   6.496
 7293SOL    HW222779   2.023   1.289   6.417
 7294SOL     OW22780   5.427   5.244   0.200
 7294SOL    HW122781   5.484   5.214   0.276
 7294SOL    HW222782   5.439   5.342   0.186
 7295SOL     OW22783   4.838   0.159   1.406
 7295SOL    HW122784   4.918   0.102   1.426
 7295SOL    HW222785   4.772   0.149   1.480
 7296SOL     OW22786   4.235   5.449   1.543
 7296SOL    HW122787   4.167   5.521   1.527
 7296SOL    HW222788   4.189   5.366   1.575
 7297SOL     OW22789   4.933   6.682   2.174
 7297SOL    HW122790   4.998   6.747   2.214
 7297SOL    HW222791   4.857   6.732   2.133
 7298SOL     OW22792   6.642   3.540   4.135
 7298SOL    HW122793   6.569   3.537   4.066
 7298SOL    HW222794   6.708   3.468   4.116
 7299SOL     OW22795   5.823   3.677   6.438
 7299SOL    HW122796   5.865   3.768   6.429
 7299SOL    HW222797   5.785   3.648   6.350
 7300SOL     OW22798   4.980   5.574   1.671
 7300SOL    HW122799   4.978   5.488   1.722
 7300SOL    HW222800   5.067   5.621   1.686
 7301SOL     OW22801   6.716   1.405   6.255
 7301SOL    HW122802   6.722   1.339   6.329
 7301SOL    HW222803   6.803   1.453   6.245
 7302SOL     OW22804   5.901   0.957   6.351
 7302SOL    HW122805   5.879   1.053   6.332
 7302SOL    HW222806   5.936   0.915   6.268
 7303SOL     OW22807   3.673   0.810   0.799
 7303SOL    HW122808   3.747   0.821   0.865
 7303SOL    HW222809   3.622   0.726   0.819
 7304SOL     OW22810   3.765   3.300   5.313
 7304SOL    HW122811   3.718   3.280   5.227
 7304SOL    HW222812   3.723   3.247   5.386
 7305SOL     OW22813   5.498   1.856   0.505
 7305SOL    HW122814   5.491   1.938   0.562
 7305SOL    HW222815   5.407   1.815   0.495
 7306SOL     OW22816   4.723   4.912   2.227
 7306SOL    HW122817   4.685   4.969   2.154
 7306SOL    HW222818   4.786   4.967   2.281
 7307SOL     OW22819   4.207   6.146   2.271
 7307SOL    HW122820   4.154   6.146   2.186
 7307SOL    HW222821   4.227   6.051   2.298
 7308SOL     OW22822   6.118   0.514   4.431
 7308SOL    HW122823   6.097   0.587   4.366
 7308SOL    HW222824   6.209   0.529   4.469
 7309SOL     OW22825   4.562   5.303   1.906
 7309SOL    HW122826   4.585   5.208   1.886
 7309SOL    HW222827   4.575   5.358   1.823
 7310SOL     OW22828   1.908   5.704   1.713
 7310SOL    HW122829   2.000   5.735   1.688
 7310SOL    HW222830   1.904   5.686   1.811
 7311SOL     OW22831   2.719   2.029   2.323
 7311SOL    HW122832   2.659   1.962   2.281
 7311SOL    HW222833   2.715   2.021   2.423
 7312SOL     OW22834   6.951   2.093   6.231
 7312SOL    HW122835   6.915   2.168   6.176
 7312SOL    HW222836   6.900   2.010   6.212
 7313SOL     OW22837   3.713   2.525   6.147
 7313SOL    HW122838   3.714   2.439   6.097
 7313SOL    HW222839   3.793   2.579   6.123
 7314SOL     OW22840   1.103   2.856   4.372
 7314SOL    HW122841   1.034   2.924   4.398
 7314SOL    HW222842   1.175   2.854   4.441
 7315SOL     OW22843   6.813   0.588   5.937
 7315SOL    HW122844   6.848   0.506   5.893
 7315SOL    HW222845   6.845   0.592   6.031
 7316SOL     OW22846   3.856   3.007   5.065
 7316SOL    HW122847   3.792   2.958   5.125
 7316SOL    HW222848   3.926   3.051   5.121
 7317SOL     OW22849   2.890   1.200   4.048
 7317SOL    HW122850   2.856   1.210   4.142
 7317SOL    HW222851   2.831   1.136   3.998
 7318SOL     OW22852   1.260   1.584   1.087
 7318SOL    HW122853   1.269   1.665   1.146
 7318SOL    HW222854   1.318   1.511   1.123
 7319SOL     OW22855   0.179   3.856   6.149
 7319SOL    HW122856   0.215   3.945   6.177
 7319SOL    HW222857   0.160   3.800   6.230
 7320SOL     OW22858   0.156   1.938   2.348
 7320SOL    HW122859   0.090   1.875   2.389
 7320SOL    HW222860   0.110   2.025   2.328
 7321SOL     OW22861   2.952   1.560   4.216
 7321SOL    HW122862   3.039   1.513   4.207
 7321SOL    HW222863   2.924   1.560   4.312
 7322SOL     OW22864   0.200   3.551   1.519
 7322SOL    HW122865   0.152   3.639   1.529
 7322SOL    HW222866   0.299   3.567   1.516
 7323SOL     OW22867   2.170   4.064   3.241
 7323SOL    HW122868   2.161   4.062   3.141
 7323SOL    HW222869   2.099   4.007   3.282
 7324SOL     OW22870   5.147   5.214   3.087
 7324SOL    HW122871   5.191   5.172   3.008
 7324SOL    HW222872   5.161   5.155   3.167
 7325SOL     OW22873   3.125   5.954   0.428
 7325SOL    HW122874   3.093   6.028   0.369
 7325SOL    HW222875   3.167   5.993   0.510
 7326SOL     OW22876   2.386   0.907   4.565
 7326SOL    HW122877   2.394   0.962   4.482
 7326SOL    HW222878   2.346   0.818   4.543
 7327SOL     OW22879   1.070   2.903   5.444
 7327SOL    HW122880   1.012   2.831   5.482
 7327SOL    HW222881   1.064   2.902   5.344
 7328SOL     OW22882   2.382   0.281   6.517
 7328SOL    HW122883   2.480   0.298   6.505
 7328SOL    HW222884   2.369   0.216   6.593
 7329SOL     OW22885   4.459   3.521   1.636
 7329SOL    HW122886   4.457   3.604   1.579
 7329SOL    HW222887   4.373   3.515   1.687
 7330SOL     OW22888   4.349   2.258   0.473
 7330SOL    HW122889   4.440   2.236   0.507
 7330SOL    HW222890   4.285   2.264   0.549
 7331SOL     OW22891   4.793   1.464   1.743
 7331SOL    HW122892   4.885   1.441   1.773
 7331SOL    HW222893   4.754   1.387   1.691
 7332SOL     OW22894   3.672   5.778   0.892
 7332SOL    HW122895   3.689   5.694   0.841
 7332SOL    HW222896   3.716   5.855   0.845
 7333SOL     OW22897   0.444   4.795   2.659
 7333SOL    HW122898   0.539   4.763   2.664
 7333SOL    HW222899   0.391   4.750   2.731
 7334SOL     OW22900   3.206   0.071   4.474
 7334SOL    HW122901   3.276   0.135   4.507
 7334SOL    HW222902   3.199   7.005   4.537
 7335SOL     OW22903   2.171   3.088   2.609
 7335SOL    HW122904   2.108   3.087   2.532
 7335SOL    HW222905   2.206   3.181   2.623
 7336SOL     OW22906   1.697   6.110   4.093
 7336SOL    HW122907   1.694   6.023   4.142
 7336SOL    HW222908   1.786   6.120   4.049
 7337SOL     OW22909   4.889   2.569   2.169
 7337SOL    HW122910   4.813   2.634   2.159
 7337SOL    HW222911   4.960   2.611   2.225
 7338SOL     OW22912   6.632   2.981   6.983
 7338SOL    HW122913   6.560   3.038   6.946
 7338SOL    HW222914   6.659   2.913   6.914
 7339SOL     OW22915   1.470   5.702   4.837
 7339SOL    HW122916   1.383   5.655   4.825
 7339SOL    HW222917   1.475   5.744   4.927
 7340SOL     OW22918   2.641   6.495   7.003
 7340SOL    HW122919   2.641   6.414   6.944
 7340SOL    HW222920   2.681   6.572   6.953
 7341SOL     OW22921   6.614   1.834   0.873
 7341SOL    HW122922   6.708   1.837   0.907
 7341SOL    HW222923   6.587   1.739   0.858
 7342SOL     OW22924   0.508   6.245   2.164
 7342SOL    HW122925   0.588   6.218   2.218
 7342SOL    HW222926   0.539   6.289   2.080
 7343SOL     OW22927   6.120   2.934   0.635
 7343SOL    HW122928   6.036   2.979   0.605
 7343SOL    HW222929   6.097   2.854   0.690
 7344SOL     OW22930   2.492   6.143   5.818
 7344SOL    HW122931   2.534   6.132   5.908
 7344SOL    HW222932   2.399   6.107   5.819
 7345SOL     OW22933   3.602   5.972   5.879
 7345SOL    HW122934   3.581   6.054   5.825
 7345SOL    HW222935   3.697   5.977   5.910
 7346SOL     OW22936   3.918   5.033   2.027
 7346SOL    HW122937   3.844   5.042   2.093
 7346SOL    HW222938   3.910   5.106   1.958
 7347SOL     OW22939   6.110   1.462   0.248
 7347SOL    HW122940   6.162   1.438   0.166
 7347SOL    HW222941   6.017   1.425   0.242
 7348SOL     OW22942   6.403   4.770   0.145
 7348SOL    HW122943   6.424   4.690   0.200
 7348SOL    HW222944   6.488   4.811   0.112
 7349SOL     OW22945   3.763   1.706   1.585
 7349SOL    HW122946   3.832   1.635   1.595
 7349SOL    HW222947   3.671   1.666   1.591
 7350SOL     OW22948   3.664   0.950   4.477
 7350SOL    HW122949   3.650   1.017   4.549
 7350SOL    HW222950   3.739   0.979   4.418
 7351SOL     OW22951   1.972   4.445   4.308
 7351SOL    HW122952   2.002   4.501   4.385
 7351SOL    HW222953   1.967   4.349   4.336
 7352SOL     OW22954   6.048   3.634   4.259
 7352SOL    HW122955   5.992   3.558   4.226
 7352SOL    HW222956   6.144   3.615   4.242
 7353SOL     OW22957   6.439   0.929   5.578
 7353SOL    HW122958   6.346   0.891   5.578
 7353SOL    HW222959   6.455   0.977   5.492
 7354SOL     OW22960   0.899   1.716   2.580
 7354SOL    HW122961   0.822   1.725   2.643
 7354SOL    HW222962   0.884   1.775   2.500
 7355SOL     OW22963   3.456   1.609   0.901
 7355SOL    HW122964   3.491   1.541   0.835
 7355SOL    HW222965   3.363   1.635   0.874
 7356SOL     OW22966   4.103   4.166   6.354
 7356SOL    HW122967   4.094   4.227   6.432
 7356SOL    HW222968   4.060   4.207   6.274
 7357SOL     OW22969   5.139   6.546   1.981
 7357SOL    HW122970   5.063   6.598   2.019
 7357SOL    HW222971   5.175   6.483   2.050
 7358SOL     OW22972   5.180   0.471   3.184
 7358SOL    HW122973   5.185   0.546   3.118
 7358SOL    HW222974   5.084   0.449   3.201
 7359SOL     OW22975   4.163   6.759   1.907
 7359SOL    HW122976   4.167   6.803   1.817
 7359SOL    HW222977   4.256   6.748   1.943
 7360SOL     OW22978   2.872   3.643   5.172
 7360SOL    HW122979   2.855   3.548   5.146
 7360SOL    HW222980   2.870   3.701   5.091
 7361SOL     OW22981   6.726   0.356   3.097
 7361SOL    HW122982   6.661   0.364   3.021
 7361SOL    HW222983   6.715   0.268   3.142
 7362SOL     OW22984   3.628   5.700   0.297
 7362SOL    HW122985   3.549   5.675   0.353
 7362SOL    HW222986   3.625   5.650   0.210
 7363SOL     OW22987   4.248   0.823   1.306
 7363SOL    HW122988   4.323   0.806   1.371
 7363SOL    HW222989   4.280   0.885   1.235
 7364SOL     OW22990   6.319   6.213   1.793
 7364SOL    HW122991   6.298   6.141   1.728
 7364SOL    HW222992   6.245   6.280   1.793
 7365SOL     OW22993   4.924   3.740   2.641
 7365SOL    HW122994   5.000   3.760   2.702
 7365SOL    HW222995   4.916   3.641   2.628
 7366SOL     OW22996   2.226   6.933   3.829
 7366SOL    HW122997   2.300   6.992   3.795
 7366SOL    HW222998   2.229   6.931   3.929
 7367SOL     OW22999   4.226   0.938   6.674
 7367SOL    HW123000   4.250   0.884   6.593
 7367SOL    HW223001   4.231   0.879   6.755
 7368SOL     OW23002   3.685   3.281   3.389
 7368SOL    HW123003   3.614   3.244   3.328
 7368SOL    HW223004   3.660   3.263   3.484
 7369SOL     OW23005   5.799   3.708   6.926
 7369SOL    HW123006   5.710   3.707   6.972
 7369SOL    HW223007   5.789   3.675   6.833
 7370SOL     OW23008   1.733   1.546   4.974
 7370SOL    HW123009   1.777   1.636   4.980
 7370SOL    HW223010   1.734   1.515   4.879
 7371SOL     OW23011   4.018   1.239   3.334
 7371SOL    HW123012   3.998   1.283   3.422
 7371SOL    HW223013   4.012   1.139   3.345
 7372SOL     OW23014   4.927   1.010   5.359
 7372SOL    HW123015   4.829   0.992   5.370
 7372SOL    HW223016   4.953   0.996   5.264
 7373SOL     OW23017   6.025   3.196   4.251
 7373SOL    HW123018   5.930   3.203   4.220
 7373SOL    HW223019   6.033   3.122   4.317
 7374SOL     OW23020   0.573   2.428   6.701
 7374SOL    HW123021   0.652   2.463   6.751
 7374SOL    HW223022   0.569   2.470   6.611
 7375SOL     OW23023   2.013   3.411   0.443
 7375SOL    HW123024   2.101   3.412   0.397
 7375SOL    HW223025   2.023   3.448   0.536
 7376SOL     OW23026   6.539   4.640   0.603
 7376SOL    HW123027   6.500   4.557   0.563
 7376SOL    HW223028   6.589   4.690   0.533
 7377SOL     OW23029   2.441   5.678   0.911
 7377SOL    HW123030   2.493   5.645   0.990
 7377SOL    HW223031   2.374   5.609   0.884
 7378SOL     OW23032   1.891   4.868   5.473
 7378SOL    HW123033   1.867   4.859   5.569
 7378SOL    HW223034   1.982   4.829   5.458
 7379SOL     OW23035   4.735   1.780   2.686
 7379SOL    HW123036   4.700   1.874   2.684
 7379SOL    HW223037   4.767   1.754   2.594
 7380SOL     OW23038   5.169   3.494   1.778
 7380SOL    HW123039   5.216   3.555   1.842
 7380SOL    HW223040   5.184   3.399   1.806
 7381SOL     OW23041   3.722   6.465   1.686
 7381SOL    HW123042   3.735   6.367   1.675
 7381SOL    HW223043   3.793   6.501   1.748
 7382SOL     OW23044   0.357   1.844   6.363
 7382SOL    HW123045   0.312   1.933   6.361
 7382SOL    HW223046   0.301   1.779   6.414
 7383SOL     OW23047   2.176   6.936   1.139
 7383SOL    HW123048   2.209   6.851   1.181
 7383SOL    HW223049   2.180   7.009   1.207
 7384SOL     OW23050   6.884   6.703   0.672
 7384SOL    HW123051   6.884   6.708   0.772
 7384SOL    HW223052   6.965   6.654   0.641
 7385SOL     OW23053   5.982   5.159   3.306
 7385SOL    HW123054   6.020   5.073   3.340
 7385SOL    HW223055   6.057   5.220   3.278
 7386SOL     OW23056   5.818   3.995   6.794
 7386SOL    HW123057   5.829   4.058   6.871
 7386SOL    HW223058   5.849   3.903   6.822
 7387SOL     OW23059   6.416   5.437   4.007
 7387SOL    HW123060   6.488   5.373   3.983
 7387SOL    HW223061   6.445   5.530   3.986
 7388SOL     OW23062   2.293   4.376   2.564
 7388SOL    HW123063   2.362   4.447   2.575
 7388SOL    HW223064   2.211   4.414   2.522
 7389SOL     OW23065   6.618   3.225   0.456
 7389SOL    HW123066   6.699   3.241   0.400
 7389SOL    HW223067   6.544   3.190   0.399
 7390SOL     OW23068   2.904   2.181   3.885
 7390SOL    HW123069   2.998   2.147   3.879
 7390SOL    HW223070   2.888   2.220   3.976
 7391SOL     OW23071   3.405   3.905   3.091
 7391SOL    HW123072   3.409   3.806   3.098
 7391SOL    HW223073   3.443   3.934   3.003
 7392SOL     OW23074   3.163   6.670   0.804
 7392SOL    HW123075   3.105   6.610   0.748
 7392SOL    HW223076   3.197   6.620   0.883
 7393SOL     OW23077   4.973   5.757   3.507
 7393SOL    HW123078   4.915   5.697   3.451
 7393SOL    HW223079   5.069   5.737   3.489
 7394SOL     OW23080   2.247   1.923   6.229
 7394SOL    HW123081   2.177   1.923   6.300
 7394SOL    HW223082   2.305   2.005   6.239
 7395SOL     OW23083   2.636   6.243   1.193
 7395SOL    HW123084   2.568   6.194   1.248
 7395SOL    HW223085   2.710   6.181   1.169
 7396SOL     OW23086   1.309   4.944   2.217
 7396SOL    HW123087   1.221   4.988   2.235
 7396SOL    HW223088   1.330   4.880   2.291
 7397SOL     OW23089   6.261   4.370   4.062
 7397SOL    HW123090   6.244   4.292   4.122
 7397SOL    HW223091   6.235   4.345   3.968
 7398SOL     OW23092   3.025   4.838   2.306
 7398SOL    HW123093   3.105   4.873   2.258
 7398SOL    HW223094   2.966   4.788   2.242
 7399SOL     OW23095   6.091   1.403   5.631
 7399SOL    HW123096   6.066   1.335   5.561
 7399SOL    HW223097   6.019   1.409   5.699
 7400SOL     OW23098   4.207   3.485   5.770
 7400SOL    HW123099   4.300   3.518   5.779
 7400SOL    HW223100   4.197   3.436   5.684
 7401SOL     OW23101   1.425   2.472   3.820
 7401SOL    HW123102   1.508   2.481   3.764
 7401SOL    HW223103   1.421   2.548   3.884
 7402SOL     OW23104   3.420   5.732   4.333
 7402SOL    HW123105   3.496   5.751   4.396
 7402SOL    HW223106   3.403   5.813   4.277
 7403SOL     OW23107   1.662   4.049   3.928
 7403SOL    HW123108   1.643   4.071   3.832
 7403SOL    HW223109   1.594   4.092   3.987
 7404SOL     OW23110   2.656   3.755   0.635
 7404SOL    HW123111   2.642   3.778   0.732
 7404SOL    HW223112   2.588   3.802   0.579
 7405SOL     OW23113   3.692   6.629   5.487
 7405SOL    HW123114   3.694   6.729   5.485
 7405SOL    HW223115   3.623   6.598   5.553
 7406SOL     OW23116   0.672   2.332   4.414
 7406SOL    HW123117   0.712   2.306   4.327
 7406SOL    HW223118   0.573   2.319   4.411
 7407SOL     OW23119   1.348   6.162   5.694
 7407SOL    HW123120   1.248   6.159   5.691
 7407SOL    HW223121   1.381   6.095   5.761
 7408SOL     OW23122   4.365   5.590   5.022
 7408SOL    HW123123   4.344   5.523   5.094
 7408SOL    HW223124   4.318   5.565   4.938
 7409SOL     OW23125   6.687   4.567   1.521
 7409SOL    HW123126   6.661   4.656   1.484
 7409SOL    HW223127   6.620   4.538   1.589
 7410SOL     OW23128   6.485   0.892   1.389
 7410SOL    HW123129   6.578   0.888   1.427
 7410SOL    HW223130   6.479   0.833   1.309
 7411SOL     OW23131   3.543   1.633   5.498
 7411SOL    HW123132   3.528   1.665   5.591
 7411SOL    HW223133   3.492   1.548   5.484
 7412SOL     OW23134   3.944   6.613   0.302
 7412SOL    HW123135   4.010   6.627   0.376
 7412SOL    HW223136   3.893   6.529   0.318
 7413SOL     OW23137   4.955   1.032   3.775
 7413SOL    HW123138   4.923   1.075   3.691
 7413SOL    HW223139   5.023   1.090   3.819
 7414SOL     OW23140   2.606   0.839   4.041
 7414SOL    HW123141   2.658   0.909   3.992
 7414SOL    HW223142   2.531   0.806   3.983
 7415SOL     OW23143   3.834   0.058   6.434
 7415SOL    HW123144   3.790   0.079   6.521
 7415SOL    HW223145   3.770   0.072   6.359
 7416SOL     OW23146   1.696   0.519   1.730
 7416SOL    HW123147   1.773   0.576   1.759
 7416SOL    HW223148   1.610   0.563   1.753
 7417SOL     OW23149   0.515   0.591   2.454
 7417SOL    HW123150   0.605   0.558   2.426
 7417SOL    HW223151   0.444   0.541   2.404
 7418SOL     OW23152   1.580   3.825   6.248
 7418SOL    HW123153   1.626   3.736   6.256
 7418SOL    HW223154   1.568   3.847   6.152
 7419SOL     OW23155   6.441   3.244   4.134
 7419SOL    HW123156   6.480   3.156   4.107
 7419SOL    HW223157   6.497   3.284   4.207
 7420SOL     OW23158   6.784   6.367   1.009
 7420SOL    HW123159   6.850   6.432   1.044
 7420SOL    HW223160   6.745   6.402   0.923
 7421SOL     OW23161   5.790   4.133   1.200
 7421SOL    HW123162   5.828   4.197   1.133
 7421SOL    HW223163   5.861   4.070   1.230
 7422SOL     OW23164   5.309   3.619   1.982
 7422SOL    HW123165   5.364   3.541   2.012
 7422SOL    HW223166   5.360   3.703   1.999
 7423SOL     OW23167   4.683   2.892   6.058
 7423SOL    HW123168   4.674   2.802   6.014
 7423SOL    HW223169   4.731   2.881   6.145
 7424SOL     OW23170   0.874   2.294   3.926
 7424SOL    HW123171   0.845   2.213   3.874
 7424SOL    HW223172   0.840   2.287   4.020
 7425SOL     OW23173   5.763   0.600   1.240
 7425SOL    HW123174   5.820   0.659   1.297
 7425SOL    HW223175   5.671   0.637   1.236
 7426SOL     OW23176   3.178   2.950   5.710
 7426SOL    HW123177   3.185   3.048   5.724
 7426SOL    HW223178   3.162   2.905   5.798
 7427SOL     OW23179   2.411   0.243   2.828
 7427SOL    HW123180   2.438   0.209   2.738
 7427SOL    HW223181   2.390   0.340   2.823
 7428SOL     OW23182   2.986   0.638   4.857
 7428SOL    HW123183   3.030   0.676   4.776
 7428SOL    HW223184   3.037   0.666   4.938
 7429SOL     OW23185   1.033   0.831   2.294
 7429SOL    HW123186   1.007   0.846   2.198
 7429SOL    HW223187   1.031   0.919   2.343
 7430SOL     OW23188   0.085   4.005   2.651
 7430SOL    HW123189   7.006   4.040   2.677
 7430SOL    HW223190   0.127   3.957   2.728
 7431SOL     OW23191   0.935   1.679   4.594
 7431SOL    HW123192   0.917   1.775   4.574
 7431SOL    HW223193   1.028   1.670   4.630
 7432SOL     OW23194   1.861   1.325   3.012
 7432SOL    HW123195   1.822   1.385   3.082
 7432SOL    HW223196   1.922   1.378   2.953
 7433SOL     OW23197   3.096   6.859   6.804
 7433SOL    HW123198   3.152   6.941   6.791
 7433SOL    HW223199   3.095   6.835   6.901
 7434SOL     OW23200   4.296   0.227   3.415
 7434SOL    HW123201   4.354   0.305   3.438
 7434SOL    HW223202   4.321   0.149   3.472
 7435SOL     OW23203   5.325   4.564   2.986
 7435SOL    HW123204   5.255   4.617   3.034
 7435SOL    HW223205   5.382   4.516   3.052
 7436SOL     OW23206   5.313   3.043   5.764
 7436SOL    HW123207   5.366   3.032   5.680
 7436SOL    HW223208   5.253   3.122   5.756
 7437SOL     OW23209   3.347   0.881   1.353
 7437SOL    HW123210   3.285   0.925   1.289
 7437SOL    HW223211   3.301   0.803   1.397
 7438SOL     OW23212   2.169   0.350   6.724
 7438SOL    HW123213   2.195   0.340   6.628
 7438SOL    HW223214   2.100   0.282   6.748
 7439SOL     OW23215   1.314   4.619   5.865
 7439SOL    HW123216   1.232   4.562   5.861
 7439SOL    HW223217   1.289   4.715   5.853
 7440SOL     OW23218   5.218   3.409   3.813
 7440SOL    HW123219   5.237   3.492   3.865
 7440SOL    HW223220   5.263   3.331   3.857
 7441SOL     OW23221   4.346   6.089   1.073
 7441SOL    HW123222   4.375   6.081   1.168
 7441SOL    HW223223   4.252   6.056   1.064
 7442SOL     OW23224   5.904   1.372   5.819
 7442SOL    HW123225   5.828   1.349   5.758
 7442SOL    HW223226   5.893   1.324   5.906
 7443SOL     OW23227   0.137   0.581   1.507
 7443SOL    HW123228   0.149   0.650   1.580
 7443SOL    HW223229   0.072   0.511   1.538
 7444SOL     OW23230   1.468   6.480   6.846
 7444SOL    HW123231   1.559   6.441   6.838
 7444SOL    HW223232   1.472   6.579   6.830
 7445SOL     OW23233   3.379   5.656   2.402
 7445SOL    HW123234   3.454   5.591   2.390
 7445SOL    HW223235   3.291   5.608   2.392
 7446SOL     OW23236   5.978   5.086   0.044
 7446SOL    HW123237   5.915   5.150   0.088
 7446SOL    HW223238   5.947   4.993   0.060
 7447SOL     OW23239   1.053   5.491   0.977
 7447SOL    HW123240   1.122   5.426   0.944
 7447SOL    HW223241   0.996   5.520   0.900
 7448SOL     OW23242   4.360   4.994   6.733
 7448SOL    HW123243   4.448   4.970   6.772
 7448SOL    HW223244   4.325   4.917   6.678
 7449SOL     OW23245   6.230   4.065   6.363
 7449SOL    HW123246   6.291   4.135   6.325
 7449SOL    HW223247   6.159   4.042   6.297
 7450SOL     OW23248   5.915   2.451   6.726
 7450SOL    HW123249   5.845   2.388   6.692
 7450SOL    HW223250   5.970   2.484   6.650
 7451SOL     OW23251   4.620   4.353   3.129
 7451SOL    HW123252   4.683   4.397   3.194
 7451SOL    HW223253   4.528   4.388   3.143
 7452SOL     OW23254   6.468   5.383   6.274
 7452SOL    HW123255   6.447   5.420   6.183
 7452SOL    HW223256   6.384   5.344   6.314
 7453SOL     OW23257   4.009   5.672   6.149
 7453SOL    HW123258   3.917   5.703   6.173
 7453SOL    HW223259   4.056   5.642   6.231
 7454SOL     OW23260   3.802   2.090   0.941
 7454SOL    HW123261   3.772   2.162   1.003
 7454SOL    HW223262   3.814   2.005   0.993
 7455SOL     OW23263   6.615   0.527   3.312
 7455SOL    HW123264   6.678   0.521   3.389
 7455SOL    HW223265   6.633   0.453   3.248
 7456SOL     OW23266   2.953   1.951   6.000
 7456SOL    HW123267   2.989   2.042   6.020
 7456SOL    HW223268   2.869   1.959   5.947
 7457SOL     OW23269   1.212   1.215   2.642
 7457SOL    HW123270   1.299   1.180   2.675
 7457SOL    HW223271   1.228   1.297   2.586
 7458SOL     OW23272   0.482   5.369   4.943
 7458SOL    HW123273   0.538   5.286   4.950
 7458SOL    HW223274   0.437   5.385   5.031
 7459SOL     OW23275   5.868   0.116   3.301
 7459SOL    HW123276   5.878   0.160   3.212
 7459SOL    HW223277   5.952   0.064   3.321
 7460SOL     OW23278   0.789   0.578   1.411
 7460SOL    HW123279   0.833   0.507   1.465
 7460SOL    HW223280   0.694   0.552   1.392
 7461SOL     OW23281   2.002   4.569   4.551
 7461SOL    HW123282   1.953   4.497   4.601
 7461SOL    HW223283   2.071   4.611   4.612
 7462SOL     OW23284   1.918   4.497   0.101
 7462SOL    HW123285   1.906   4.402   0.131
 7462SOL    HW223286   1.925   4.499   0.001
 7463SOL     OW23287   4.640   5.039   1.847
 7463SOL    HW123288   4.736   5.031   1.875
 7463SOL    HW223289   4.635   5.046   1.747
 7464SOL     OW23290   5.711   5.654   5.143
 7464SOL    HW123291   5.695   5.556   5.131
 7464SOL    HW223292   5.641   5.691   5.203
 7465SOL     OW23293   1.059   3.942   6.309
 7465SOL    HW123294   1.153   3.919   6.286
 7465SOL    HW223295   1.047   3.939   6.409
 7466SOL     OW23296   0.618   0.432   5.321
 7466SOL    HW123297   0.632   0.475   5.410
 7466SOL    HW223298   0.692   0.458   5.259
 7467SOL     OW23299   0.454   3.690   4.570
 7467SOL    HW123300   0.553   3.701   4.577
 7467SOL    HW223301   0.414   3.772   4.530
 7468SOL     OW23302   5.244   2.708   5.525
 7468SOL    HW123303   5.247   2.648   5.604
 7468SOL    HW223304   5.320   2.774   5.530
 7469SOL     OW23305   0.233   1.873   0.417
 7469SOL    HW123306   0.315   1.926   0.394
 7469SOL    HW223307   0.170   1.931   0.470
 7470SOL     OW23308   5.334   3.226   3.983
 7470SOL    HW123309   5.414   3.262   4.031
 7470SOL    HW223310   5.315   3.133   4.012
 7471SOL     OW23311   3.544   6.822   6.809
 7471SOL    HW123312   3.569   6.807   6.714
 7471SOL    HW223313   3.593   6.902   6.844
 7472SOL     OW23314   0.809   0.253   5.770
 7472SOL    HW123315   0.758   0.331   5.806
 7472SOL    HW223316   0.776   0.232   5.678
 7473SOL     OW23317   3.920   5.856   3.271
 7473SOL    HW123318   3.906   5.847   3.173
 7473SOL    HW223319   4.005   5.812   3.298
 7474SOL     OW23320   6.064   2.084   0.242
 7474SOL    HW123321   6.140   2.100   0.305
 7474SOL    HW223322   6.027   2.171   0.212
 7475SOL     OW23323   5.011   2.955   1.122
 7475SOL    HW123324   4.940   2.986   1.186
 7475SOL    HW223325   5.009   2.855   1.116
 7476SOL     OW23326   2.441   1.099   2.826
 7476SOL    HW123327   2.357   1.133   2.868
 7476SOL    HW223328   2.499   1.176   2.801
 7477SOL     OW23329   2.577   3.750   5.848
 7477SOL    HW123330   2.581   3.676   5.915
 7477SOL    HW223331   2.648   3.736   5.779
 7478SOL     OW23332   0.266   1.928   5.959
 7478SOL    HW123333   0.174   1.904   5.990
 7478SOL    HW223334   0.316   1.844   5.937
 7479SOL     OW23335   4.581   2.902   1.363
 7479SOL    HW123336   4.591   2.814   1.317
 7479SOL    HW223337   4.601   2.891   1.460
 7480SOL     OW23338   3.657   5.764   2.575
 7480SOL    HW123339   3.610   5.795   2.493
 7480SOL    HW223340   3.716   5.687   2.553
 7481SOL     OW23341   0.135   3.566   5.630
 7481SOL    HW123342   0.202   3.596   5.699
 7481SOL    HW223343   0.182   3.515   5.558
 7482SOL     OW23344   4.941   2.494   4.165
 7482SOL    HW123345   4.925   2.532   4.074
 7482SOL    HW223346   4.982   2.403   4.156
 7483SOL     OW23347   5.014   1.582   6.332
 7483SOL    HW123348   4.944   1.644   6.298
 7483SOL    HW223349   5.051   1.529   6.255
 7484SOL     OW23350   2.800   0.689   4.167
 7484SOL    HW123351   2.805   0.687   4.267
 7484SOL    HW223352   2.726   0.749   4.138
 7485SOL     OW23353   4.029   0.325   6.677
 7485SOL    HW123354   3.986   0.387   6.611
 7485SOL    HW223355   3.958   0.288   6.738
 7486SOL     OW23356   4.376   6.784   0.738
 7486SOL    HW123357   4.439   6.785   0.816
 7486SOL    HW223358   4.362   6.690   0.707
 7487SOL     OW23359   3.128   6.361   4.138
 7487SOL    HW123360   3.065   6.293   4.102
 7487SOL    HW223361   3.218   6.349   4.097
 7488SOL     OW23362   1.176   5.889   4.042
 7488SOL    HW123363   1.136   5.799   4.056
 7488SOL    HW223364   1.202   5.929   4.130
 7489SOL     OW23365   5.122   2.804   6.610
 7489SOL    HW123366   5.214   2.787   6.574
 7489SOL    HW223367   5.107   2.903   6.618
 7490SOL     OW23368   1.858   2.941   2.140
 7490SOL    HW123369   1.779   2.904   2.091
 7490SOL    HW223370   1.939   2.934   2.082
 7491SOL     OW23371   4.350   3.911   0.308
 7491SOL    HW123372   4.307   3.994   0.343
 7491SOL    HW223373   4.301   3.831   0.344
 7492SOL     OW23374   1.752   0.632   4.081
 7492SOL    HW123375   1.705   0.561   4.029
 7492SOL    HW223376   1.697   0.716   4.079
 7493SOL     OW23377   6.359   5.094   4.497
 7493SOL    HW123378   6.284   5.129   4.554
 7493SOL    HW223379   6.336   5.003   4.464
 7494SOL     OW23380   6.168   1.417   2.430
 7494SOL    HW123381   6.199   1.498   2.381
 7494SOL    HW223382   6.160   1.439   2.527
 7495SOL     OW23383   1.268   3.047   4.978
 7495SOL    HW123384   1.316   2.979   4.923
 7495SOL    HW223385   1.184   3.075   4.930
 7496SOL     OW23386   6.210   3.855   2.382
 7496SOL    HW123387   6.123   3.878   2.426
 7496SOL    HW223388   6.258   3.786   2.437
 7497SOL     OW23389   6.360   6.998   1.294
 7497SOL    HW123390   6.321   6.954   1.213
 7497SOL    HW223391   6.312   6.966   1.376
 7498SOL     OW23392   2.689   6.565   3.714
 7498SOL    HW123393   2.696   6.603   3.807
 7498SOL    HW223394   2.664   6.637   3.650
 7499SOL     OW23395   3.187   1.508   3.288
 7499SOL    HW123396   3.231   1.424   3.321
 7499SOL    HW223397   3.104   1.485   3.237
 7500SOL     OW23398   3.921   0.710   4.182
 7500SOL    HW123399   3.876   0.751   4.261
 7500SOL    HW223400   3.853   0.687   4.113
 7501SOL     OW23401   6.442   2.086   4.175
 7501SOL    HW123402   6.509   2.012   4.175
 7501SOL    HW223403   6.442   2.132   4.263
 7502SOL     OW23404   4.390   1.002   3.726
 7502SOL    HW123405   4.306   0.951   3.710
 7502SOL    HW223406   4.457   0.980   3.656
 7503SOL     OW23407   1.331   6.066   1.328
 7503SOL    HW123408   1.426   6.096   1.322
 7503SOL    HW223409   1.274   6.141   1.361
 7504SOL     OW23410   5.808   6.479   4.650
 7504SOL    HW123411   5.819   6.577   4.666
 7504SOL    HW223412   5.889   6.431   4.685
 7505SOL     OW23413   1.040   6.593   5.677
 7505SOL    HW123414   0.997   6.512   5.638
 7505SOL    HW223415   0.974   6.642   5.735
 7506SOL     OW23416   3.259   2.082   4.329
 7506SOL    HW123417   3.207   2.087   4.414
 7506SOL    HW223418   3.354   2.110   4.346
 7507SOL     OW23419   6.712   3.903   5.843
 7507SOL    HW123420   6.757   3.918   5.931
 7507SOL    HW223421   6.647   3.828   5.852
 7508SOL     OW23422   2.958   6.451   0.737
 7508SOL    HW123423   2.897   6.414   0.668
 7508SOL    HW223424   2.954   6.395   0.819
 7509SOL     OW23425   6.112   4.476   2.061
 7509SOL    HW123426   6.155   4.430   1.983
 7509SOL    HW223427   6.152   4.568   2.071
 7510SOL     OW23428   3.399   4.301   1.667
 7510SOL    HW123429   3.309   4.341   1.688
 7510SOL    HW223430   3.387   4.217   1.615
 7511SOL     OW23431   4.458   6.206   3.779
 7511SOL    HW123432   4.460   6.161   3.690
 7511SOL    HW223433   4.506   6.150   3.846
 7512SOL     OW23434   4.230   0.473   0.906
 7512SOL    HW123435   4.139   0.508   0.929
 7512SOL    HW223436   4.284   0.463   0.990
 7513SOL     OW23437   1.071   0.988   2.059
 7513SOL    HW123438   1.081   1.087   2.060
 7513SOL    HW223439   1.153   0.946   2.020
 7514SOL     OW23440   0.489   6.924   0.912
 7514SOL    HW123441   0.522   7.009   0.871
 7514SOL    HW223442   0.495   6.931   1.012
 7515SOL     OW23443   0.574   4.726   5.294
 7515SOL    HW123444   0.608   4.714   5.201
 7515SOL    HW223445   0.615   4.808   5.334
 7516SOL     OW23446   1.960   6.425   5.127
 7516SOL    HW123447   2.020   6.356   5.088
 7516SOL    HW223448   2.009   6.512   5.133
 7517SOL     OW23449   0.573   2.145   6.553
 7517SOL    HW123450   0.487   2.197   6.551
 7517SOL    HW223451   0.644   2.197   6.504
 7518SOL     OW23452   3.938   2.087   4.580
 7518SOL    HW123453   3.903   2.093   4.487
 7518SOL    HW223454   4.015   2.023   4.583
 7519SOL     OW23455   3.625   6.699   4.435
 7519SOL    HW123456   3.654   6.653   4.351
 7519SOL    HW223457   3.699   6.698   4.501
 7520SOL     OW23458   1.849   1.161   0.787
 7520SOL    HW123459   1.897   1.243   0.818
 7520SOL    HW223460   1.873   1.142   0.691
 7521SOL     OW23461   4.368   1.408   5.247
 7521SOL    HW123462   4.280   1.428   5.204
 7521SOL    HW223463   4.390   1.479   5.315
 7522SOL     OW23464   1.926   6.616   4.212
 7522SOL    HW123465   1.909   6.552   4.287
 7522SOL    HW223466   1.891   6.576   4.127
 7523SOL     OW23467   5.847   1.328   0.701
 7523SOL    HW123468   5.770   1.340   0.639
 7523SOL    HW223469   5.912   1.403   0.688
 7524SOL     OW23470   0.498   3.367   5.197
 7524SOL    HW123471   0.444   3.451   5.207
 7524SOL    HW223472   0.532   3.338   5.286
 7525SOL     OW23473   2.543   5.023   5.699
 7525SOL    HW123474   2.630   5.055   5.738
 7525SOL    HW223475   2.502   4.955   5.760
 7526SOL     OW23476   1.948   4.161   0.964
 7526SOL    HW123477   1.958   4.234   1.031
 7526SOL    HW223478   1.851   4.138   0.955
 7527SOL     OW23479   2.695   4.935   2.864
 7527SOL    HW123480   2.740   4.967   2.780
 7527SOL    HW223481   2.602   4.972   2.868
 7528SOL     OW23482   6.032   2.624   6.122
 7528SOL    HW123483   5.960   2.557   6.133
 7528SOL    HW223484   6.001   2.698   6.062
 7529SOL     OW23485   5.750   3.489   4.521
 7529SOL    HW123486   5.743   3.544   4.604
 7529SOL    HW223487   5.737   3.548   4.441
 7530SOL     OW23488   1.252   2.767   3.226
 7530SOL    HW123489   1.194   2.750   3.147
 7530SOL    HW223490   1.209   2.836   3.285
 7531SOL     OW23491   4.055   1.703   3.959
 7531SOL    HW123492   4.067   1.747   3.869
 7531SOL    HW223493   3.986   1.753   4.011
 7532SOL     OW23494   5.027   5.532   6.593
 7532SOL    HW123495   5.092   5.607   6.581
 7532SOL    HW223496   4.939   5.557   6.553
 7533SOL     OW23497   4.573   4.575   1.948
 7533SOL    HW123498   4.634   4.588   2.026
 7533SOL    HW223499   4.543   4.479   1.945
 7534SOL     OW23500   4.486   5.792   5.173
 7534SOL    HW123501   4.459   5.707   5.128
 7534SOL    HW223502   4.585   5.790   5.191
 7535SOL     OW23503   0.308   6.781   4.171
 7535SOL    HW123504   0.261   6.693   4.162
 7535SOL    HW223505   0.286   6.839   4.092
 7536SOL     OW23506   6.759   5.992   3.405
 7536SOL    HW123507   6.686   6.061   3.399
 7536SOL    HW223508   6.838   6.031   3.452
 7537SOL     OW23509   1.684   0.019   2.737
 7537SOL    HW123510   1.722   6.938   2.742
 7537SOL    HW223511   1.638   0.042   2.823
 7538SOL     OW23512   0.233   4.826   0.154
 7538SOL    HW123513   0.197   4.737   0.126
 7538SOL    HW223514   0.296   4.860   0.084
 7539SOL     OW23515   6.517   0.332   4.116
 7539SOL    HW123516   6.478   0.425   4.118
 7539SOL    HW223517   6.482   0.280   4.194
 7540SOL     OW23518   5.223   4.355   2.813
 7540SOL    HW123519   5.276   4.429   2.855
 7540SOL    HW223520   5.125   4.375   2.821
 7541SOL     OW23521   2.563   3.945   6.167
 7541SOL    HW123522   2.593   4.041   6.173
 7541SOL    HW223523   2.583   3.910   6.075
 7542SOL     OW23524   6.333   5.923   4.913
 7542SOL    HW123525   6.360   6.015   4.884
 7542SOL    HW223526   6.240   5.925   4.949
 7543SOL     OW23527   2.286   0.982   0.574
 7543SOL    HW123528   2.347   0.978   0.495
 7543SOL    HW223529   2.322   0.923   0.647
 7544SOL     OW23530   6.039   1.374   4.422
 7544SOL    HW123531   6.036   1.449   4.356
 7544SOL    HW223532   6.048   1.287   4.374
 7545SOL     OW23533   1.376   5.563   5.273
 7545SOL    HW123534   1.450   5.577   5.207
 7545SOL    HW223535   1.409   5.506   5.348
 7546SOL     OW23536   2.347   2.682   1.873
 7546SOL    HW123537   2.321   2.756   1.812
 7546SOL    HW223538   2.447   2.670   1.871
 7547SOL     OW23539   4.043   6.996   1.960
 7547SOL    HW123540   4.101   6.915   1.948
 7547SOL    HW223541   3.969   6.993   1.892
 7548SOL     OW23542   2.748   2.247   6.551
 7548SOL    HW123543   2.701   2.223   6.466
 7548SOL    HW223544   2.793   2.335   6.539
 7549SOL     OW23545   5.161   0.730   4.474
 7549SOL    HW123546   5.112   0.767   4.395
 7549SOL    HW223547   5.184   0.634   4.457
 7550SOL     OW23548   2.731   6.095   4.446
 7550SOL    HW123549   2.778   6.021   4.495
 7550SOL    HW223550   2.634   6.093   4.468
 7551SOL     OW23551   6.262   2.926   6.527
 7551SOL    HW123552   6.328   2.989   6.569
 7551SOL    HW223553   6.297   2.895   6.439
 7552SOL     OW23554   2.624   6.249   4.701
 7552SOL    HW123555   2.679   6.166   4.696
 7552SOL    HW223556   2.606   6.271   4.797
 7553SOL     OW23557   6.399   6.462   6.085
 7553SOL    HW123558   6.359   6.376   6.052
 7553SOL    HW223559   6.379   6.535   6.020
 7554SOL     OW23560   4.725   1.753   1.341
 7554SOL    HW123561   4.798   1.820   1.348
 7554SOL    HW223562   4.642   1.797   1.307
 7555SOL     OW23563   4.481   5.161   4.090
 7555SOL    HW123564   4.468   5.243   4.034
 7555SOL    HW223565   4.404   5.151   4.153
 7556SOL     OW23566   1.175   5.956   1.100
 7556SOL    HW123567   1.242   5.899   1.052
 7556SOL    HW223568   1.221   6.006   1.174
 7557SOL     OW23569   4.516   6.340   1.352
 7557SOL    HW123570   4.465   6.254   1.349
 7557SOL    HW223571   4.551   6.362   1.261
 7558SOL     OW23572   0.445   1.961   3.671
 7558SOL    HW123573   0.409   1.977   3.579
 7558SOL    HW223574   0.447   1.863   3.690
 7559SOL     OW23575   3.164   0.734   5.047
 7559SOL    HW123576   3.150   0.770   5.140
 7559SOL    HW223577   3.258   0.699   5.039
 7560SOL     OW23578   0.873   1.062   5.843
 7560SOL    HW123579   0.872   0.996   5.767
 7560SOL    HW223580   0.967   1.071   5.877
 7561SOL     OW23581   5.229   1.208   5.218
 7561SOL    HW123582   5.300   1.279   5.216
 7561SOL    HW223583   5.262   1.128   5.167
 7562SOL     OW23584   2.180   5.540   3.366
 7562SOL    HW123585   2.269   5.581   3.346
 7562SOL    HW223586   2.113   5.613   3.380
 7563SOL     OW23587   2.715   6.292   2.941
 7563SOL    HW123588   2.763   6.308   3.027
 7563SOL    HW223589   2.752   6.211   2.897
 7564SOL     OW23590   4.866   2.119   5.402
 7564SOL    HW123591   4.916   2.041   5.365
 7564SOL    HW223592   4.822   2.169   5.328
 7565SOL     OW23593   6.343   2.794   5.497
 7565SOL    HW123594   6.421   2.785   5.560
 7565SOL    HW223595   6.364   2.863   5.429
 7566SOL     OW23596   4.943   5.214   2.107
 7566SOL    HW123597   4.997   5.148   2.055
 7566SOL    HW223598   4.944   5.189   2.204
 7567SOL     OW23599   1.413   0.308   4.310
 7567SOL    HW123600   1.495   0.320   4.367
 7567SOL    HW223601   1.440   0.302   4.214
 7568SOL     OW23602   6.347   4.445   1.356
 7568SOL    HW123603   6.350   4.413   1.261
 7568SOL    HW223604   6.336   4.366   1.417
 7569SOL     OW23605   4.488   3.698   0.583
 7569SOL    HW123606   4.392   3.686   0.560
 7569SOL    HW223607   4.497   3.707   0.683
 7570SOL     OW23608   0.794   3.025   2.069
 7570SOL    HW123609   0.748   3.021   1.980
 7570SOL    HW223610   0.735   2.988   2.140
 7571SOL     OW23611   4.841   1.579   2.836
 7571SOL    HW123612   4.790   1.652   2.791
 7571SOL    HW223613   4.837   1.591   2.935
 7572SOL     OW23614   4.757   6.548   3.607
 7572SOL    HW123615   4.741   6.644   3.628
 7572SOL    HW223616   4.746   6.493   3.690
 7573SOL     OW23617   4.618   6.464   6.534
 7573SOL    HW123618   4.553   6.531   6.498
 7573SOL    HW223619   4.703   6.510   6.559
 7574SOL     OW23620   0.576   2.612   4.097
 7574SOL    HW123621   0.539   2.703   4.079
 7574SOL    HW223622   0.617   2.575   4.013
 7575SOL     OW23623   6.938   6.611   1.098
 7575SOL    HW123624   6.852   6.661   1.103
 7575SOL    HW223625   6.990   6.642   1.018
 7576SOL     OW23626   4.507   2.720   6.837
 7576SOL    HW123627   4.411   2.717   6.811
 7576SOL    HW223628   4.536   2.815   6.849
 7577SOL     OW23629   0.426   0.241   6.550
 7577SOL    HW123630   0.514   0.224   6.505
 7577SOL    HW223631   0.352   0.232   6.484
 7578SOL     OW23632   6.392   6.196   3.042
 7578SOL    HW123633   6.412   6.102   3.016
 7578SOL    HW223634   6.303   6.201   3.086
 7579SOL     OW23635   0.720   1.319   6.819
 7579SOL    HW123636   0.796   1.290   6.877
 7579SOL    HW223637   0.754   1.375   6.744
 7580SOL     OW23638   1.931   5.474   3.097
 7580SOL    HW123639   2.003   5.472   3.167
 7580SOL    HW223640   1.913   5.569   3.071
 7581SOL     OW23641   0.287   6.771   1.091
 7581SOL    HW123642   0.220   6.843   1.108
 7581SOL    HW223643   0.239   6.688   1.063
 7582SOL     OW23644   2.387   1.473   6.289
 7582SOL    HW123645   2.469   1.515   6.251
 7582SOL    HW223646   2.412   1.416   6.368
 7583SOL     OW23647   5.548   3.760   2.141
 7583SOL    HW123648   5.515   3.683   2.197
 7583SOL    HW223649   5.625   3.804   2.187
 7584SOL     OW23650   0.555   0.882   3.201
 7584SOL    HW123651   0.602   0.873   3.114
 7584SOL    HW223652   0.615   0.850   3.275
 7585SOL     OW23653   1.072   1.407   5.787
 7585SOL    HW123654   1.059   1.365   5.697
 7585SOL    HW223655   1.050   1.505   5.782
 7586SOL     OW23656   1.852   6.456   3.662
 7586SOL    HW123657   1.831   6.533   3.723
 7586SOL    HW223658   1.943   6.467   3.623
 7587SOL     OW23659   4.910   0.404   1.719
 7587SOL    HW123660   4.949   0.343   1.788
 7587SOL    HW223661   4.976   0.474   1.695
 7588SOL     OW23662   2.116   3.409   4.723
 7588SOL    HW123663   2.074   3.335   4.775
 7588SOL    HW223664   2.091   3.497   4.764
 7589SOL     OW23665   6.648   0.511   2.280
 7589SOL    HW123666   6.673   0.485   2.373
 7589SOL    HW223667   6.728   0.505   2.221
 7590SOL     OW23668   6.120   1.132   0.781
 7590SOL    HW123669   6.066   1.053   0.750
 7590SOL    HW223670   6.095   1.155   0.875
 7591SOL     OW23671   2.953   3.807   4.694
 7591SOL    HW123672   2.927   3.785   4.601
 7591SOL    HW223673   3.032   3.869   4.693
 7592SOL     OW23674   0.457   6.460   3.886
 7592SOL    HW123675   0.404   6.544   3.870
 7592SOL    HW223676   0.464   6.442   3.984
 7593SOL     OW23677   6.661   1.032   6.279
 7593SOL    HW123678   6.713   1.072   6.203
 7593SOL    HW223679   6.672   1.088   6.361
 7594SOL     OW23680   6.656   3.621   5.636
 7594SOL    HW123681   6.712   3.660   5.563
 7594SOL    HW223682   6.628   3.528   5.609
 7595SOL     OW23683   0.321   3.536   6.696
 7595SOL    HW123684   0.333   3.542   6.597
 7595SOL    HW223685   0.238   3.585   6.722
 7596SOL     OW23686   2.420   1.785   0.601
 7596SOL    HW123687   2.412   1.704   0.659
 7596SOL    HW223688   2.417   1.867   0.658
 7597SOL     OW23689   2.325   4.414   0.977
 7597SOL    HW123690   2.383   4.475   0.924
 7597SOL    HW223691   2.303   4.333   0.923
 7598SOL     OW23692   5.531   0.874   2.299
 7598SOL    HW123693   5.566   0.968   2.299
 7598SOL    HW223694   5.600   0.813   2.259
 7599SOL     OW23695   3.260   3.413   0.531
 7599SOL    HW123696   3.214   3.476   0.593
 7599SOL    HW223697   3.191   3.360   0.481
 7600SOL     OW23698   0.939   0.052   3.944
 7600SOL    HW123699   1.022   0.009   3.911
 7600SOL    HW223700   0.879   6.993   3.985
 7601SOL     OW23701   3.211   6.754   1.268
 7601SOL    HW123702   3.164   6.784   1.352
 7601SOL    HW223703   3.299   6.799   1.262
 7602SOL     OW23704   0.766   1.849   1.003
 7602SOL    HW123705   0.825   1.886   1.076
 7602SOL    HW223706   0.804   1.874   0.914
 7603SOL     OW23707   4.454   0.935   6.258
 7603SOL    HW123708   4.535   0.994   6.258
 7603SOL    HW223709   4.375   0.986   6.226
 7604SOL     OW23710   2.193   2.438   5.320
 7604SOL    HW123711   2.271   2.395   5.275
 7604SOL    HW223712   2.218   2.530   5.350
 7605SOL     OW23713   3.041   5.785   0.001
 7605SOL    HW123714   3.078   5.700   0.039
 7605SOL    HW223715   3.073   5.797   6.918
 7606SOL     OW23716   6.880   0.659   3.310
 7606SOL    HW123717   6.859   0.745   3.264
 7606SOL    HW223718   6.844   0.661   3.403
 7607SOL     OW23719   1.881   5.765   5.577
 7607SOL    HW123720   1.785   5.754   5.603
 7607SOL    HW223721   1.900   5.710   5.495
 7608SOL     OW23722   6.984   1.974   6.516
 7608SOL    HW123723   6.983   2.041   6.442
 7608SOL    HW223724   0.040   1.902   6.496
 7609SOL     OW23725   3.786   0.703   4.695
 7609SOL    HW123726   3.813   0.654   4.778
 7609SOL    HW223727   3.708   0.763   4.716
 7610SOL     OW23728   4.275   5.032   4.445
 7610SOL    HW123729   4.249   5.079   4.361
 7610SOL    HW223730   4.371   5.006   4.441
 7611SOL     OW23731   4.667   2.308   0.038
 7611SOL    HW123732   4.659   2.391   6.993
 7611SOL    HW223733   4.616   2.321   0.123
 7612SOL     OW23734   4.211   2.233   2.768
 7612SOL    HW123735   4.226   2.217   2.865
 7612SOL    HW223736   4.125   2.189   2.740
 7613SOL     OW23737   0.646   0.596   6.863
 7613SOL    HW123738   0.732   0.646   6.862
 7613SOL    HW223739   0.652   0.521   6.929
 7614SOL     OW23740   5.585   4.537   0.502
 7614SOL    HW123741   5.499   4.514   0.548
 7614SOL    HW223742   5.574   4.623   0.452
 7615SOL     OW23743   6.021   3.319   5.973
 7615SOL    HW123744   6.062   3.231   5.997
 7615SOL    HW223745   6.093   3.390   5.972
 7616SOL     OW23746   6.945   6.552   2.089
 7616SOL    HW123747   6.951   6.641   2.135
 7616SOL    HW223748   6.858   6.508   2.111
 7617SOL     OW23749   6.294   3.785   3.067
 7617SOL    HW123750   6.282   3.686   3.062
 7617SOL    HW223751   6.218   3.831   3.020
 7618SOL     OW23752   2.398   2.232   6.951
 7618SOL    HW123753   2.491   2.240   6.986
 7618SOL    HW223754   2.401   2.217   6.852
 7619SOL     OW23755   1.049   0.842   5.021
 7619SOL    HW123756   1.035   0.784   4.941
 7619SOL    HW223757   1.134   0.816   5.066
 7620SOL     OW23758   3.286   3.579   0.322
 7620SOL    HW123759   3.305   3.548   0.229
 7620SOL    HW223760   3.312   3.507   0.387
 7621SOL     OW23761   6.280   5.341   0.034
 7621SOL    HW123762   6.360   5.281   0.024
 7621SOL    HW223763   6.311   5.434   0.057
 7622SOL     OW23764   3.453   3.474   1.592
 7622SOL    HW123765   3.360   3.506   1.572
 7622SOL    HW223766   3.510   3.553   1.616
 7623SOL     OW23767   5.330   4.675   2.171
 7623SOL    HW123768   5.291   4.587   2.141
 7623SOL    HW223769   5.265   4.720   2.232
 7624SOL     OW23770   0.748   3.049   2.481
 7624SOL    HW123771   0.789   3.106   2.552
 7624SOL    HW223772   0.813   2.978   2.454
 7625SOL     OW23773   5.382   0.082   1.579
 7625SOL    HW123774   5.358   0.179   1.582
 7625SOL    HW223775   5.333   0.038   1.503
 7626SOL     OW23776   4.514   0.028   0.238
 7626SOL    HW123777   4.499   6.979   0.317
 7626SOL    HW223778   4.580   0.099   0.263
 7627SOL     OW23779   4.469   2.387   5.957
 7627SOL    HW123780   4.505   2.371   5.865
 7627SOL    HW223781   4.540   2.364   6.024
 7628SOL     OW23782   2.883   2.864   0.683
 7628SOL    HW123783   2.958   2.798   0.687
 7628SOL    HW223784   2.869   2.893   0.589
 7629SOL     OW23785   6.042   2.680   3.503
 7629SOL    HW123786   6.000   2.594   3.474
 7629SOL    HW223787   6.004   2.707   3.592
 7630SOL     OW23788   0.995   6.027   3.898
 7630SOL    HW123789   1.085   6.012   3.938
 7630SOL    HW223790   0.998   6.105   3.836
 7631SOL     OW23791   1.479   1.227   5.933
 7631SOL    HW123792   1.508   1.224   5.837
 7631SOL    HW223793   1.550   1.188   5.991
 7632SOL     OW23794   3.888   5.841   1.247
 7632SOL    HW123795   3.887   5.782   1.166
 7632SOL    HW223796   3.946   5.800   1.317
 7633SOL     OW23797   5.277   1.084   1.486
 7633SOL    HW123798   5.248   1.002   1.437
 7633SOL    HW223799   5.312   1.151   1.420
 7634SOL     OW23800   0.374   1.826   6.801
 7634SOL    HW123801   0.393   1.735   6.838
 7634SOL    HW223802   0.422   1.837   6.714
 7635SOL     OW23803   1.255   3.231   5.944
 7635SOL    HW123804   1.253   3.311   5.884
 7635SOL    HW223805   1.292   3.153   5.894
 7636SOL     OW23806   6.766   3.330   3.896
 7636SOL    HW123807   6.833   3.381   3.843
 7636SOL    HW223808   6.809   3.296   3.980
 7637SOL     OW23809   0.887   4.193   4.919
 7637SOL    HW123810   0.825   4.115   4.914
 7637SOL    HW223811   0.871   4.242   5.005
 7638SOL     OW23812   0.403   6.267   0.950
 7638SOL    HW123813   0.410   6.176   0.992
 7638SOL    HW223814   0.372   6.333   1.018
 7639SOL     OW23815   2.266   6.723   0.461
 7639SOL    HW123816   2.172   6.701   0.436
 7639SOL    HW223817   2.265   6.792   0.534
 7640SOL     OW23818   3.278   0.553   0.926
 7640SOL    HW123819   3.235   0.513   1.007
 7640SOL    HW223820   3.242   0.645   0.911
 7641SOL     OW23821   6.816   5.171   4.973
 7641SOL    HW123822   6.915   5.186   4.976
 7641SOL    HW223823   6.769   5.251   5.009
 7642SOL     OW23824   5.885   1.159   3.546
 7642SOL    HW123825   5.840   1.245   3.571
 7642SOL    HW223826   5.866   1.090   3.615
 7643SOL     OW23827   5.610   3.038   4.825
 7643SOL    HW123828   5.698   3.083   4.841
 7643SOL    HW223829   5.625   2.944   4.794
 7644SOL     OW23830   5.105   4.513   0.877
 7644SOL    HW123831   5.168   4.443   0.913
 7644SOL    HW223832   5.157   4.582   0.827
 7645SOL     OW23833   4.588   4.949   6.884
 7645SOL    HW123834   4.569   4.904   6.971
 7645SOL    HW223835   4.638   4.886   6.824
 7646SOL     OW23836   6.575   2.208   1.469
 7646SOL    HW123837   6.537   2.216   1.561
 7646SOL    HW223838   6.644   2.280   1.455
 7647SOL     OW23839   6.594   1.878   4.176
 7647SOL    HW123840   6.584   1.779   4.165
 7647SOL    HW223841   6.677   1.908   4.129
 7648SOL     OW23842   1.688   2.066   1.082
 7648SOL    HW123843   1.651   2.060   0.989
 7648SOL    HW223844   1.781   2.104   1.078
 7649SOL     OW23845   4.034   0.467   0.204
 7649SOL    HW123846   4.133   0.457   0.210
 7649SOL    HW223847   3.997   0.482   0.296
 7650SOL     OW23848   3.387   2.502   0.284
 7650SOL    HW123849   3.404   2.512   0.186
 7650SOL    HW223850   3.343   2.414   0.302
 7651SOL     OW23851   3.666   5.600   6.341
 7651SOL    HW123852   3.623   5.673   6.394
 7651SOL    HW223853   3.617   5.515   6.356
 7652SOL     OW23854   0.220   0.783   5.512
 7652SOL    HW123855   0.177   0.796   5.423
 7652SOL    HW223856   0.215   0.686   5.537
 7653SOL     OW23857   1.965   6.463   6.879
 7653SOL    HW123858   2.060   6.436   6.865
 7653SOL    HW223859   1.918   6.393   6.932
 7654SOL     OW23860   0.119   2.286   5.452
 7654SOL    HW123861   0.031   2.332   5.451
 7654SOL    HW223862   0.158   2.290   5.544
 7655SOL     OW23863   3.714   1.786   4.966
 7655SOL    HW123864   3.680   1.810   4.875
 7655SOL    HW223865   3.690   1.858   5.031
 7656SOL     OW23866   6.075   3.957   6.603
 7656SOL    HW123867   6.108   4.051   6.603
 7656SOL    HW223868   6.059   3.927   6.697
 7657SOL     OW23869   0.938   3.643   4.781
 7657SOL    HW123870   0.945   3.659   4.682
 7657SOL    HW223871   0.999   3.568   4.806
 7658SOL     OW23872   2.787   0.989   1.494
 7658SOL    HW123873   2.738   1.071   1.463
 7658SOL    HW223874   2.733   0.908   1.471
 7659SOL     OW23875   5.074   4.955   6.066
 7659SOL    HW123876   5.149   5.020   6.074
 7659SOL    HW223877   5.090   4.895   5.988
 7660SOL     OW23878   6.530   6.328   5.759
 7660SOL    HW123879   6.448   6.348   5.704
 7660SOL    HW223880   6.505   6.267   5.834
 7661SOL     OW23881   2.763   1.144   5.546
 7661SOL    HW123882   2.863   1.147   5.547
 7661SOL    HW223883   2.730   1.112   5.635
 7662SOL     OW23884   0.123   6.045   1.171
 7662SOL    HW123885   0.122   6.081   1.264
 7662SOL    HW223886   0.038   5.996   1.153
 7663SOL     OW23887   1.131   5.907   4.426
 7663SOL    HW123888   1.040   5.873   4.403
 7663SOL    HW223889   1.192   5.830   4.443
 7664SOL     OW23890   5.360   2.282   2.416
 7664SOL    HW123891   5.279   2.249   2.368
 7664SOL    HW223892   5.337   2.302   2.512
 7665SOL     OW23893   3.182   0.788   5.451
 7665SOL    HW123894   3.101   0.752   5.406
 7665SOL    HW223895   3.156   0.838   5.533
 7666SOL     OW23896   5.622   5.449   3.988
 7666SOL    HW123897   5.694   5.379   3.986
 7666SOL    HW223898   5.617   5.489   4.080
 7667SOL     OW23899   4.156   5.586   1.822
 7667SOL    HW123900   4.074   5.617   1.870
 7667SOL    HW223901   4.205   5.665   1.784
 7668SOL     OW23902   1.652   5.677   0.036
 7668SOL    HW123903   1.626   5.766   7.009
 7668SOL    HW223904   1.698   5.623   6.976
 7669SOL     OW23905   2.537   1.437   6.903
 7669SOL    HW123906   2.462   1.497   6.876
 7669SOL    HW223907   2.517   1.343   6.874
 7670SOL     OW23908   1.057   0.563   0.875
 7670SOL    HW123909   1.052   0.464   0.879
 7670SOL    HW223910   1.044   0.601   0.967
 7671SOL     OW23911   3.241   6.942   1.660
 7671SOL    HW123912   3.155   6.979   1.625
 7671SOL    HW223913   3.316   6.973   1.601
 7672SOL     OW23914   5.465   3.582   2.358
 7672SOL    HW123915   5.512   3.512   2.412
 7672SOL    HW223916   5.389   3.620   2.411
 7673SOL     OW23917   1.999   6.662   4.892
 7673SOL    HW123918   1.923   6.648   4.828
 7673SOL    HW223919   2.060   6.583   4.889
 7674SOL     OW23920   3.751   5.668   3.891
 7674SOL    HW123921   3.705   5.589   3.851
 7674SOL    HW223922   3.702   5.751   3.865
 7675SOL     OW23923   4.159   6.392   3.114
 7675SOL    HW123924   4.249   6.433   3.103
 7675SOL    HW223925   4.155   6.343   3.202
 7676SOL     OW23926   3.101   3.207   5.013
 7676SOL    HW123927   3.010   3.248   5.014
 7676SOL    HW223928   3.145   3.227   4.925
 7677SOL     OW23929   0.118   5.814   6.752
 7677SOL    HW123930   0.165   5.829   6.666
 7677SOL    HW223931   0.084   5.901   6.788
 7678SOL     OW23932   3.795   1.322   6.241
 7678SOL    HW123933   3.878   1.326   6.186
 7678SOL    HW223934   3.774   1.226   6.261
 7679SOL     OW23935   2.886   4.756   4.072
 7679SOL    HW123936   2.948   4.799   4.138
 7679SOL    HW223937   2.917   4.663   4.052
 7680SOL     OW23938   2.118   6.789   4.289
 7680SOL    HW123939   2.184   6.748   4.352
 7680SOL    HW223940   2.039   6.728   4.281
 7681SOL     OW23941   1.841   2.171   5.660
 7681SOL    HW123942   1.761   2.184   5.718
 7681SOL    HW223943   1.904   2.108   5.704
 7682SOL     OW23944   3.110   0.343   2.217
 7682SOL    HW123945   3.150   0.352   2.126
 7682SOL    HW223946   3.083   0.434   2.251
 7683SOL     OW23947   0.254   4.561   4.573
 7683SOL    HW123948   0.198   4.489   4.532
 7683SOL    HW223949   0.215   4.650   4.551
 7684SOL     OW23950   4.703   3.454   1.742
 7684SOL    HW123951   4.619   3.504   1.720
 7684SOL    HW223952   4.690   3.357   1.722
 7685SOL     OW23953   2.659   0.380   0.012
 7685SOL    HW123954   2.589   0.314   0.041
 7685SOL    HW223955   2.733   0.383   0.080
 7686SOL     OW23956   0.011   0.363   3.706
 7686SOL    HW123957   0.029   0.392   3.800
 7686SOL    HW223958   0.085   0.304   3.674
 7687SOL     OW23959   5.312   3.399   6.045
 7687SOL    HW123960   5.320   3.499   6.046
 7687SOL    HW223961   5.349   3.363   5.959
 7688SOL     OW23962   6.201   2.905   0.121
 7688SOL    HW123963   6.119   2.848   0.112
 7688SOL    HW223964   6.190   2.968   0.198
 7689SOL     OW23965   5.726   0.370   2.557
 7689SOL    HW123966   5.713   0.464   2.588
 7689SOL    HW223967   5.772   0.370   2.468
 7690SOL     OW23968   5.658   4.447   2.182
 7690SOL    HW123969   5.741   4.447   2.125
 7690SOL    HW223970   5.638   4.540   2.211
 7691SOL     OW23971   5.313   2.571   3.817
 7691SOL    HW123972   5.411   2.568   3.795
 7691SOL    HW223973   5.260   2.581   3.732
 7692SOL     OW23974   2.187   6.956   2.178
 7692SOL    HW123975   2.270   0.003   2.176
 7692SOL    HW223976   2.114   7.002   2.129
 7693SOL     OW23977   2.673   1.669   1.323
 7693SOL    HW123978   2.633   1.760   1.335
 7693SOL    HW223979   2.759   1.677   1.274
 7694SOL     OW23980   4.161   2.586   0.671
 7694SOL    HW123981   4.061   2.592   0.674
 7694SOL    HW223982   4.194   2.625   0.585
 7695SOL     OW23983   5.199   6.723   3.735
 7695SOL    HW123984   5.204   6.636   3.686
 7695SOL    HW223985   5.285   6.772   3.725
 7696SOL     OW23986   3.358   2.061   5.485
 7696SOL    HW123987   3.403   2.104   5.562
 7696SOL    HW223988   3.326   2.132   5.421
 7697SOL     OW23989   5.958   6.468   2.806
 7697SOL    HW123990   6.022   6.515   2.867
 7697SOL    HW223991   5.905   6.401   2.858
 7698SOL     OW23992   6.285   2.614   1.105
 7698SOL    HW123993   6.227   2.676   1.157
 7698SOL    HW223994   6.365   2.589   1.160
 7699SOL     OW23995   3.788   6.629   6.092
 7699SOL    HW123996   3.882   6.650   6.064
 7699SOL    HW223997   3.778   6.531   6.104
 7700SOL     OW23998   6.343   5.323   1.911
 7700SOL    HW123999   6.398   5.258   1.964
 7700SOL    HW224000   6.298   5.274   1.836
 7701SOL     OW24001   2.847   1.531   6.590
 7701SOL    HW124002   2.820   1.511   6.684
 7701SOL    HW224003   2.807   1.618   6.561
 7702SOL     OW24004   6.008   6.415   5.558
 7702SOL    HW124005   6.031   6.406   5.461
 7702SOL    HW224006   6.035   6.507   5.589
 7703SOL     OW24007   6.954   6.398   5.990
 7703SOL    HW124008   6.867   6.428   6.030
 7703SOL    HW224009   6.965   6.300   6.004
 7704SOL     OW24010   1.598   2.078   4.918
 7704SOL    HW124011   1.502   2.065   4.892
 7704SOL    HW224012   1.620   2.020   4.996
 7705SOL     OW24013   0.721   4.634   0.181
 7705SOL    HW124014   0.624   4.653   0.196
 7705SOL    HW224015   0.762   4.705   0.124
 7706SOL     OW24016   3.550   3.468   2.437
 7706SOL    HW124017   3.457   3.503   2.451
 7706SOL    HW224018   3.616   3.539   2.461
 7707SOL     OW24019   0.013   4.577   6.260
 7707SOL    HW124020   0.045   4.588   6.354
 7707SOL    HW224021   0.030   4.660   6.208
 7708SOL     OW24022   0.679   0.333   4.306
 7708SOL    HW124023   0.717   0.409   4.253
 7708SOL    HW224024   0.699   0.347   4.403
 7709SOL     OW24025   6.259   4.427   0.858
 7709SOL    HW124026   6.336   4.486   0.880
 7709SOL    HW224027   6.214   4.460   0.775
 7710SOL     OW24028   6.181   2.769   2.264
 7710SOL    HW124029   6.240   2.843   2.231
 7710SOL    HW224030   6.187   2.691   2.202
 7711SOL     OW24031   1.300   3.941   3.733
 7711SOL    HW124032   1.291   3.874   3.658
 7711SOL    HW224033   1.267   3.901   3.818
 7712SOL     OW24034   0.908   4.749   4.446
 7712SOL    HW124035   0.811   4.747   4.422
 7712SOL    HW224036   0.946   4.657   4.440
 7713SOL     OW24037   0.640   5.403   0.719
 7713SOL    HW124038   0.605   5.310   0.732
 7713SOL    HW224039   0.605   5.463   0.791
 7714SOL     OW24040   6.012   1.629   5.098
 7714SOL    HW124041   5.967   1.639   5.187
 7714SOL    HW224042   6.111   1.639   5.108
 7715SOL     OW24043   3.752   3.413   6.765
 7715SOL    HW124044   3.681   3.433   6.697
 7715SOL    HW224045   3.711   3.363   6.842
 7716SOL     OW24046   1.206   0.960   6.390
 7716SOL    HW124047   1.211   0.980   6.488
 7716SOL    HW224048   1.144   1.024   6.346
 7717SOL     OW24049   0.922   1.483   6.084
 7717SOL    HW124050   0.829   1.469   6.050
 7717SOL    HW224051   0.985   1.420   6.037
 7718SOL     OW24052   0.572   3.333   2.819
 7718SOL    HW124053   0.631   3.274   2.874
 7718SOL    HW224054   0.574   3.303   2.724
 7719SOL     OW24055   2.052   5.912   4.925
 7719SOL    HW124056   2.091   5.881   4.838
 7719SOL    HW224057   1.970   5.859   4.945
 7720SOL     OW24058   4.733   1.425   6.652
 7720SOL    HW124059   4.693   1.475   6.729
 7720SOL    HW224060   4.832   1.440   6.651
 7721SOL     OW24061   5.957   5.978   2.334
 7721SOL    HW124062   5.964   6.058   2.275
 7721SOL    HW224063   6.046   5.957   2.373
 7722SOL     OW24064   0.511   5.703   4.552
 7722SOL    HW124065   0.485   5.690   4.456
 7722SOL    HW224066   0.430   5.726   4.605
 7723SOL     OW24067   3.848   4.475   6.656
 7723SOL    HW124068   3.879   4.487   6.751
 7723SOL    HW224069   3.890   4.393   6.618
 7724SOL     OW24070   1.296   3.935   0.279
 7724SOL    HW124071   1.311   3.837   0.278
 7724SOL    HW224072   1.197   3.953   0.276
 7725SOL     OW24073   5.406   3.541   4.745
 7725SOL    HW124074   5.474   3.614   4.740
 7725SOL    HW224075   5.452   3.453   4.755
 7726SOL     OW24076   1.950   3.133   6.996
 7726SOL    HW124077   1.971   3.146   0.082
 7726SOL    HW224078   1.957   3.036   6.973
 7727SOL     OW24079   5.654   0.634   2.673
 7727SOL    HW124080   5.562   0.673   2.673
 7727SOL    HW224081   5.677   0.602   2.764
 7728SOL     OW24082   2.185   3.391   5.052
 7728SOL    HW124083   2.213   3.359   4.962
 7728SOL    HW224084   2.226   3.332   5.122
 7729SOL     OW24085   6.929   0.916   2.908
 7729SOL    HW124086   6.958   0.998   2.859
 7729SOL    HW224087   6.915   0.841   2.842
 7730SOL     OW24088   5.634   4.320   6.011
 7730SOL    HW124089   5.650   4.224   6.030
 7730SOL    HW224090   5.680   4.346   5.926
 7731SOL     OW24091   6.920   0.516   6.199
 7731SOL    HW124092   6.858   0.521   6.277
 7731SOL    HW224093   6.955   0.423   6.189
 7732SOL     OW24094   4.478   0.994   0.145
 7732SOL    HW124095   4.512   0.906   0.111
 7732SOL    HW224096   4.431   1.042   0.071
 7733SOL     OW24097   6.600   5.687   0.933
 7733SOL    HW124098   6.547   5.611   0.970
 7733SOL    HW224099   6.552   5.773   0.951
 7734SOL     OW24100   4.063   3.799   2.910
 7734SOL    HW124101   4.064   3.716   2.854
 7734SOL    HW224102   4.109   3.781   2.997
 7735SOL     OW24103   1.417   5.720   0.581
 7735SOL    HW124104   1.375   5.799   0.536
 7735SOL    HW224105   1.501   5.749   0.627
 7736SOL     OW24106   1.553   1.689   0.830
 7736SOL    HW124107   1.479   1.738   0.875
 7736SOL    HW224108   1.641   1.725   0.861
 7737SOL     OW24109   4.497   4.491   6.654
 7737SOL    HW124110   4.547   4.512   6.738
 7737SOL    HW224111   4.561   4.486   6.578
 7738SOL     OW24112   1.283   1.367   5.573
 7738SOL    HW124113   1.224   1.308   5.517
 7738SOL    HW224114   1.372   1.323   5.584
 7739SOL     OW24115   1.142   2.679   0.318
 7739SOL    HW124116   1.127   2.671   0.219
 7739SOL    HW224117   1.054   2.693   0.364
 7740SOL     OW24118   2.282   0.955   4.329
 7740SOL    HW124119   2.204   0.926   4.385
 7740SOL    HW224120   2.251   1.021   4.260
 7741SOL     OW24121   6.953   3.805   5.861
 7741SOL    HW124122   6.995   3.874   5.920
 7741SOL    HW224123   6.863   3.837   5.830
 7742SOL     OW24124   4.096   2.229   3.881
 7742SOL    HW124125   4.156   2.150   3.889
 7742SOL    HW224126   4.107   2.270   3.790
 7743SOL     OW24127   3.551   1.152   6.660
 7743SOL    HW124128   3.488   1.150   6.737
 7743SOL    HW224129   3.630   1.209   6.683
 7744SOL     OW24130   0.507   6.624   4.828
 7744SOL    HW124131   0.466   6.700   4.778
 7744SOL    HW224132   0.449   6.601   4.906
 7745SOL     OW24133   2.972   6.983   0.806
 7745SOL    HW124134   3.047   0.038   0.800
 7745SOL    HW224135   3.007   6.890   0.791
 7746SOL     OW24136   0.094   6.661   0.897
 7746SOL    HW124137   0.160   6.732   0.871
 7746SOL    HW224138   0.133   6.571   0.882
 7747SOL     OW24139   0.448   5.844   1.557
 7747SOL    HW124140   0.374   5.819   1.494
 7747SOL    HW224141   0.509   5.765   1.569
 7748SOL     OW24142   4.241   0.682   5.985
 7748SOL    HW124143   4.340   0.697   5.980
 7748SOL    HW224144   4.196   0.765   6.015
 7749SOL     OW24145   3.362   3.716   2.803
 7749SOL    HW124146   3.303   3.796   2.804
 7749SOL    HW224147   3.323   3.646   2.863
 7750SOL     OW24148   5.244   5.162   6.153
 7750SOL    HW124149   5.322   5.129   6.206
 7750SOL    HW224150   5.183   5.216   6.211
 7751SOL     OW24151   0.221   0.972   4.840
 7751SOL    HW124152   0.318   0.985   4.816
 7751SOL    HW224153   0.201   0.874   4.847
 7752SOL     OW24154   6.648   4.332   5.162
 7752SOL    HW124155   6.700   4.384   5.094
 7752SOL    HW224156   6.578   4.391   5.202
 7753SOL     OW24157   3.118   0.750   4.657
 7753SOL    HW124158   3.218   0.752   4.660
 7753SOL    HW224159   3.088   0.741   4.562
 7754SOL     OW24160   6.087   0.880   1.223
 7754SOL    HW124161   6.132   0.814   1.284
 7754SOL    HW224162   6.152   0.914   1.156
 7755SOL     OW24163   1.680   5.929   5.391
 7755SOL    HW124164   1.687   6.028   5.378
 7755SOL    HW224165   1.738   5.883   5.323
 7756SOL     OW24166   3.913   5.868   2.983
 7756SOL    HW124167   3.911   5.968   2.974
 7756SOL    HW224168   4.005   5.835   2.967
 7757SOL     OW24169   3.066   0.530   5.782
 7757SOL    HW124170   3.109   0.446   5.815
 7757SOL    HW224171   3.138   0.595   5.756
 7758SOL     OW24172   2.360   2.394   6.365
 7758SOL    HW124173   2.388   2.366   6.273
 7758SOL    HW224174   2.438   2.433   6.414
 7759SOL     OW24175   1.784   0.743   4.642
 7759SOL    HW124176   1.833   0.728   4.557
 7759SOL    HW224177   1.828   0.815   4.695
 7760SOL     OW24178   5.300   1.955   2.972
 7760SOL    HW124179   5.255   2.037   3.008
 7760SOL    HW224180   5.232   1.884   2.955
 7761SOL     OW24181   4.484   1.065   6.730
 7761SOL    HW124182   4.397   1.075   6.682
 7761SOL    HW224183   4.468   1.070   6.829
 7762SOL     OW24184   1.218   2.470   0.573
 7762SOL    HW124185   1.310   2.476   0.613
 7762SOL    HW224186   1.226   2.443   0.477
 7763SOL     OW24187   2.293   2.414   1.400
 7763SOL    HW124188   2.332   2.392   1.490
 7763SOL    HW224189   2.304   2.335   1.339
 7764SOL     OW24190   3.180   3.429   1.839
 7764SOL    HW124191   3.200   3.331   1.842
 7764SOL    HW224192   3.139   3.451   1.750
 7765SOL     OW24193   6.739   1.716   2.074
 7765SOL    HW124194   6.785   1.630   2.053
 7765SOL    HW224195   6.691   1.749   1.993
 7766SOL     OW24196   6.617   2.792   6.779
 7766SOL    HW124197   6.586   2.715   6.834
 7766SOL    HW224198   6.636   2.760   6.686
 7767SOL     OW24199   5.647   3.915   4.993
 7767SOL    HW124200   5.696   3.976   4.931
 7767SOL    HW224201   5.564   3.881   4.949
 7768SOL     OW24202   3.730   5.346   1.490
 7768SOL    HW124203   3.712   5.444   1.487
 7768SOL    HW224204   3.755   5.320   1.584
 7769SOL     OW24205   5.703   2.274   2.757
 7769SOL    HW124206   5.732   2.370   2.754
 7769SOL    HW224207   5.675   2.244   2.666
 7770SOL     OW24208   3.335   6.059   1.350
 7770SOL    HW124209   3.308   6.056   1.254
 7770SOL    HW224210   3.427   6.021   1.360
 7771SOL     OW24211   1.630   1.233   4.320
 7771SOL    HW124212   1.611   1.316   4.268
 7771SOL    HW224213   1.547   1.202   4.365
 7772SOL     OW24214   5.543   1.008   5.345
 7772SOL    HW124215   5.462   1.015   5.287
 7772SOL    HW224216   5.625   1.021   5.289
 7773SOL     OW24217   3.703   4.435   6.228
 7773SOL    HW124218   3.716   4.533   6.248
 7773SOL    HW224219   3.642   4.425   6.150
 7774SOL     OW24220   5.266   2.055   6.444
 7774SOL    HW124221   5.207   2.062   6.364
 7774SOL    HW224222   5.251   1.967   6.489
 7775SOL     OW24223   1.416   6.768   2.078
 7775SOL    HW124224   1.412   6.731   2.170
 7775SOL    HW224225   1.331   6.815   2.056
 7776SOL     OW24226   3.391   4.034   1.076
 7776SOL    HW124227   3.410   4.051   0.979
 7776SOL    HW224228   3.473   4.053   1.129
 7777SOL     OW24229   1.155   0.119   6.079
 7777SOL    HW124230   1.155   0.105   6.178
 7777SOL    HW224231   1.235   0.173   6.053
 7778SOL     OW24232   4.544   1.836   1.824
 7778SOL    HW124233   4.639   1.805   1.825
 7778SOL    HW224234   4.541   1.931   1.792
 7779SOL     OW24235   4.019   2.945   0.419
 7779SOL    HW124236   4.094   2.909   0.364
 7779SOL    HW224237   4.055   2.975   0.508
 7780SOL     OW24238   1.136   0.158   4.661
 7780SOL    HW124239   1.201   0.228   4.632
 7780SOL    HW224240   1.132   0.085   4.592
 7781SOL     OW24241   1.685   4.200   5.669
 7781SOL    HW124242   1.590   4.204   5.639
 7781SOL    HW224243   1.745   4.204   5.589
 7782SOL     OW24244   4.367   4.405   0.292
 7782SOL    HW124245   4.272   4.420   0.321
 7782SOL    HW224246   4.426   4.403   0.373
 7783SOL     OW24247   2.719   6.236   0.048
 7783SOL    HW124248   2.732   6.320   0.102
 7783SOL    HW224249   2.718   6.157   0.109
 7784SOL     OW24250   6.528   3.512   0.448
 7784SOL    HW124251   6.528   3.493   0.546
 7784SOL    HW224252   6.515   3.427   0.397
 7785SOL     OW24253   1.722   5.564   6.262
 7785SOL    HW124254   1.671   5.610   6.334
 7785SOL    HW224255   1.739   5.469   6.288
 7786SOL     OW24256   3.281   4.182   5.254
 7786SOL    HW124257   3.361   4.190   5.195
 7786SOL    HW224258   3.221   4.110   5.219
 7787SOL     OW24259   3.134   2.255   5.437
 7787SOL    HW124260   3.142   2.294   5.345
 7787SOL    HW224261   3.075   2.175   5.434
 7788SOL     OW24262   6.902   2.178   0.938
 7788SOL    HW124263   6.956   2.100   0.907
 7788SOL    HW224264   6.811   2.146   0.964
 7789SOL     OW24265   1.829   0.285   1.831
 7789SOL    HW124266   1.801   0.233   1.912
 7789SOL    HW224267   1.768   0.364   1.820
 7790SOL     OW24268   6.681   3.648   2.335
 7790SOL    HW124269   6.661   3.608   2.246
 7790SOL    HW224270   6.638   3.738   2.341
 7791SOL     OW24271   0.196   5.227   5.770
 7791SOL    HW124272   0.136   5.170   5.712
 7791SOL    HW224273   0.290   5.195   5.761
 7792SOL     OW24274   1.943   5.720   6.551
 7792SOL    HW124275   1.890   5.744   6.632
 7792SOL    HW224276   1.944   5.621   6.540
 7793SOL     OW24277   2.256   0.871   6.072
 7793SOL    HW124278   2.347   0.852   6.109
 7793SOL    HW224279   2.232   0.966   6.090
 7794SOL     OW24280   5.545   5.362   2.876
 7794SOL    HW124281   5.502   5.336   2.962
 7794SOL    HW224282   5.613   5.293   2.851
 7795SOL     OW24283   0.950   4.079   6.607
 7795SOL    HW124284   0.973   4.142   6.534
 7795SOL    HW224285   0.933   4.130   6.692
 7796SOL     OW24286   4.054   3.907   4.534
 7796SOL    HW124287   4.066   3.843   4.610
 7796SOL    HW224288   4.028   3.997   4.569
 7797SOL     OW24289   0.938   6.889   3.400
 7797SOL    HW124290   0.961   6.800   3.438
 7797SOL    HW224291   0.943   6.959   3.472
 7798SOL     OW24292   4.073   6.017   6.201
 7798SOL    HW124293   3.978   6.026   6.232
 7798SOL    HW224294   4.081   5.936   6.142
 7799SOL     OW24295   6.327   5.988   1.639
 7799SOL    HW124296   6.228   5.990   1.654
 7799SOL    HW224297   6.346   5.997   1.541
 7800SOL     OW24298   0.930   6.053   1.905
 7800SOL    HW124299   0.928   6.122   1.833
 7800SOL    HW224300   0.837   6.018   1.919
 7801SOL     OW24301   4.303   2.102   5.194
 7801SOL    HW124302   4.220   2.047   5.193
 7801SOL    HW224303   4.373   2.057   5.249
 7802SOL     OW24304   5.385   2.266   0.379
 7802SOL    HW124305   5.466   2.210   0.390
 7802SOL    HW224306   5.370   2.283   0.281
 7803SOL     OW24307   3.275   3.480   5.773
 7803SOL    HW124308   3.319   3.489   5.683
 7803SOL    HW224309   3.194   3.538   5.775
 7804SOL     OW24310   5.209   0.764   6.407
 7804SOL    HW124311   5.187   0.860   6.427
 7804SOL    HW224312   5.176   0.706   6.482
 7805SOL     OW24313   5.215   3.061   1.599
 7805SOL    HW124314   5.273   3.138   1.624
 7805SOL    HW224315   5.139   3.093   1.542
 7806SOL     OW24316   4.930   3.510   0.070
 7806SOL    HW124317   4.902   3.538   0.162
 7806SOL    HW224318   4.888   3.422   0.047
 7807SOL     OW24319   0.797   3.550   0.138
 7807SOL    HW124320   0.867   3.531   0.206
 7807SOL    HW224321   0.759   3.464   0.103
 7808SOL     OW24322   0.432   0.712   5.347
 7808SOL    HW124323   0.492   0.643   5.388
 7808SOL    HW224324   0.364   0.742   5.415
 7809SOL     OW24325   1.357   5.580   5.589
 7809SOL    HW124326   1.436   5.533   5.549
 7809SOL    HW224327   1.338   5.543   5.680
 7810SOL     OW24328   2.687   1.287   0.078
 7810SOL    HW124329   2.775   1.307   0.037
 7810SOL    HW224330   2.614   1.328   0.023
 7811SOL     OW24331   6.828   4.811   5.050
 7811SOL    HW124332   6.813   4.887   4.988
 7811SOL    HW224333   6.900   4.835   5.116
 7812SOL     OW24334   0.355   2.003   3.437
 7812SOL    HW124335   0.362   1.911   3.398
 7812SOL    HW224336   0.313   2.064   3.370
 7813SOL     OW24337   6.287   2.565   0.838
 7813SOL    HW124338   6.299   2.467   0.820
 7813SOL    HW224339   6.295   2.582   0.937
 7814SOL     OW24340   2.058   2.745   5.046
 7814SOL    HW124341   2.064   2.837   5.083
 7814SOL    HW224342   1.982   2.740   4.981
 7815SOL     OW24343   6.833   1.889   5.473
 7815SOL    HW124344   6.756   1.952   5.481
 7815SOL    HW224345   6.874   1.897   5.382
 7816SOL     OW24346   0.386   4.719   4.962
 7816SOL    HW124347   0.344   4.803   4.927
 7816SOL    HW224348   0.476   4.740   5.000
 7817SOL     OW24349   5.536   3.301   5.865
 7817SOL    HW124350   5.635   3.298   5.874
 7817SOL    HW224351   5.506   3.395   5.851
 7818SOL     OW24352   5.331   3.777   3.357
 7818SOL    HW124353   5.306   3.701   3.417
 7818SOL    HW224354   5.424   3.763   3.321
 7819SOL     OW24355   0.763   1.358   0.957
 7819SOL    HW124356   0.779   1.411   0.875
 7819SOL    HW224357   0.819   1.275   0.955
 7820SOL     OW24358   2.894   0.132   6.294
 7820SOL    HW124359   2.813   0.107   6.348
 7820SOL    HW224360   2.968   0.158   6.355
 7821SOL     OW24361   2.924   5.183   0.771
 7821SOL    HW124362   2.859   5.203   0.845
 7821SOL    HW224363   2.954   5.269   0.728
 7822SOL     OW24364   1.609   6.435   5.917
 7822SOL    HW124365   1.668   6.508   5.880
 7822SOL    HW224366   1.632   6.349   5.872
 7823SOL     OW24367   1.894   3.609   5.559
 7823SOL    HW124368   1.801   3.594   5.592
 7823SOL    HW224369   1.955   3.539   5.597
 7824SOL     OW24370   0.567   3.032   5.247
 7824SOL    HW124371   0.552   2.942   5.287
 7824SOL    HW224372   0.660   3.038   5.211
 7825SOL     OW24373   2.902   0.777   0.024
 7825SOL    HW124374   2.824   0.732   6.992
 7825SOL    HW224375   2.970   0.708   0.050
 7826SOL     OW24376   0.650   3.649   5.827
 7826SOL    HW124377   0.694   3.571   5.872
 7826SOL    HW224378   0.631   3.720   5.895
 7827SOL     OW24379   5.926   4.998   4.286
 7827SOL    HW124380   5.949   5.096   4.287
 7827SOL    HW224381   5.909   4.969   4.192
 7828SOL     OW24382   1.117   5.154   6.162
 7828SOL    HW124383   1.140   5.109   6.248
 7828SOL    HW224384   1.020   5.139   6.142
 7829SOL     OW24385   4.223   4.922   0.560
 7829SOL    HW124386   4.307   4.931   0.505
 7829SOL    HW224387   4.224   4.834   0.607
 7830SOL     OW24388   2.379   5.220   3.695
 7830SOL    HW124389   2.321   5.296   3.667
 7830SOL    HW224390   2.323   5.141   3.716
 7831SOL     OW24391   1.977   0.496   6.033
 7831SOL    HW124392   1.929   0.495   6.120
 7831SOL    HW224393   2.050   0.427   6.034
 7832SOL     OW24394   6.610   1.372   5.573
 7832SOL    HW124395   6.689   1.313   5.556
 7832SOL    HW224396   6.537   1.319   5.615
 7833SOL     OW24397   0.759   0.392   2.970
 7833SOL    HW124398   0.855   0.417   2.952
 7833SOL    HW224399   0.699   0.461   2.929
 7834SOL     OW24400   6.505   3.605   4.840
 7834SOL    HW124401   6.450   3.635   4.762
 7834SOL    HW224402   6.464   3.638   4.925
 7835SOL     OW24403   3.693   2.103   5.543
 7835SOL    HW124404   3.635   2.141   5.471
 7835SOL    HW224405   3.650   2.117   5.632
 7836SOL     OW24406   2.868   3.781   4.947
 7836SOL    HW124407   2.873   3.876   4.976
 7836SOL    HW224408   2.868   3.777   4.847
 7837SOL     OW24409   1.283   5.369   6.612
 7837SOL    HW124410   1.258   5.424   6.691
 7837SOL    HW224411   1.272   5.272   6.634
 7838SOL     OW24412   3.988   5.248   1.846
 7838SOL    HW124413   4.074   5.278   1.887
 7838SOL    HW224414   4.004   5.215   1.753
 7839SOL     OW24415   6.135   4.260   4.514
 7839SOL    HW124416   6.107   4.330   4.579
 7839SOL    HW224417   6.071   4.183   4.518
 7840SOL     OW24418   1.968   2.762   3.739
 7840SOL    HW124419   2.046   2.823   3.752
 7840SOL    HW224420   1.962   2.735   3.643
 7841SOL     OW24421   4.245   1.833   5.713
 7841SOL    HW124422   4.189   1.752   5.730
 7841SOL    HW224423   4.261   1.843   5.615
 7842SOL     OW24424   1.268   0.595   1.178
 7842SOL    HW124425   1.301   0.660   1.110
 7842SOL    HW224426   1.176   0.621   1.207
 7843SOL     OW24427   6.859   6.706   1.884
 7843SOL    HW124428   6.913   6.643   1.940
 7843SOL    HW224429   6.799   6.760   1.943
 7844SOL     OW24430   4.235   0.071   2.307
 7844SOL    HW124431   4.197   6.996   2.344
 7844SOL    HW224432   4.160   0.130   2.278
 7845SOL     OW24433   6.017   3.035   1.488
 7845SOL    HW124434   6.034   3.049   1.390
 7845SOL    HW224435   6.042   2.942   1.513
 7846SOL     OW24436   0.896   1.370   0.713
 7846SOL    HW124437   0.971   1.396   0.653
 7846SOL    HW224438   0.845   1.294   0.672
 7847SOL     OW24439   5.365   4.378   6.140
 7847SOL    HW124440   5.310   4.316   6.084
 7847SOL    HW224441   5.456   4.387   6.099
 7848SOL     OW24442   4.077   4.679   0.303
 7848SOL    HW124443   4.096   4.775   0.282
 7848SOL    HW224444   4.154   4.640   0.353
 7849SOL     OW24445   4.200   5.193   6.798
 7849SOL    HW124446   4.268   5.128   6.763
 7849SOL    HW224447   4.110   5.148   6.801
 7850SOL     OW24448   0.451   0.613   3.417
 7850SOL    HW124449   0.518   0.603   3.344
 7850SOL    HW224450   0.364   0.643   3.379
 7851SOL     OW24451   0.679   5.068   0.625
 7851SOL    HW124452   0.684   5.026   0.716
 7851SOL    HW224453   0.603   5.028   0.573
 7852SOL     OW24454   1.112   3.330   6.144
 7852SOL    HW124455   1.167   3.281   6.076
 7852SOL    HW224456   1.170   3.396   6.192
 7853SOL     OW24457   4.104   2.959   1.774
 7853SOL    HW124458   4.198   2.955   1.740
 7853SOL    HW224459   4.041   2.931   1.701
 7854SOL     OW24460   3.931   1.078   1.598
 7854SOL    HW124461   4.029   1.085   1.619
 7854SOL    HW224462   3.881   1.051   1.681
 7855SOL     OW24463   5.157   6.204   3.851
 7855SOL    HW124464   5.125   6.134   3.914
 7855SOL    HW224465   5.081   6.266   3.829
 7856SOL     OW24466   2.029   6.388   5.945
 7856SOL    HW124467   2.125   6.393   5.973
 7856SOL    HW224468   2.012   6.301   5.899
 7857SOL     OW24469   6.664   4.860   0.457
 7857SOL    HW124470   6.568   4.890   0.449
 7857SOL    HW224471   6.711   4.918   0.523
 7858SOL     OW24472   0.466   3.600   6.101
 7858SOL    HW124473   0.504   3.687   6.131
 7858SOL    HW224474   0.380   3.616   6.053
 7859SOL     OW24475   5.051   2.028   0.730
 7859SOL    HW124476   4.995   2.075   0.798
 7859SOL    HW224477   5.054   1.931   0.751
 7860SOL     OW24478   2.095   1.617   3.535
 7860SOL    HW124479   2.171   1.641   3.475
 7860SOL    HW224480   2.129   1.598   3.627
 7861SOL     OW24481   1.677   5.770   0.949
 7861SOL    HW124482   1.660   5.726   1.037
 7861SOL    HW224483   1.749   5.839   0.960
 7862SOL     OW24484   1.542   6.888   7.010
 7862SOL    HW124485   1.563   6.823   6.937
 7862SOL    HW224486   1.477   6.847   0.063
 7863SOL     OW24487   0.925   3.799   3.706
 7863SOL    HW124488   1.007   3.742   3.714
 7863SOL    HW224489   0.846   3.741   3.690
 7864SOL     OW24490   3.245   5.708   5.091
 7864SOL    HW124491   3.318   5.760   5.135
 7864SOL    HW224492   3.157   5.738   5.126
 7865SOL     OW24493   5.940   4.880   4.013
 7865SOL    HW124494   5.994   4.811   4.060
 7865SOL    HW224495   5.866   4.835   3.962
 7866SOL     OW24496   1.362   0.965   5.577
 7866SOL    HW124497   1.349   1.026   5.499
 7866SOL    HW224498   1.459   0.942   5.585
 7867SOL     OW24499   3.768   5.068   3.768
 7867SOL    HW124500   3.784   5.155   3.720
 7867SOL    HW224501   3.805   5.074   3.860
 7868SOL     OW24502   3.510   6.168   1.740
 7868SOL    HW124503   3.461   6.216   1.668
 7868SOL    HW224504   3.505   6.221   1.825
 7869SOL     OW24505   5.464   4.812   0.043
 7869SOL    HW124506   5.505   4.738   0.097
 7869SOL    HW224507   5.496   4.806   6.959
 7870SOL     OW24508   6.581   0.030   3.930
 7870SOL    HW124509   6.629   0.019   4.017
 7870SOL    HW224510   6.594   6.958   3.874
 7871SOL     OW24511   4.704   1.369   0.579
 7871SOL    HW124512   4.750   1.363   0.491
 7871SOL    HW224513   4.608   1.392   0.565
 7872SOL     OW24514   0.250   4.631   3.273
 7872SOL    HW124515   0.165   4.679   3.295
 7872SOL    HW224516   0.309   4.628   3.354
 7873SOL     OW24517   4.407   2.409   6.589
 7873SOL    HW124518   4.359   2.493   6.562
 7873SOL    HW224519   4.502   2.413   6.556
 7874SOL     OW24520   6.289   2.722   6.714
 7874SOL    HW124521   6.307   2.786   6.639
 7874SOL    HW224522   6.374   2.702   6.763
 7875SOL     OW24523   6.733   4.557   6.802
 7875SOL    HW124524   6.693   4.610   6.727
 7875SOL    HW224525   6.681   4.473   6.814
 7876SOL     OW24526   1.400   6.648   3.151
 7876SOL    HW124527   1.309   6.609   3.137
 7876SOL    HW224528   1.446   6.602   3.226
 7877SOL     OW24529   0.492   2.957   2.387
 7877SOL    HW124530   0.585   2.980   2.417
 7877SOL    HW224531   0.494   2.924   2.293
 7878SOL     OW24532   3.766   6.935   2.549
 7878SOL    HW124533   3.731   6.876   2.476
 7878SOL    HW224534   3.865   6.945   2.538
 7879SOL     OW24535   2.744   6.033   2.836
 7879SOL    HW124536   2.782   5.965   2.773
 7879SOL    HW224537   2.646   6.016   2.849
 7880SOL     OW24538   0.640   4.602   2.272
 7880SOL    HW124539   0.563   4.664   2.288
 7880SOL    HW224540   0.637   4.527   2.338
 7881SOL     OW24541   4.776   2.923   3.752
 7881SOL    HW124542   4.838   2.851   3.720
 7881SOL    HW224543   4.723   2.958   3.674
 7882SOL     OW24544   6.971   2.784   6.490
 7882SOL    HW124545   0.021   2.704   6.484
 7882SOL    HW224546   6.877   2.753   6.507
 7883SOL     OW24547   0.587   6.773   4.226
 7883SOL    HW124548   0.514   6.768   4.158
 7883SOL    HW224549   0.582   6.695   4.287
 7884SOL     OW24550   1.564   2.622   4.256
 7884SOL    HW124551   1.532   2.678   4.179
 7884SOL    HW224552   1.589   2.531   4.222
 7885SOL     OW24553   6.983   6.309   6.798
 7885SOL    HW124554   6.927   6.279   6.721
 7885SOL    HW224555   6.954   6.400   6.827
 7886SOL     OW24556   4.875   3.782   0.649
 7886SOL    HW124557   4.961   3.833   0.639
 7886SOL    HW224558   4.815   3.802   0.571
 7887SOL     OW24559   4.642   2.636   5.966
 7887SOL    HW124560   4.715   2.568   5.967
 7887SOL    HW224561   4.555   2.592   5.943
 7888SOL     OW24562   4.162   5.854   4.466
 7888SOL    HW124563   4.121   5.944   4.453
 7888SOL    HW224564   4.262   5.863   4.466
 7889SOL     OW24565   6.392   5.171   3.277
 7889SOL    HW124566   6.369   5.183   3.374
 7889SOL    HW224567   6.320   5.210   3.221
 7890SOL     OW24568   1.840   3.471   2.595
 7890SOL    HW124569   1.929   3.478   2.550
 7890SOL    HW224570   1.841   3.394   2.658
 7891SOL     OW24571   0.900   4.549   3.189
 7891SOL    HW124572   0.987   4.592   3.216
 7891SOL    HW224573   0.910   4.450   3.192
 7892SOL     OW24574   2.240   2.105   4.969
 7892SOL    HW124575   2.151   2.063   4.990
 7892SOL    HW224576   2.298   2.101   5.051
 7893SOL     OW24577   5.192   6.617   0.778
 7893SOL    HW124578   5.241   6.529   0.781
 7893SOL    HW224579   5.105   6.608   0.826
 7894SOL     OW24580   2.777   0.690   1.628
 7894SOL    HW124581   2.691   0.665   1.673
 7894SOL    HW224582   2.838   0.733   1.695
 7895SOL     OW24583   0.061   1.599   3.968
 7895SOL    HW124584   0.115   1.680   3.941
 7895SOL    HW224585   0.096   1.519   3.920
 7896SOL     OW24586   3.668   1.870   6.526
 7896SOL    HW124587   3.654   1.897   6.430
 7896SOL    HW224588   3.619   1.934   6.585
 7897SOL     OW24589   2.894   3.397   6.605
 7897SOL    HW124590   2.887   3.299   6.624
 7897SOL    HW224591   2.929   3.410   6.513
 7898SOL     OW24592   5.484   1.306   4.380
 7898SOL    HW124593   5.461   1.267   4.291
 7898SOL    HW224594   5.521   1.398   4.367
 7899SOL     OW24595   4.484   0.958   2.190
 7899SOL    HW124596   4.417   0.952   2.116
 7899SOL    HW224597   4.568   1.000   2.155
 7900SOL     OW24598   0.645   5.606   1.611
 7900SOL    HW124599   0.735   5.648   1.598
 7900SOL    HW224600   0.616   5.562   1.527
 7901SOL     OW24601   5.957   4.931   1.110
 7901SOL    HW124602   6.001   5.016   1.080
 7901SOL    HW224603   6.017   4.854   1.090
 7902SOL     OW24604   5.007   4.605   5.681
 7902SOL    HW124605   5.074   4.659   5.731
 7902SOL    HW224606   4.930   4.663   5.653
 7903SOL     OW24607   0.021   3.006   1.503
 7903SOL    HW124608   0.049   3.062   1.581
 7903SOL    HW224609   0.076   3.029   1.423
 7904SOL     OW24610   5.725   2.728   3.165
 7904SOL    HW124611   5.744   2.640   3.121
 7904SOL    HW224612   5.810   2.782   3.169
 7905SOL     OW24613   1.770   1.617   2.281
 7905SOL    HW124614   1.695   1.664   2.327
 7905SOL    HW224615   1.733   1.546   2.221
 7906SOL     OW24616   0.822   4.860   6.713
 7906SOL    HW124617   0.907   4.886   6.759
 7906SOL    HW224618   0.838   4.780   6.655
 7907SOL     OW24619   0.471   2.911   2.655
 7907SOL    HW124620   0.398   2.850   2.687
 7907SOL    HW224621   0.453   2.938   2.561
 7908SOL     OW24622   0.397   1.830   2.733
 7908SOL    HW124623   0.307   1.787   2.724
 7908SOL    HW224624   0.401   1.882   2.818
 7909SOL     OW24625   4.371   6.728   4.952
 7909SOL    HW124626   4.418   6.816   4.953
 7909SOL    HW224627   4.329   6.711   5.041
 7910SOL     OW24628   6.631   2.833   5.459
 7910SOL    HW124629   6.603   2.803   5.550
 7910SOL    HW224630   6.728   2.812   5.446
 7911SOL     OW24631   0.398   5.447   6.399
 7911SOL    HW124632   0.480   5.505   6.398
 7911SOL    HW224633   0.393   5.398   6.486
 7912SOL     OW24634   0.093   5.659   5.328
 7912SOL    HW124635   0.073   5.711   5.411
 7912SOL    HW224636   0.089   5.720   5.249
 7913SOL     OW24637   1.450   6.069   6.595
 7913SOL    HW124638   1.379   6.045   6.528
 7913SOL    HW224639   1.540   6.044   6.558
 7914SOL     OW24640   6.099   4.539   0.652
 7914SOL    HW124641   6.014   4.512   0.607
 7914SOL    HW224642   6.109   4.638   0.649
 7915SOL     OW24643   2.705   0.986   2.766
 7915SOL    HW124644   2.606   0.978   2.780
 7915SOL    HW224645   2.751   0.911   2.814
 7916SOL     OW24646   4.431   3.787   5.523
 7916SOL    HW124647   4.436   3.767   5.621
 7916SOL    HW224648   4.350   3.743   5.483
 7917SOL     OW24649   3.988   3.849   3.409
 7917SOL    HW124650   3.892   3.863   3.388
 7917SOL    HW224651   4.037   3.818   3.327
 7918SOL     OW24652   5.545   1.895   1.908
 7918SOL    HW124653   5.616   1.920   1.973
 7918SOL    HW224654   5.512   1.803   1.927
 7919SOL     OW24655   5.444   4.021   2.304
 7919SOL    HW124656   5.501   3.970   2.368
 7919SOL    HW224657   5.498   4.093   2.261
 7920SOL     OW24658   0.387   6.514   1.419
 7920SOL    HW124659   0.357   6.533   1.326
 7920SOL    HW224660   0.454   6.440   1.419
 7921SOL     OW24661   2.874   5.559   1.946
 7921SOL    HW124662   2.959   5.537   1.899
 7921SOL    HW224663   2.886   5.547   2.045
 7922SOL     OW24664   0.681   4.758   5.040
 7922SOL    HW124665   0.704   4.682   4.980
 7922SOL    HW224666   0.760   4.819   5.049
 7923SOL     OW24667   1.172   1.894   3.386
 7923SOL    HW124668   1.228   1.957   3.440
 7923SOL    HW224669   1.079   1.930   3.377
 7924SOL     OW24670   2.421   1.107   3.482
 7924SOL    HW124671   2.321   1.104   3.486
 7924SOL    HW224672   2.450   1.202   3.464
 7925SOL     OW24673   0.927   1.155   6.911
 7925SOL    HW124674   0.935   1.055   6.919
 7925SOL    HW224675   1.011   1.193   6.873
 7926SOL     OW24676   3.244   0.383   1.964
 7926SOL    HW124677   3.326   0.435   1.987
 7926SOL    HW224678   3.263   0.324   1.885
 7927SOL     OW24679   4.515   4.909   4.383
 7927SOL    HW124680   4.538   4.844   4.455
 7927SOL    HW224681   4.599   4.938   4.336
 7928SOL     OW24682   0.584   4.319   7.002
 7928SOL    HW124683   0.609   4.387   0.060
 7928SOL    HW224684   0.635   4.235   0.007
 7929SOL     OW24685   3.396   4.174   4.747
 7929SOL    HW124686   3.387   4.133   4.656
 7929SOL    HW224687   3.339   4.256   4.752
 7930SOL     OW24688   4.284   6.704   2.616
 7930SOL    HW124689   4.232   6.621   2.635
 7930SOL    HW224690   4.364   6.680   2.560
 7931SOL     OW24691   3.008   3.327   6.159
 7931SOL    HW124692   3.008   3.373   6.070
 7931SOL    HW224693   2.947   3.249   6.157
 7932SOL     OW24694   3.107   0.881   0.380
 7932SOL    HW124695   3.159   0.876   0.295
 7932SOL    HW224696   3.023   0.934   0.365
 7933SOL     OW24697   2.103   1.541   6.378
 7933SOL    HW124698   2.076   1.594   6.459
 7933SOL    HW224699   2.201   1.523   6.382
 7934SOL     OW24700   4.332   2.032   5.895
 7934SOL    HW124701   4.263   1.977   5.847
 7934SOL    HW224702   4.330   2.009   5.993
 7935SOL     OW24703   4.924   5.714   2.042
 7935SOL    HW124704   4.981   5.632   2.040
 7935SOL    HW224705   4.968   5.787   1.991
 7936SOL     OW24706   3.871   6.294   1.932
 7936SOL    HW124707   3.858   6.306   2.030
 7936SOL    HW224708   3.968   6.282   1.912
 7937SOL     OW24709   6.101   1.916   6.087
 7937SOL    HW124710   6.002   1.909   6.074
 7937SOL    HW224711   6.137   1.829   6.119
 7938SOL     OW24712   6.468   4.705   3.811
 7938SOL    HW124713   6.498   4.611   3.795
 7938SOL    HW224714   6.426   4.711   3.902
 7939SOL     OW24715   0.304   6.260   3.774
 7939SOL    HW124716   0.339   6.226   3.686
 7939SOL    HW224717   0.346   6.348   3.795
 7940SOL     OW24718   1.528   6.292   0.693
 7940SOL    HW124719   1.532   6.333   0.602
 7940SOL    HW224720   1.606   6.324   0.747
 7941SOL     OW24721   0.557   0.697   0.833
 7941SOL    HW124722   0.609   0.704   0.918
 7941SOL    HW224723   0.522   0.604   0.822
 7942SOL     OW24724   1.039   0.669   1.805
 7942SOL    HW124725   1.015   0.581   1.847
 7942SOL    HW224726   0.981   0.741   1.842
 7943SOL     OW24727   6.072   1.869   0.485
 7943SOL    HW124728   5.981   1.853   0.448
 7943SOL    HW224729   6.069   1.946   0.549
 7944SOL     OW24730   6.449   4.229   1.786
 7944SOL    HW124731   6.533   4.207   1.737
 7944SOL    HW224732   6.422   4.151   1.842
 7945SOL     OW24733   5.862   0.283   0.735
 7945SOL    HW124734   5.906   0.277   0.825
 7945SOL    HW224735   5.819   0.373   0.726
 7946SOL     OW24736   2.490   1.419   5.597
 7946SOL    HW124737   2.521   1.450   5.508
 7946SOL    HW224738   2.390   1.415   5.598
 7947SOL     OW24739   4.354   5.248   6.311
 7947SOL    HW124740   4.318   5.337   6.281
 7947SOL    HW224741   4.375   5.254   6.409
 7948SOL     OW24742   1.099   5.310   5.859
 7948SOL    HW124743   1.014   5.328   5.810
 7948SOL    HW224744   1.078   5.268   5.948
 7949SOL     OW24745   6.975   3.518   4.315
 7949SOL    HW124746   6.883   3.523   4.354
 7949SOL    HW224747   6.988   3.430   4.270
 7950SOL     OW24748   3.332   4.888   4.180
 7950SOL    HW124749   3.429   4.910   4.169
 7950SOL    HW224750   3.308   4.888   4.277
 7951SOL     OW24751   2.072   3.423   0.739
 7951SOL    HW124752   1.983   3.468   0.731
 7951SOL    HW224753   2.143   3.493   0.746
 7952SOL     OW24754   5.731   4.726   0.828
 7952SOL    HW124755   5.676   4.644   0.845
 7952SOL    HW224756   5.803   4.704   0.762
 7953SOL     OW24757   1.792   3.750   2.197
 7953SOL    HW124758   1.815   3.820   2.130
 7953SOL    HW224759   1.705   3.707   2.172
 7954SOL     OW24760   5.544   5.196   4.197
 7954SOL    HW124761   5.591   5.171   4.281
 7954SOL    HW224762   5.453   5.232   4.220
 7955SOL     OW24763   1.999   6.187   6.223
 7955SOL    HW124764   2.027   6.280   6.245
 7955SOL    HW224765   1.952   6.147   6.302
 7956SOL     OW24766   5.853   6.145   2.811
 7956SOL    HW124767   5.778   6.126   2.747
 7956SOL    HW224768   5.921   6.072   2.804
 7957SOL     OW24769   1.724   2.393   0.944
 7957SOL    HW124770   1.744   2.307   0.897
 7957SOL    HW224771   1.805   2.452   0.942
 7958SOL     OW24772   2.886   5.773   3.323
 7958SOL    HW124773   2.910   5.792   3.228
 7958SOL    HW224774   2.867   5.860   3.370
 7959SOL     OW24775   4.955   5.313   1.818
 7959SOL    HW124776   4.996   5.263   1.741
 7959SOL    HW224777   4.967   5.261   1.902
 7960SOL     OW24778   1.823   2.428   1.333
 7960SOL    HW124779   1.758   2.476   1.273
 7960SOL    HW224780   1.774   2.357   1.384
 7961SOL     OW24781   0.566   5.666   0.551
 7961SOL    HW124782   0.623   5.624   0.622
 7961SOL    HW224783   0.616   5.666   0.464
 7962SOL     OW24784   1.345   0.134   2.741
 7962SOL    HW124785   1.343   0.055   2.802
 7962SOL    HW224786   1.312   0.107   2.651
 7963SOL     OW24787   0.729   6.478   5.549
 7963SOL    HW124788   0.702   6.400   5.606
 7963SOL    HW224789   0.827   6.471   5.528
 7964SOL     OW24790   6.320   5.495   3.271
 7964SOL    HW124791   6.235   5.545   3.288
 7964SOL    HW224792   6.305   5.398   3.287
 7965SOL     OW24793   4.120   1.492   0.461
 7965SOL    HW124794   4.127   1.418   0.394
 7965SOL    HW224795   4.165   1.465   0.546
 7966SOL     OW24796   0.130   0.688   3.725
 7966SOL    HW124797   0.160   0.614   3.663
 7966SOL    HW224798   0.126   0.653   3.818
 7967SOL     OW24799   3.255   0.386   3.552
 7967SOL    HW124800   3.350   0.364   3.575
 7967SOL    HW224801   3.220   0.316   3.489
 7968SOL     OW24802   2.329   0.795   1.162
 7968SOL    HW124803   2.388   0.715   1.175
 7968SOL    HW224804   2.275   0.783   1.078
 7969SOL     OW24805   3.429   1.505   3.610
 7969SOL    HW124806   3.529   1.502   3.622
 7969SOL    HW224807   3.397   1.415   3.582
 7970SOL     OW24808   0.773   4.543   3.509
 7970SOL    HW124809   0.753   4.579   3.600
 7970SOL    HW224810   0.694   4.491   3.476
 7971SOL     OW24811   3.175   1.893   2.237
 7971SOL    HW124812   3.105   1.823   2.226
 7971SOL    HW224813   3.142   1.980   2.201
 7972SOL     OW24814   5.794   6.052   1.664
 7972SOL    HW124815   5.771   6.053   1.762
 7972SOL    HW224816   5.748   5.976   1.619
 7973SOL     OW24817   5.060   1.853   2.917
 7973SOL    HW124818   4.975   1.893   2.951
 7973SOL    HW224819   5.066   1.869   2.818
 7974SOL     OW24820   5.371   6.193   4.491
 7974SOL    HW124821   5.277   6.227   4.487
 7974SOL    HW224822   5.432   6.268   4.516
 7975SOL     OW24823   1.387   1.772   2.793
 7975SOL    HW124824   1.297   1.780   2.750
 7975SOL    HW224825   1.457   1.802   2.728
 7976SOL     OW24826   1.840   0.089   6.450
 7976SOL    HW124827   1.872   0.172   6.405
 7976SOL    HW224828   1.912   0.020   6.450
 7977SOL     OW24829   5.442   6.454   1.228
 7977SOL    HW124830   5.489   6.483   1.145
 7977SOL    HW224831   5.378   6.380   1.206
 7978SOL     OW24832   3.325   1.726   5.878
 7978SOL    HW124833   3.278   1.675   5.806
 7978SOL    HW224834   3.413   1.757   5.844
 7979SOL     OW24835   4.892   6.011   4.497
 7979SOL    HW124836   4.970   6.030   4.438
 7979SOL    HW224837   4.856   5.920   4.475
 7980SOL     OW24838   2.728   0.557   2.315
 7980SOL    HW124839   2.751   0.518   2.226
 7980SOL    HW224840   2.785   0.514   2.386
 7981SOL     OW24841   0.936   6.103   2.169
 7981SOL    HW124842   0.927   6.090   2.070
 7981SOL    HW224843   1.020   6.058   2.201
 7982SOL     OW24844   0.263   2.934   0.617
 7982SOL    HW124845   0.297   3.020   0.655
 7982SOL    HW224846   0.302   2.858   0.669
 7983SOL     OW24847   4.988   2.604   1.429
 7983SOL    HW124848   5.016   2.573   1.338
 7983SOL    HW224849   5.050   2.676   1.461
 7984SOL     OW24850   6.574   0.958   1.030
 7984SOL    HW124851   6.520   1.032   1.070
 7984SOL    HW224852   6.630   0.994   0.955
 7985SOL     OW24853   1.180   1.257   1.097
 7985SOL    HW124854   1.180   1.305   1.010
 7985SOL    HW224855   1.275   1.249   1.130
 7986SOL     OW24856   4.697   3.808   0.421
 7986SOL    HW124857   4.616   3.787   0.476
 7986SOL    HW224858   4.691   3.902   0.388
 7987SOL     OW24859   0.759   3.015   4.882
 7987SOL    HW124860   0.709   2.944   4.832
 7987SOL    HW224861   0.717   3.104   4.865
 7988SOL     OW24862   3.027   1.386   5.512
 7988SOL    HW124863   2.931   1.394   5.539
 7988SOL    HW224864   3.048   1.290   5.490
 7989SOL     OW24865   3.324   3.664   6.579
 7989SOL    HW124866   3.321   3.625   6.487
 7989SOL    HW224867   3.246   3.631   6.632
 7990SOL     OW24868   2.138   2.696   4.754
 7990SOL    HW124869   2.201   2.630   4.713
 7990SOL    HW224870   2.112   2.664   4.845
 7991SOL     OW24871   2.523   3.041   6.169
 7991SOL    HW124872   2.439   3.000   6.203
 7991SOL    HW224873   2.581   3.068   6.246
 7992SOL     OW24874   3.050   1.539   0.973
 7992SOL    HW124875   3.091   1.608   0.914
 7992SOL    HW224876   3.108   1.457   0.974
 7993SOL     OW24877   2.837   5.656   6.221
 7993SOL    HW124878   2.911   5.644   6.155
 7993SOL    HW224879   2.751   5.672   6.172
 7994SOL     OW24880   5.818   0.330   4.277
 7994SOL    HW124881   5.858   0.331   4.368
 7994SOL    HW224882   5.811   0.236   4.244
 7995SOL     OW24883   4.532   5.462   2.592
 7995SOL    HW124884   4.453   5.510   2.556
 7995SOL    HW224885   4.513   5.363   2.595
 7996SOL     OW24886   4.196   0.974   5.454
 7996SOL    HW124887   4.175   1.072   5.461
 7996SOL    HW224888   4.170   0.929   5.539
 7997SOL     OW24889   5.264   3.303   1.103
 7997SOL    HW124890   5.231   3.218   1.061
 7997SOL    HW224891   5.258   3.377   1.036
 7998SOL     OW24892   6.126   4.883   5.953
 7998SOL    HW124893   6.148   4.973   5.991
 7998SOL    HW224894   6.207   4.846   5.908
 7999SOL     OW24895   2.792   2.528   5.644
 7999SOL    HW124896   2.832   2.439   5.622
 7999SOL    HW224897   2.856   2.601   5.620
 8000SOL     OW24898   4.912   0.599   6.023
 8000SOL    HW124899   4.979   0.627   5.954
 8000SOL    HW224900   4.960   0.574   6.107
 8001SOL     OW24901   2.306   5.085   0.430
 8001SOL    HW124902   2.259   5.089   0.342
 8001SOL    HW224903   2.292   5.172   0.478
 8002SOL     OW24904   4.793   2.202   5.659
 8002SOL    HW124905   4.728   2.144   5.708
 8002SOL    HW224906   4.809   2.164   5.568
 8003SOL     OW24907   4.721   5.327   3.279
 8003SOL    HW124908   4.712   5.389   3.357
 8003SOL    HW224909   4.663   5.247   3.293
 8004SOL     OW24910   1.150   4.276   3.355
 8004SOL    HW124911   1.205   4.265   3.438
 8004SOL    HW224912   1.195   4.229   3.279
 8005SOL     OW24913   2.280   0.774   2.616
 8005SOL    HW124914   2.181   0.784   2.627
 8005SOL    HW224915   2.301   0.683   2.579
 8006SOL     OW24916   4.151   6.099   1.999
 8006SOL    HW124917   4.157   6.194   1.968
 8006SOL    HW224918   4.229   6.047   1.964
 8007SOL     OW24919   0.379   0.899   3.958
 8007SOL    HW124920   0.424   0.986   3.978
 8007SOL    HW224921   0.387   0.879   3.860
 8008SOL     OW24922   6.129   5.478   1.186
 8008SOL    HW124923   6.046   5.447   1.232
 8008SOL    HW224924   6.108   5.557   1.128
 8009SOL     OW24925   6.887   6.668   3.334
 8009SOL    HW124926   6.969   6.713   3.368
 8009SOL    HW224927   6.839   6.625   3.411
 8010SOL     OW24928   1.969   2.261   6.857
 8010SOL    HW124929   2.041   2.204   6.817
 8010SOL    HW224930   1.938   2.221   6.943
 8011SOL     OW24931   2.458   2.933   7.001
 8011SOL    HW124932   2.514   2.954   6.921
 8011SOL    HW224933   2.376   2.883   6.973
 8012SOL     OW24934   2.458   6.655   3.025
 8012SOL    HW124935   2.546   6.695   3.049
 8012SOL    HW224936   2.410   6.627   3.109
 8013SOL     OW24937   6.516   5.244   5.224
 8013SOL    HW124938   6.454   5.210   5.154
 8013SOL    HW224939   6.566   5.167   5.264
 8014SOL     OW24940   2.410   6.646   6.726
 8014SOL    HW124941   2.377   6.713   6.660
 8014SOL    HW224942   2.348   6.644   6.805
 8015SOL     OW24943   1.428   2.258   0.183
 8015SOL    HW124944   1.461   2.164   0.187
 8015SOL    HW224945   1.369   2.270   0.103
 8016SOL     OW24946   4.137   6.366   1.896
 8016SOL    HW124947   4.211   6.411   1.946
 8016SOL    HW224948   4.166   6.353   1.801
 8017SOL     OW24949   6.593   3.366   5.473
 8017SOL    HW124950   6.526   3.292   5.475
 8017SOL    HW224951   6.550   3.450   5.440
 8018SOL     OW24952   5.498   3.034   3.769
 8018SOL    HW124953   5.410   3.079   3.754
 8018SOL    HW224954   5.493   2.979   3.852
 8019SOL     OW24955   3.250   5.177   1.204
 8019SOL    HW124956   3.204   5.239   1.141
 8019SOL    HW224957   3.293   5.230   1.277
 8020SOL     OW24958   5.751   0.102   6.485
 8020SOL    HW124959   5.818   0.068   6.418
 8020SOL    HW224960   5.672   0.041   6.487
 8021SOL     OW24961   6.592   1.280   0.975
 8021SOL    HW124962   6.624   1.205   0.918
 8021SOL    HW224963   6.664   1.309   1.037
 8022SOL     OW24964   4.841   5.084   3.507
 8022SOL    HW124965   4.837   4.986   3.526
 8022SOL    HW224966   4.762   5.110   3.450
 8023SOL     OW24967   0.141   5.973   3.611
 8023SOL    HW124968   0.209   6.041   3.582
 8023SOL    HW224969   0.166   5.938   3.701
 8024SOL     OW24970   4.403   5.426   4.750
 8024SOL    HW124971   4.308   5.444   4.779
 8024SOL    HW224972   4.407   5.423   4.650
 8025SOL     OW24973   3.532   6.002   0.495
 8025SOL    HW124974   3.609   5.969   0.441
 8025SOL    HW224975   3.477   5.924   0.526
 8026SOL     OW24976   2.050   1.824   6.398
 8026SOL    HW124977   2.011   1.916   6.408
 8026SOL    HW224978   1.982   1.763   6.357
 8027SOL     OW24979   4.541   3.292   5.417
 8027SOL    HW124980   4.605   3.223   5.383
 8027SOL    HW224981   4.584   3.382   5.413
 8028SOL     OW24982   5.990   5.096   0.393
 8028SOL    HW124983   6.042   5.142   0.321
 8028SOL    HW224984   5.900   5.138   0.402
 8029SOL     OW24985   3.198   4.461   6.161
 8029SOL    HW124986   3.152   4.447   6.249
 8029SOL    HW224987   3.245   4.549   6.161
 8030SOL     OW24988   6.321   3.593   0.988
 8030SOL    HW124989   6.293   3.604   1.083
 8030SOL    HW224990   6.361   3.679   0.955
 8031SOL     OW24991   3.933   6.349   1.275
 8031SOL    HW124992   3.884   6.268   1.308
 8031SOL    HW224993   3.878   6.431   1.293
 8032SOL     OW24994   4.644   3.878   5.797
 8032SOL    HW124995   4.660   3.799   5.738
 8032SOL    HW224996   4.547   3.885   5.818
 8033SOL     OW24997   6.326   1.973   1.473
 8033SOL    HW124998   6.321   2.072   1.459
 8033SOL    HW224999   6.235   1.933   1.462
 8034SOL     OW25000   6.355   1.942   5.420
 8034SOL    HW125001   6.267   1.969   5.458
 8034SOL    HW225002   6.379   1.850   5.454
 8035SOL     OW25003   5.568   6.172   6.254
 8035SOL    HW125004   5.577   6.127   6.343
 8035SOL    HW225005   5.636   6.135   6.191
 8036SOL     OW25006   1.502   4.589   1.702
 8036SOL    HW125007   1.533   4.537   1.781
 8036SOL    HW225008   1.450   4.669   1.733
 8037SOL     OW25009   2.125   3.254   1.839
 8037SOL    HW125010   2.163   3.343   1.863
 8037SOL    HW225011   2.119   3.246   1.739
 8038SOL     OW25012   5.753   1.254   3.987
 8038SOL    HW125013   5.747   1.318   3.910
 8038SOL    HW225014   5.707   1.168   3.963
 8039SOL     OW25015   2.215   5.627   4.132
 8039SOL    HW125016   2.236   5.705   4.192
 8039SOL    HW225017   2.160   5.659   4.055
 8040SOL     OW25018   5.777   5.951   0.257
 8040SOL    HW125019   5.733   6.040   0.251
 8040SOL    HW225020   5.714   5.880   0.224
 8041SOL     OW25021   3.180   1.972   1.424
 8041SOL    HW125022   3.116   2.046   1.444
 8041SOL    HW225023   3.153   1.926   1.340
 8042SOL     OW25024   2.180   5.327   6.812
 8042SOL    HW125025   2.245   5.371   6.874
 8042SOL    HW225026   2.166   5.232   6.840
 8043SOL     OW25027   2.910   0.626   1.404
 8043SOL    HW125028   2.855   0.638   1.486
 8043SOL    HW225029   2.994   0.681   1.412
 8044SOL     OW25030   3.112   3.052   2.291
 8044SOL    HW125031   3.073   3.144   2.284
 8044SOL    HW225032   3.157   3.042   2.380
 8045SOL     OW25033   6.627   2.595   3.284
 8045SOL    HW125034   6.567   2.674   3.273
 8045SOL    HW225035   6.722   2.626   3.288
 8046SOL     OW25036   0.089   5.269   4.983
 8046SOL    HW125037   0.156   5.317   5.039
 8046SOL    HW225038   0.128   5.181   4.954
 8047SOL     OW25039   2.309   0.018   4.549
 8047SOL    HW125040   2.300   0.090   4.480
 8047SOL    HW225041   2.358   0.054   4.629
 8048SOL     OW25042   5.633   0.567   5.838
 8048SOL    HW125043   5.727   0.595   5.820
 8048SOL    HW225044   5.596   0.521   5.757
 8049SOL     OW25045   1.677   0.104   0.198
 8049SOL    HW125046   1.605   0.036   0.179
 8049SOL    HW225047   1.675   0.127   0.295
 8050SOL     OW25048   0.186   3.147   1.714
 8050SOL    HW125049   0.231   3.236   1.721
 8050SOL    HW225050   0.255   3.077   1.695
 8051SOL     OW25051   2.749   1.456   3.855
 8051SOL    HW125052   2.695   1.504   3.924
 8051SOL    HW225053   2.846   1.460   3.879
 8052SOL     OW25054   3.576   1.844   3.205
 8052SOL    HW125055   3.607   1.767   3.262
 8052SOL    HW225056   3.548   1.919   3.265
 8053SOL     OW25057   4.184   3.500   1.749
 8053SOL    HW125058   4.091   3.527   1.773
 8053SOL    HW225059   4.186   3.403   1.725
 8054SOL     OW25060   4.706   6.393   4.460
 8054SOL    HW125061   4.678   6.400   4.365
 8054SOL    HW225062   4.628   6.367   4.517
 8055SOL     OW25063   1.061   0.158   5.694
 8055SOL    HW125064   1.104   0.095   5.759
 8055SOL    HW225065   0.967   0.177   5.722
 8056SOL     OW25066   4.691   1.317   2.368
 8056SOL    HW125067   4.694   1.219   2.388
 8056SOL    HW225068   4.702   1.369   2.453
 8057SOL     OW25069   3.303   6.964   3.710
 8057SOL    HW125070   3.281   6.931   3.618
 8057SOL    HW225071   3.218   6.975   3.762
 8058SOL     OW25072   2.035   0.125   3.269
 8058SOL    HW125073   1.983   0.065   3.208
 8058SOL    HW225074   2.059   0.074   3.352
 8059SOL     OW25075   1.971   1.203   4.009
 8059SOL    HW125076   2.037   1.197   4.084
 8059SOL    HW225077   1.908   1.279   4.027
 8060SOL     OW25078   0.442   2.584   5.221
 8060SOL    HW125079   0.541   2.583   5.233
 8060SOL    HW225080   0.403   2.503   5.265
 8061SOL     OW25081   6.198   6.635   2.959
 8061SOL    HW125082   6.151   6.588   3.033
 8061SOL    HW225083   6.253   6.570   2.908
 8062SOL     OW25084   1.306   3.119   1.654
 8062SOL    HW125085   1.374   3.190   1.640
 8062SOL    HW225086   1.348   3.029   1.643
 8063SOL     OW25087   2.484   3.053   5.883
 8063SOL    HW125088   2.489   3.060   5.982
 8063SOL    HW225089   2.417   2.983   5.858
 8064SOL     OW25090   6.624   2.396   5.508
 8064SOL    HW125091   6.602   2.343   5.426
 8064SOL    HW225092   6.634   2.334   5.585
 8065SOL     OW25093   4.621   0.005   6.564
 8065SOL    HW125094   4.548   0.010   6.495
 8065SOL    HW225095   4.608   0.078   6.631
 8066SOL     OW25096   1.799   0.119   1.606
 8066SOL    HW125097   1.822   0.190   1.673
 8066SOL    HW225098   1.743   0.048   1.649
 8067SOL     OW25099   4.806   2.297   2.241
 8067SOL    HW125100   4.810   2.396   2.221
 8067SOL    HW225101   4.721   2.260   2.205
 8068SOL     OW25102   6.648   4.968   4.361
 8068SOL    HW125103   6.733   4.940   4.406
 8068SOL    HW225104   6.597   5.029   4.421
 8069SOL     OW25105   0.914   6.380   2.096
 8069SOL    HW125106   0.928   6.463   2.150
 8069SOL    HW225107   0.925   6.300   2.155
 8070SOL     OW25108   3.455   0.410   2.304
 8070SOL    HW125109   3.501   0.376   2.385
 8070SOL    HW225110   3.512   0.395   2.224
 8071SOL     OW25111   5.172   5.267   0.086
 8071SOL    HW125112   5.194   5.272   7.000
 8071SOL    HW225113   5.253   5.291   0.140
 8072SOL     OW25114   3.849   0.569   2.964
 8072SOL    HW125115   3.822   0.494   2.904
 8072SOL    HW225116   3.807   0.654   2.932
 8073SOL     OW25117   5.225   0.306   6.319
 8073SOL    HW125118   5.285   0.376   6.358
 8073SOL    HW225119   5.281   0.229   6.286
 8074SOL     OW25120   3.139   4.081   6.812
 8074SOL    HW125121   3.220   4.130   6.846
 8074SOL    HW225122   3.120   4.004   6.871
 8075SOL     OW25123   6.040   2.109   3.618
 8075SOL    HW125124   5.986   2.189   3.643
 8075SOL    HW225125   6.113   2.095   3.685
 8076SOL     OW25126   4.822   3.404   6.282
 8076SOL    HW125127   4.897   3.372   6.224
 8076SOL    HW225128   4.744   3.342   6.273
 8077SOL     OW25129   0.974   0.198   0.185
 8077SOL    HW125130   0.913   0.239   0.117
 8077SOL    HW225131   0.988   0.263   0.260
 8078SOL     OW25132   5.732   3.156   1.024
 8078SOL    HW125133   5.828   3.173   1.001
 8078SOL    HW225134   5.713   3.191   1.116
 8079SOL     OW25135   1.239   2.309   1.302
 8079SOL    HW125136   1.321   2.328   1.248
 8079SOL    HW225137   1.263   2.304   1.399
 8080SOL     OW25138   3.847   5.336   6.952
 8080SOL    HW125139   3.847   5.365   0.037
 8080SOL    HW225140   3.886   5.409   6.896
 8081SOL     OW25141   5.765   2.324   4.689
 8081SOL    HW125142   5.820   2.243   4.708
 8081SOL    HW225143   5.678   2.295   4.648
 8082SOL     OW25144   6.213   3.822   4.889
 8082SOL    HW125145   6.289   3.784   4.941
 8082SOL    HW225146   6.133   3.763   4.899
 8083SOL     OW25147   5.754   1.846   5.043
 8083SOL    HW125148   5.783   1.752   5.023
 8083SOL    HW225149   5.824   1.891   5.098
 8084SOL     OW25150   6.269   0.086   0.117
 8084SOL    HW125151   6.273   0.026   0.038
 8084SOL    HW225152   6.292   0.034   0.200
 8085SOL     OW25153   5.202   2.492   0.596
 8085SOL    HW125154   5.189   2.585   0.630
 8085SOL    HW225155   5.157   2.481   0.508
 8086SOL     OW25156   2.383   5.409   5.748
 8086SOL    HW125157   2.358   5.498   5.787
 8086SOL    HW225158   2.355   5.337   5.811
 8087SOL     OW25159   2.582   3.795   0.907
 8087SOL    HW125160   2.675   3.805   0.944
 8087SOL    HW225161   2.560   3.698   0.898
 8088SOL     OW25162   4.610   0.666   3.221
 8088SOL    HW125163   4.557   0.711   3.293
 8088SOL    HW225164   4.696   0.633   3.260
 8089SOL     OW25165   6.612   2.686   0.856
 8089SOL    HW125166   6.555   2.709   0.778
 8089SOL    HW225167   6.708   2.687   0.828
 8090SOL     OW25168   4.484   1.854   5.057
 8090SOL    HW125169   4.558   1.795   5.090
 8090SOL    HW225170   4.481   1.852   4.957
 8091SOL     OW25171   1.690   3.977   5.805
 8091SOL    HW125172   1.790   3.976   5.806
 8091SOL    HW225173   1.658   4.057   5.754
 8092SOL     OW25174   6.218   1.757   4.301
 8092SOL    HW125175   6.143   1.691   4.292
 8092SOL    HW225176   6.253   1.755   4.395
 8093SOL     OW25177   5.725   5.438   0.550
 8093SOL    HW125178   5.791   5.374   0.590
 8093SOL    HW225179   5.713   5.516   0.611
 8094SOL     OW25180   0.606   3.484   4.164
 8094SOL    HW125181   0.590   3.397   4.118
 8094SOL    HW225182   0.523   3.511   4.213
 8095SOL     OW25183   6.520   3.256   4.501
 8095SOL    HW125184   6.488   3.251   4.595
 8095SOL    HW225185   6.516   3.165   4.460
 8096SOL     OW25186   4.539   0.218   0.961
 8096SOL    HW125187   4.472   0.240   0.890
 8096SOL    HW225188   4.498   0.155   1.028
 8097SOL     OW25189   4.520   1.663   4.433
 8097SOL    HW125190   4.568   1.690   4.350
 8097SOL    HW225191   4.564   1.582   4.472
 8098SOL     OW25192   2.002   1.680   4.430
 8098SOL    HW125193   2.025   1.753   4.495
 8098SOL    HW225194   1.916   1.701   4.385
 8099SOL     OW25195   3.685   6.540   4.211
 8099SOL    HW125196   3.779   6.574   4.202
 8099SOL    HW225197   3.637   6.552   4.124
 8100SOL     OW25198   6.677   5.942   1.213
 8100SOL    HW125199   6.640   6.024   1.168
 8100SOL    HW225200   6.757   5.968   1.268
 8101SOL     OW25201   0.141   5.032   1.911
 8101SOL    HW125202   0.238   5.050   1.923
 8101SOL    HW225203   0.123   4.935   1.928
 8102SOL     OW25204   6.487   0.108   5.590
 8102SOL    HW125205   6.556   0.104   5.662
 8102SOL    HW225206   6.467   0.015   5.559
 8103SOL     OW25207   2.487   2.518   2.356
 8103SOL    HW125208   2.467   2.474   2.444
 8103SOL    HW225209   2.581   2.498   2.330
 8104SOL     OW25210   2.611   0.012   5.918
 8104SOL    HW125211   2.709   7.009   5.934
 8104SOL    HW225212   2.598   0.072   5.839
 8105SOL     OW25213   1.751   2.719   3.332
 8105SOL    HW125214   1.661   2.711   3.289
 8105SOL    HW225215   1.742   2.770   3.418
 8106SOL     OW25216   0.436   4.117   5.244
 8106SOL    HW125217   0.414   4.084   5.336
 8106SOL    HW225218   0.449   4.039   5.183
 8107SOL     OW25219   1.253   5.108   6.670
 8107SOL    HW125220   1.332   5.100   6.730
 8107SOL    HW225221   1.177   5.055   6.707
 8108SOL     OW25222   2.193   2.963   6.006
 8108SOL    HW125223   2.186   3.062   6.019
 8108SOL    HW225224   2.179   2.942   5.909
 8109SOL     OW25225   0.458   5.114   5.759
 8109SOL    HW125226   0.483   5.172   5.837
 8109SOL    HW225227   0.539   5.095   5.704
 8110SOL     OW25228   1.247   4.893   0.451
 8110SOL    HW125229   1.147   4.881   0.452
 8110SOL    HW225230   1.273   4.946   0.371
 8111SOL     OW25231   3.279   5.693   3.803
 8111SOL    HW125232   3.245   5.667   3.894
 8111SOL    HW225233   3.294   5.792   3.801
 8112SOL     OW25234   3.988   0.961   3.925
 8112SOL    HW125235   3.973   0.922   3.834
 8112SOL    HW225236   4.083   0.944   3.953
 8113SOL     OW25237   3.068   2.557   5.841
 8113SOL    HW125238   3.084   2.467   5.881
 8113SOL    HW225239   3.066   2.549   5.741
 8114SOL     OW25240   3.202   3.548   1.553
 8114SOL    HW125241   3.201   3.634   1.501
 8114SOL    HW225242   3.109   3.511   1.557
 8115SOL     OW25243   3.745   2.787   0.966
 8115SOL    HW125244   3.667   2.769   1.026
 8115SOL    HW225245   3.745   2.884   0.939
 8116SOL     OW25246   5.469   1.621   5.922
 8116SOL    HW125247   5.563   1.616   5.957
 8116SOL    HW225248   5.471   1.633   5.823
 8117SOL     OW25249   3.174   2.818   5.944
 8117SOL    HW125250   3.122   2.749   5.894
 8117SOL    HW225251   3.184   2.790   6.039
 8118SOL     OW25252   1.185   2.107   3.736
 8118SOL    HW125253   1.087   2.095   3.724
 8118SOL    HW225254   1.205   2.125   3.833
 8119SOL     OW25255   1.413   6.610   2.324
 8119SOL    HW125256   1.320   6.644   2.315
 8119SOL    HW225257   1.412   6.519   2.366
 8120SOL     OW25258   4.685   4.336   2.569
 8120SOL    HW125259   4.678   4.313   2.666
 8120SOL    HW225260   4.602   4.385   2.540
 8121SOL     OW25261   6.967   5.758   2.836
 8121SOL    HW125262   6.910   5.796   2.909
 8121SOL    HW225263   0.027   5.700   2.876
 8122SOL     OW25264   6.869   5.500   1.830
 8122SOL    HW125265   6.776   5.471   1.850
 8122SOL    HW225266   6.906   5.549   1.909
 8123SOL     OW25267   1.433   5.258   6.969
 8123SOL    HW125268   1.408   5.348   7.006
 8123SOL    HW225269   1.415   5.188   0.027
 8124SOL     OW25270   1.525   6.529   2.918
 8124SOL    HW125271   1.498   6.589   2.994
 8124SOL    HW225272   1.549   6.585   2.839
 8125SOL     OW25273   5.294   5.003   2.948
 8125SOL    HW125274   5.377   5.043   2.986
 8125SOL    HW225275   5.301   5.001   2.848
 8126SOL     OW25276   0.057   4.763   2.002
 8126SOL    HW125277   0.060   4.665   1.982
 8126SOL    HW225278   6.982   4.801   1.967
 8127SOL     OW25279   4.164   5.043   1.020
 8127SOL    HW125280   4.107   4.966   1.048
 8127SOL    HW225281   4.139   5.124   1.072
 8128SOL     OW25282   3.953   2.178   5.759
 8128SOL    HW125283   3.885   2.112   5.726
 8128SOL    HW225284   3.952   2.259   5.700
 8129SOL     OW25285   4.754   5.937   6.470
 8129SOL    HW125286   4.812   6.016   6.490
 8129SOL    HW225287   4.659   5.966   6.465
 8130SOL     OW25288   0.494   0.110   6.187
 8130SOL    HW125289   0.533   0.157   6.267
 8130SOL    HW225290   0.482   0.013   6.208
 8131SOL     OW25291   2.319   1.831   1.269
 8131SOL    HW125292   2.379   1.854   1.346
 8131SOL    HW225293   2.293   1.735   1.274
 8132SOL     OW25294   5.771   4.604   2.968
 8132SOL    HW125295   5.830   4.527   2.941
 8132SOL    HW225296   5.715   4.576   3.046
 8133SOL     OW25297   0.315   5.723   2.200
 8133SOL    HW125298   0.285   5.696   2.109
 8133SOL    HW225299   0.381   5.798   2.193
 8134SOL     OW25300   2.226   2.423   1.852
 8134SOL    HW125301   2.300   2.355   1.851
 8134SOL    HW225302   2.265   2.515   1.854
 8135SOL     OW25303   3.957   6.203   2.477
 8135SOL    HW125304   4.010   6.242   2.552
 8135SOL    HW225305   3.958   6.103   2.484
 8136SOL     OW25306   2.139   6.029   1.848
 8136SOL    HW125307   2.214   6.030   1.914
 8136SOL    HW225308   2.138   5.940   1.801
 8137SOL     OW25309   3.068   3.644   5.344
 8137SOL    HW125310   3.069   3.730   5.395
 8137SOL    HW225311   2.994   3.646   5.277
 8138SOL     OW25312   4.805   1.142   3.585
 8138SOL    HW125313   4.817   1.238   3.608
 8138SOL    HW225314   4.735   1.133   3.514
 8139SOL     OW25315   1.500   3.006   6.174
 8139SOL    HW125316   1.505   2.934   6.106
 8139SOL    HW225317   1.585   3.059   6.172
 8140SOL     OW25318   4.932   1.620   1.135
 8140SOL    HW125319   4.899   1.659   1.221
 8140SOL    HW225320   4.855   1.586   1.081
 8141SOL     OW25321   6.194   0.860   5.246
 8141SOL    HW125322   6.128   0.793   5.213
 8141SOL    HW225323   6.191   0.941   5.188
 8142SOL     OW25324   3.589   5.470   0.689
 8142SOL    HW125325   3.522   5.397   0.705
 8142SOL    HW225326   3.650   5.477   0.767
 8143SOL     OW25327   5.814   4.878   0.025
 8143SOL    HW125328   5.768   4.863   0.112
 8143SOL    HW225329   5.762   4.836   6.961
 8144SOL     OW25330   1.605   5.479   6.753
 8144SOL    HW125331   1.568   5.396   6.794
 8144SOL    HW225332   1.674   5.455   6.685
 8145SOL     OW25333   5.606   5.683   5.996
 8145SOL    HW125334   5.697   5.685   6.037
 8145SOL    HW225335   5.606   5.621   5.917
 8146SOL     OW25336   0.110   6.387   4.780
 8146SOL    HW125337   0.171   6.356   4.707
 8146SOL    HW225338   0.066   6.308   4.823
 8147SOL     OW25339   2.427   0.030   4.798
 8147SOL    HW125340   2.394   0.091   4.870
 8147SOL    HW225341   2.453   6.953   4.839
 8148SOL     OW25342   5.125   4.820   6.803
 8148SOL    HW125343   5.163   4.730   6.822
 8148SOL    HW225344   5.033   4.827   6.843
 8149SOL     OW25345   1.851   6.675   5.486
 8149SOL    HW125346   1.926   6.666   5.421
 8149SOL    HW225347   1.837   6.771   5.509
 8150SOL     OW25348   0.494   4.179   0.536
 8150SOL    HW125349   0.402   4.161   0.572
 8150SOL    HW225350   0.488   4.201   0.438
 8151SOL     OW25351   6.204   4.354   1.850
 8151SOL    HW125352   6.285   4.301   1.827
 8151SOL    HW225353   6.145   4.362   1.770
 8152SOL     OW25354   5.013   2.219   3.841
 8152SOL    HW125355   4.937   2.270   3.800
 8152SOL    HW225356   5.093   2.225   3.782
 8153SOL     OW25357   0.154   1.858   1.656
 8153SOL    HW125358   0.102   1.910   1.588
 8153SOL    HW225359   0.091   1.824   1.726
 8154SOL     OW25360   0.963   0.893   3.752
 8154SOL    HW125361   1.020   0.861   3.677
 8154SOL    HW225362   0.877   0.841   3.753
 8155SOL     OW25363   1.072   4.613   4.696
 8155SOL    HW125364   1.017   4.691   4.668
 8155SOL    HW225365   1.029   4.528   4.666
 8156SOL     OW25366   1.391   4.061   0.502
 8156SOL    HW125367   1.391   4.014   0.414
 8156SOL    HW225368   1.309   4.034   0.554
 8157SOL     OW25369   6.042   4.680   4.492
 8157SOL    HW125370   5.993   4.755   4.536
 8157SOL    HW225371   6.124   4.715   4.446
 8158SOL     OW25372   6.232   4.973   6.302
 8158SOL    HW125373   6.252   4.879   6.273
 8158SOL    HW225374   6.134   4.989   6.297
 8159SOL     OW25375   2.831   6.836   5.186
 8159SOL    HW125376   2.821   6.739   5.206
 8159SOL    HW225377   2.833   6.888   5.272
 8160SOL     OW25378   5.370   2.659   2.846
 8160SOL    HW125379   5.427   2.578   2.835
 8160SOL    HW225380   5.404   2.733   2.787
 8161SOL     OW25381   6.950   2.635   2.284
 8161SOL    HW125382   6.890   2.699   2.236
 8161SOL    HW225383   6.917   2.624   2.378
 8162SOL     OW25384   0.838   6.162   5.441
 8162SOL    HW125385   0.830   6.177   5.342
 8162SOL    HW225386   0.886   6.077   5.458
 8163SOL     OW25387   3.602   5.182   5.470
 8163SOL    HW125388   3.566   5.131   5.391
 8163SOL    HW225389   3.533   5.246   5.502
 8164SOL     OW25390   5.333   1.847   0.209
 8164SOL    HW125391   5.327   1.924   0.272
 8164SOL    HW225392   5.358   1.879   0.118
 8165SOL     OW25393   0.719   2.522   6.182
 8165SOL    HW125394   0.690   2.437   6.226
 8165SOL    HW225395   0.644   2.589   6.186
 8166SOL     OW25396   2.483   2.246   4.657
 8166SOL    HW125397   2.550   2.280   4.723
 8166SOL    HW225398   2.530   2.208   4.578
 8167SOL     OW25399   1.574   2.374   3.250
 8167SOL    HW125400   1.495   2.412   3.297
 8167SOL    HW225401   1.651   2.367   3.313
 8168SOL     OW25402   1.603   6.250   2.485
 8168SOL    HW125403   1.660   6.320   2.529
 8168SOL    HW225404   1.653   6.163   2.485
 8169SOL     OW25405   4.749   4.067   0.343
 8169SOL    HW125406   4.755   4.092   0.439
 8169SOL    HW225407   4.713   4.145   0.291
 8170SOL     OW25408   6.985   4.519   3.159
 8170SOL    HW125409   7.005   4.584   3.087
 8170SOL    HW225410   6.967   4.429   3.119
 8171SOL     OW25411   1.768   1.698   1.762
 8171SOL    HW125412   1.807   1.784   1.730
 8171SOL    HW225413   1.682   1.680   1.715
 8172SOL     OW25414   1.295   4.823   0.725
 8172SOL    HW125415   1.318   4.838   0.629
 8172SOL    HW225416   1.244   4.901   0.760
 8173SOL     OW25417   5.794   6.852   1.499
 8173SOL    HW125418   5.828   6.943   1.522
 8173SOL    HW225419   5.864   6.803   1.447
 8174SOL     OW25420   2.900   6.490   3.883
 8174SOL    HW125421   2.827   6.492   3.816
 8174SOL    HW225422   2.865   6.516   3.973
 8175SOL     OW25423   0.599   1.915   5.704
 8175SOL    HW125424   0.575   2.012   5.695
 8175SOL    HW225425   0.525   1.867   5.751
 8176SOL     OW25426   3.057   4.909   0.211
 8176SOL    HW125427   2.999   4.827   0.212
 8176SOL    HW225428   3.012   4.982   0.262
 8177SOL     OW25429   3.195   0.815   2.529
 8177SOL    HW125430   3.169   0.908   2.557
 8177SOL    HW225431   3.275   0.820   2.468
 8178SOL     OW25432   2.379   5.840   1.333
 8178SOL    HW125433   2.360   5.765   1.270
 8178SOL    HW225434   2.478   5.855   1.339
 8179SOL     OW25435   6.244   6.897   3.818
 8179SOL    HW125436   6.311   6.831   3.853
 8179SOL    HW225437   6.293   6.977   3.780
 8180SOL     OW25438   4.733   5.144   0.654
 8180SOL    HW125439   4.745   5.241   0.676
 8180SOL    HW225440   4.647   5.112   0.695
 8181SOL     OW25441   6.269   0.698   6.271
 8181SOL    HW125442   6.255   0.664   6.364
 8181SOL    HW225443   6.283   0.621   6.209
 8182SOL     OW25444   3.688   3.506   2.944
 8182SOL    HW125445   3.730   3.459   3.021
 8182SOL    HW225446   3.694   3.605   2.959
 8183SOL     OW25447   0.138   0.244   5.540
 8183SOL    HW125448   0.114   0.322   5.482
 8183SOL    HW225449   0.125   0.159   5.489
 8184SOL     OW25450   0.310   6.084   5.116
 8184SOL    HW125451   0.252   6.155   5.077
 8184SOL    HW225452   0.396   6.124   5.147
 8185SOL     OW25453   0.491   5.946   4.971
 8185SOL    HW125454   0.427   6.009   5.012
 8185SOL    HW225455   0.474   5.940   4.872
 8186SOL     OW25456   1.465   5.524   0.417
 8186SOL    HW125457   1.473   5.597   0.485
 8186SOL    HW225458   1.444   5.438   0.462
 8187SOL     OW25459   1.267   6.651   4.465
 8187SOL    HW125460   1.365   6.640   4.450
 8187SOL    HW225461   1.227   6.562   4.488
 8188SOL     OW25462   1.320   2.591   2.764
 8188SOL    HW125463   1.407   2.617   2.722
 8188SOL    HW225464   1.251   2.660   2.743
 8189SOL     OW25465   6.603   5.289   4.353
 8189SOL    HW125466   6.617   5.258   4.447
 8189SOL    HW225467   6.519   5.343   4.348
 8190SOL     OW25468   5.780   3.602   2.683
 8190SOL    HW125469   5.864   3.600   2.739
 8190SOL    HW225470   5.714   3.663   2.725
 8191SOL     OW25471   4.727   5.457   0.797
 8191SOL    HW125472   4.630   5.431   0.797
 8191SOL    HW225473   4.763   5.453   0.704
 8192SOL     OW25474   0.530   5.966   3.287
 8192SOL    HW125475   0.464   6.039   3.306
 8192SOL    HW225476   0.508   5.923   3.200
 8193SOL     OW25477   0.201   4.804   4.102
 8193SOL    HW125478   0.294   4.835   4.119
 8193SOL    HW225479   0.148   4.879   4.063
 8194SOL     OW25480   5.573   0.302   1.771
 8194SOL    HW125481   5.499   0.313   1.705
 8194SOL    HW225482   5.660   0.288   1.722
 8195SOL     OW25483   6.722   6.361   3.384
 8195SOL    HW125484   6.663   6.281   3.393
 8195SOL    HW225485   6.767   6.359   3.295
 8196SOL     OW25486   4.895   0.079   2.318
 8196SOL    HW125487   4.978   0.032   2.290
 8196SOL    HW225488   4.830   0.013   2.356
 8197SOL     OW25489   4.068   1.690   3.460
 8197SOL    HW125490   4.011   1.692   3.378
 8197SOL    HW225491   4.141   1.622   3.448
 8198SOL     OW25492   2.055   5.652   0.697
 8198SOL    HW125493   1.963   5.643   0.658
 8198SOL    HW225494   2.108   5.570   0.674
 8199SOL     OW25495   5.882   2.291   0.200
 8199SOL    HW125496   5.896   2.383   0.238
 8199SOL    HW225497   5.807   2.246   0.247
 8200SOL     OW25498   5.577   4.236   0.514
 8200SOL    HW125499   5.566   4.311   0.449
 8200SOL    HW225500   5.543   4.264   0.604
 8201SOL     OW25501   5.565   0.686   5.384
 8201SOL    HW125502   5.581   0.760   5.449
 8201SOL    HW225503   5.652   0.648   5.354
 8202SOL     OW25504   1.051   5.789   1.697
 8202SOL    HW125505   1.080   5.792   1.602
 8202SOL    HW225506   0.996   5.869   1.719
 8203SOL     OW25507   1.699   2.965   0.338
 8203SOL    HW125508   1.766   3.036   0.362
 8203SOL    HW225509   1.607   3.002   0.348
 8204SOL     OW25510   1.441   3.561   0.531
 8204SOL    HW125511   1.528   3.602   0.557
 8204SOL    HW225512   1.366   3.622   0.557
 8205SOL     OW25513   0.251   3.670   5.952
 8205SOL    HW125514   0.220   3.743   6.013
 8205SOL    HW225515   0.263   3.707   5.859
 8206SOL     OW25516   3.564   0.939   1.512
 8206SOL    HW125517   3.619   1.009   1.467
 8206SOL    HW225518   3.475   0.932   1.469
 8207SOL     OW25519   4.103   3.702   4.113
 8207SOL    HW125520   4.009   3.696   4.146
 8207SOL    HW225521   4.165   3.655   4.176
 8208SOL     OW25522   2.733   0.378   6.744
 8208SOL    HW125523   2.815   0.322   6.756
 8208SOL    HW225524   2.666   0.355   6.814
 8209SOL     OW25525   6.022   2.318   4.030
 8209SOL    HW125526   6.119   2.340   4.043
 8209SOL    HW225527   5.971   2.338   4.114
 8210SOL     OW25528   2.101   2.677   6.075
 8210SOL    HW125529   2.119   2.765   6.032
 8210SOL    HW225530   2.009   2.645   6.051
 8211SOL     OW25531   4.437   4.757   0.984
 8211SOL    HW125532   4.450   4.658   0.983
 8211SOL    HW225533   4.367   4.782   1.051
 8212SOL     OW25534   2.097   2.529   3.085
 8212SOL    HW125535   2.020   2.531   3.021
 8212SOL    HW225536   2.140   2.619   3.089
 8213SOL     OW25537   6.220   4.792   0.521
 8213SOL    HW125538   6.273   4.815   0.439
 8213SOL    HW225539   6.130   4.835   0.515
 8214SOL     OW25540   4.870   3.491   3.221
 8214SOL    HW125541   4.911   3.426   3.157
 8214SOL    HW225542   4.806   3.550   3.173
 8215SOL     OW25543   3.539   5.205   2.091
 8215SOL    HW125544   3.511   5.281   2.033
 8215SOL    HW225545   3.557   5.124   2.035
 8216SOL     OW25546   5.675   3.623   3.543
 8216SOL    HW125547   5.735   3.618   3.463
 8216SOL    HW225548   5.641   3.716   3.555
 8217SOL     OW25549   2.161   5.832   0.481
 8217SOL    HW125550   2.152   5.921   0.526
 8217SOL    HW225551   2.128   5.761   0.543
 8218SOL     OW25552   5.048   2.039   6.912
 8218SOL    HW125553   4.967   2.037   6.970
 8218SOL    HW225554   5.083   1.946   6.899
 8219SOL     OW25555   5.085   2.198   0.223
 8219SOL    HW125556   5.162   2.169   0.167
 8219SOL    HW225557   5.081   2.142   0.307
 8220SOL     OW25558   4.025   3.634   1.453
 8220SOL    HW125559   3.945   3.577   1.432
 8220SOL    HW225560   4.027   3.653   1.551
 8221SOL     OW25561   5.888   4.129   3.311
 8221SOL    HW125562   5.965   4.146   3.372
 8221SOL    HW225563   5.807   4.106   3.365
 8222SOL     OW25564   6.540   0.807   3.188
 8222SOL    HW125565   6.550   0.708   3.182
 8222SOL    HW225566   6.496   0.831   3.275
 8223SOL     OW25567   0.425   4.959   7.004
 8223SOL    HW125568   0.486   4.929   6.930
 8223SOL    HW225569   0.463   5.041   0.036
 8224SOL     OW25570   0.916   4.082   2.356
 8224SOL    HW125571   0.929   4.031   2.271
 8224SOL    HW225572   1.003   4.091   2.404
 8225SOL     OW25573   4.715   1.416   1.338
 8225SOL    HW125574   4.701   1.514   1.351
 8225SOL    HW225575   4.627   1.369   1.335
 8226SOL     OW25576   3.834   0.289   6.852
 8226SOL    HW125577   3.737   0.290   6.875
 8226SOL    HW225578   3.888   0.296   6.935
 8227SOL     OW25579   6.048   4.349   3.475
 8227SOL    HW125580   6.122   4.282   3.459
 8227SOL    HW225581   6.083   4.441   3.456
 8228SOL     OW25582   0.181   1.426   3.805
 8228SOL    HW125583   0.261   1.417   3.864
 8228SOL    HW225584   0.210   1.421   3.709
 8229SOL     OW25585   5.301   5.631   0.706
 8229SOL    HW125586   5.336   5.709   0.654
 8229SOL    HW225587   5.205   5.615   0.681
 8230SOL     OW25588   5.561   6.975   3.301
 8230SOL    HW125589   5.500   0.025   3.351
 8230SOL    HW225590   5.561   7.000   3.204
 8231SOL     OW25591   3.699   5.619   1.505
 8231SOL    HW125592   3.650   5.632   1.592
 8231SOL    HW225593   3.641   5.650   1.429
 8232SOL     OW25594   2.594   1.586   0.261
 8232SOL    HW125595   2.518   1.634   0.306
 8232SOL    HW225596   2.564   1.493   0.236
 8233SOL     OW25597   0.530   5.590   5.843
 8233SOL    HW125598   0.612   5.601   5.787
 8233SOL    HW225599   0.521   5.667   5.906
 8234SOL     OW25600   2.672   3.008   6.760
 8234SOL    HW125601   2.721   3.079   6.709
 8234SOL    HW225602   2.727   2.980   6.839
 8235SOL     OW25603   4.661   2.518   6.440
 8235SOL    HW125604   4.740   2.458   6.449
 8235SOL    HW225605   4.608   2.492   6.359
 8236SOL     OW25606   5.888   2.718   1.390
 8236SOL    HW125607   5.821   2.780   1.351
 8236SOL    HW225608   5.974   2.724   1.338
 8237SOL     OW25609   3.549   6.627   5.737
 8237SOL    HW125610   3.469   6.652   5.682
 8237SOL    HW225611   3.520   6.595   5.827
 8238SOL     OW25612   1.356   0.728   6.348
 8238SOL    HW125613   1.295   0.799   6.381
 8238SOL    HW225614   1.346   0.718   6.249
 8239SOL     OW25615   5.916   0.988   0.124
 8239SOL    HW125616   5.847   0.948   0.184
 8239SOL    HW225617   5.872   1.046   0.056
 8240SOL     OW25618   3.985   3.070   2.995
 8240SOL    HW125619   3.957   3.082   3.091
 8240SOL    HW225620   3.920   3.010   2.949
 8241SOL     OW25621   4.893   6.212   1.412
 8241SOL    HW125622   4.846   6.142   1.466
 8241SOL    HW225623   4.860   6.303   1.437
 8242SOL     OW25624   1.150   4.117   5.536
 8242SOL    HW125625   1.151   4.041   5.602
 8242SOL    HW225626   1.164   4.203   5.585
 8243SOL     OW25627   0.519   3.034   4.597
 8243SOL    HW125628   0.521   2.946   4.644
 8243SOL    HW225629   0.581   3.097   4.643
 8244SOL     OW25630   2.651   5.362   5.069
 8244SOL    HW125631   2.626   5.436   5.007
 8244SOL    HW225632   2.749   5.363   5.085
 8245SOL     OW25633   4.569   3.706   0.845
 8245SOL    HW125634   4.619   3.730   0.928
 8245SOL    HW225635   4.604   3.618   0.810
 8246SOL     OW25636   5.513   3.570   5.123
 8246SOL    HW125637   5.529   3.472   5.116
 8246SOL    HW225638   5.415   3.588   5.115
 8247SOL     OW25639   0.896   6.574   6.985
 8247SOL    HW125640   0.877   6.531   0.063
 8247SOL    HW225641   0.832   6.650   6.971
 8248SOL     OW25642   0.152   4.360   3.331
 8248SOL    HW125643   0.230   4.407   3.374
 8248SOL    HW225644   0.127   4.409   3.247
 8249SOL     OW25645   0.924   5.425   2.969
 8249SOL    HW125646   0.952   5.380   3.054
 8249SOL    HW225647   0.975   5.385   2.892
 8250SOL     OW25648   3.412   3.548   1.918
 8250SOL    HW125649   3.332   3.510   1.871
 8250SOL    HW225650   3.421   3.506   2.008
 8251SOL     OW25651   6.279   1.154   4.583
 8251SOL    HW125652   6.230   1.127   4.501
 8251SOL    HW225653   6.217   1.153   4.661
 8252SOL     OW25654   1.092   3.800   4.230
 8252SOL    HW125655   1.094   3.899   4.219
 8252SOL    HW225656   1.042   3.759   4.153
 8253SOL     OW25657   2.740   3.347   5.770
 8253SOL    HW125658   2.773   3.270   5.715
 8253SOL    HW225659   2.668   3.395   5.720
 8254SOL     OW25660   4.442   5.831   3.284
 8254SOL    HW125661   4.404   5.899   3.221
 8254SOL    HW225662   4.510   5.875   3.343
 8255SOL     OW25663   4.001   4.791   3.728
 8255SOL    HW125664   3.913   4.778   3.773
 8255SOL    HW225665   3.988   4.785   3.629
 8256SOL     OW25666   5.842   2.742   3.723
 8256SOL    HW125667   5.850   2.839   3.745
 8256SOL    HW225668   5.745   2.717   3.718
 8257SOL     OW25669   6.188   4.672   4.035
 8257SOL    HW125670   6.268   4.728   4.054
 8257SOL    HW225671   6.201   4.580   4.074
 8258SOL     OW25672   5.396   1.955   6.975
 8258SOL    HW125673   5.313   1.916   6.936
 8258SOL    HW225674   5.476   1.921   6.924
 8259SOL     OW25675   4.644   1.131   0.941
 8259SOL    HW125676   4.611   1.038   0.961
 8259SOL    HW225677   4.566   1.192   0.930
 8260SOL     OW25678   3.318   5.708   6.741
 8260SOL    HW125679   3.401   5.763   6.747
 8260SOL    HW225680   3.238   5.767   6.757
 8261SOL     OW25681   5.082   1.413   1.708
 8261SOL    HW125682   5.076   1.468   1.624
 8261SOL    HW225683   5.079   1.316   1.684
 8262SOL     OW25684   6.745   2.392   1.330
 8262SOL    HW125685   6.829   2.374   1.380
 8262SOL    HW225686   6.764   2.394   1.232
 8263SOL     OW25687   5.190   1.640   1.058
 8263SOL    HW125688   5.099   1.612   1.087
 8263SOL    HW225689   5.252   1.561   1.062
 8264SOL     OW25690   1.857   4.438   1.431
 8264SOL    HW125691   1.760   4.420   1.444
 8264SOL    HW225692   1.887   4.398   1.344
 8265SOL     OW25693   1.703   0.462   2.587
 8265SOL    HW125694   1.662   0.553   2.591
 8265SOL    HW225695   1.661   0.403   2.656
 8266SOL     OW25696   3.505   0.481   3.070
 8266SOL    HW125697   3.465   0.405   3.121
 8266SOL    HW225698   3.443   0.560   3.073
 8267SOL     OW25699   6.867   3.794   0.572
 8267SOL    HW125700   6.842   3.889   0.594
 8267SOL    HW225701   6.821   3.732   0.635
 8268SOL     OW25702   3.147   5.491   6.836
 8268SOL    HW125703   3.202   5.566   6.801
 8268SOL    HW225704   3.138   5.498   6.935
 8269SOL     OW25705   5.864   2.397   0.565
 8269SOL    HW125706   5.827   2.443   0.485
 8269SOL    HW225707   5.964   2.389   0.557
 8270SOL     OW25708   2.634   6.534   4.267
 8270SOL    HW125709   2.626   6.537   4.167
 8270SOL    HW225710   2.574   6.462   4.303
 8271SOL     OW25711   6.419   2.434   3.130
 8271SOL    HW125712   6.514   2.400   3.123
 8271SOL    HW225713   6.419   2.524   3.173
 8272SOL     OW25714   3.531   1.189   4.101
 8272SOL    HW125715   3.450   1.164   4.154
 8272SOL    HW225716   3.547   1.287   4.108
 8273SOL     OW25717   1.997   6.546   2.001
 8273SOL    HW125718   1.968   6.641   2.012
 8273SOL    HW225719   1.941   6.488   2.060
 8274SOL     OW25720   5.446   4.288   3.464
 8274SOL    HW125721   5.367   4.259   3.410
 8274SOL    HW225722   5.498   4.357   3.412
 8275SOL     OW25723   5.331   2.188   0.069
 8275SOL    HW125724   5.267   2.207   7.004
 8275SOL    HW225725   5.394   2.116   0.041
 8276SOL     OW25726   0.385   1.949   2.971
 8276SOL    HW125727   0.468   1.996   3.004
 8276SOL    HW225728   0.324   1.932   3.049
 8277SOL     OW25729   0.155   1.562   6.988
 8277SOL    HW125730   0.161   1.647   0.030
 8277SOL    HW225731   0.134   1.486   0.038
 8278SOL     OW25732   1.212   2.668   0.763
 8278SOL    HW125733   1.195   2.592   0.701
 8278SOL    HW225734   1.307   2.697   0.755
 8279SOL     OW25735   0.698   6.346   3.772
 8279SOL    HW125736   0.616   6.399   3.794
 8279SOL    HW225737   0.702   6.331   3.673
 8280SOL     OW25738   3.653   2.242   6.064
 8280SOL    HW125739   3.570   2.226   6.118
 8280SOL    HW225740   3.713   2.162   6.071
 8281SOL     OW25741   4.800   5.508   2.621
 8281SOL    HW125742   4.704   5.508   2.593
 8281SOL    HW225743   4.806   5.527   2.719
 8282SOL     OW25744   5.769   2.807   6.061
 8282SOL    HW125745   5.779   2.845   6.153
 8282SOL    HW225746   5.675   2.776   6.047
 8283SOL     OW25747   1.677   2.653   5.865
 8283SOL    HW125748   1.658   2.557   5.844
 8283SOL    HW225749   1.716   2.698   5.785
 8284SOL     OW25750   6.493   4.526   1.711
 8284SOL    HW125751   6.448   4.450   1.665
 8284SOL    HW225752   6.429   4.602   1.721
 8285SOL     OW25753   4.039   3.221   3.846
 8285SOL    HW125754   3.980   3.157   3.895
 8285SOL    HW225755   4.056   3.301   3.903
 8286SOL     OW25756   0.283   2.268   6.528
 8286SOL    HW125757   0.271   2.319   6.442
 8286SOL    HW225758   0.219   2.301   6.596
 8287SOL     OW25759   1.618   6.330   4.236
 8287SOL    HW125760   1.662   6.251   4.195
 8287SOL    HW225761   1.525   6.339   4.199
 8288SOL     OW25762   3.269   1.761   3.239
 8288SOL    HW125763   3.217   1.782   3.156
 8288SOL    HW225764   3.226   1.685   3.287
 8289SOL     OW25765   0.235   5.873   6.514
 8289SOL    HW125766   0.233   5.832   6.423
 8289SOL    HW225767   0.326   5.912   6.531
 8290SOL     OW25768   6.007   2.130   0.885
 8290SOL    HW125769   6.097   2.111   0.925
 8290SOL    HW225770   5.940   2.140   0.959
 8291SOL     OW25771   3.967   0.553   0.492
 8291SOL    HW125772   4.037   0.611   0.452
 8291SOL    HW225773   3.951   0.579   0.587
 8292SOL     OW25774   2.889   0.601   6.118
 8292SOL    HW125775   2.948   0.599   6.037
 8292SOL    HW225776   2.876   0.508   6.151
 8293SOL     OW25777   5.930   5.256   5.059
 8293SOL    HW125778   5.884   5.167   5.048
 8293SOL    HW225779   5.931   5.304   4.972
 8294SOL     OW25780   6.183   3.030   6.838
 8294SOL    HW125781   6.273   3.055   6.874
 8294SOL    HW225782   6.146   2.954   6.891
 8295SOL     OW25783   4.771   3.262   6.954
 8295SOL    HW125784   4.679   3.296   6.973
 8295SOL    HW225785   4.784   3.174   6.998
 8296SOL     OW25786   1.215   4.912   5.960
 8296SOL    HW125787   1.131   4.860   5.975
 8296SOL    HW225788   1.201   5.006   5.989
 8297SOL     OW25789   1.467   2.720   3.994
 8297SOL    HW125790   1.499   2.811   3.966
 8297SOL    HW225791   1.372   2.726   4.025
 8298SOL     OW25792   4.812   1.707   1.845
 8298SOL    HW125793   4.906   1.741   1.835
 8298SOL    HW225794   4.802   1.622   1.794
 8299SOL     OW25795   6.011   2.305   1.233
 8299SOL    HW125796   6.077   2.305   1.158
 8299SOL    HW225797   6.060   2.303   1.321
 8300SOL     OW25798   1.023   5.253   3.184
 8300SOL    HW125799   1.007   5.168   3.234
 8300SOL    HW225800   1.065   5.320   3.246
 8301SOL     OW25801   2.718   2.058   6.744
 8301SOL    HW125802   2.684   2.097   6.830
 8301SOL    HW225803   2.728   2.130   6.676
 8302SOL     OW25804   5.849   5.609   5.463
 8302SOL    HW125805   5.871   5.580   5.370
 8302SOL    HW225806   5.750   5.620   5.473
 8303SOL     OW25807   6.992   0.337   6.523
 8303SOL    HW125808   6.958   0.328   6.617
 8303SOL    HW225809   0.076   0.306   6.520
 8304SOL     OW25810   0.418   3.545   0.518
 8304SOL    HW125811   0.360   3.467   0.540
 8304SOL    HW225812   0.384   3.626   0.567
 8305SOL     OW25813   3.851   5.139   3.364
 8305SOL    HW125814   3.838   5.045   3.333
 8305SOL    HW225815   3.806   5.202   3.301
 8306SOL     OW25816   1.725   3.187   4.355
 8306SOL    HW125817   1.716   3.123   4.279
 8306SOL    HW225818   1.790   3.260   4.331
 8307SOL     OW25819   4.029   5.598   0.985
 8307SOL    HW125820   4.119   5.602   1.029
 8307SOL    HW225821   4.033   5.646   0.898
 8308SOL     OW25822   3.210   0.290   2.528
 8308SOL    HW125823   3.222   0.367   2.589
 8308SOL    HW225824   3.249   0.311   2.438
 8309SOL     OW25825   5.672   6.729   2.139
 8309SOL    HW125826   5.583   6.728   2.185
 8309SOL    HW225827   5.720   6.813   2.162
 8310SOL     OW25828   6.241   4.495   6.869
 8310SOL    HW125829   6.218   4.569   6.806
 8310SOL    HW225830   6.213   4.518   6.961
 8311SOL     OW25831   6.099   0.291   6.311
 8311SOL    HW125832   6.019   0.239   6.283
 8311SOL    HW225833   6.071   0.376   6.356
 8312SOL     OW25834   5.221   6.420   1.494
 8312SOL    HW125835   5.226   6.326   1.463
 8312SOL    HW225836   5.180   6.423   1.585
 8313SOL     OW25837   3.885   1.392   2.609
 8313SOL    HW125838   3.944   1.374   2.687
 8313SOL    HW225839   3.802   1.438   2.640
 8314SOL     OW25840   0.307   6.111   3.265
 8314SOL    HW125841   0.277   6.056   3.187
 8314SOL    HW225842   0.228   6.161   3.303
 8315SOL     OW25843   4.730   4.608   6.347
 8315SOL    HW125844   4.682   4.539   6.293
 8315SOL    HW225845   4.774   4.673   6.286
 8316SOL     OW25846   2.965   5.752   6.576
 8316SOL    HW125847   2.904   5.766   6.498
 8316SOL    HW225848   2.925   5.684   6.638
 8317SOL     OW25849   2.152   4.256   1.835
 8317SOL    HW125850   2.132   4.167   1.796
 8317SOL    HW225851   2.227   4.247   1.901
 8318SOL     OW25852   3.520   1.283   6.005
 8318SOL    HW125853   3.498   1.367   6.054
 8318SOL    HW225854   3.612   1.290   5.966
 8319SOL     OW25855   3.443   0.521   5.217
 8319SOL    HW125856   3.422   0.619   5.219
 8319SOL    HW225857   3.446   0.485   5.310
 8320SOL     OW25858   4.283   4.751   1.228
 8320SOL    HW125859   4.285   4.655   1.256
 8320SOL    HW225860   4.193   4.789   1.246
 8321SOL     OW25861   6.904   1.144   0.993
 8321SOL    HW125862   6.921   1.151   1.091
 8321SOL    HW225863   6.976   1.090   0.950
 8322SOL     OW25864   5.720   6.855   6.784
 8322SOL    HW125865   5.790   6.927   6.781
 8322SOL    HW225866   5.646   6.884   6.845
 8323SOL     OW25867   1.553   0.842   1.650
 8323SOL    HW125868   1.577   0.914   1.715
 8323SOL    HW225869   1.524   0.760   1.699
 8324SOL     OW25870   6.675   1.287   2.729
 8324SOL    HW125871   6.657   1.377   2.689
 8324SOL    HW225872   6.588   1.245   2.756
 8325SOL     OW25873   3.673   4.146   4.549
 8325SOL    HW125874   3.705   4.149   4.644
 8325SOL    HW225875   3.584   4.191   4.542
 8326SOL     OW25876   4.098   2.461   6.432
 8326SOL    HW125877   4.130   2.370   6.409
 8326SOL    HW225878   4.163   2.529   6.396
 8327SOL     OW25879   5.401   2.288   6.381
 8327SOL    HW125880   5.360   2.201   6.409
 8327SOL    HW225881   5.365   2.315   6.292
 8328SOL     OW25882   2.179   2.833   4.139
 8328SOL    HW125883   2.268   2.838   4.094
 8328SOL    HW225884   2.134   2.748   4.113
 8329SOL     OW25885   0.776   2.171   4.603
 8329SOL    HW125886   0.728   2.228   4.537
 8329SOL    HW225887   0.713   2.146   4.677
 8330SOL     OW25888   2.367   6.911   0.929
 8330SOL    HW125889   2.300   6.934   0.999
 8330SOL    HW225890   2.425   6.990   0.910
 8331SOL     OW25891   2.916   6.789   1.066
 8331SOL    HW125892   2.889   6.758   0.975
 8331SOL    HW225893   3.014   6.773   1.079
 8332SOL     OW25894   4.970   6.029   3.601
 8332SOL    HW125895   5.052   6.065   3.558
 8332SOL    HW225896   4.954   5.935   3.569
 8333SOL     OW25897   1.513   5.006   5.667
 8333SOL    HW125898   1.455   4.928   5.689
 8333SOL    HW225899   1.461   5.091   5.677
 8334SOL     OW25900   6.413   6.966   4.200
 8334SOL    HW125901   6.415   0.024   4.272
 8334SOL    HW225902   6.478   6.990   4.128
 8335SOL     OW25903   6.374   6.058   5.683
 8335SOL    HW125904   6.286   6.077   5.639
 8335SOL    HW225905   6.362   6.061   5.782
 8336SOL     OW25906   0.912   1.796   2.938
 8336SOL    HW125907   0.821   1.784   2.976
 8336SOL    HW225908   0.963   1.710   2.944
 8337SOL     OW25909   0.331   6.094   2.009
 8337SOL    HW125910   0.406   6.159   2.024
 8337SOL    HW225911   0.252   6.142   1.971
 8338SOL     OW25912   1.840   4.523   0.947
 8338SOL    HW125913   1.863   4.600   0.887
 8338SOL    HW225914   1.923   4.494   0.995
 8339SOL     OW25915   5.679   0.705   3.192
 8339SOL    HW125916   5.672   0.739   3.286
 8339SOL    HW225917   5.607   0.747   3.137
 8340SOL     OW25918   4.732   3.689   1.521
 8340SOL    HW125919   4.694   3.731   1.603
 8340SOL    HW225920   4.816   3.640   1.544
 8341SOL     OW25921   2.527   0.111   0.910
 8341SOL    HW125922   2.507   0.204   0.882
 8341SOL    HW225923   2.625   0.103   0.931
 8342SOL     OW25924   5.115   6.954   1.157
 8342SOL    HW125925   5.047   0.009   1.124
 8342SOL    HW225926   5.134   6.887   1.086
 8343SOL     OW25927   0.727   4.939   5.847
 8343SOL    HW125928   0.682   5.002   5.911
 8343SOL    HW225929   0.801   4.986   5.800
 8344SOL     OW25930   3.853   0.210   5.165
 8344SOL    HW125931   3.895   0.125   5.134
 8344SOL    HW225932   3.875   0.225   5.262
 8345SOL     OW25933   6.169   1.213   3.171
 8345SOL    HW125934   6.147   1.240   3.264
 8345SOL    HW225935   6.237   1.275   3.133
 8346SOL     OW25936   3.292   5.458   1.694
 8346SOL    HW125937   3.381   5.432   1.732
 8346SOL    HW225938   3.291   5.556   1.675
 8347SOL     OW25939   3.357   5.181   4.045
 8347SOL    HW125940   3.400   5.220   4.127
 8347SOL    HW225941   3.266   5.146   4.068
 8348SOL     OW25942   1.802   0.756   0.521
 8348SOL    HW125943   1.875   0.810   0.563
 8348SOL    HW225944   1.776   0.682   0.583
 8349SOL     OW25945   6.259   5.524   1.567
 8349SOL    HW125946   6.219   5.432   1.567
 8349SOL    HW225947   6.353   5.520   1.535
 8350SOL     OW25948   6.769   0.307   4.844
 8350SOL    HW125949   6.861   0.307   4.805
 8350SOL    HW225950   6.733   0.400   4.841
 8351SOL     OW25951   2.834   6.292   1.910
 8351SOL    HW125952   2.796   6.312   1.820
 8351SOL    HW225953   2.922   6.339   1.921
 8352SOL     OW25954   6.453   6.102   2.032
 8352SOL    HW125955   6.535   6.048   2.010
 8352SOL    HW225956   6.416   6.142   1.948
 8353SOL     OW25957   1.175   3.419   2.146
 8353SOL    HW125958   1.165   3.500   2.088
 8353SOL    HW225959   1.197   3.447   2.239
 8354SOL     OW25960   2.719   0.414   0.436
 8354SOL    HW125961   2.666   0.354   0.496
 8354SOL    HW225962   2.726   0.372   0.345
 8355SOL     OW25963   3.312   1.027   0.694
 8355SOL    HW125964   3.272   1.099   0.637
 8355SOL    HW225965   3.238   0.974   0.736
 8356SOL     OW25966   2.722   5.380   0.707
 8356SOL    HW125967   2.752   5.429   0.788
 8356SOL    HW225968   2.771   5.413   0.627
 8357SOL     OW25969   4.587   6.399   3.449
 8357SOL    HW125970   4.636   6.469   3.501
 8357SOL    HW225971   4.638   6.313   3.453
 8358SOL     OW25972   2.890   2.328   5.201
 8358SOL    HW125973   2.856   2.308   5.109
 8358SOL    HW225974   2.990   2.339   5.197
 8359SOL     OW25975   4.262   4.675   3.761
 8359SOL    HW125976   4.307   4.719   3.683
 8359SOL    HW225977   4.165   4.698   3.760
 8360SOL     OW25978   4.244   0.471   2.685
 8360SOL    HW125979   4.285   0.428   2.765
 8360SOL    HW225980   4.297   0.448   2.604
 8361SOL     OW25981   1.521   0.329   2.768
 8361SOL    HW125982   1.537   0.345   2.866
 8361SOL    HW225983   1.462   0.250   2.756
 8362SOL     OW25984   2.092   3.165   0.230
 8362SOL    HW125985   2.087   3.075   0.274
 8362SOL    HW225986   2.153   3.224   0.283
 8363SOL     OW25987   0.440   3.593   1.261
 8363SOL    HW125988   0.506   3.574   1.188
 8363SOL    HW225989   0.369   3.522   1.261
 8364SOL     OW25990   6.815   4.533   5.017
 8364SOL    HW125991   6.859   4.563   4.932
 8364SOL    HW225992   6.778   4.613   5.065
 8365SOL     OW25993   0.921   3.674   6.263
 8365SOL    HW125994   0.957   3.754   6.311
 8365SOL    HW225995   0.934   3.592   6.319
 8366SOL     OW25996   2.415   0.015   2.971
 8366SOL    HW125997   2.395   0.093   2.911
 8366SOL    HW225998   2.506   6.990   2.949
 8367SOL     OW25999   4.783   5.533   3.746
 8367SOL    HW126000   4.873   5.522   3.704
 8367SOL    HW226001   4.794   5.542   3.845
 8368SOL     OW26002   3.392   5.878   6.097
 8368SOL    HW126003   3.449   5.893   6.016
 8368SOL    HW226004   3.422   5.938   6.171
 8369SOL     OW26005   2.554   1.160   1.548
 8369SOL    HW126006   2.461   1.138   1.521
 8369SOL    HW226007   2.568   1.259   1.546
 8370SOL     OW26008   1.715   1.573   0.405
 8370SOL    HW126009   1.788   1.525   0.356
 8370SOL    HW226010   1.673   1.641   0.344
 8371SOL     OW26011   1.931   2.516   6.980
 8371SOL    HW126012   2.001   2.585   7.000
 8371SOL    HW226013   1.962   2.458   6.904
 8372SOL     OW26014   6.642   0.510   1.172
 8372SOL    HW126015   6.581   0.482   1.247
 8372SOL    HW226016   6.587   0.549   1.098
 8373SOL     OW26017   1.520   6.456   4.466
 8373SOL    HW126018   1.570   6.396   4.404
 8373SOL    HW226019   1.447   6.404   4.511
 8374SOL     OW26020   6.608   0.389   5.764
 8374SOL    HW126021   6.705   0.379   5.743
 8374SOL    HW226022   6.553   0.366   5.683
 8375SOL     OW26023   4.157   0.586   6.234
 8375SOL    HW126024   4.184   0.627   6.147
 8375SOL    HW226025   4.238   0.579   6.294
 8376SOL     OW26026   4.645   0.384   4.409
 8376SOL    HW126027   4.703   0.310   4.375
 8376SOL    HW226028   4.699   0.445   4.467
 8377SOL     OW26029   5.702   4.892   1.045
 8377SOL    HW126030   5.795   4.912   1.074
 8377SOL    HW226031   5.704   4.839   0.960
 8378SOL     OW26032   5.027   3.072   3.866
 8378SOL    HW126033   4.971   3.093   3.786
 8378SOL    HW226034   5.080   2.989   3.847
 8379SOL     OW26035   5.120   2.705   2.247
 8379SOL    HW126036   5.100   2.799   2.275
 8379SOL    HW226037   5.172   2.705   2.162
 8380SOL     OW26038   5.548   1.729   3.595
 8380SOL    HW126039   5.467   1.684   3.557
 8380SOL    HW226040   5.591   1.784   3.524
 8381SOL     OW26041   1.838   5.416   4.082
 8381SOL    HW126042   1.920   5.419   4.024
 8381SOL    HW226043   1.781   5.338   4.056
 8382SOL     OW26044   0.813   4.656   2.481
 8382SOL    HW126045   0.826   4.565   2.441
 8382SOL    HW226046   0.736   4.701   2.437
 8383SOL     OW26047   3.224   1.172   5.154
 8383SOL    HW126048   3.242   1.174   5.055
 8383SOL    HW226049   3.126   1.182   5.170
 8384SOL     OW26050   0.859   6.574   1.587
 8384SOL    HW126051   0.956   6.559   1.605
 8384SOL    HW226052   0.826   6.504   1.524
 8385SOL     OW26053   4.542   2.133   0.896
 8385SOL    HW126054   4.455   2.089   0.917
 8385SOL    HW226055   4.538   2.230   0.922
 8386SOL     OW26056   0.780   3.923   2.608
 8386SOL    HW126057   0.746   3.845   2.659
 8386SOL    HW226058   0.797   3.896   2.513
 8387SOL     OW26059   1.048   2.049   1.410
 8387SOL    HW126060   1.073   2.122   1.473
 8387SOL    HW226061   0.982   1.988   1.453
 8388SOL     OW26062   0.899   0.041   2.955
 8388SOL    HW126063   0.807   0.065   2.924
 8388SOL    HW226064   0.900   6.958   2.988
 8389SOL     OW26065   6.232   2.848   3.437
 8389SOL    HW126066   6.320   2.802   3.448
 8389SOL    HW226067   6.158   2.784   3.456
 8390SOL     OW26068   5.990   1.603   6.546
 8390SOL    HW126069   6.018   1.579   6.639
 8390SOL    HW226070   6.034   1.541   6.481
 8391SOL     OW26071   6.835   6.966   1.200
 8391SOL    HW126072   6.779   0.020   1.252
 8391SOL    HW226073   6.783   6.883   1.183
 8392SOL     OW26074   3.469   3.064   5.331
 8392SOL    HW126075   3.453   3.082   5.234
 8392SOL    HW226076   3.388   3.022   5.371
 8393SOL     OW26077   5.345   6.957   1.306
 8393SOL    HW126078   5.408   6.970   1.230
 8393SOL    HW226079   5.251   6.952   1.271
 8394SOL     OW26080   5.731   2.642   2.231
 8394SOL    HW126081   5.634   2.638   2.252
 8394SOL    HW226082   5.784   2.611   2.309
 8395SOL     OW26083   2.359   1.185   5.169
 8395SOL    HW126084   2.266   1.204   5.201
 8395SOL    HW226085   2.386   1.255   5.102
 8396SOL     OW26086   5.235   5.499   4.614
 8396SOL    HW126087   5.136   5.495   4.598
 8396SOL    HW226088   5.273   5.407   4.611
 8397SOL     OW26089   6.900   0.180   2.808
 8397SOL    HW126090   6.869   0.092   2.842
 8397SOL    HW226091   6.822   0.236   2.781
 8398SOL     OW26092   5.819   1.963   6.373
 8398SOL    HW126093   5.770   2.003   6.296
 8398SOL    HW226094   5.890   2.026   6.405
 8399SOL     OW26095   0.076   4.505   1.915
 8399SOL    HW126096   0.105   4.468   2.003
 8399SOL    HW226097   0.095   4.438   1.842
 8400SOL     OW26098   1.252   1.357   4.923
 8400SOL    HW126099   1.248   1.264   4.886
 8400SOL    HW226100   1.162   1.400   4.915
 8401SOL     OW26101   1.830   0.277   5.577
 8401SOL    HW126102   1.752   0.227   5.615
 8401SOL    HW226103   1.909   0.217   5.571
 8402SOL     OW26104   3.303   0.767   6.885
 8402SOL    HW126105   3.241   0.725   6.820
 8402SOL    HW226106   3.371   0.700   6.915
 8403SOL     OW26107   5.372   4.803   5.027
 8403SOL    HW126108   5.364   4.886   5.082
 8403SOL    HW226109   5.460   4.760   5.044
 8404SOL     OW26110   1.036   1.526   6.913
 8404SOL    HW126111   0.957   1.578   6.879
 8404SOL    HW226112   1.049   1.444   6.857
 8405SOL     OW26113   3.775   6.913   5.399
 8405SOL    HW126114   3.719   6.959   5.329
 8405SOL    HW226115   3.817   6.982   5.458
 8406SOL     OW26116   5.646   0.108   6.097
 8406SOL    HW126117   5.549   0.086   6.108
 8406SOL    HW226118   5.660   0.207   6.104
 8407SOL     OW26119   4.215   0.474   4.273
 8407SOL    HW126120   4.181   0.534   4.201
 8407SOL    HW226121   4.208   0.521   4.362
 8408SOL     OW26122   3.928   1.775   1.300
 8408SOL    HW126123   3.876   1.754   1.383
 8408SOL    HW226124   4.009   1.717   1.296
 8409SOL     OW26125   4.142   2.234   2.063
 8409SOL    HW126126   4.176   2.216   2.155
 8409SOL    HW226127   4.058   2.182   2.048
 8410SOL     OW26128   7.007   1.783   1.879
 8410SOL    HW126129   0.082   1.798   1.929
 8410SOL    HW226130   6.930   1.786   1.944
 8411SOL     OW26131   1.066   6.430   1.155
 8411SOL    HW126132   1.110   6.391   1.075
 8411SOL    HW226133   1.110   6.394   1.238
 8412SOL     OW26134   2.623   2.673   6.818
 8412SOL    HW126135   2.530   2.666   6.784
 8412SOL    HW226136   2.623   2.660   6.918
 8413SOL     OW26137   3.782   5.539   4.563
 8413SOL    HW126138   3.706   5.497   4.612
 8413SOL    HW226139   3.816   5.618   4.615
 8414SOL     OW26140   1.707   0.019   0.620
 8414SOL    HW126141   1.744   0.093   0.564
 8414SOL    HW226142   1.683   0.054   0.710
 8415SOL     OW26143   3.226   1.771   6.353
 8415SOL    HW126144   3.197   1.734   6.265
 8415SOL    HW226145   3.324   1.754   6.366
 8416SOL     OW26146   0.381   2.255   4.978
 8416SOL    HW126147   0.418   2.327   5.037
 8416SOL    HW226148   0.341   2.183   5.036
 8417SOL     OW26149   1.526   3.369   6.155
 8417SOL    HW126150   1.595   3.311   6.197
 8417SOL    HW226151   1.525   3.353   6.056
 8418SOL     OW26152   0.497   5.905   2.130
 8418SOL    HW126153   0.518   5.940   2.222
 8418SOL    HW226154   0.423   5.960   2.090
 8419SOL     OW26155   3.643   1.864   4.490
 8419SOL    HW126156   3.582   1.828   4.420
 8419SOL    HW226157   3.709   1.794   4.516
 8420SOL     OW26158   3.598   0.901   2.180
 8420SOL    HW126159   3.684   0.853   2.159
 8420SOL    HW226160   3.619   0.991   2.219
 8421SOL     OW26161   4.728   6.798   6.725
 8421SOL    HW126162   4.662   6.845   6.667
 8421SOL    HW226163   4.791   6.745   6.668
 8422SOL     OW26164   5.329   2.387   4.021
 8422SOL    HW126165   5.329   2.426   3.929
 8422SOL    HW226166   5.241   2.342   4.038
 8423SOL     OW26167   6.640   5.708   0.238
 8423SOL    HW126168   6.545   5.681   0.247
 8423SOL    HW226169   6.692   5.636   0.192
 8424SOL     OW26170   3.507   0.600   4.949
 8424SOL    HW126171   3.467   0.608   5.040
 8424SOL    HW226172   3.532   0.505   4.931
 8425SOL     OW26173   4.004   3.499   2.241
 8425SOL    HW126174   4.035   3.592   2.223
 8425SOL    HW226175   3.906   3.499   2.259
 8426SOL     OW26176   3.456   3.192   1.825
 8426SOL    HW126177   3.363   3.183   1.788
 8426SOL    HW226178   3.516   3.229   1.754
 8427SOL     OW26179   4.082   3.423   3.178
 8427SOL    HW126180   4.120   3.400   3.268
 8427SOL    HW226181   4.107   3.352   3.113
 8428SOL     OW26182   5.881   0.325   2.329
 8428SOL    HW126183   5.952   0.392   2.351
 8428SOL    HW226184   5.818   0.363   2.262
 8429SOL     OW26185   2.930   5.912   5.544
 8429SOL    HW126186   2.998   5.876   5.479
 8429SOL    HW226187   2.857   5.846   5.556
 8430SOL     OW26188   4.892   6.871   5.190
 8430SOL    HW126189   4.845   6.784   5.177
 8430SOL    HW226190   4.988   6.862   5.163
 8431SOL     OW26191   1.853   3.262   5.565
 8431SOL    HW126192   1.891   3.253   5.473
 8431SOL    HW226193   1.924   3.294   5.628
 8432SOL     OW26194   6.652   5.047   6.120
 8432SOL    HW126195   6.668   4.974   6.053
 8432SOL    HW226196   6.689   5.133   6.084
 8433SOL     OW26197   5.204   2.484   1.246
 8433SOL    HW126198   5.200   2.441   1.155
 8433SOL    HW226199   5.289   2.536   1.254
 8434SOL     OW26200   2.576   6.045   5.035
 8434SOL    HW126201   2.515   6.061   4.958
 8434SOL    HW226202   2.526   6.000   5.109
 8435SOL     OW26203   6.020   1.497   3.324
 8435SOL    HW126204   5.970   1.439   3.259
 8435SOL    HW226205   6.036   1.446   3.409
 8436SOL     OW26206   1.960   5.699   2.335
 8436SOL    HW126207   1.927   5.605   2.329
 8436SOL    HW226208   2.036   5.712   2.271
 8437SOL     OW26209   0.967   6.002   0.900
 8437SOL    HW126210   0.919   6.087   0.876
 8437SOL    HW226211   1.051   6.024   0.950
 8438SOL     OW26212   1.244   4.241   2.193
 8438SOL    HW126213   1.188   4.322   2.212
 8438SOL    HW226214   1.218   4.203   2.104
 8439SOL     OW26215   6.331   4.422   2.748
 8439SOL    HW126216   6.305   4.336   2.706
 8439SOL    HW226217   6.310   4.498   2.686
 8440SOL     OW26218   1.812   1.988   2.542
 8440SOL    HW126219   1.891   1.932   2.567
 8440SOL    HW226220   1.841   2.084   2.535
 8441SOL     OW26221   6.806   2.288   6.061
 8441SOL    HW126222   6.715   2.306   6.099
 8441SOL    HW226223   6.835   2.365   6.005
 8442SOL     OW26224   3.889   2.193   6.917
 8442SOL    HW126225   3.845   2.203   7.007
 8442SOL    HW226226   3.855   2.264   6.856
 8443SOL     OW26227   1.958   4.332   2.827
 8443SOL    HW126228   2.038   4.276   2.807
 8443SOL    HW226229   1.882   4.274   2.857
 8444SOL     OW26230   5.556   5.471   4.876
 8444SOL    HW126231   5.598   5.444   4.963
 8444SOL    HW226232   5.463   5.504   4.894
 8445SOL     OW26233   4.681   6.725   7.002
 8445SOL    HW126234   4.610   6.794   0.005
 8445SOL    HW226235   4.724   6.740   6.913
 8446SOL     OW26236   0.063   5.771   4.892
 8446SOL    HW126237   6.996   5.821   4.854
 8446SOL    HW226238   0.035   5.677   4.913
 8447SOL     OW26239   3.781   1.262   3.983
 8447SOL    HW126240   3.696   1.240   4.030
 8447SOL    HW226241   3.858   1.245   4.045
 8448SOL     OW26242   3.493   5.745   2.792
 8448SOL    HW126243   3.445   5.823   2.834
 8448SOL    HW226244   3.566   5.779   2.734
 8449SOL     OW26245   1.487   2.258   4.016
 8449SOL    HW126246   1.414   2.204   4.057
 8449SOL    HW226247   1.451   2.311   3.939
 8450SOL     OW26248   6.675   1.052   0.480
 8450SOL    HW126249   6.693   1.143   0.516
 8450SOL    HW226250   6.676   1.054   0.380
 8451SOL     OW26251   3.999   2.698   1.296
 8451SOL    HW126252   4.005   2.793   1.327
 8451SOL    HW226253   3.903   2.673   1.286
 8452SOL     OW26254   5.211   1.676   5.957
 8452SOL    HW126255   5.308   1.654   5.970
 8452SOL    HW226256   5.191   1.679   5.860
 8453SOL     OW26257   6.615   0.575   6.832
 8453SOL    HW126258   6.654   0.569   6.923
 8453SOL    HW226259   6.627   0.487   6.785
 8454SOL     OW26260   6.198   5.304   6.645
 8454SOL    HW126261   6.215   5.278   6.550
 8454SOL    HW226262   6.237   5.234   6.706
 8455SOL     OW26263   6.426   0.939   2.641
 8455SOL    HW126264   6.467   0.854   2.675
 8455SOL    HW226265   6.335   0.920   2.604
 8456SOL     OW26266   6.933   0.728   2.034
 8456SOL    HW126267   6.911   0.637   2.069
 8456SOL    HW226268   0.022   0.741   2.036
 8457SOL     OW26269   0.023   0.253   5.043
 8457SOL    HW126270   0.083   0.186   5.087
 8457SOL    HW226271   0.027   0.240   4.943
 8458SOL     OW26272   1.100   6.796   7.008
 8458SOL    HW126273   1.046   6.722   6.967
 8458SOL    HW226274   1.061   6.884   6.980
 8459SOL     OW26275   1.136   5.986   2.960
 8459SOL    HW126276   1.142   5.942   3.049
 8459SOL    HW226277   1.163   5.921   2.889
 8460SOL     OW26278   4.111   3.557   2.750
 8460SOL    HW126279   4.114   3.523   2.656
 8460SOL    HW226280   4.095   3.481   2.813
 8461SOL     OW26281   6.223   3.421   3.623
 8461SOL    HW126282   6.127   3.433   3.599
 8461SOL    HW226283   6.232   3.348   3.690
 8462SOL     OW26284   2.633   2.495   1.875
 8462SOL    HW126285   2.728   2.470   1.889
 8462SOL    HW226286   2.587   2.423   1.823
 8463SOL     OW26287   5.831   0.535   1.936
 8463SOL    HW126288   5.738   0.522   1.904
 8463SOL    HW226289   5.871   0.614   1.890
 8464SOL     OW26290   6.735   1.330   4.519
 8464SOL    HW126291   6.790   1.265   4.466
 8464SOL    HW226292   6.726   1.298   4.613
 8465SOL     OW26293   1.432   2.013   0.498
 8465SOL    HW126294   1.360   2.082   0.484
 8465SOL    HW226295   1.392   1.922   0.494
 8466SOL     OW26296   0.614   0.085   4.179
 8466SOL    HW126297   0.606   7.010   4.230
 8466SOL    HW226298   0.616   0.162   4.243
 8467SOL     OW26299   4.205   5.390   0.738
 8467SOL    HW126300   4.189   5.294   0.764
 8467SOL    HW226301   4.146   5.414   0.661
 8468SOL     OW26302   3.508   2.476   0.024
 8468SOL    HW126303   3.469   2.555   6.987
 8468SOL    HW226304   3.606   2.490   0.037
 8469SOL     OW26305   4.237   2.206   5.676
 8469SOL    HW126306   4.147   2.166   5.660
 8469SOL    HW226307   4.263   2.191   5.772
 8470SOL     OW26308   1.774   2.958   6.777
 8470SOL    HW126309   1.704   3.007   6.830
 8470SOL    HW226310   1.838   2.915   6.840
 8471SOL     OW26311   4.244   1.749   4.232
 8471SOL    HW126312   4.332   1.705   4.214
 8471SOL    HW226313   4.214   1.727   4.325
 8472SOL     OW26314   1.123   6.687   2.806
 8472SOL    HW126315   1.167   6.673   2.717
 8472SOL    HW226316   1.164   6.625   2.873
 8473SOL     OW26317   6.443   5.678   6.358
 8473SOL    HW126318   6.513   5.745   6.331
 8473SOL    HW226319   6.448   5.598   6.298
 8474SOL     OW26320   4.054   5.391   0.472
 8474SOL    HW126321   3.972   5.379   0.528
 8474SOL    HW226322   4.058   5.484   0.437
 8475SOL     OW26323   4.490   2.208   3.095
 8475SOL    HW126324   4.566   2.207   3.160
 8475SOL    HW226325   4.504   2.282   3.029
 8476SOL     OW26326   4.558   0.476   2.520
 8476SOL    HW126327   4.632   0.438   2.576
 8476SOL    HW226328   4.555   0.575   2.533
 8477SOL     OW26329   3.070   0.226   3.137
 8477SOL    HW126330   3.050   0.156   3.069
 8477SOL    HW226331   3.112   0.305   3.092
 8478SOL     OW26332   1.543   0.610   6.022
 8478SOL    HW126333   1.455   0.649   6.048
 8478SOL    HW226334   1.615   0.678   6.035
 8479SOL     OW26335   5.140   0.737   2.562
 8479SOL    HW126336   5.176   0.748   2.470
 8479SOL    HW226337   5.094   0.821   2.591
 8480SOL     OW26338   2.014   1.382   1.288
 8480SOL    HW126339   1.917   1.368   1.267
 8480SOL    HW226340   2.051   1.299   1.330
 8481SOL     OW26341   4.277   0.260   5.858
 8481SOL    HW126342   4.280   0.191   5.786
 8481SOL    HW226343   4.367   0.303   5.867
 8482SOL     OW26344   0.007   0.387   1.678
 8482SOL    HW126345   0.032   0.469   1.730
 8482SOL    HW226346   0.081   0.320   1.683
 8483SOL     OW26347   5.442   6.444   1.837
 8483SOL    HW126348   5.344   6.463   1.848
 8483SOL    HW226349   5.482   6.421   1.926
 8484SOL     OW26350   6.843   4.504   5.436
 8484SOL    HW126351   6.926   4.474   5.484
 8484SOL    HW226352   6.811   4.430   5.377
 8485SOL     OW26353   2.060   3.568   6.159
 8485SOL    HW126354   2.015   3.550   6.247
 8485SOL    HW226355   2.159   3.559   6.169
 8486SOL     OW26356   4.034   0.627   2.649
 8486SOL    HW126357   4.035   0.683   2.566
 8486SOL    HW226358   4.113   0.566   2.650
 8487SOL     OW26359   4.553   0.877   0.914
 8487SOL    HW126360   4.606   0.835   0.839
 8487SOL    HW226361   4.456   0.874   0.891
 8488SOL     OW26362   5.961   3.691   4.886
 8488SOL    HW126363   5.929   3.771   4.835
 8488SOL    HW226364   5.900   3.675   4.964
 8489SOL     OW26365   3.273   6.402   2.691
 8489SOL    HW126366   3.223   6.378   2.774
 8489SOL    HW226367   3.255   6.498   2.669
 8490SOL     OW26368   3.922   5.319   2.553
 8490SOL    HW126369   3.883   5.302   2.643
 8490SOL    HW226370   4.019   5.293   2.553
 8491SOL     OW26371   1.157   1.144   1.617
 8491SOL    HW126372   1.117   1.140   1.525
 8491SOL    HW226373   1.199   1.056   1.638
 8492SOL     OW26374   5.579   4.192   4.473
 8492SOL    HW126375   5.509   4.168   4.406
 8492SOL    HW226376   5.662   4.220   4.426
 8493SOL     OW26377   3.751   2.627   1.334
 8493SOL    HW126378   3.722   2.711   1.288
 8493SOL    HW226379   3.670   2.572   1.357
 8494SOL     OW26380   3.565   5.866   6.854
 8494SOL    HW126381   3.656   5.845   6.889
 8494SOL    HW226382   3.535   5.955   6.890
 8495SOL     OW26383   0.495   2.561   0.000
 8495SOL    HW126384   0.500   2.642   6.953
 8495SOL    HW226385   0.468   2.482   6.956
 8496SOL     OW26386   0.707   1.915   3.424
 8496SOL    HW126387   0.644   1.934   3.499
 8496SOL    HW226388   0.672   1.956   3.340
 8497SOL     OW26389   5.525   4.424   3.152
 8497SOL    HW126390   5.618   4.416   3.187
 8497SOL    HW226391   5.494   4.335   3.119
 8498SOL     OW26392   6.269   0.954   1.696
 8498SOL    HW126393   6.321   0.881   1.651
 8498SOL    HW226394   6.285   1.040   1.648
 8499SOL     OW26395   0.482   3.928   6.717
 8499SOL    HW126396   0.460   3.890   6.627
 8499SOL    HW226397   0.498   3.853   6.782
 8500SOL     OW26398   2.863   0.529   5.531
 8500SOL    HW126399   2.880   0.592   5.607
 8500SOL    HW226400   2.766   0.533   5.506
 8501SOL     OW26401   2.730   4.155   5.666
 8501SOL    HW126402   2.649   4.119   5.713
 8501SOL    HW226403   2.705   4.180   5.573
 8502SOL     OW26404   0.742   6.841   1.498
 8502SOL    HW126405   0.772   6.853   1.403
 8502SOL    HW226406   0.800   6.772   1.542
 8503SOL     OW26407   3.579   5.849   3.703
 8503SOL    HW126408   3.491   5.896   3.693
 8503SOL    HW226409   3.566   5.751   3.688
 8504SOL     OW26410   1.612   5.329   3.142
 8504SOL    HW126411   1.627   5.231   3.127
 8504SOL    HW226412   1.687   5.381   3.101
 8505SOL     OW26413   4.360   2.230   3.653
 8505SOL    HW126414   4.381   2.143   3.697
 8505SOL    HW226415   4.418   2.302   3.692
 8506SOL     OW26416   0.978   6.207   6.599
 8506SOL    HW126417   0.907   6.208   6.529
 8506SOL    HW226418   1.037   6.288   6.588
 8507SOL     OW26419   1.701   0.315   4.949
 8507SOL    HW126420   1.762   0.246   4.910
 8507SOL    HW226421   1.618   0.322   4.894
 8508SOL     OW26422   0.486   2.796   5.376
 8508SOL    HW126423   0.428   2.866   5.418
 8508SOL    HW226424   0.431   2.738   5.316
 8509SOL     OW26425   6.090   1.913   4.848
 8509SOL    HW126426   6.091   1.976   4.926
 8509SOL    HW226427   6.178   1.866   4.841
 8510SOL     OW26428   5.295   0.090   2.074
 8510SOL    HW126429   5.312   0.057   1.981
 8510SOL    HW226430   5.352   0.171   2.091
 8511SOL     OW26431   6.603   5.454   1.903
 8511SOL    HW126432   6.596   5.523   1.976
 8511SOL    HW226433   6.516   5.448   1.854
 8512SOL     OW26434   3.513   2.945   0.673
 8512SOL    HW126435   3.449   2.947   0.596
 8512SOL    HW226436   3.516   2.853   0.711
 8513SOL     OW26437   0.974   3.457   0.567
 8513SOL    HW126438   0.892   3.507   0.539
 8513SOL    HW226439   1.017   3.503   0.645
 8514SOL     OW26440   2.433   2.659   5.114
 8514SOL    HW126441   2.384   2.660   5.201
 8514SOL    HW226442   2.452   2.753   5.086
 8515SOL     OW26443   2.978   0.466   0.503
 8515SOL    HW126444   3.033   0.386   0.480
 8515SOL    HW226445   2.882   0.448   0.482
 8516SOL     OW26446   6.036   3.372   4.510
 8516SOL    HW126447   6.026   3.325   4.422
 8516SOL    HW226448   5.949   3.415   4.535
 8517SOL     OW26449   1.791   1.954   6.021
 8517SOL    HW126450   1.780   1.857   6.042
 8517SOL    HW226451   1.749   2.009   6.093
 8518SOL     OW26452   5.350   4.989   6.737
 8518SOL    HW126453   5.271   4.932   6.760
 8518SOL    HW226454   5.432   4.931   6.733
 8519SOL     OW26455   0.418   3.928   0.412
 8519SOL    HW126456   0.421   3.972   0.501
 8519SOL    HW226457   0.329   3.947   0.369
 8520SOL     OW26458   3.375   4.035   5.661
 8520SOL    HW126459   3.301   4.103   5.667
 8520SOL    HW226460   3.411   4.017   5.753
 8521SOL     OW26461   1.828   6.475   4.745
 8521SOL    HW126462   1.765   6.477   4.823
 8521SOL    HW226463   1.795   6.538   4.674
 8522SOL     OW26464   0.927   6.982   6.931
 8522SOL    HW126465   0.853   6.925   6.965
 8522SOL    HW226466   0.969   0.022   7.007
 8523SOL     OW26467   4.006   1.557   0.970
 8523SOL    HW126468   4.031   1.570   1.066
 8523SOL    HW226469   4.055   1.623   0.914
 8524SOL     OW26470   2.603   5.955   5.468
 8524SOL    HW126471   2.599   5.926   5.564
 8524SOL    HW226472   2.698   5.969   5.442
 8525SOL     OW26473   6.533   2.965   2.286
 8525SOL    HW126474   6.449   2.960   2.232
 8525SOL    HW226475   6.531   3.047   2.344
 8526SOL     OW26476   0.002   4.475   6.768
 8526SOL    HW126477   0.054   4.397   6.801
 8526SOL    HW226478   6.937   4.494   6.831
 8527SOL     OW26479   2.999   0.854   5.910
 8527SOL    HW126480   3.098   0.845   5.926
 8527SOL    HW226481   2.956   0.888   5.993
 8528SOL     OW26482   5.667   1.025   0.952
 8528SOL    HW126483   5.649   1.004   0.856
 8528SOL    HW226484   5.719   0.950   0.994
 8529SOL     OW26485   0.996   6.240   6.069
 8529SOL    HW126486   0.993   6.321   6.011
 8529SOL    HW226487   0.984   6.158   6.012
 8530SOL     OW26488   3.683   3.777   2.362
 8530SOL    HW126489   3.738   3.705   2.403
 8530SOL    HW226490   3.602   3.794   2.418
 8531SOL     OW26491   6.739   5.502   3.124
 8531SOL    HW126492   6.761   5.568   3.196
 8531SOL    HW226493   6.654   5.529   3.080
 8532SOL     OW26494   3.329   5.131   0.055
 8532SOL    HW126495   3.407   5.157   7.009
 8532SOL    HW226496   3.285   5.050   0.016
 8533SOL     OW26497   2.124   6.185   4.970
 8533SOL    HW126498   2.120   6.088   4.945
 8533SOL    HW226499   2.198   6.200   5.036
 8534SOL     OW26500   2.059   2.529   2.507
 8534SOL    HW126501   2.053   2.552   2.604
 8534SOL    HW226502   2.121   2.593   2.461
 8535SOL     OW26503   5.778   0.721   2.394
 8535SOL    HW126504   5.757   0.642   2.337
 8535SOL    HW226505   5.765   0.696   2.490
 8536SOL     OW26506   1.638   0.924   3.743
 8536SOL    HW126507   1.635   0.916   3.843
 8536SOL    HW226508   1.612   1.017   3.717
 8537SOL     OW26509   6.097   0.983   3.470
 8537SOL    HW126510   6.015   1.025   3.510
 8537SOL    HW226511   6.074   0.893   3.433
 8538SOL     OW26512   0.733   2.458   0.118
 8538SOL    HW126513   0.655   2.492   0.064
 8538SOL    HW226514   0.701   2.388   0.182
 8539SOL     OW26515   5.132   3.242   1.863
 8539SOL    HW126516   5.183   3.169   1.908
 8539SOL    HW226517   5.056   3.203   1.811
 8540SOL     OW26518   4.424   0.502   1.641
 8540SOL    HW126519   4.502   0.523   1.700
 8540SOL    HW226520   4.448   0.428   1.578
 8541SOL     OW26521   2.148   3.122   3.569
 8541SOL    HW126522   2.219   3.059   3.538
 8541SOL    HW226523   2.146   3.124   3.669
 8542SOL     OW26524   3.239   4.838   6.633
 8542SOL    HW126525   3.275   4.932   6.641
 8542SOL    HW226526   3.140   4.840   6.645
 8543SOL     OW26527   3.621   1.782   6.968
 8543SOL    HW126528   3.533   1.734   6.969
 8543SOL    HW226529   3.608   1.873   6.929
 8544SOL     OW26530   6.341   1.840   4.849
 8544SOL    HW126531   6.424   1.788   4.869
 8544SOL    HW226532   6.324   1.840   4.751
 8545SOL     OW26533   4.112   6.769   5.515
 8545SOL    HW126534   4.185   6.779   5.583
 8545SOL    HW226535   4.142   6.808   5.428
 8546SOL     OW26536   4.034   2.018   6.716
 8546SOL    HW126537   4.100   2.086   6.684
 8546SOL    HW226538   3.976   2.059   6.787
 8547SOL     OW26539   1.860   4.771   1.964
 8547SOL    HW126540   1.816   4.683   1.983
 8547SOL    HW226541   1.915   4.763   1.881
 8548SOL     OW26542   6.252   2.265   5.364
 8548SOL    HW126543   6.317   2.251   5.290
 8548SOL    HW226544   6.289   2.228   5.449
 8549SOL     OW26545   5.014   3.324   5.313
 8549SOL    HW126546   5.078   3.328   5.390
 8549SOL    HW226547   5.056   3.273   5.238
 8550SOL     OW26548   1.339   4.510   5.433
 8550SOL    HW126549   1.283   4.470   5.506
 8550SOL    HW226550   1.389   4.437   5.386
 8551SOL     OW26551   2.392   4.281   1.206
 8551SOL    HW126552   2.333   4.342   1.155
 8551SOL    HW226553   2.488   4.296   1.179
 8552SOL     OW26554   3.013   6.646   4.558
 8552SOL    HW126555   3.112   6.648   4.543
 8552SOL    HW226556   2.993   6.670   4.653
 8553SOL     OW26557   5.989   5.354   6.950
 8553SOL    HW126558   6.074   5.403   6.927
 8553SOL    HW226559   6.011   5.258   6.970
 8554SOL     OW26560   5.941   3.721   0.163
 8554SOL    HW126561   5.894   3.690   0.081
 8554SOL    HW226562   6.030   3.676   0.170
 8555SOL     OW26563   1.893   6.424   4.440
 8555SOL    HW126564   1.872   6.453   4.533
 8555SOL    HW226565   1.982   6.379   4.439
 8556SOL     OW26566   6.073   6.965   4.610
 8556SOL    HW126567   6.058   6.988   4.514
 8556SOL    HW226568   6.171   6.963   4.629
 8557SOL     OW26569   6.948   1.768   0.674
 8557SOL    HW126570   7.005   1.737   0.598
 8557SOL    HW226571   6.854   1.737   0.662
 8558SOL     OW26572   1.485   4.724   2.277
 8558SOL    HW126573   1.462   4.638   2.233
 8558SOL    HW226574   1.497   4.795   2.208
 8559SOL     OW26575   0.547   1.567   5.421
 8559SOL    HW126576   0.601   1.641   5.461
 8559SOL    HW226577   0.608   1.504   5.372
 8560SOL     OW26578   6.327   2.407   6.534
 8560SOL    HW126579   6.315   2.330   6.472
 8560SOL    HW226580   6.263   2.480   6.511
 8561SOL     OW26581   4.583   6.083   5.821
 8561SOL    HW126582   4.528   6.161   5.851
 8561SOL    HW226583   4.598   6.090   5.722
 8562SOL     OW26584   3.701   0.180   4.680
 8562SOL    HW126585   3.789   0.205   4.721
 8562SOL    HW226586   3.716   0.105   4.614
 8563SOL     OW26587   2.870   2.743   6.727
 8563SOL    HW126588   2.774   2.723   6.747
 8563SOL    HW226589   2.926   2.718   6.806
 8564SOL     OW26590   0.898   6.187   3.177
 8564SOL    HW126591   0.904   6.088   3.189
 8564SOL    HW226592   0.982   6.230   3.212
 8565SOL     OW26593   3.753   0.719   1.490
 8565SOL    HW126594   3.754   0.689   1.395
 8565SOL    HW226595   3.678   0.783   1.504
 8566SOL     OW26596   1.722   3.599   4.056
 8566SOL    HW126597   1.676   3.669   4.002
 8566SOL    HW226598   1.783   3.643   4.122
 8567SOL     OW26599   5.112   6.213   6.114
 8567SOL    HW126600   5.210   6.195   6.126
 8567SOL    HW226601   5.081   6.172   6.028
 8568SOL     OW26602   5.493   0.233   0.271
 8568SOL    HW126603   5.549   0.280   0.202
 8568SOL    HW226604   5.529   0.254   0.363
 8569SOL     OW26605   3.791   0.862   5.679
 8569SOL    HW126606   3.739   0.904   5.604
 8569SOL    HW226607   3.776   0.763   5.678
 8570SOL     OW26608   6.752   3.239   6.212
 8570SOL    HW126609   6.680   3.282   6.265
 8570SOL    HW226610   6.837   3.290   6.222
 8571SOL     OW26611   0.239   4.576   5.601
 8571SOL    HW126612   0.189   4.499   5.562
 8571SOL    HW226613   0.333   4.577   5.565
 8572SOL     OW26614   2.829   5.283   5.804
 8572SOL    HW126615   2.841   5.346   5.881
 8572SOL    HW226616   2.769   5.325   5.736
 8573SOL     OW26617   3.706   5.813   4.465
 8573SOL    HW126618   3.725   5.720   4.495
 8573SOL    HW226619   3.650   5.860   4.534
 8574SOL     OW26620   0.549   4.124   4.006
 8574SOL    HW126621   0.607   4.101   3.927
 8574SOL    HW226622   0.454   4.106   3.983
 8575SOL     OW26623   2.982   3.533   6.361
 8575SOL    HW126624   2.937   3.616   6.328
 8575SOL    HW226625   3.007   3.476   6.283
 8576SOL     OW26626   2.125   0.257   0.330
 8576SOL    HW126627   2.100   0.164   0.302
 8576SOL    HW226628   2.042   0.310   0.348
 8577SOL     OW26629   6.311   5.730   4.692
 8577SOL    HW126630   6.398   5.777   4.702
 8577SOL    HW226631   6.239   5.781   4.739
 8578SOL     OW26632   4.497   0.577   2.964
 8578SOL    HW126633   4.420   0.518   2.989
 8578SOL    HW226634   4.540   0.612   3.047
 8579SOL     OW26635   0.693   4.905   2.337
 8579SOL    HW126636   0.616   4.842   2.326
 8579SOL    HW226637   0.674   4.989   2.287
 8580SOL     OW26638   2.648   5.321   6.030
 8580SOL    HW126639   2.740   5.360   6.025
 8580SOL    HW226640   2.654   5.221   6.024
 8581SOL     OW26641   3.037   3.251   0.331
 8581SOL    HW126642   3.027   3.274   0.234
 8581SOL    HW226643   2.952   3.273   0.379
 8582SOL     OW26644   3.964   5.094   0.157
 8582SOL    HW126645   4.007   5.049   0.080
 8582SOL    HW226646   4.012   5.180   0.176
 8583SOL     OW26647   5.492   6.711   5.168
 8583SOL    HW126648   5.411   6.668   5.127
 8583SOL    HW226649   5.468   6.747   5.258
 8584SOL     OW26650   0.616   5.608   6.436
 8584SOL    HW126651   0.689   5.580   6.498
 8584SOL    HW226652   0.656   5.651   6.355
 8585SOL     OW26653   1.443   1.928   1.219
 8585SOL    HW126654   1.425   1.907   1.315
 8585SOL    HW226655   1.538   1.958   1.209
 8586SOL     OW26656   4.025   5.003   4.075
 8586SOL    HW126657   4.072   4.987   3.989
 8586SOL    HW226658   4.034   4.922   4.134
 8587SOL     OW26659   6.509   1.814   1.352
 8587SOL    HW126660   6.493   1.824   1.254
 8587SOL    HW226661   6.458   1.884   1.401
 8588SOL     OW26662   3.497   2.622   6.267
 8588SOL    HW126663   3.579   2.592   6.217
 8588SOL    HW226664   3.491   2.721   6.264
 8589SOL     OW26665   2.653   1.687   4.519
 8589SOL    HW126666   2.666   1.764   4.582
 8589SOL    HW226667   2.616   1.609   4.569
 8590SOL     OW26668   5.542   4.840   5.414
 8590SOL    HW126669   5.622   4.843   5.473
 8590SOL    HW226670   5.541   4.753   5.365
 8591SOL     OW26671   0.605   2.638   0.430
 8591SOL    HW126672   0.613   2.633   0.529
 8591SOL    HW226673   0.668   2.708   0.395
 8592SOL     OW26674   6.184   5.855   6.803
 8592SOL    HW126675   6.191   5.893   6.711
 8592SOL    HW226676   6.246   5.904   6.865
 8593SOL     OW26677   0.490   5.875   3.044
 8593SOL    HW126678   0.460   5.864   2.949
 8593SOL    HW226679   0.521   5.786   3.079
 8594SOL     OW26680   3.890   3.991   3.002
 8594SOL    HW126681   3.963   3.926   2.977
 8594SOL    HW226682   3.922   4.049   3.077
 8595SOL     OW26683   1.385   2.841   1.616
 8595SOL    HW126684   1.392   2.746   1.647
 8595SOL    HW226685   1.463   2.863   1.558
 8596SOL     OW26686   6.719   4.249   2.282
 8596SOL    HW126687   6.743   4.221   2.189
 8596SOL    HW226688   6.634   4.302   2.280
 8597SOL     OW26689   2.323   1.526   0.776
 8597SOL    HW126690   2.356   1.455   0.715
 8597SOL    HW226691   2.309   1.488   0.867
 8598SOL     OW26692   6.123   3.413   1.718
 8598SOL    HW126693   6.104   3.328   1.766
 8598SOL    HW226694   6.144   3.394   1.622
 8599SOL     OW26695   0.727   3.101   0.760
 8599SOL    HW126696   0.787   3.181   0.757
 8599SOL    HW226697   0.719   3.069   0.854
 8600SOL     OW26698   6.573   2.348   6.200
 8600SOL    HW126699   6.487   2.384   6.165
 8600SOL    HW226700   6.555   2.271   6.262
 8601SOL     OW26701   0.702   0.209   4.983
 8601SOL    HW126702   0.782   0.251   4.940
 8601SOL    HW226703   0.638   0.281   5.009
 8602SOL     OW26704   1.406   6.415   1.769
 8602SOL    HW126705   1.469   6.374   1.703
 8602SOL    HW226706   1.459   6.455   1.844
 8603SOL     OW26707   4.845   3.438   1.342
 8603SOL    HW126708   4.855   3.454   1.440
 8603SOL    HW226709   4.756   3.398   1.323
 8604SOL     OW26710   6.005   3.055   3.013
 8604SOL    HW126711   5.940   3.046   2.937
 8604SOL    HW226712   5.964   3.018   3.096
 8605SOL     OW26713   2.903   5.226   1.654
 8605SOL    HW126714   2.888   5.222   1.753
 8605SOL    HW226715   3.001   5.214   1.635
 8606SOL     OW26716   3.975   5.349   4.656
 8606SOL    HW126717   3.914   5.271   4.672
 8606SOL    HW226718   3.934   5.410   4.588
 8607SOL     OW26719   2.677   6.366   0.952
 8607SOL    HW126720   2.771   6.394   0.934
 8607SOL    HW226721   2.672   6.322   1.042
 8608SOL     OW26722   5.904   6.877   2.466
 8608SOL    HW126723   5.973   6.852   2.533
 8608SOL    HW226724   5.854   6.796   2.437
 8609SOL     OW26725   5.039   0.209   6.144
 8609SOL    HW126726   5.106   0.226   6.072
 8609SOL    HW226727   5.070   0.250   6.230
 8610SOL     OW26728   6.784   6.499   5.728
 8610SOL    HW126729   6.874   6.463   5.705
 8610SOL    HW226730   6.715   6.427   5.715
 8611SOL     OW26731   1.564   1.961   3.241
 8611SOL    HW126732   1.507   2.026   3.290
 8611SOL    HW226733   1.636   2.010   3.191
 8612SOL     OW26734   4.972   3.116   4.424
 8612SOL    HW126735   4.967   3.030   4.474
 8612SOL    HW226736   4.931   3.104   4.333
 8613SOL     OW26737   1.479   0.711   0.506
 8613SOL    HW126738   1.554   0.776   0.503
 8613SOL    HW226739   1.417   0.734   0.581
 8614SOL     OW26740   1.639   2.085   3.586
 8614SOL    HW126741   1.632   2.091   3.686
 8614SOL    HW226742   1.735   2.086   3.559
 8615SOL     OW26743   4.511   1.778   5.797
 8615SOL    HW126744   4.568   1.860   5.804
 8615SOL    HW226745   4.415   1.804   5.797
 8616SOL     OW26746   0.948   3.078   0.258
 8616SOL    HW126747   0.931   3.043   0.167
 8616SOL    HW226748   0.861   3.085   0.308
 8617SOL     OW26749   5.498   2.956   0.672
 8617SOL    HW126750   5.542   2.866   0.671
 8617SOL    HW226751   5.560   3.024   0.633
 8618SOL     OW26752   4.011   1.411   3.059
 8618SOL    HW126753   4.095   1.460   3.082
 8618SOL    HW226754   3.971   1.373   3.142
 8619SOL     OW26755   3.957   6.566   0.780
 8619SOL    HW126756   4.010   6.605   0.705
 8619SOL    HW226757   3.931   6.638   0.844
 8620SOL     OW26758   6.119   5.979   3.811
 8620SOL    HW126759   6.125   6.043   3.734
 8620SOL    HW226760   6.208   5.973   3.856
 8621SOL     OW26761   5.210   1.020   4.257
 8621SOL    HW126762   5.236   1.106   4.214
 8621SOL    HW226763   5.278   0.995   4.326
 8622SOL     OW26764   4.774   5.144   6.502
 8622SOL    HW126765   4.748   5.073   6.437
 8622SOL    HW226766   4.856   5.192   6.468
 8623SOL     OW26767   6.196   2.156   3.880
 8623SOL    HW126768   6.106   2.179   3.915
 8623SOL    HW226769   6.236   2.082   3.935
 8624SOL     OW26770   6.233   3.153   3.756
 8624SOL    HW126771   6.202   3.160   3.851
 8624SOL    HW226772   6.332   3.171   3.753
 8625SOL     OW26773   3.740   1.371   6.671
 8625SOL    HW126774   3.814   1.321   6.626
 8625SOL    HW226775   3.767   1.466   6.685
 8626SOL     OW26776   3.032   3.624   2.397
 8626SOL    HW126777   2.965   3.598   2.326
 8626SOL    HW226778   3.028   3.722   2.411
 8627SOL     OW26779   2.796   0.255   0.211
 8627SOL    HW126780   2.851   0.205   0.143
 8627SOL    HW226781   2.770   0.192   0.285
 8628SOL     OW26782   6.077   1.651   1.117
 8628SOL    HW126783   6.055   1.713   1.042
 8628SOL    HW226784   5.993   1.606   1.149
 8629SOL     OW26785   1.556   5.961   3.394
 8629SOL    HW126786   1.487   6.020   3.352
 8629SOL    HW226787   1.574   5.883   3.333
 8630SOL     OW26788   5.278   5.296   4.287
 8630SOL    HW126789   5.278   5.282   4.387
 8630SOL    HW226790   5.184   5.299   4.254
 8631SOL     OW26791   4.196   6.278   3.858
 8631SOL    HW126792   4.278   6.232   3.825
 8631SOL    HW226793   4.193   6.371   3.821
 8632SOL     OW26794   3.099   1.045   3.127
 8632SOL    HW126795   3.162   1.049   3.204
 8632SOL    HW226796   3.032   0.973   3.142
 8633SOL     OW26797   6.836   6.732   2.630
 8633SOL    HW126798   6.905   6.664   2.655
 8633SOL    HW226799   6.749   6.687   2.614
 8634SOL     OW26800   6.273   5.859   1.896
 8634SOL    HW126801   6.201   5.792   1.877
 8634SOL    HW226802   6.307   5.897   1.810
 8635SOL     OW26803   6.328   3.429   5.622
 8635SOL    HW126804   6.353   3.463   5.531
 8635SOL    HW226805   6.229   3.441   5.636
 8636SOL     OW26806   5.613   4.996   0.747
 8636SOL    HW126807   5.523   5.035   0.729
 8636SOL    HW226808   5.607   4.896   0.746
 8637SOL     OW26809   1.290   0.919   1.672
 8637SOL    HW126810   1.385   0.916   1.642
 8637SOL    HW226811   1.233   0.868   1.607
 8638SOL     OW26812   5.620   4.464   1.049
 8638SOL    HW126813   5.582   4.557   1.044
 8638SOL    HW226814   5.659   4.450   1.140
 8639SOL     OW26815   5.820   2.134   1.999
 8639SOL    HW126816   5.804   2.192   1.920
 8639SOL    HW226817   5.913   2.150   2.034
 8640SOL     OW26818   5.037   6.214   1.672
 8640SOL    HW126819   4.981   6.181   1.596
 8640SOL    HW226820   4.994   6.295   1.711
 8641SOL     OW26821   4.955   4.646   3.644
 8641SOL    HW126822   5.044   4.638   3.598
 8641SOL    HW226823   4.924   4.555   3.672
 8642SOL     OW26824   4.182   1.381   2.095
 8642SOL    HW126825   4.253   1.412   2.158
 8642SOL    HW226826   4.094   1.418   2.123
 8643SOL     OW26827   4.676   0.262   0.243
 8643SOL    HW126828   4.646   0.302   0.156
 8643SOL    HW226829   4.761   0.212   0.229
 8644SOL     OW26830   6.727   3.453   4.839
 8644SOL    HW126831   6.761   3.480   4.749
 8644SOL    HW226832   6.638   3.496   4.855
 8645SOL     OW26833   6.589   3.891   1.625
 8645SOL    HW126834   6.679   3.869   1.589
 8645SOL    HW226835   6.598   3.924   1.719
 8646SOL     OW26836   4.877   5.830   0.894
 8646SOL    HW126837   4.824   5.875   0.821
 8646SOL    HW226838   4.892   5.734   0.870
 8647SOL     OW26839   4.302   4.812   2.158
 8647SOL    HW126840   4.378   4.839   2.099
 8647SOL    HW226841   4.297   4.712   2.163
 8648SOL     OW26842   5.954   0.700   3.699
 8648SOL    HW126843   6.040   0.649   3.704
 8648SOL    HW226844   5.930   0.715   3.603
 8649SOL     OW26845   6.547   4.431   5.539
 8649SOL    HW126846   6.593   4.424   5.627
 8649SOL    HW226847   6.503   4.344   5.517
 8650SOL     OW26848   0.605   5.488   1.361
 8650SOL    HW126849   0.651   5.402   1.342
 8650SOL    HW226850   0.614   5.549   1.283
 8651SOL     OW26851   4.155   3.244   0.932
 8651SOL    HW126852   4.237   3.302   0.939
 8651SOL    HW226853   4.088   3.274   1.000
 8652SOL     OW26854   0.867   2.995   4.469
 8652SOL    HW126855   0.910   3.085   4.454
 8652SOL    HW226856   0.836   2.988   4.564
 8653SOL     OW26857   5.179   2.652   6.282
 8653SOL    HW126858   5.229   2.613   6.360
 8653SOL    HW226859   5.180   2.751   6.289
 8654SOL     OW26860   1.425   5.110   1.642
 8654SOL    HW126861   1.369   5.187   1.611
 8654SOL    HW226862   1.505   5.144   1.692
 8655SOL     OW26863   6.073   6.384   1.772
 8655SOL    HW126864   6.029   6.394   1.862
 8655SOL    HW226865   6.007   6.349   1.706
 8656SOL     OW26866   6.437   2.171   1.729
 8656SOL    HW126867   6.490   2.211   1.804
 8656SOL    HW226868   6.425   2.073   1.745
 8657SOL     OW26869   2.928   4.614   0.880
 8657SOL    HW126870   2.837   4.587   0.913
 8657SOL    HW226871   2.939   4.586   0.784
 8658SOL     OW26872   1.339   5.318   6.198
 8658SOL    HW126873   1.384   5.281   6.278
 8658SOL    HW226874   1.243   5.289   6.196
 8659SOL     OW26875   4.162   7.002   4.535
 8659SOL    HW126876   4.175   0.091   4.529
 8659SOL    HW226877   4.243   6.956   4.501
 8660SOL     OW26878   5.433   4.460   6.878
 8660SOL    HW126879   5.528   4.436   6.898
 8660SOL    HW226880   5.379   4.377   6.866
 8661SOL     OW26881   6.416   3.202   1.793
 8661SOL    HW126882   6.506   3.159   1.789
 8661SOL    HW226883   6.350   3.140   1.835
 8662SOL     OW26884   0.623   0.337   7.006
 8662SOL    HW126885   0.591   0.243   6.999
 8662SOL    HW226886   0.723   0.339   7.002
 8663SOL     OW26887   2.755   5.160   1.039
 8663SOL    HW126888   2.777   5.069   1.004
 8663SOL    HW226889   2.679   5.153   1.104
 8664SOL     OW26890   4.320   5.048   1.652
 8664SOL    HW126891   4.294   4.954   1.627
 8664SOL    HW226892   4.401   5.075   1.599
 8665SOL     OW26893   5.109   5.271   4.779
 8665SOL    HW126894   5.013   5.249   4.760
 8665SOL    HW226895   5.113   5.342   4.850
 8666SOL     OW26896   6.561   4.453   3.826
 8666SOL    HW126897   6.525   4.365   3.856
 8666SOL    HW226898   6.661   4.447   3.820
 8667SOL     OW26899   5.728   2.481   3.493
 8667SOL    HW126900   5.736   2.555   3.560
 8667SOL    HW226901   5.653   2.502   3.429
 8668SOL     OW26902   3.371   0.747   4.597
 8668SOL    HW126903   3.425   0.799   4.663
 8668SOL    HW226904   3.394   0.650   4.604
 8669SOL     OW26905   4.227   0.004   5.951
 8669SOL    HW126906   4.237   0.103   5.943
 8669SOL    HW226907   4.151   6.993   6.012
 8670SOL     OW26908   4.442   4.582   2.771
 8670SOL    HW126909   4.406   4.588   2.678
 8670SOL    HW226910   4.516   4.648   2.783
 8671SOL     OW26911   6.317   6.168   2.465
 8671SOL    HW126912   6.407   6.144   2.502
 8671SOL    HW226913   6.259   6.086   2.461
 8672SOL     OW26914   3.587   5.643   5.003
 8672SOL    HW126915   3.550   5.550   4.996
 8672SOL    HW226916   3.567   5.693   4.918
 8673SOL     OW26917   4.868   2.107   0.117
 8673SOL    HW126918   4.947   2.121   0.177
 8673SOL    HW226919   4.824   2.195   0.100
 8674SOL     OW26920   0.646   0.143   2.612
 8674SOL    HW126921   0.630   0.141   2.710
 8674SOL    HW226922   0.563   0.175   2.565
 8675SOL     OW26923   2.524   2.008   3.049
 8675SOL    HW126924   2.614   2.039   3.018
 8675SOL    HW226925   2.456   2.022   2.977
 8676SOL     OW26926   4.500   0.774   4.474
 8676SOL    HW126927   4.422   0.810   4.525
 8676SOL    HW226928   4.474   0.688   4.430
 8677SOL     OW26929   1.993   3.924   5.801
 8677SOL    HW126930   2.055   3.931   5.722
 8677SOL    HW226931   2.002   3.833   5.841
 8678SOL     OW26932   1.667   1.016   5.844
 8678SOL    HW126933   1.756   0.985   5.879
 8678SOL    HW226934   1.605   1.034   5.920
 8679SOL     OW26935   6.095   1.508   4.635
 8679SOL    HW126936   6.053   1.599   4.632
 8679SOL    HW226937   6.066   1.455   4.555
 8680SOL     OW26938   0.498   3.886   0.730
 8680SOL    HW126939   0.544   3.971   0.755
 8680SOL    HW226940   0.563   3.826   0.683
 8681SOL     OW26941   4.284   3.666   1.374
 8681SOL    HW126942   4.305   3.623   1.286
 8681SOL    HW226943   4.188   3.654   1.396
 8682SOL     OW26944   1.500   5.616   2.531
 8682SOL    HW126945   1.582   5.622   2.588
 8682SOL    HW226946   1.517   5.553   2.455
 8683SOL     OW26947   4.809   2.829   6.286
 8683SOL    HW126948   4.892   2.779   6.260
 8683SOL    HW226949   4.795   2.821   6.385
 8684SOL     OW26950   6.774   2.816   3.780
 8684SOL    HW126951   6.720   2.745   3.827
 8684SOL    HW226952   6.720   2.855   3.705
 8685SOL     OW26953   6.929   1.259   5.863
 8685SOL    HW126954   6.927   1.198   5.783
 8685SOL    HW226955   6.892   1.348   5.838
 8686SOL     OW26956   6.406   1.707   3.795
 8686SOL    HW126957   6.330   1.705   3.730
 8686SOL    HW226958   6.371   1.709   3.888
 8687SOL     OW26959   4.036   1.059   2.658
 8687SOL    HW126960   4.029   0.968   2.698
 8687SOL    HW226961   4.053   1.126   2.730
 8688SOL     OW26962   1.229   6.848   1.822
 8688SOL    HW126963   1.261   6.786   1.751
 8688SOL    HW226964   1.281   6.934   1.818
 8689SOL     OW26965   5.021   4.800   0.958
 8689SOL    HW126966   5.105   4.747   0.953
 8689SOL    HW226967   4.943   4.737   0.959
 8690SOL     OW26968   1.716   1.040   2.685
 8690SOL    HW126969   1.638   1.070   2.739
 8690SOL    HW226970   1.714   0.940   2.677
 8691SOL     OW26971   5.936   1.578   0.621
 8691SOL    HW126972   6.031   1.571   0.589
 8691SOL    HW226973   5.900   1.668   0.595
 8692SOL     OW26974   1.569   1.191   3.691
 8692SOL    HW126975   1.480   1.217   3.655
 8692SOL    HW226976   1.638   1.201   3.619
 8693SOL     OW26977   5.199   2.249   6.823
 8693SOL    HW126978   5.264   2.219   6.753
 8693SOL    HW226979   5.149   2.170   6.858
 8694SOL     OW26980   3.543   6.611   0.013
 8694SOL    HW126981   3.531   6.659   6.936
 8694SOL    HW226982   3.638   6.582   0.022
 8695SOL     OW26983   4.433   4.085   5.483
 8695SOL    HW126984   4.411   4.122   5.573
 8695SOL    HW226985   4.437   3.985   5.488
 8696SOL     OW26986   2.079   5.164   0.662
 8696SOL    HW126987   2.167   5.116   0.658
 8696SOL    HW226988   2.005   5.099   0.646
 8697SOL     OW26989   4.950   4.944   6.620
 8697SOL    HW126990   5.030   4.898   6.660
 8697SOL    HW226991   4.977   4.991   6.536
 8698SOL     OW26992   5.829   6.259   5.034
 8698SOL    HW126993   5.780   6.342   5.062
 8698SOL    HW226994   5.764   6.184   5.022
 8699SOL     OW26995   1.174   1.608   5.200
 8699SOL    HW126996   1.238   1.533   5.215
 8699SOL    HW226997   1.148   1.648   5.288
 8700SOL     OW26998   2.842   2.354   6.146
 8700SOL    HW126999   2.920   2.292   6.141
 8700SOL    HW227000   2.786   2.331   6.226
 8701SOL     OW27001   1.056   1.120   3.495
 8701SOL    HW127002   1.016   1.129   3.404
 8701SOL    HW227003   1.144   1.169   3.497
 8702SOL     OW27004   5.434   6.330   6.919
 8702SOL    HW127005   5.481   6.341   7.007
 8702SOL    HW227006   5.383   6.244   6.919
 8703SOL     OW27007   1.284   5.298   1.443
 8703SOL    HW127008   1.237   5.293   1.355
 8703SOL    HW227009   1.347   5.376   1.443
 8704SOL     OW27010   0.965   4.220   2.058
 8704SOL    HW127011   0.959   4.309   2.012
 8704SOL    HW227012   0.900   4.217   2.134
 8705SOL     OW27013   5.015   6.707   4.209
 8705SOL    HW127014   5.099   6.731   4.257
 8705SOL    HW227015   5.028   6.717   4.111
 8706SOL     OW27016   4.844   1.471   5.719
 8706SOL    HW127017   4.757   1.517   5.700
 8706SOL    HW227018   4.851   1.388   5.665
 8707SOL     OW27019   4.557   1.858   5.428
 8707SOL    HW127020   4.650   1.833   5.399
 8707SOL    HW227021   4.551   1.957   5.438
 8708SOL     OW27022   4.058   1.717   0.579
 8708SOL    HW127023   4.080   1.641   0.518
 8708SOL    HW227024   4.107   1.706   0.666
 8709SOL     OW27025   5.977   3.378   0.383
 8709SOL    HW127026   5.953   3.429   0.465
 8709SOL    HW227027   6.045   3.430   0.331
 8710SOL     OW27028   6.029   2.943   4.087
 8710SOL    HW127029   6.076   3.029   4.106
 8710SOL    HW227030   5.956   2.958   4.020
 8711SOL     OW27031   1.134   1.220   4.653
 8711SOL    HW127032   1.211   1.224   4.589
 8711SOL    HW227033   1.149   1.146   4.718
 8712SOL     OW27034   3.559   0.265   6.993
 8712SOL    HW127035   3.524   0.178   6.959
 8712SOL    HW227036   3.557   0.265   0.082
 8713SOL     OW27037   6.223   4.621   2.596
 8713SOL    HW127038   6.172   4.658   2.673
 8713SOL    HW227039   6.184   4.653   2.510
 8714SOL     OW27040   1.553   1.476   4.239
 8714SOL    HW127041   1.489   1.480   4.162
 8714SOL    HW227042   1.519   1.534   4.313
 8715SOL     OW27043   5.930   1.081   2.693
 8715SOL    HW127044   6.025   1.103   2.672
 8715SOL    HW227045   5.885   1.048   2.610
 8716SOL     OW27046   0.544   1.201   1.949
 8716SOL    HW127047   0.615   1.236   1.890
 8716SOL    HW227048   0.524   1.268   2.021
 8717SOL     OW27049   4.218   3.524   0.647
 8717SOL    HW127050   4.178   3.455   0.587
 8717SOL    HW227051   4.172   3.612   0.631
 8718SOL     OW27052   0.207   2.308   5.999
 8718SOL    HW127053   0.205   2.398   5.955
 8718SOL    HW227054   0.136   2.250   5.959
 8719SOL     OW27055   6.128   1.078   5.750
 8719SOL    HW127056   6.204   1.089   5.813
 8719SOL    HW227057   6.162   1.051   5.660
 8720SOL     OW27058   4.656   3.626   5.637
 8720SOL    HW127059   4.712   3.543   5.648
 8720SOL    HW227060   4.649   3.648   5.539
 8721SOL     OW27061   6.826   0.864   5.053
 8721SOL    HW127062   6.826   0.799   5.129
 8721SOL    HW227063   6.801   0.816   4.969
 8722SOL     OW27064   3.201   2.952   1.021
 8722SOL    HW127065   3.193   2.921   1.115
 8722SOL    HW227066   3.114   2.992   0.991
 8723SOL     OW27067   0.305   5.486   0.724
 8723SOL    HW127068   0.369   5.455   0.654
 8723SOL    HW227069   0.266   5.574   0.697
 8724SOL     OW27070   5.062   6.365   6.566
 8724SOL    HW127071   5.010   6.356   6.651
 8724SOL    HW227072   5.159   6.349   6.584
 8725SOL     OW27073   1.931   6.217   1.267
 8725SOL    HW127074   2.004   6.260   1.320
 8725SOL    HW227075   1.969   6.179   1.182
 8726SOL     OW27076   6.731   0.841   1.467
 8726SOL    HW127077   6.770   0.828   1.558
 8726SOL    HW227078   6.804   0.863   1.402
 8727SOL     OW27079   6.006   6.884   0.833
 8727SOL    HW127080   5.932   6.938   0.874
 8727SOL    HW227081   6.001   6.893   0.733
 8728SOL     OW27082   2.100   6.154   5.359
 8728SOL    HW127083   2.141   6.180   5.271
 8728SOL    HW227084   2.100   6.055   5.368
 8729SOL     OW27085   5.050   5.999   4.752
 8729SOL    HW127086   4.964   5.962   4.788
 8729SOL    HW227087   5.036   6.029   4.657
 8730SOL     OW27088   0.006   5.905   0.594
 8730SOL    HW127089   0.030   5.995   0.632
 8730SOL    HW227090   6.959   5.917   0.513
 8731SOL     OW27091   0.633   1.527   2.397
 8731SOL    HW127092   0.686   1.558   2.475
 8731SOL    HW227093   0.625   1.601   2.330
 8732SOL     OW27094   6.580   5.879   2.327
 8732SOL    HW127095   6.495   5.906   2.282
 8732SOL    HW227096   6.637   5.960   2.342
 8733SOL     OW27097   6.923   0.210   1.013
 8733SOL    HW127098   6.879   0.120   1.018
 8733SOL    HW227099   0.008   0.201   1.043
 8734SOL     OW27100   6.985   6.170   0.642
 8734SOL    HW127101   0.055   6.225   0.618
 8734SOL    HW227102   6.965   6.182   0.739
 8735SOL     OW27103   0.086   2.889   6.229
 8735SOL    HW127104   0.098   2.847   6.319
 8735SOL    HW227105   0.161   2.953   6.212
 8736SOL     OW27106   0.273   4.580   5.895
 8736SOL    HW127107   0.324   4.524   5.829
 8736SOL    HW227108   0.319   4.576   5.984
 8737SOL     OW27109   4.057   6.100   6.745
 8737SOL    HW127110   4.101   6.071   6.660
 8737SOL    HW227111   4.118   6.081   6.822
 8738SOL     OW27112   0.819   3.884   5.380
 8738SOL    HW127113   0.838   3.843   5.469
 8738SOL    HW227114   0.900   3.875   5.321
 8739SOL     OW27115   0.881   3.782   5.627
 8739SOL    HW127116   0.791   3.745   5.652
 8739SOL    HW227117   0.937   3.790   5.709
 8740SOL     OW27118   1.338   6.759   1.072
 8740SOL    HW127119   1.386   6.843   1.045
 8740SOL    HW227120   1.304   6.712   0.991
 8741SOL     OW27121   1.555   3.626   2.101
 8741SOL    HW127122   1.472   3.666   2.141
 8741SOL    HW227123   1.575   3.672   2.015
 8742SOL     OW27124   4.752   5.836   2.218
 8742SOL    HW127125   4.765   5.812   2.314
 8742SOL    HW227126   4.817   5.785   2.161
 8743SOL     OW27127   2.454   4.859   2.693
 8743SOL    HW127128   2.515   4.781   2.704
 8743SOL    HW227129   2.474   4.905   2.607
 8744SOL     OW27130   2.986   3.358   5.462
 8744SOL    HW127131   3.037   3.445   5.466
 8744SOL    HW227132   3.044   3.288   5.420
 8745SOL     OW27133   6.003   1.720   0.049
 8745SOL    HW127134   5.908   1.689   0.055
 8745SOL    HW227135   6.028   1.733   6.964
 8746SOL     OW27136   5.207   3.652   4.876
 8746SOL    HW127137   5.272   3.586   4.839
 8746SOL    HW227138   5.136   3.604   4.928
 8747SOL     OW27139   0.640   1.964   4.156
 8747SOL    HW127140   0.551   1.999   4.186
 8747SOL    HW227141   0.665   1.885   4.212
 8748SOL     OW27142   2.993   6.559   0.362
 8748SOL    HW127143   3.071   6.531   0.305
 8748SOL    HW227144   2.909   6.523   0.322
 8749SOL     OW27145   3.979   1.811   3.690
 8749SOL    HW127146   4.006   1.755   3.611
 8749SOL    HW227147   3.924   1.888   3.658
 8750SOL     OW27148   1.832   0.572   5.269
 8750SOL    HW127149   1.796   0.619   5.349
 8750SOL    HW227150   1.930   0.590   5.261
 8751SOL     OW27151   2.079   6.515   3.097
 8751SOL    HW127152   2.017   6.491   3.172
 8751SOL    HW227153   2.102   6.612   3.102
 8752SOL     OW27154   2.523   1.337   5.864
 8752SOL    HW127155   2.613   1.355   5.905
 8752SOL    HW227156   2.521   1.375   5.772
 8753SOL     OW27157   5.462   1.357   5.189
 8753SOL    HW127158   5.477   1.327   5.095
 8753SOL    HW227159   5.440   1.455   5.190
 8754SOL     OW27160   2.035   1.355   5.764
 8754SOL    HW127161   2.073   1.276   5.814
 8754SOL    HW227162   2.052   1.343   5.666
 8755SOL     OW27163   2.343   2.309   0.606
 8755SOL    HW127164   2.442   2.320   0.620
 8755SOL    HW227165   2.310   2.382   0.546
 8756SOL     OW27166   1.939   4.194   4.458
 8756SOL    HW127167   2.034   4.169   4.475
 8756SOL    HW227168   1.902   4.241   4.538
 8757SOL     OW27169   3.468   5.529   4.057
 8757SOL    HW127170   3.368   5.539   4.053
 8757SOL    HW227171   3.505   5.592   4.125
 8758SOL     OW27172   5.139   6.630   2.401
 8758SOL    HW127173   5.094   6.583   2.326
 8758SOL    HW227174   5.227   6.586   2.420
 8759SOL     OW27175   5.174   0.761   6.048
 8759SOL    HW127176   5.217   0.728   5.964
 8759SOL    HW227177   5.148   0.683   6.105
 8760SOL     OW27178   2.140   3.183   3.838
 8760SOL    HW127179   2.128   3.274   3.798
 8760SOL    HW227180   2.128   3.189   3.937
 8761SOL     OW27181   5.346   6.129   1.868
 8761SOL    HW127182   5.301   6.090   1.787
 8761SOL    HW227183   5.409   6.201   1.840
 8762SOL     OW27184   0.860   4.734   0.622
 8762SOL    HW127185   0.905   4.821   0.602
 8762SOL    HW227186   0.920   4.658   0.593
 8763SOL     OW27187   0.390   6.013   6.194
 8763SOL    HW127188   0.306   5.996   6.245
 8763SOL    HW227189   0.407   5.937   6.130
 8764SOL     OW27190   3.525   2.152   6.494
 8764SOL    HW127191   3.590   2.228   6.504
 8764SOL    HW227192   3.453   2.160   6.563
 8765SOL     OW27193   6.876   0.491   4.506
 8765SOL    HW127194   6.878   0.392   4.514
 8765SOL    HW227195   6.970   0.526   4.504
 8766SOL     OW27196   2.087   4.476   2.371
 8766SOL    HW127197   2.087   4.551   2.304
 8766SOL    HW227198   2.146   4.402   2.339
 8767SOL     OW27199   5.076   1.066   5.745
 8767SOL    HW127200   5.106   1.087   5.652
 8767SOL    HW227201   5.004   0.996   5.741
 8768SOL     OW27202   1.044   3.846   6.985
 8768SOL    HW127203   1.057   3.936   6.944
 8768SOL    HW227204   1.130   3.814   0.013
 8769SOL     OW27205   1.931   1.154   6.070
 8769SOL    HW127206   1.911   1.092   6.145
 8769SOL    HW227207   1.852   1.213   6.053
 8770SOL     OW27208   5.396   1.257   3.210
 8770SOL    HW127209   5.303   1.246   3.245
 8770SOL    HW227210   5.413   1.353   3.190
 8771SOL     OW27211   2.543   2.958   5.623
 8771SOL    HW127212   2.519   3.005   5.708
 8771SOL    HW227213   2.553   2.860   5.641
 8772SOL     OW27214   6.420   6.691   6.526
 8772SOL    HW127215   6.438   6.750   6.604
 8772SOL    HW227216   6.374   6.743   6.454
 8773SOL     OW27217   3.075   1.810   3.046
 8773SOL    HW127218   3.075   1.839   2.951
 8773SOL    HW227219   2.987   1.829   3.088
 8774SOL     OW27220   1.088   0.586   0.016
 8774SOL    HW127221   1.169   0.529   0.004
 8774SOL    HW227222   1.092   0.631   0.106
 8775SOL     OW27223   6.376   6.227   4.446
 8775SOL    HW127224   6.402   6.146   4.498
 8775SOL    HW227225   6.283   6.254   4.471
 8776SOL     OW27226   3.173   3.847   5.000
 8776SOL    HW127227   3.148   3.882   4.909
 8776SOL    HW227228   3.156   3.749   5.004
 8777SOL     OW27229   6.162   5.769   2.698
 8777SOL    HW127230   6.066   5.753   2.677
 8777SOL    HW227231   6.218   5.695   2.661
 8778SOL     OW27232   1.330   2.901   2.886
 8778SOL    HW127233   1.406   2.887   2.824
 8778SOL    HW227234   1.356   2.966   2.958
 8779SOL     OW27235   1.812   4.753   1.149
 8779SOL    HW127236   1.785   4.668   1.105
 8779SOL    HW227237   1.824   4.738   1.248
 8780SOL     OW27238   2.026   5.576   4.760
 8780SOL    HW127239   1.986   5.554   4.850
 8780SOL    HW227240   2.066   5.493   4.720
 8781SOL     OW27241   0.758   2.111   2.851
 8781SOL    HW127242   0.783   2.201   2.814
 8781SOL    HW227243   0.833   2.076   2.906
 8782SOL     OW27244   5.121   1.213   3.923
 8782SOL    HW127245   5.190   1.252   3.862
 8782SOL    HW227246   5.163   1.192   4.012
 8783SOL     OW27247   6.059   2.790   5.548
 8783SOL    HW127248   6.155   2.789   5.521
 8783SOL    HW227249   6.040   2.710   5.606
 8784SOL     OW27250   6.007   4.355   5.928
 8784SOL    HW127251   6.028   4.259   5.909
 8784SOL    HW227252   6.032   4.377   6.022
 8785SOL     OW27253   5.068   3.984   5.677
 8785SOL    HW127254   5.065   3.911   5.609
 8785SOL    HW227255   5.126   4.059   5.644
 8786SOL     OW27256   1.805   6.478   0.204
 8786SOL    HW127257   1.879   6.431   0.156
 8786SOL    HW227258   1.788   6.434   0.292
 8787SOL     OW27259   1.088   2.647   0.014
 8787SOL    HW127260   1.171   2.595   0.035
 8787SOL    HW227261   1.092   2.681   6.931
 8788SOL     OW27262   1.553   2.139   5.486
 8788SOL    HW127263   1.648   2.114   5.469
 8788SOL    HW227264   1.547   2.238   5.499
 8789SOL     OW27265   0.535   1.339   0.428
 8789SOL    HW127266   0.525   1.328   0.527
 8789SOL    HW227267   0.609   1.280   0.396
 8790SOL     OW27268   4.004   1.520   6.387
 8790SOL    HW127269   4.079   1.489   6.329
 8790SOL    HW227270   4.019   1.615   6.414
 8791SOL     OW27271   5.047   6.605   5.247
 8791SOL    HW127272   5.007   6.671   5.310
 8791SOL    HW227273   4.994   6.520   5.247
 8792SOL     OW27274   5.327   6.881   2.393
 8792SOL    HW127275   5.399   6.938   2.432
 8792SOL    HW227276   5.291   6.820   2.463
 8793SOL     OW27277   1.309   4.597   3.257
 8793SOL    HW127278   1.394   4.556   3.291
 8793SOL    HW227279   1.235   4.579   3.321
 8794SOL     OW27280   2.586   5.712   2.989
 8794SOL    HW127281   2.540   5.778   2.929
 8794SOL    HW227282   2.524   5.636   3.008
 8795SOL     OW27283   3.030   5.951   4.842
 8795SOL    HW127284   3.083   6.003   4.909
 8795SOL    HW227285   3.038   5.996   4.752
 8796SOL     OW27286   5.066   2.160   5.063
 8796SOL    HW127287   5.043   2.251   5.031
 8796SOL    HW227288   5.157   2.134   5.028
 8797SOL     OW27289   0.781   6.013   6.500
 8797SOL    HW127290   0.795   6.060   6.413
 8797SOL    HW227291   0.854   6.038   6.564
 8798SOL     OW27292   3.187   3.208   5.300
 8798SOL    HW127293   3.181   3.119   5.345
 8798SOL    HW227294   3.170   3.197   5.202
 8799SOL     OW27295   2.892   0.462   2.552
 8799SOL    HW127296   2.897   0.475   2.651
 8799SOL    HW227297   2.960   0.520   2.507
 8800SOL     OW27298   4.108   4.426   0.507
 8800SOL    HW127299   4.018   4.468   0.495
 8800SOL    HW227300   4.115   4.346   0.448
 8801SOL     OW27301   3.095   6.602   5.914
 8801SOL    HW127302   3.022   6.545   5.878
 8801SOL    HW227303   3.148   6.550   5.981
 8802SOL     OW27304   2.414   6.222   1.570
 8802SOL    HW127305   2.361   6.263   1.643
 8802SOL    HW227306   2.437   6.292   1.502
 8803SOL     OW27307   3.984   5.902   2.054
 8803SOL    HW127308   3.910   5.943   2.108
 8803SOL    HW227309   4.050   5.973   2.029
 8804SOL     OW27310   2.941   0.757   1.822
 8804SOL    HW127311   2.891   0.742   1.907
 8804SOL    HW227312   3.002   0.836   1.833
 8805SOL     OW27313   0.757   0.536   3.355
 8805SOL    HW127314   0.791   0.492   3.438
 8805SOL    HW227315   0.709   0.468   3.299
 8806SOL     OW27316   1.634   4.949   0.304
 8806SOL    HW127317   1.660   4.914   0.214
 8806SOL    HW227318   1.658   4.881   0.374
 8807SOL     OW27319   2.319   5.452   6.439
 8807SOL    HW127320   2.303   5.551   6.446
 8807SOL    HW227321   2.386   5.434   6.367
 8808SOL     OW27322   5.501   2.218   1.105
 8808SOL    HW127323   5.563   2.241   1.030
 8808SOL    HW227324   5.521   2.277   1.183
 8809SOL     OW27325   5.949   4.569   0.295
 8809SOL    HW127326   5.928   4.522   0.381
 8809SOL    HW227327   5.917   4.664   0.300
 8810SOL     OW27328   5.111   1.786   4.046
 8810SOL    HW127329   5.201   1.741   4.045
 8810SOL    HW227330   5.041   1.720   4.018
 8811SOL     OW27331   1.460   1.055   3.405
 8811SOL    HW127332   1.559   1.051   3.389
 8811SOL    HW227333   1.433   1.150   3.424
 8812SOL     OW27334   2.633   1.101   0.277
 8812SOL    HW127335   2.704   1.031   0.279
 8812SOL    HW227336   2.644   1.158   0.195
 8813SOL     OW27337   1.426   5.535   1.381
 8813SOL    HW127338   1.400   5.586   1.299
 8813SOL    HW227339   1.418   5.594   1.461
 8814SOL     OW27340   5.844   6.549   5.821
 8814SOL    HW127341   5.884   6.630   5.864
 8814SOL    HW227342   5.763   6.575   5.769
 8815SOL     OW27343   6.101   5.544   3.003
 8815SOL    HW127344   6.016   5.578   2.963
 8815SOL    HW227345   6.125   5.602   3.082
 8816SOL     OW27346   0.408   5.085   1.955
 8816SOL    HW127347   0.463   5.068   1.872
 8816SOL    HW227348   0.415   5.181   1.981
 8817SOL     OW27349   2.265   3.836   5.340
 8817SOL    HW127350   2.320   3.899   5.285
 8817SOL    HW227351   2.214   3.775   5.279
 8818SOL     OW27352   0.062   4.556   5.175
 8818SOL    HW127353   0.104   4.493   5.110
 8818SOL    HW227354   6.974   4.561   5.159
 8819SOL     OW27355   6.744   0.357   3.876
 8819SOL    HW127356   6.693   0.350   3.962
 8819SOL    HW227357   6.821   0.293   3.877
 8820SOL     OW27358   0.964   2.432   3.258
 8820SOL    HW127359   1.039   2.416   3.193
 8820SOL    HW227360   0.953   2.531   3.273
 8821SOL     OW27361   1.891   6.849   6.638
 8821SOL    HW127362   1.796   6.821   6.624
 8821SOL    HW227363   1.923   6.812   6.726
 8822SOL     OW27364   1.170   2.693   4.008
 8822SOL    HW127365   1.131   2.666   4.096
 8822SOL    HW227366   1.097   2.713   3.944
 8823SOL     OW27367   2.134   5.372   1.473
 8823SOL    HW127368   2.221   5.322   1.474
 8823SOL    HW227369   2.073   5.331   1.406
 8824SOL     OW27370   4.411   4.474   0.982
 8824SOL    HW127371   4.324   4.457   0.936
 8824SOL    HW227372   4.412   4.425   1.069
 8825SOL     OW27373   2.344   2.525   0.390
 8825SOL    HW127374   2.300   2.615   0.391
 8825SOL    HW227375   2.343   2.489   0.296
 8826SOL     OW27376   5.886   0.318   1.288
 8826SOL    HW127377   5.978   0.351   1.307
 8826SOL    HW227378   5.821   0.394   1.294
 8827SOL     OW27379   6.562   1.681   3.489
 8827SOL    HW127380   6.493   1.653   3.555
 8827SOL    HW227381   6.603   1.600   3.448
 8828SOL     OW27382   1.443   6.228   3.512
 8828SOL    HW127383   1.522   6.217   3.572
 8828SOL    HW227384   1.371   6.277   3.561
 8829SOL     OW27385   1.589   0.795   1.370
 8829SOL    HW127386   1.584   0.804   1.470
 8829SOL    HW227387   1.663   0.853   1.336
 8830SOL     OW27388   1.396   1.299   0.702
 8830SOL    HW127389   1.460   1.369   0.672
 8830SOL    HW227390   1.352   1.327   0.788
 8831SOL     OW27391   6.664   1.195   2.171
 8831SOL    HW127392   6.757   1.161   2.185
 8831SOL    HW227393   6.657   1.237   2.080
 8832SOL     OW27394   6.184   1.148   2.625
 8832SOL    HW127395   6.214   1.134   2.530
 8832SOL    HW227396   6.263   1.142   2.686
 8833SOL     OW27397   1.125   5.447   2.280
 8833SOL    HW127398   1.127   5.547   2.285
 8833SOL    HW227399   1.058   5.412   2.345
 8834SOL     OW27400   6.071   4.112   3.812
 8834SOL    HW127401   5.997   4.128   3.747
 8834SOL    HW227402   6.033   4.106   3.905
 8835SOL     OW27403   0.722   1.156   0.303
 8835SOL    HW127404   0.683   1.089   0.239
 8835SOL    HW227405   0.822   1.154   0.296
 8836SOL     OW27406   4.881   2.035   1.915
 8836SOL    HW127407   4.839   2.118   1.877
 8836SOL    HW227408   4.823   1.998   1.987
 8837SOL     OW27409   6.988   2.402   1.806
 8837SOL    HW127410   0.076   2.420   1.802
 8837SOL    HW227411   6.949   2.448   1.886
 8838SOL     OW27412   1.520   6.151   3.902
 8838SOL    HW127413   1.476   6.065   3.873
 8838SOL    HW227414   1.576   6.134   3.983
 8839SOL     OW27415   5.152   6.004   4.339
 8839SOL    HW127416   5.205   5.920   4.344
 8839SOL    HW227417   5.206   6.080   4.375
 8840SOL     OW27418   4.245   0.673   2.121
 8840SOL    HW127419   4.245   0.573   2.129
 8840SOL    HW227420   4.338   0.707   2.133
 8841SOL     OW27421   3.509   0.495   4.039
 8841SOL    HW127422   3.487   0.424   4.106
 8841SOL    HW227423   3.449   0.573   4.053
 8842SOL     OW27424   1.358   2.569   1.781
 8842SOL    HW127425   1.387   2.487   1.732
 8842SOL    HW227426   1.287   2.546   1.847
 8843SOL     OW27427   0.148   3.050   4.279
 8843SOL    HW127428   0.225   3.006   4.325
 8843SOL    HW227429   0.085   2.980   4.246
 8844SOL     OW27430   5.692   1.709   6.904
 8844SOL    HW127431   5.705   1.655   6.987
 8844SOL    HW227432   5.679   1.648   6.826
 8845SOL     OW27433   5.103   2.774   0.060
 8845SOL    HW127434   5.014   2.756   0.102
 8845SOL    HW227435   5.150   2.847   0.110
 8846SOL     OW27436   3.400   4.981   3.595
 8846SOL    HW127437   3.411   5.019   3.687
 8846SOL    HW227438   3.487   4.942   3.564
 8847SOL     OW27439   0.939   1.347   3.095
 8847SOL    HW127440   0.983   1.345   3.006
 8847SOL    HW227441   0.961   1.432   3.142
 8848SOL     OW27442   0.661   1.184   3.383
 8848SOL    HW127443   0.667   1.177   3.483
 8848SOL    HW227444   0.566   1.174   3.354
 8849SOL     OW27445   2.941   6.780   1.556
 8849SOL    HW127446   2.879   6.743   1.487
 8849SOL    HW227447   2.965   6.875   1.532
 8850SOL     OW27448   3.066   2.682   6.932
 8850SOL    HW127449   3.121   2.725   7.004
 8850SOL    HW227450   3.080   2.584   6.934
 8851SOL     OW27451   2.272   3.743   1.845
 8851SOL    HW127452   2.260   3.802   1.926
 8851SOL    HW227453   2.261   3.648   1.872
 8852SOL     OW27454   0.315   2.061   4.607
 8852SOL    HW127455   0.268   2.105   4.684
 8852SOL    HW227456   0.257   1.989   4.570
 8853SOL     OW27457   4.603   0.543   1.880
 8853SOL    HW127458   4.672   0.522   1.949
 8853SOL    HW227459   4.555   0.627   1.906
 8854SOL     OW27460   6.943   2.821   4.929
 8854SOL    HW127461   6.911   2.760   5.001
 8854SOL    HW227462   6.869   2.885   4.904
 8855SOL     OW27463   4.937   4.518   1.375
 8855SOL    HW127464   4.872   4.533   1.301
 8855SOL    HW227465   4.946   4.420   1.393
 8856SOL     OW27466   6.011   0.816   6.109
 8856SOL    HW127467   5.973   0.730   6.077
 8856SOL    HW227468   6.090   0.798   6.168
 8857SOL     OW27469   6.548   2.081   6.364
 8857SOL    HW127470   6.474   2.081   6.431
 8857SOL    HW227471   6.567   1.987   6.335
 8858SOL     OW27472   6.681   5.529   4.838
 8858SOL    HW127473   6.764   5.474   4.844
 8858SOL    HW227474   6.661   5.549   4.742
 8859SOL     OW27475   0.877   5.676   2.890
 8859SOL    HW127476   0.937   5.697   2.812
 8859SOL    HW227477   0.874   5.577   2.905
 8860SOL     OW27478   6.521   2.610   2.182
 8860SOL    HW127479   6.556   2.704   2.174
 8860SOL    HW227480   6.567   2.564   2.258
 8861SOL     OW27481   3.313   2.634   1.581
 8861SOL    HW127482   3.336   2.639   1.678
 8861SOL    HW227483   3.299   2.726   1.546
 8862SOL     OW27484   4.385   4.649   4.748
 8862SOL    HW127485   4.378   4.590   4.829
 8862SOL    HW227486   4.455   4.614   4.687
 8863SOL     OW27487   1.433   3.766   1.838
 8863SOL    HW127488   1.370   3.698   1.875
 8863SOL    HW227489   1.383   3.829   1.778
 8864SOL     OW27490   6.294   1.656   5.102
 8864SOL    HW127491   6.319   1.684   5.009
 8864SOL    HW227492   6.374   1.665   5.162
 8865SOL     OW27493   3.264   1.385   1.082
 8865SOL    HW127494   3.222   1.294   1.080
 8865SOL    HW227495   3.363   1.375   1.090
 8866SOL     OW27496   6.181   6.967   1.802
 8866SOL    HW127497   6.197   6.889   1.863
 8866SOL    HW227498   6.269   0.001   1.781
 8867SOL     OW27499   6.281   2.802   2.701
 8867SOL    HW127500   6.326   2.748   2.630
 8867SOL    HW227501   6.234   2.880   2.658
 8868SOL     OW27502   0.239   3.131   3.363
 8868SOL    HW127503   0.255   3.106   3.458
 8868SOL    HW227504   0.270   3.225   3.347
 8869SOL     OW27505   4.818   0.238   3.427
 8869SOL    HW127506   4.760   0.171   3.381
 8869SOL    HW227507   4.771   0.269   3.510
 8870SOL     OW27508   0.869   0.891   1.911
 8870SOL    HW127509   0.941   0.921   1.973
 8870SOL    HW227510   0.780   0.914   1.950
 8871SOL     OW27511   0.101   6.973   1.158
 8871SOL    HW127512   0.002   6.970   1.171
 8871SOL    HW227513   0.135   0.055   1.175
 8872SOL     OW27514   6.952   4.567   3.594
 8872SOL    HW127515   0.018   4.603   3.648
 8872SOL    HW227516   6.945   4.618   3.508
 8873SOL     OW27517   1.900   1.483   3.349
 8873SOL    HW127518   1.958   1.540   3.407
 8873SOL    HW227519   1.831   1.438   3.406
 8874SOL     OW27520   2.839   5.772   0.635
 8874SOL    HW127521   2.882   5.802   0.550
 8874SOL    HW227522   2.741   5.760   0.620
 8875SOL     OW27523   6.050   2.978   4.466
 8875SOL    HW127524   6.011   2.978   4.558
 8875SOL    HW227525   6.012   2.902   4.413
 8876SOL     OW27526   4.202   0.750   0.681
 8876SOL    HW127527   4.104   0.750   0.703
 8876SOL    HW227528   4.214   0.749   0.581
 8877SOL     OW27529   0.655   4.563   1.023
 8877SOL    HW127530   0.704   4.486   1.064
 8877SOL    HW227531   0.607   4.614   1.094
 8878SOL     OW27532   4.872   3.701   1.848
 8878SOL    HW127533   4.928   3.707   1.930
 8878SOL    HW227534   4.802   3.630   1.860
 8879SOL     OW27535   6.490   4.181   3.820
 8879SOL    HW127536   6.444   4.093   3.832
 8879SOL    HW227537   6.554   4.174   3.743
 8880SOL     OW27538   4.234   2.179   3.026
 8880SOL    HW127539   4.172   2.223   3.090
 8880SOL    HW227540   4.327   2.181   3.062
 8881SOL     OW27541   3.812   5.304   2.800
 8881SOL    HW127542   3.739   5.255   2.753
 8881SOL    HW227543   3.857   5.243   2.865
 8882SOL     OW27544   3.794   1.139   0.542
 8882SOL    HW127545   3.772   1.236   0.527
 8882SOL    HW227546   3.763   1.112   0.633
 8883SOL     OW27547   0.858   6.399   2.994
 8883SOL    HW127548   0.876   6.344   3.076
 8883SOL    HW227549   0.760   6.400   2.975
 8884SOL     OW27550   4.706   2.874   5.784
 8884SOL    HW127551   4.670   2.781   5.782
 8884SOL    HW227552   4.695   2.912   5.876
 8885SOL     OW27553   5.873   5.078   0.819
 8885SOL    HW127554   5.891   5.169   0.855
 8885SOL    HW227555   5.777   5.073   0.789
 8886SOL     OW27556   5.192   6.512   0.339
 8886SOL    HW127557   5.146   6.511   0.428
 8886SOL    HW227558   5.130   6.476   0.269
 8887SOL     OW27559   3.662   0.115   1.522
 8887SOL    HW127560   3.632   0.172   1.599
 8887SOL    HW227561   3.729   0.166   1.467
 8888SOL     OW27562   3.752   2.075   2.218
 8888SOL    HW127563   3.731   2.129   2.300
 8888SOL    HW227564   3.720   2.125   2.137
 8889SOL     OW27565   1.379   4.551   6.858
 8889SOL    HW127566   1.427   4.629   6.896
 8889SOL    HW227567   1.350   4.490   6.932
 8890SOL     OW27568   1.413   6.015   0.172
 8890SOL    HW127569   1.434   6.108   0.143
 8890SOL    HW227570   1.495   5.958   0.165
 8891SOL     OW27571   6.191   3.351   5.049
 8891SOL    HW127572   6.173   3.388   4.958
 8891SOL    HW227573   6.168   3.254   5.051
 8892SOL     OW27574   2.390   5.095   4.494
 8892SOL    HW127575   2.395   5.075   4.592
 8892SOL    HW227576   2.463   5.045   4.447
 8893SOL     OW27577   0.482   4.522   5.475
 8893SOL    HW127578   0.445   4.588   5.409
 8893SOL    HW227579   0.568   4.486   5.441
 8894SOL     OW27580   5.009   2.698   1.887
 8894SOL    HW127581   5.093   2.729   1.842
 8894SOL    HW227582   5.002   2.599   1.881
 8895SOL     OW27583   6.584   3.622   1.307
 8895SOL    HW127584   6.595   3.697   1.242
 8895SOL    HW227585   6.490   3.622   1.342
 8896SOL     OW27586   0.682   1.167   3.673
 8896SOL    HW127587   0.683   1.079   3.722
 8896SOL    HW227588   0.754   1.226   3.710
 8897SOL     OW27589   1.595   5.466   4.479
 8897SOL    HW127590   1.597   5.566   4.485
 8897SOL    HW227591   1.641   5.427   4.559
 8898SOL     OW27592   5.472   4.587   2.457
 8898SOL    HW127593   5.531   4.648   2.404
 8898SOL    HW227594   5.377   4.602   2.431
 8899SOL     OW27595   1.938   3.995   2.048
 8899SOL    HW127596   2.013   4.003   2.113
 8899SOL    HW227597   1.974   3.981   1.956
 8900SOL     OW27598   3.969   1.685   4.371
 8900SOL    HW127599   3.943   1.763   4.314
 8900SOL    HW227600   3.896   1.666   4.436
 8901SOL     OW27601   1.476   5.242   5.098
 8901SOL    HW127602   1.465   5.202   5.189
 8901SOL    HW227603   1.486   5.169   5.031
 8902SOL     OW27604   0.519   5.061   6.455
 8902SOL    HW127605   0.545   5.121   6.530
 8902SOL    HW227606   0.444   5.102   6.403
 8903SOL     OW27607   0.687   0.760   4.852
 8903SOL    HW127608   0.704   0.818   4.772
 8903SOL    HW227609   0.727   0.802   4.933
 8904SOL     OW27610   0.401   1.383   3.122
 8904SOL    HW127611   0.311   1.392   3.164
 8904SOL    HW227612   0.425   1.287   3.116
 8905SOL     OW27613   1.871   4.700   1.437
 8905SOL    HW127614   1.969   4.722   1.433
 8905SOL    HW227615   1.859   4.601   1.424
 8906SOL     OW27616   5.947   0.622   6.755
 8906SOL    HW127617   5.940   0.689   6.681
 8906SOL    HW227618   5.980   0.667   6.837
 8907SOL     OW27619   2.737   3.357   5.315
 8907SOL    HW127620   2.689   3.272   5.336
 8907SOL    HW227621   2.816   3.366   5.376
 8908SOL     OW27622   1.831   5.263   6.043
 8908SOL    HW127623   1.746   5.216   6.018
 8908SOL    HW227624   1.845   5.341   5.983
 8909SOL     OW27625   2.349   6.032   2.007
 8909SOL    HW127626   2.376   6.113   2.059
 8909SOL    HW227627   2.351   5.952   2.068
 8910SOL     OW27628   1.237   1.108   3.837
 8910SOL    HW127629   1.272   1.052   3.763
 8910SOL    HW227630   1.219   1.201   3.804
 8911SOL     OW27631   5.275   2.805   4.486
 8911SOL    HW127632   5.346   2.850   4.431
 8911SOL    HW227633   5.199   2.779   4.427
 8912SOL     OW27634   3.454   2.881   3.597
 8912SOL    HW127635   3.544   2.921   3.614
 8912SOL    HW227636   3.456   2.784   3.619
 8913SOL     OW27637   5.152   5.473   1.304
 8913SOL    HW127638   5.073   5.438   1.355
 8913SOL    HW227639   5.124   5.551   1.248
 8914SOL     OW27640   4.714   5.983   5.419
 8914SOL    HW127641   4.721   5.893   5.464
 8914SOL    HW227642   4.784   6.044   5.457
 8915SOL     OW27643   2.396   1.142   3.811
 8915SOL    HW127644   2.352   1.143   3.721
 8915SOL    HW227645   2.493   1.119   3.800
 8916SOL     OW27646   5.810   1.005   2.436
 8916SOL    HW127647   5.896   1.038   2.396
 8916SOL    HW227648   5.791   0.913   2.401
 8917SOL     OW27649   5.426   2.107   0.639
 8917SOL    HW127650   5.509   2.158   0.614
 8917SOL    HW227651   5.357   2.170   0.674
 8918SOL     OW27652   1.426   3.275   2.623
 8918SOL    HW127653   1.475   3.328   2.692
 8918SOL    HW227654   1.470   3.286   2.534
 8919SOL     OW27655   6.604   2.591   2.423
 8919SOL    HW127656   6.625   2.688   2.433
 8919SOL    HW227657   6.673   2.537   2.471
 8920SOL     OW27658   0.889   1.909   0.756
 8920SOL    HW127659   0.863   1.937   0.663
 8920SOL    HW227660   0.936   1.985   0.801
 8921SOL     OW27661   1.105   2.803   1.526
 8921SOL    HW127662   1.197   2.841   1.534
 8921SOL    HW227663   1.046   2.866   1.476
 8922SOL     OW27664   2.965   4.940   3.207
 8922SOL    HW127665   2.987   4.998   3.285
 8922SOL    HW227666   2.878   4.893   3.223
 8923SOL     OW27667   2.818   1.450   3.587
 8923SOL    HW127668   2.833   1.430   3.684
 8923SOL    HW227669   2.770   1.537   3.578
 8924SOL     OW27670   6.045   5.024   4.792
 8924SOL    HW127671   6.133   5.011   4.837
 8924SOL    HW227672   5.978   5.056   4.858
 8925SOL     OW27673   0.546   6.921   3.925
 8925SOL    HW127674   0.568   6.927   3.827
 8925SOL    HW227675   0.630   6.921   3.978
 8926SOL     OW27676   5.823   1.963   0.182
 8926SOL    HW127677   5.912   1.999   0.211
 8926SOL    HW227678   5.828   1.936   0.086
 8927SOL     OW27679   1.380   1.547   6.578
 8927SOL    HW127680   1.379   1.492   6.494
 8927SOL    HW227681   1.419   1.637   6.558
 8928SOL     OW27682   1.753   6.926   5.572
 8928SOL    HW127683   1.760   6.950   5.475
 8928SOL    HW227684   1.758   7.009   5.628
 8929SOL     OW27685   6.974   1.800   3.274
 8929SOL    HW127686   6.910   1.876   3.261
 8929SOL    HW227687   6.923   1.715   3.288
 8930SOL     OW27688   2.439   5.198   3.038
 8930SOL    HW127689   2.437   5.099   3.050
 8930SOL    HW227690   2.383   5.242   3.109
 8931SOL     OW27691   4.288   3.200   6.913
 8931SOL    HW127692   4.292   3.183   6.815
 8931SOL    HW227693   4.211   3.151   6.953
 8932SOL     OW27694   0.521   4.066   3.014
 8932SOL    HW127695   0.427   4.067   2.981
 8932SOL    HW227696   0.557   3.973   3.009
 8933SOL     OW27697   4.843   1.944   6.222
 8933SOL    HW127698   4.794   1.890   6.291
 8933SOL    HW227699   4.864   1.886   6.143
 8934SOL     OW27700   2.473   5.899   2.810
 8934SOL    HW127701   2.435   5.979   2.856
 8934SOL    HW227702   2.402   5.853   2.757
 8935SOL     OW27703   6.911   5.435   6.856
 8935SOL    HW127704   7.007   5.427   6.882
 8935SOL    HW227705   6.857   5.466   6.934
 8936SOL     OW27706   4.057   2.880   1.048
 8936SOL    HW127707   4.027   2.787   1.067
 8936SOL    HW227708   4.122   2.881   0.973
 8937SOL     OW27709   0.690   0.966   6.257
 8937SOL    HW127710   0.728   0.963   6.349
 8937SOL    HW227711   0.709   1.056   6.216
 8938SOL     OW27712   4.538   6.099   1.731
 8938SOL    HW127713   4.618   6.074   1.677
 8938SOL    HW227714   4.526   6.199   1.729
 8939SOL     OW27715   5.845   2.159   4.439
 8939SOL    HW127716   5.769   2.200   4.491
 8939SOL    HW227717   5.885   2.228   4.379
 8940SOL     OW27718   5.785   0.086   2.592
 8940SOL    HW127719   5.809   0.181   2.573
 8940SOL    HW227720   5.842   0.025   2.537
 8941SOL     OW27721   3.675   1.337   6.931
 8941SOL    HW127722   3.725   1.350   6.845
 8941SOL    HW227723   3.578   1.321   6.912
 8942SOL     OW27724   1.390   2.005   5.635
 8942SOL    HW127725   1.339   1.939   5.580
 8942SOL    HW227726   1.468   2.039   5.582
 8943SOL     OW27727   5.276   3.776   0.822
 8943SOL    HW127728   5.277   3.805   0.726
 8943SOL    HW227729   5.285   3.855   0.881
 8944SOL     OW27730   4.173   6.031   1.369
 8944SOL    HW127731   4.103   6.056   1.435
 8944SOL    HW227732   4.160   5.936   1.341
 8945SOL     OW27733   2.223   1.034   3.987
 8945SOL    HW127734   2.218   1.114   4.047
 8945SOL    HW227735   2.281   1.055   3.908
 8946SOL     OW27736   4.196   0.591   4.504
 8946SOL    HW127737   4.118   0.653   4.495
 8946SOL    HW227738   4.218   0.579   4.600
 8947SOL     OW27739   3.870   4.187   5.045
 8947SOL    HW127740   3.913   4.180   5.135
 8947SOL    HW227741   3.911   4.262   4.994
 8948SOL     OW27742   5.572   4.922   3.411
 8948SOL    HW127743   5.668   4.895   3.424
 8948SOL    HW227744   5.546   4.908   3.316
 8949SOL     OW27745   1.266   5.519   5.842
 8949SOL    HW127746   1.199   5.446   5.856
 8949SOL    HW227747   1.325   5.527   5.922
 8950SOL     OW27748   4.690   2.788   4.604
 8950SOL    HW127749   4.675   2.739   4.518
 8950SOL    HW227750   4.651   2.736   4.679
 8951SOL     OW27751   3.128   2.526   5.567
 8951SOL    HW127752   3.115   2.428   5.554
 8951SOL    HW227753   3.062   2.576   5.511
 8952SOL     OW27754   6.350   6.558   3.558
 8952SOL    HW127755   6.425   6.599   3.507
 8952SOL    HW227756   6.332   6.612   3.640
 8953SOL     OW27757   1.628   5.260   5.810
 8953SOL    HW127758   1.604   5.211   5.726
 8953SOL    HW227759   1.637   5.358   5.790
 8954SOL     OW27760   2.550   5.932   6.211
 8954SOL    HW127761   2.590   5.929   6.303
 8954SOL    HW227762   2.489   6.011   6.205
 8955SOL     OW27763   6.821   3.700   4.560
 8955SOL    HW127764   6.776   3.615   4.531
 8955SOL    HW227765   6.769   3.778   4.527
 8956SOL     OW27766   1.220   0.544   4.690
 8956SOL    HW127767   1.208   0.564   4.787
 8956SOL    HW227768   1.133   0.513   4.651
 8957SOL     OW27769   2.955   6.072   1.648
 8957SOL    HW127770   2.892   6.030   1.713
 8957SOL    HW227771   2.999   6.151   1.691
 8958SOL     OW27772   2.796   0.576   4.438
 8958SOL    HW127773   2.760   0.569   4.531
 8958SOL    HW227774   2.833   0.487   4.409
 8959SOL     OW27775   3.740   5.430   0.237
 8959SOL    HW127776   3.789   5.475   0.312
 8959SOL    HW227777   3.717   5.337   0.263
 8960SOL     OW27778   4.105   5.994   1.040
 8960SOL    HW127779   4.047   6.073   1.020
 8960SOL    HW227780   4.061   5.936   1.108
 8961SOL     OW27781   0.757   2.869   4.240
 8961SOL    HW127782   0.809   2.930   4.301
 8961SOL    HW227783   0.673   2.840   4.286
 8962SOL     OW27784   4.851   0.555   3.753
 8962SOL    HW127785   4.898   0.594   3.833
 8962SOL    HW227786   4.886   0.598   3.670
 8963SOL     OW27787   0.709   1.002   3.913
 8963SOL    HW127788   0.654   1.085   3.921
 8963SOL    HW227789   0.806   1.026   3.923
 8964SOL     OW27790   6.854   3.481   2.488
 8964SOL    HW127791   6.889   3.526   2.571
 8964SOL    HW227792   6.791   3.542   2.441
 8965SOL     OW27793   1.756   5.053   1.348
 8965SOL    HW127794   1.749   5.067   1.447
 8965SOL    HW227795   1.812   4.972   1.329
 8966SOL     OW27796   3.966   1.864   5.030
 8966SOL    HW127797   3.961   1.961   5.051
 8966SOL    HW227798   3.877   1.831   5.000
 8967SOL     OW27799   5.166   6.207   0.773
 8967SOL    HW127800   5.097   6.157   0.824
 8967SOL    HW227801   5.163   6.180   0.677
 8968SOL     OW27802   5.651   4.055   3.463
 8968SOL    HW127803   5.619   4.000   3.540
 8968SOL    HW227804   5.612   4.147   3.469
 8969SOL     OW27805   6.755   0.230   4.312
 8969SOL    HW127806   6.733   0.315   4.265
 8969SOL    HW227807   6.846   0.237   4.353
 8970SOL     OW27808   3.038   2.655   1.392
 8970SOL    HW127809   3.016   2.620   1.483
 8970SOL    HW227810   3.033   2.580   1.326
 8971SOL     OW27811   3.885   6.140   3.020
 8971SOL    HW127812   3.887   6.171   3.115
 8971SOL    HW227813   3.824   6.199   2.967
 8972SOL     OW27814   4.980   0.423   4.653
 8972SOL    HW127815   5.061   0.422   4.712
 8972SOL    HW227816   4.989   0.353   4.583
 8973SOL     OW27817   2.179   4.706   6.137
 8973SOL    HW127818   2.081   4.699   6.120
 8973SOL    HW227819   2.228   4.713   6.050
 8974SOL     OW27820   0.400   2.903   4.060
 8974SOL    HW127821   0.384   2.920   3.962
 8974SOL    HW227822   0.448   2.980   4.100
 8975SOL     OW27823   3.750   1.039   6.271
 8975SOL    HW127824   3.684   0.969   6.247
 8975SOL    HW227825   3.785   1.022   6.363
 8976SOL     OW27826   1.492   5.574   3.903
 8976SOL    HW127827   1.434   5.502   3.941
 8976SOL    HW227828   1.494   5.565   3.803
 8977SOL     OW27829   5.415   1.275   0.120
 8977SOL    HW127830   5.477   1.328   0.061
 8977SOL    HW227831   5.378   1.198   0.068
 8978SOL     OW27832   5.931   5.247   1.196
 8978SOL    HW127833   5.837   5.267   1.224
 8978SOL    HW227834   5.956   5.155   1.226
 8979SOL     OW27835   0.999   4.349   4.699
 8979SOL    HW127836   1.004   4.287   4.620
 8979SOL    HW227837   0.947   4.306   4.772
 8980SOL     OW27838   3.756   2.998   4.553
 8980SOL    HW127839   3.770   3.000   4.652
 8980SOL    HW227840   3.678   3.056   4.529
 8981SOL     OW27841   2.831   1.710   5.370
 8981SOL    HW127842   2.872   1.767   5.299
 8981SOL    HW227843   2.836   1.757   5.458
 8982SOL     OW27844   3.573   4.569   0.525
 8982SOL    HW127845   3.563   4.639   0.595
 8982SOL    HW227846   3.552   4.479   0.565
 8983SOL     OW27847   4.698   4.319   1.018
 8983SOL    HW127848   4.687   4.378   0.939
 8983SOL    HW227849   4.620   4.257   1.026
 8984SOL     OW27850   1.185   6.495   3.292
 8984SOL    HW127851   1.284   6.503   3.304
 8984SOL    HW227852   1.145   6.447   3.371
 8985SOL     OW27853   3.257   3.323   6.288
 8985SOL    HW127854   3.165   3.313   6.251
 8985SOL    HW227855   3.323   3.321   6.213
 8986SOL     OW27856   2.760   6.185   2.155
 8986SOL    HW127857   2.764   6.234   2.067
 8986SOL    HW227858   2.750   6.087   2.138
 8987SOL     OW27859   5.399   6.732   2.191
 8987SOL    HW127860   5.358   6.766   2.106
 8987SOL    HW227861   5.382   6.797   2.265
 8988SOL     OW27862   0.481   4.635   4.716
 8988SOL    HW127863   0.442   4.644   4.808
 8988SOL    HW227864   0.415   4.587   4.657
 8989SOL     OW27865   2.454   2.221   6.663
 8989SOL    HW127866   2.430   2.169   6.581
 8989SOL    HW227867   2.514   2.297   6.637
 8990SOL     OW27868   6.992   4.969   3.460
 8990SOL    HW127869   6.970   4.872   3.470
 8990SOL    HW227870   6.941   5.008   3.384
 8991SOL     OW27871   1.334   2.277   5.073
 8991SOL    HW127872   1.318   2.197   5.016
 8991SOL    HW227873   1.432   2.287   5.089
 8992SOL     OW27874   6.398   2.556   1.710
 8992SOL    HW127875   6.304   2.573   1.739
 8992SOL    HW227876   6.442   2.493   1.774
 8993SOL     OW27877   4.179   2.318   0.670
 8993SOL    HW127878   4.125   2.269   0.739
 8993SOL    HW227879   4.189   2.414   0.697
 8994SOL     OW27880   1.731   5.579   2.703
 8994SOL    HW127881   1.729   5.648   2.775
 8994SOL    HW227882   1.793   5.609   2.631
 8995SOL     OW27883   0.270   0.183   1.705
 8995SOL    HW127884   0.344   0.249   1.694
 8995SOL    HW227885   0.266   0.153   1.801
 8996SOL     OW27886   3.986   6.484   5.739
 8996SOL    HW127887   3.968   6.518   5.647
 8996SOL    HW227888   3.899   6.459   5.783
 8997SOL     OW27889   6.517   0.141   4.939
 8997SOL    HW127890   6.579   0.065   4.955
 8997SOL    HW227891   6.569   0.222   4.913
 8998SOL     OW27892   6.899   4.106   4.464
 8998SOL    HW127893   6.946   4.193   4.475
 8998SOL    HW227894   6.965   4.034   4.443
 8999SOL     OW27895   4.066   6.359   6.053
 8999SOL    HW127896   4.001   6.330   6.123
 8999SOL    HW227897   4.051   6.456   6.032
 9000SOL     OW27898   0.940   3.798   1.522
 9000SOL    HW127899   0.984   3.779   1.610
 9000SOL    HW227900   0.986   3.745   1.450
 9001SOL     OW27901   1.375   5.788   1.004
 9001SOL    HW127902   1.362   5.768   1.101
 9001SOL    HW227903   1.472   5.799   0.985
 9002SOL     OW27904   6.937   4.893   6.390
 9002SOL    HW127905   0.002   4.887   6.325
 9002SOL    HW227906   6.951   4.827   6.464
 9003SOL     OW27907   5.170   7.009   0.562
 9003SOL    HW127908   5.195   6.989   0.657
 9003SOL    HW227909   5.222   0.077   0.529
 9004SOL     OW27910   5.898   5.042   1.385
 9004SOL    HW127911   5.916   4.984   1.464
 9004SOL    HW227912   5.937   4.999   1.303
 9005SOL     OW27913   5.194   0.528   5.255
 9005SOL    HW127914   5.102   0.564   5.237
 9005SOL    HW227915   5.263   0.591   5.220
 9006SOL     OW27916   4.323   5.765   0.151
 9006SOL    HW127917   4.380   5.789   0.230
 9006SOL    HW227918   4.352   5.677   0.114
 9007SOL     OW27919   1.337   1.214   3.060
 9007SOL    HW127920   1.301   1.125   3.033
 9007SOL    HW227921   1.304   1.284   2.997
 9008SOL     OW27922   0.361   5.253   2.370
 9008SOL    HW127923   0.289   5.210   2.316
 9008SOL    HW227924   0.325   5.334   2.415
 9009SOL     OW27925   2.822   6.470   2.152
 9009SOL    HW127926   2.771   6.507   2.074
 9009SOL    HW227927   2.801   6.373   2.163
 9010SOL     OW27928   1.660   5.697   4.632
 9010SOL    HW127929   1.594   5.680   4.705
 9010SOL    HW227930   1.616   5.750   4.559
 9011SOL     OW27931   2.037   2.038   2.218
 9011SOL    HW127932   2.060   2.035   2.315
 9011SOL    HW227933   2.057   2.129   2.182
 9012SOL     OW27934   2.805   5.775   0.144
 9012SOL    HW127935   2.734   5.707   0.122
 9012SOL    HW227936   2.881   5.764   0.081
 9013SOL     OW27937   2.038   0.208   4.251
 9013SOL    HW127938   2.006   0.221   4.158
 9013SOL    HW227939   2.014   0.116   4.282
 9014SOL     OW27940   5.259   2.948   3.554
 9014SOL    HW127941   5.326   2.901   3.497
 9014SOL    HW227942   5.283   3.045   3.561
 9015SOL     OW27943   4.363   0.064   6.410
 9015SOL    HW127944   4.323   0.107   6.329
 9015SOL    HW227945   4.309   0.089   6.491
 9016SOL     OW27946   4.669   4.929   5.822
 9016SOL    HW127947   4.718   4.930   5.735
 9016SOL    HW227948   4.697   5.008   5.877
 9017SOL     OW27949   3.562   6.981   5.226
 9017SOL    HW127950   3.635   6.979   5.157
 9017SOL    HW227951   3.474   7.000   5.182
 9018SOL     OW27952   3.558   4.915   0.373
 9018SOL    HW127953   3.460   4.921   0.352
 9018SOL    HW227954   3.585   4.994   0.428
 9019SOL     OW27955   0.547   3.446   3.531
 9019SOL    HW127956   0.512   3.517   3.471
 9019SOL    HW227957   0.494   3.444   3.616
 9020SOL     OW27958   5.575   4.616   3.406
 9020SOL    HW127959   5.575   4.586   3.311
 9020SOL    HW227960   5.582   4.715   3.410
 9021SOL     OW27961   0.481   1.160   3.922
 9021SOL    HW127962   0.485   1.240   3.982
 9021SOL    HW227963   0.480   1.190   3.827
 9022SOL     OW27964   4.465   3.736   6.521
 9022SOL    HW127965   4.559   3.764   6.503
 9022SOL    HW227966   4.464   3.653   6.576
 9023SOL     OW27967   6.893   4.688   0.445
 9023SOL    HW127968   6.955   4.691   0.524
 9023SOL    HW227969   6.817   4.752   0.461
 9024SOL     OW27970   2.334   5.120   6.222
 9024SOL    HW127971   2.290   5.031   6.234
 9024SOL    HW227972   2.265   5.192   6.228
 9025SOL     OW27973   0.750   5.910   1.087
 9025SOL    HW127974   0.841   5.895   1.049
 9025SOL    HW227975   0.693   5.956   1.019
 9026SOL     OW27976   5.399   1.093   0.567
 9026SOL    HW127977   5.350   1.167   0.614
 9026SOL    HW227978   5.337   1.016   0.553
 9027SOL     OW27979   0.492   3.715   3.448
 9027SOL    HW127980   0.402   3.709   3.491
 9027SOL    HW227981   0.505   3.806   3.409
 9028SOL     OW27982   3.196   4.912   6.282
 9028SOL    HW127983   3.191   4.835   6.346
 9028SOL    HW227984   3.263   4.979   6.315
 9029SOL     OW27985   4.516   6.478   4.856
 9029SOL    HW127986   4.511   6.559   4.915
 9029SOL    HW227987   4.517   6.507   4.760
 9030SOL     OW27988   2.968   2.098   2.386
 9030SOL    HW127989   3.029   2.117   2.309
 9030SOL    HW227990   2.874   2.090   2.353
 9031SOL     OW27991   4.870   0.063   4.903
 9031SOL    HW127992   4.849   0.147   4.853
 9031SOL    HW227993   4.864   6.995   4.840
 9032SOL     OW27994   5.344   2.810   1.148
 9032SOL    HW127995   5.295   2.771   1.070
 9032SOL    HW227996   5.424   2.753   1.168
 9033SOL     OW27997   1.258   6.481   2.946
 9033SOL    HW127998   1.217   6.394   2.977
 9033SOL    HW227999   1.340   6.462   2.893
 9034SOL     OW28000   4.622   6.762   4.388
 9034SOL    HW128001   4.692   6.820   4.346
 9034SOL    HW228002   4.658   6.724   4.473
 9035SOL     OW28003   3.235   5.339   5.998
 9035SOL    HW128004   3.283   5.268   5.947
 9035SOL    HW228005   3.199   5.301   6.083
 9036SOL     OW28006   0.948   4.760   5.221
 9036SOL    HW128007   0.980   4.753   5.126
 9036SOL    HW228008   0.949   4.669   5.262
 9037SOL     OW28009   0.188   0.810   2.061
 9037SOL    HW128010   0.230   0.831   2.149
 9037SOL    HW228011   0.243   0.849   1.987
 9038SOL     OW28012   3.968   3.606   5.750
 9038SOL    HW128013   4.061   3.583   5.776
 9038SOL    HW228014   3.915   3.522   5.737
 9039SOL     OW28015   4.630   6.300   6.774
 9039SOL    HW128016   4.602   6.354   6.694
 9039SOL    HW228017   4.581   6.213   6.775
 9040SOL     OW28018   1.887   2.187   1.565
 9040SOL    HW128019   1.948   2.154   1.492
 9040SOL    HW228020   1.939   2.243   1.629
 9041SOL     OW28021   6.183   2.177   3.001
 9041SOL    HW128022   6.182   2.255   3.063
 9041SOL    HW228023   6.088   2.151   2.979
 9042SOL     OW28024   5.236   5.607   6.975
 9042SOL    HW128025   5.141   5.588   7.001
 9042SOL    HW228026   5.237   5.668   6.896
 9043SOL     OW28027   2.639   2.950   1.602
 9043SOL    HW128028   2.618   3.037   1.646
 9043SOL    HW228029   2.610   2.874   1.661
 9044SOL     OW28030   1.254   0.638   0.682
 9044SOL    HW128031   1.254   0.578   0.602
 9044SOL    HW228032   1.192   0.601   0.751
 9045SOL     OW28033   4.092   0.581   4.055
 9045SOL    HW128034   4.024   0.639   4.099
 9045SOL    HW228035   4.047   0.520   3.989
 9046SOL     OW28036   3.762   2.877   2.381
 9046SOL    HW128037   3.818   2.809   2.333
 9046SOL    HW228038   3.769   2.965   2.334
 9047SOL     OW28039   1.075   4.485   5.845
 9047SOL    HW128040   1.009   4.441   5.906
 9047SOL    HW228041   1.027   4.552   5.788
 9048SOL     OW28042   6.974   1.699   5.653
 9048SOL    HW128043   6.914   1.624   5.683
 9048SOL    HW228044   6.919   1.770   5.610
 9049SOL     OW28045   2.331   6.552   5.106
 9049SOL    HW128046   2.246   6.590   5.141
 9049SOL    HW228047   2.394   6.535   5.182
 9050SOL     OW28048   0.600   4.738   0.678
 9050SOL    HW128049   0.555   4.650   0.667
 9050SOL    HW228050   0.695   4.730   0.646
 9051SOL     OW28051   2.169   0.710   1.709
 9051SOL    HW128052   2.233   0.722   1.633
 9051SOL    HW228053   2.172   0.791   1.768
 9052SOL     OW28054   2.017   3.847   6.416
 9052SOL    HW128055   1.943   3.798   6.462
 9052SOL    HW228056   2.103   3.799   6.430
 9053SOL     OW28057   0.495   0.903   6.756
 9053SOL    HW128058   0.505   0.805   6.740
 9053SOL    HW228059   0.570   0.952   6.711
 9054SOL     OW28060   1.493   5.651   2.900
 9054SOL    HW128061   1.395   5.654   2.881
 9054SOL    HW228062   1.535   5.739   2.874
 9055SOL     OW28063   0.668   2.595   5.772
 9055SOL    HW128064   0.738   2.534   5.808
 9055SOL    HW228065   0.607   2.544   5.712
 9056SOL     OW28066   5.687   1.644   3.857
 9056SOL    HW128067   5.652   1.658   3.764
 9056SOL    HW228068   5.704   1.733   3.899
 9057SOL     OW28069   4.465   2.032   3.805
 9057SOL    HW128070   4.420   1.969   3.868
 9057SOL    HW228071   4.562   2.038   3.828
 9058SOL     OW28072   2.287   6.998   5.668
 9058SOL    HW128073   2.337   6.913   5.654
 9058SOL    HW228074   2.318   0.056   5.602
 9059SOL     OW28075   0.974   2.419   3.689
 9059SOL    HW128076   0.936   2.366   3.613
 9059SOL    HW228077   0.952   2.373   3.775
 9060SOL     OW28078   5.082   3.147   5.120
 9060SOL    HW128079   5.118   3.122   5.030
 9060SOL    HW228080   5.056   3.064   5.169
 9061SOL     OW28081   1.742   4.852   3.199
 9061SOL    HW128082   1.766   4.803   3.283
 9061SOL    HW228083   1.817   4.844   3.133
 9062SOL     OW28084   1.890   6.341   1.633
 9062SOL    HW128085   1.852   6.319   1.723
 9062SOL    HW228086   1.945   6.264   1.600
 9063SOL     OW28087   2.891   1.804   2.462
 9063SOL    HW128088   2.868   1.799   2.365
 9063SOL    HW228089   2.961   1.874   2.476
 9064SOL     OW28090   5.175   4.138   0.052
 9064SOL    HW128091   5.123   4.061   0.014
 9064SOL    HW228092   5.113   4.197   0.104
 9065SOL     OW28093   3.050   0.915   1.463
 9065SOL    HW128094   3.072   0.996   1.408
 9065SOL    HW228095   2.952   0.915   1.484
 9066SOL     OW28096   5.405   6.818   6.964
 9066SOL    HW128097   5.331   6.802   0.019
 9066SOL    HW228098   5.428   6.733   6.917
 9067SOL     OW28099   1.027   0.192   1.477
 9067SOL    HW128100   1.040   0.107   1.528
 9067SOL    HW228101   0.985   0.172   1.389
 9068SOL     OW28102   1.525   6.084   6.246
 9068SOL    HW128103   1.527   6.184   6.254
 9068SOL    HW228104   1.477   6.058   6.162
 9069SOL     OW28105   1.183   2.337   6.266
 9069SOL    HW128106   1.093   2.300   6.287
 9069SOL    HW228107   1.174   2.430   6.229
 9070SOL     OW28108   1.695   4.447   3.743
 9070SOL    HW128109   1.637   4.431   3.823
 9070SOL    HW228110   1.778   4.392   3.750
 9071SOL     OW28111   4.972   5.844   6.958
 9071SOL    HW128112   4.946   5.751   6.982
 9071SOL    HW228113   5.028   5.843   6.875
 9072SOL     OW28114   4.742   4.519   0.462
 9072SOL    HW128115   4.793   4.528   0.548
 9072SOL    HW228116   4.728   4.610   0.423
 9073SOL     OW28117   2.491   0.589   1.329
 9073SOL    HW128118   2.418   0.581   1.397
 9073SOL    HW228119   2.490   0.510   1.269
 9074SOL     OW28120   0.475   0.691   2.086
 9074SOL    HW128121   0.445   0.663   1.995
 9074SOL    HW228122   0.526   0.777   2.079
 9075SOL     OW28123   6.779   0.291   1.511
 9075SOL    HW128124   6.794   0.374   1.458
 9075SOL    HW228125   6.864   0.264   1.557
 9076SOL     OW28126   1.032   2.205   5.196
 9076SOL    HW128127   1.001   2.283   5.142
 9076SOL    HW228128   1.118   2.229   5.242
 9077SOL     OW28129   5.845   6.437   1.939
 9077SOL    HW128130   5.766   6.418   1.997
 9077SOL    HW228131   5.832   6.523   1.890
 9078SOL     OW28132   4.526   3.263   5.816
 9078SOL    HW128133   4.537   3.359   5.789
 9078SOL    HW228134   4.614   3.225   5.844
 9079SOL     OW28135   3.169   0.450   5.436
 9079SOL    HW128136   3.174   0.532   5.379
 9079SOL    HW228137   3.084   0.452   5.489
 9080SOL     OW28138   4.897   1.158   6.759
 9080SOL    HW128139   4.805   1.135   6.728
 9080SOL    HW228140   4.962   1.090   6.727
 9081SOL     OW28141   5.406   0.180   3.438
 9081SOL    HW128142   5.358   0.206   3.522
 9081SOL    HW228143   5.351   0.205   3.359
 9082SOL     OW28144   2.405   0.762   2.122
 9082SOL    HW128145   2.426   0.787   2.216
 9082SOL    HW228146   2.307   0.745   2.113
 9083SOL     OW28147   4.664   4.774   3.881
 9083SOL    HW128148   4.757   4.805   3.863
 9083SOL    HW228149   4.602   4.853   3.881
 9084SOL     OW28150   4.139   3.468   2.499
 9084SOL    HW128151   4.092   3.485   2.412
 9084SOL    HW228152   4.109   3.380   2.536
 9085SOL     OW28153   0.853   2.587   0.853
 9085SOL    HW128154   0.847   2.615   0.758
 9085SOL    HW228155   0.949   2.575   0.878
 9086SOL     OW28156   6.777   3.931   6.862
 9086SOL    HW128157   6.789   4.003   6.931
 9086SOL    HW228158   6.774   3.972   6.771
 9087SOL     OW28159   5.063   3.644   2.075
 9087SOL    HW128160   5.105   3.577   2.013
 9087SOL    HW228161   5.106   3.733   2.062
 9088SOL     OW28162   5.719   5.236   1.486
 9088SOL    HW128163   5.680   5.187   1.565
 9088SOL    HW228164   5.769   5.172   1.428
 9089SOL     OW28165   3.984   1.001   5.798
 9089SOL    HW128166   3.920   0.952   5.739
 9089SOL    HW228167   3.950   1.000   5.892
 9090SOL     OW28168   6.220   1.678   3.600
 9090SOL    HW128169   6.216   1.697   3.502
 9090SOL    HW228170   6.130   1.690   3.641
 9091SOL     OW28171   4.003   2.500   5.870
 9091SOL    HW128172   3.977   2.574   5.932
 9091SOL    HW228173   4.032   2.420   5.924
 9092SOL     OW28174   6.653   3.345   5.930
 9092SOL    HW128175   6.667   3.302   6.019
 9092SOL    HW228176   6.730   3.406   5.909
 9093SOL     OW28177   2.026   6.293   4.714
 9093SOL    HW128178   2.073   6.283   4.802
 9093SOL    HW228179   1.945   6.350   4.726
 9094SOL     OW28180   1.666   3.741   0.502
 9094SOL    HW128181   1.690   3.836   0.527
 9094SOL    HW228182   1.674   3.730   0.403
 9095SOL     OW28183   0.195   6.948   6.185
 9095SOL    HW128184   0.286   6.923   6.216
 9095SOL    HW228185   0.193   6.948   6.085
 9096SOL     OW28186   6.047   5.181   3.618
 9096SOL    HW128187   6.087   5.272   3.610
 9096SOL    HW228188   6.069   5.143   3.708
 9097SOL     OW28189   1.021   3.262   6.550
 9097SOL    HW128190   1.084   3.185   6.547
 9097SOL    HW228191   0.962   3.253   6.630
 9098SOL     OW28192   2.028   4.398   3.927
 9098SOL    HW128193   2.117   4.443   3.931
 9098SOL    HW228194   2.013   4.362   3.835
 9099SOL     OW28195   2.273   1.435   6.666
 9099SOL    HW128196   2.343   1.465   6.601
 9099SOL    HW228197   2.199   1.503   6.668
 9100SOL     OW28198   1.425   4.728   4.325
 9100SOL    HW128199   1.515   4.716   4.284
 9100SOL    HW228200   1.435   4.751   4.422
 9101SOL     OW28201   0.269   2.085   0.828
 9101SOL    HW128202   0.313   2.079   0.739
 9101SOL    HW228203   0.336   2.114   0.897
 9102SOL     OW28204   3.721   1.236   3.081
 9102SOL    HW128205   3.797   1.281   3.034
 9102SOL    HW228206   3.635   1.260   3.035
 9103SOL     OW28207   6.473   0.424   1.394
 9103SOL    HW128208   6.448   0.435   1.490
 9103SOL    HW228209   6.427   0.343   1.357
 9104SOL     OW28210   6.017   2.249   6.137
 9104SOL    HW128211   6.098   2.208   6.097
 9104SOL    HW228212   5.984   2.323   6.077
 9105SOL     OW28213   2.836   0.607   6.618
 9105SOL    HW128214   2.780   0.535   6.659
 9105SOL    HW228215   2.885   0.570   6.539
 9106SOL     OW28216   2.519   2.800   6.421
 9106SOL    HW128217   2.615   2.791   6.396
 9106SOL    HW228218   2.466   2.824   6.339
 9107SOL     OW28219   3.552   0.871   1.163
 9107SOL    HW128220   3.492   0.877   1.243
 9107SOL    HW228221   3.512   0.923   1.088
 9108SOL     OW28222   6.567   6.115   6.016
 9108SOL    HW128223   6.502   6.050   6.056
 9108SOL    HW228224   6.557   6.204   6.061
 9109SOL     OW28225   5.367   4.220   3.043
 9109SOL    HW128226   5.324   4.204   3.132
 9109SOL    HW228227   5.312   4.286   2.991
 9110SOL     OW28228   1.129   6.706   2.300
 9110SOL    HW128229   1.089   6.771   2.365
 9110SOL    HW228230   1.059   6.673   2.238
 9111SOL     OW28231   4.260   3.104   5.514
 9111SOL    HW128232   4.262   3.203   5.503
 9111SOL    HW228233   4.343   3.073   5.561
 9112SOL     OW28234   0.436   4.785   2.270
 9112SOL    HW128235   0.445   4.786   2.171
 9112SOL    HW228236   0.369   4.854   2.299
 9113SOL     OW28237   5.838   0.025   4.747
 9113SOL    HW128238   5.756   7.001   4.701
 9113SOL    HW228239   5.919   7.010   4.694
 9114SOL     OW28240   1.188   1.244   6.313
 9114SOL    HW128241   1.285   1.260   6.296
 9114SOL    HW228242   1.157   1.166   6.259
 9115SOL     OW28243   5.001   3.428   4.503
 9115SOL    HW128244   4.945   3.461   4.579
 9115SOL    HW228245   5.025   3.332   4.519
 9116SOL     OW28246   1.307   5.271   3.836
 9116SOL    HW128247   1.274   5.352   3.787
 9116SOL    HW228248   1.233   5.232   3.891
 9117SOL     OW28249   2.237   6.975   0.129
 9117SOL    HW128250   2.153   6.978   0.183
 9117SOL    HW228251   2.219   7.006   0.036
 9118SOL     OW28252   6.744   4.990   1.325
 9118SOL    HW128253   6.705   5.061   1.266
 9118SOL    HW228254   6.808   5.031   1.390
 9119SOL     OW28255   3.517   1.247   1.276
 9119SOL    HW128256   3.533   1.305   1.195
 9119SOL    HW228257   3.605   1.211   1.309
 9120SOL     OW28258   6.633   4.073   4.462
 9120SOL    HW128259   6.732   4.085   4.470
 9120SOL    HW228260   6.592   4.069   4.553
 9121SOL     OW28261   3.978   1.098   4.348
 9121SOL    HW128262   3.980   1.159   4.268
 9121SOL    HW228263   4.021   1.011   4.324
 9122SOL     OW28264   0.307   2.097   1.953
 9122SOL    HW128265   0.275   2.176   2.006
 9122SOL    HW228266   0.257   2.016   1.982
 9123SOL     OW28267   0.556   6.546   4.375
 9123SOL    HW128268   0.461   6.548   4.405
 9123SOL    HW228269   0.615   6.574   4.451
 9124SOL     OW28270   4.011   5.700   0.737
 9124SOL    HW128271   3.996   5.779   0.678
 9124SOL    HW228272   3.927   5.645   0.741
 9125SOL     OW28273   5.304   6.722   1.598
 9125SOL    HW128274   5.306   6.818   1.625
 9125SOL    HW228275   5.221   6.679   1.634
 9126SOL     OW28276   3.674   5.109   0.586
 9126SOL    HW128277   3.639   5.132   0.676
 9126SOL    HW228278   3.716   5.018   0.589
 9127SOL     OW28279   6.895   4.221   5.393
 9127SOL    HW128280   6.908   4.172   5.306
 9127SOL    HW228281   6.866   4.156   5.463
 9128SOL     OW28282   5.436   3.875   6.370
 9128SOL    HW128283   5.498   3.882   6.292
 9128SOL    HW228284   5.416   3.967   6.405
 9129SOL     OW28285   0.101   3.184   0.839
 9129SOL    HW128286   0.023   3.143   0.791
 9129SOL    HW228287   0.172   3.114   0.853
 9130SOL     OW28288   3.323   3.047   6.040
 9130SOL    HW128289   3.228   3.043   6.012
 9130SOL    HW228290   3.357   3.141   6.031
 9131SOL     OW28291   6.307   3.123   0.771
 9131SOL    HW128292   6.403   3.096   0.775
 9131SOL    HW228293   6.254   3.053   0.723
 9132SOL     OW28294   1.231   4.197   3.626
 9132SOL    HW128295   1.151   4.233   3.673
 9132SOL    HW228296   1.222   4.098   3.615
 9133SOL     OW28297   5.265   0.001   0.832
 9133SOL    HW128298   5.273   6.956   0.915
 9133SOL    HW228299   5.357   0.027   0.801
 9134SOL     OW28300   4.949   4.624   6.541
 9134SOL    HW128301   4.880   4.649   6.473
 9134SOL    HW228302   4.951   4.524   6.551
 9135SOL     OW28303   6.427   5.337   2.375
 9135SOL    HW128304   6.424   5.431   2.341
 9135SOL    HW228305   6.457   5.276   2.302
 9136SOL     OW28306   0.846   5.220   6.676
 9136SOL    HW128307   0.910   5.228   6.752
 9136SOL    HW228308   0.764   5.172   6.706
 9137SOL     OW28309   5.790   5.575   6.249
 9137SOL    HW128310   5.829   5.498   6.300
 9137SOL    HW228311   5.732   5.629   6.309
 9138SOL     OW28312   1.458   4.464   6.270
 9138SOL    HW128313   1.511   4.382   6.290
 9138SOL    HW228314   1.507   4.520   6.203
 9139SOL     OW28315   0.121   0.217   1.208
 9139SOL    HW128316   0.070   0.299   1.235
 9139SOL    HW228317   0.202   0.209   1.266
 9140SOL     OW28318   1.360   4.166   2.884
 9140SOL    HW128319   1.277   4.112   2.874
 9140SOL    HW228320   1.435   4.121   2.834
 9141SOL     OW28321   0.301   6.101   4.751
 9141SOL    HW128322   0.277   6.102   4.654
 9141SOL    HW228323   0.394   6.065   4.762
 9142SOL     OW28324   1.348   5.306   3.483
 9142SOL    HW128325   1.251   5.306   3.458
 9142SOL    HW228326   1.371   5.218   3.524
 9143SOL     OW28327   5.503   3.732   2.671
 9143SOL    HW128328   5.446   3.807   2.704
 9143SOL    HW228329   5.452   3.646   2.675
 9144SOL     OW28330   2.654   4.249   5.427
 9144SOL    HW128331   2.571   4.251   5.371
 9144SOL    HW228332   2.734   4.260   5.368
 9145SOL     OW28333   2.775   6.772   6.514
 9145SOL    HW128334   2.724   6.739   6.435
 9145SOL    HW228335   2.866   6.731   6.515
 9146SOL     OW28336   5.796   1.910   4.348
 9146SOL    HW128337   5.811   1.994   4.401
 9146SOL    HW228338   5.700   1.904   4.322
 9147SOL     OW28339   4.405   0.498   6.391
 9147SOL    HW128340   4.427   0.510   6.487
 9147SOL    HW228341   4.488   0.508   6.336
 9148SOL     OW28342   3.821   5.513   2.142
 9148SOL    HW128343   3.800   5.584   2.209
 9148SOL    HW228344   3.853   5.431   2.189
 9149SOL     OW28345   0.497   4.317   1.429
 9149SOL    HW128346   0.535   4.393   1.377
 9149SOL    HW228347   0.563   4.287   1.499
 9150SOL     OW28348   3.402   3.351   0.064
 9150SOL    HW128349   3.362   3.290   0.132
 9150SOL    HW228350   3.396   3.308   6.984
 9151SOL     OW28351   2.162   3.540   4.279
 9151SOL    HW128352   2.209   3.619   4.240
 9151SOL    HW228353   2.093   3.508   4.214
 9152SOL     OW28354   1.928   5.220   1.654
 9152SOL    HW128355   1.999   5.262   1.712
 9152SOL    HW228356   1.893   5.289   1.590
 9153SOL     OW28357   0.720   3.923   0.335
 9153SOL    HW128358   0.623   3.903   0.343
 9153SOL    HW228359   0.754   3.885   0.248
 9154SOL     OW28360   4.439   5.613   3.091
 9154SOL    HW128361   4.478   5.690   3.142
 9154SOL    HW228362   4.474   5.614   2.997
 9155SOL     OW28363   1.145   6.301   2.586
 9155SOL    HW128364   1.201   6.250   2.652
 9155SOL    HW228365   1.078   6.356   2.636
 9156SOL     OW28366   0.045   4.359   5.779
 9156SOL    HW128367   0.000   4.444   5.806
 9156SOL    HW228368   0.140   4.359   5.811
 9157SOL     OW28369   1.813   4.487   5.040
 9157SOL    HW128370   1.881   4.417   5.060
 9157SOL    HW228371   1.770   4.469   4.952
 9158SOL     OW28372   6.524   2.205   3.928
 9158SOL    HW128373   6.473   2.171   4.007
 9158SOL    HW228374   6.465   2.203   3.847
 9159SOL     OW28375   1.904   0.981   3.646
 9159SOL    HW128376   1.901   0.925   3.563
 9159SOL    HW228377   1.826   0.958   3.705
 9160SOL     OW28378   0.653   3.703   6.314
 9160SOL    HW128379   0.651   3.608   6.285
 9160SOL    HW228380   0.745   3.727   6.344
 9161SOL     OW28381   5.862   3.228   2.621
 9161SOL    HW128382   5.813   3.306   2.661
 9161SOL    HW228383   5.838   3.219   2.525
 9162SOL     OW28384   4.930   1.884   2.321
 9162SOL    HW128385   4.868   1.809   2.342
 9162SOL    HW228386   4.952   1.884   2.224
 9163SOL     OW28387   2.109   3.393   3.403
 9163SOL    HW128388   2.155   3.331   3.467
 9163SOL    HW228389   2.150   3.484   3.409
 9164SOL     OW28390   3.320   0.064   0.627
 9164SOL    HW128391   3.316   0.035   0.723
 9164SOL    HW228392   3.390   0.135   0.617
 9165SOL     OW28393   6.001   0.814   6.569
 9165SOL    HW128394   6.079   0.859   6.612
 9165SOL    HW228395   5.950   0.881   6.515
 9166SOL     OW28396   4.197   6.320   1.313
 9166SOL    HW128397   4.209   6.221   1.316
 9166SOL    HW228398   4.107   6.342   1.276
 9167SOL     OW28399   1.099   2.468   5.079
 9167SOL    HW128400   1.093   2.511   5.169
 9167SOL    HW228401   1.179   2.407   5.077
 9168SOL     OW28402   6.569   5.867   4.755
 9168SOL    HW128403   6.661   5.851   4.792
 9168SOL    HW228404   6.503   5.868   4.830
 9169SOL     OW28405   6.302   5.855   0.301
 9169SOL    HW128406   6.319   5.757   0.305
 9169SOL    HW228407   6.204   5.872   0.290
 9170SOL     OW28408   1.933   0.694   5.696
 9170SOL    HW128409   1.961   0.773   5.642
 9170SOL    HW228410   1.963   0.706   5.791
 9171SOL     OW28411   4.474   5.560   0.010
 9171SOL    HW128412   4.517   5.489   0.066
 9171SOL    HW228413   4.506   5.552   6.926
 9172SOL     OW28414   5.195   1.025   6.020
 9172SOL    HW128415   5.159   1.046   5.929
 9172SOL    HW228416   5.182   0.927   6.039
 9173SOL     OW28417   5.795   4.377   5.777
 9173SOL    HW128418   5.870   4.397   5.840
 9173SOL    HW228419   5.830   4.331   5.696
 9174SOL     OW28420   5.900   4.577   6.909
 9174SOL    HW128421   5.962   4.597   6.833
 9174SOL    HW228422   5.944   4.602   6.995
 9175SOL     OW28423   1.975   1.046   1.601
 9175SOL    HW128424   2.036   1.035   1.679
 9175SOL    HW228425   1.931   0.959   1.580
 9176SOL     OW28426   1.358   0.283   2.384
 9176SOL    HW128427   1.457   0.265   2.385
 9176SOL    HW228428   1.340   0.369   2.432
 9177SOL     OW28429   0.672   5.862   3.678
 9177SOL    HW128430   0.700   5.871   3.773
 9177SOL    HW228431   0.606   5.786   3.670
 9178SOL     OW28432   1.101   3.596   0.780
 9178SOL    HW128433   1.133   3.649   0.701
 9178SOL    HW228434   1.179   3.563   0.833
 9179SOL     OW28435   3.990   5.170   3.006
 9179SOL    HW128436   4.020   5.087   3.053
 9179SOL    HW228437   4.042   5.248   3.039
 9180SOL     OW28438   0.319   0.953   5.184
 9180SOL    HW128439   0.263   0.964   5.102
 9180SOL    HW228440   0.348   0.858   5.192
 9181SOL     OW28441   2.851   2.121   3.499
 9181SOL    HW128442   2.886   2.152   3.410
 9181SOL    HW228443   2.927   2.114   3.563
 9182SOL     OW28444   6.644   1.608   3.105
 9182SOL    HW128445   6.705   1.592   3.183
 9182SOL    HW228446   6.563   1.657   3.137
 9183SOL     OW28447   3.145   1.937   5.663
 9183SOL    HW128448   3.071   1.941   5.595
 9183SOL    HW228449   3.232   1.958   5.618
 9184SOL     OW28450   2.939   4.933   0.951
 9184SOL    HW128451   3.008   4.953   1.020
 9184SOL    HW228452   2.938   5.006   0.882
 9185SOL     OW28453   0.836   0.853   5.344
 9185SOL    HW128454   0.745   0.873   5.379
 9185SOL    HW228455   0.835   0.855   5.244
 9186SOL     OW28456   5.875   6.979   5.933
 9186SOL    HW128457   5.967   0.000   5.958
 9186SOL    HW228458   5.807   0.010   5.994
 9187SOL     OW28459   5.346   3.699   1.117
 9187SOL    HW128460   5.283   3.652   1.055
 9187SOL    HW228461   5.331   3.798   1.111
 9188SOL     OW28462   1.116   0.826   2.638
 9188SOL    HW128463   1.045   0.896   2.628
 9188SOL    HW228464   1.075   0.739   2.663
 9189SOL     OW28465   3.032   0.829   6.453
 9189SOL    HW128466   3.004   0.740   6.490
 9189SOL    HW228467   3.031   0.897   6.525
 9190SOL     OW28468   4.120   0.909   6.078
 9190SOL    HW128469   4.038   0.966   6.082
 9190SOL    HW228470   4.193   0.953   6.129
 9191SOL     OW28471   5.648   0.163   1.506
 9191SOL    HW128472   5.562   0.113   1.506
 9191SOL    HW228473   5.635   0.254   1.466
 9192SOL     OW28474   4.769   4.636   4.311
 9192SOL    HW128475   4.819   4.551   4.301
 9192SOL    HW228476   4.672   4.617   4.327
 9193SOL     OW28477   3.832   3.268   2.442
 9193SOL    HW128478   3.742   3.241   2.475
 9193SOL    HW228479   3.847   3.232   2.350
 9194SOL     OW28480   2.945   5.177   3.045
 9194SOL    HW128481   2.942   5.086   3.087
 9194SOL    HW228482   2.947   5.167   2.946
 9195SOL     OW28483   0.815   3.017   4.028
 9195SOL    HW128484   0.915   3.029   4.028
 9195SOL    HW228485   0.788   2.958   4.103
 9196SOL     OW28486   5.378   5.817   3.259
 9196SOL    HW128487   5.455   5.775   3.212
 9196SOL    HW228488   5.298   5.816   3.199
 9197SOL     OW28489   4.586   2.454   6.815
 9197SOL    HW128490   4.549   2.542   6.846
 9197SOL    HW228491   4.512   2.398   6.778
 9198SOL     OW28492   5.993   3.105   5.093
 9198SOL    HW128493   6.059   3.031   5.100
 9198SOL    HW228494   5.940   3.095   5.009
 9199SOL     OW28495   1.050   3.831   6.579
 9199SOL    HW128496   1.007   3.922   6.580
 9199SOL    HW228497   1.003   3.771   6.644
 9200SOL     OW28498   4.656   6.210   2.032
 9200SOL    HW128499   4.584   6.153   1.993
 9200SOL    HW228500   4.736   6.154   2.052
 9201SOL     OW28501   6.907   3.152   2.263
 9201SOL    HW128502   6.982   3.216   2.279
 9201SOL    HW228503   6.840   3.160   2.337
 9202SOL     OW28504   1.723   5.715   3.658
 9202SOL    HW128505   1.772   5.795   3.622
 9202SOL    HW228506   1.766   5.686   3.744
 9203SOL     OW28507   5.252   2.358   0.998
 9203SOL    HW128508   5.224   2.302   0.919
 9203SOL    HW228509   5.348   2.340   1.019
 9204SOL     OW28510   4.943   4.670   2.065
 9204SOL    HW128511   4.857   4.647   2.111
 9204SOL    HW228512   4.963   4.601   1.996
 9205SOL     OW28513   4.227   2.282   1.081
 9205SOL    HW128514   4.166   2.267   1.004
 9205SOL    HW228515   4.212   2.212   1.150
 9206SOL     OW28516   6.880   6.924   5.475
 9206SOL    HW128517   6.924   6.835   5.465
 9206SOL    HW228518   6.868   6.945   5.572
 9207SOL     OW28519   5.660   6.695   0.351
 9207SOL    HW128520   5.685   6.792   0.350
 9207SOL    HW228521   5.692   6.651   0.267
 9208SOL     OW28522   5.387   4.643   1.367
 9208SOL    HW128523   5.451   4.651   1.444
 9208SOL    HW228524   5.295   4.667   1.398
 9209SOL     OW28525   4.982   0.178   4.510
 9209SOL    HW128526   5.055   0.110   4.510
 9209SOL    HW228527   4.893   0.131   4.511
 9210SOL     OW28528   1.202   0.113   0.068
 9210SOL    HW128529   1.270   0.074   0.131
 9210SOL    HW228530   1.120   0.139   0.119
 9211SOL     OW28531   5.229   1.945   6.043
 9211SOL    HW128532   5.160   1.983   6.106
 9211SOL    HW228533   5.211   1.848   6.028
 9212SOL     OW28534   6.271   3.463   6.366
 9212SOL    HW128535   6.182   3.510   6.368
 9212SOL    HW228536   6.339   3.520   6.412
 9213SOL     OW28537   0.173   5.429   2.951
 9213SOL    HW128538   0.090   5.376   2.937
 9213SOL    HW228539   0.169   5.475   3.040
 9214SOL     OW28540   2.112   1.118   5.862
 9214SOL    HW128541   2.034   1.110   5.923
 9214SOL    HW228542   2.180   1.181   5.902
 9215SOL     OW28543   0.056   4.083   3.524
 9215SOL    HW128544   6.991   4.146   3.505
 9215SOL    HW228545   0.114   4.075   3.443
 9216SOL     OW28546   2.120   6.456   3.587
 9216SOL    HW128547   2.178   6.527   3.628
 9216SOL    HW228548   2.169   6.369   3.587
 9217SOL     OW28549   2.991   2.451   0.449
 9217SOL    HW128550   2.994   2.497   0.360
 9217SOL    HW228551   2.896   2.434   0.474
 9218SOL     OW28552   4.263   6.148   5.582
 9218SOL    HW128553   4.208   6.171   5.663
 9218SOL    HW228554   4.253   6.051   5.562
 9219SOL     OW28555   3.939   3.132   6.738
 9219SOL    HW128556   3.921   3.201   6.808
 9219SOL    HW228557   3.940   3.176   6.648
 9220SOL     OW28558   0.670   6.943   3.667
 9220SOL    HW128559   0.689   0.016   3.615
 9220SOL    HW228560   0.590   6.897   3.629
 9221SOL     OW28561   2.363   1.578   2.413
 9221SOL    HW128562   2.434   1.510   2.394
 9221SOL    HW228563   2.310   1.596   2.330
 9222SOL     OW28564   2.007   5.716   3.498
 9222SOL    HW128565   1.930   5.693   3.438
 9222SOL    HW228566   2.019   5.644   3.566
 9223SOL     OW28567   6.285   2.317   4.609
 9223SOL    HW128568   6.234   2.398   4.637
 9223SOL    HW228569   6.299   2.257   4.688
 9224SOL     OW28570   1.585   5.908   2.974
 9224SOL    HW128571   1.586   5.966   3.056
 9224SOL    HW228572   1.676   5.867   2.962
 9225SOL     OW28573   0.440   5.421   5.565
 9225SOL    HW128574   0.444   5.465   5.655
 9225SOL    HW228575   0.346   5.425   5.531
 9226SOL     OW28576   0.770   6.833   4.744
 9226SOL    HW128577   0.702   6.891   4.787
 9226SOL    HW228578   0.800   6.874   4.658
 9227SOL     OW28579   3.835   3.292   0.592
 9227SOL    HW128580   3.896   3.341   0.655
 9227SOL    HW228581   3.798   3.211   0.637
 9228SOL     OW28582   3.753   3.381   4.800
 9228SOL    HW128583   3.713   3.339   4.719
 9228SOL    HW228584   3.853   3.385   4.789
 9229SOL     OW28585   0.058   5.702   0.954
 9229SOL    HW128586   6.997   5.678   0.889
 9229SOL    HW228587   0.022   5.766   1.021
 9230SOL     OW28588   3.329   0.139   6.430
 9230SOL    HW128589   3.378   0.055   6.455
 9230SOL    HW228590   3.354   0.166   6.337
 9231SOL     OW28591   5.960   6.529   1.416
 9231SOL    HW128592   5.958   6.445   1.470
 9231SOL    HW228593   5.898   6.519   1.338
 9232SOL     OW28594   0.804   5.101   1.842
 9232SOL    HW128595   0.818   5.080   1.938
 9232SOL    HW228596   0.809   5.200   1.828
 9233SOL     OW28597   1.654   0.268   5.934
 9233SOL    HW128598   1.737   0.320   5.914
 9233SOL    HW228599   1.665   0.221   6.022
 9234SOL     OW28600   2.912   4.110   6.671
 9234SOL    HW128601   2.985   4.104   6.739
 9234SOL    HW228602   2.952   4.122   6.580
 9235SOL     OW28603   2.265   2.318   3.575
 9235SOL    HW128604   2.309   2.289   3.490
 9235SOL    HW228605   2.173   2.351   3.556
 9236SOL     OW28606   1.840   4.324   6.576
 9236SOL    HW128607   1.911   4.315   6.506
 9236SOL    HW228608   1.810   4.420   6.581
 9237SOL     OW28609   6.849   5.212   3.768
 9237SOL    HW128610   6.832   5.300   3.812
 9237SOL    HW228611   6.790   5.203   3.688
 9238SOL     OW28612   1.545   2.418   5.424
 9238SOL    HW128613   1.570   2.409   5.328
 9238SOL    HW228614   1.627   2.437   5.478
 9239SOL     OW28615   1.898   6.084   6.441
 9239SOL    HW128616   1.838   6.004   6.448
 9239SOL    HW228617   1.957   6.088   6.522
 9240SOL     OW28618   3.785   1.535   4.796
 9240SOL    HW128619   3.845   1.473   4.846
 9240SOL    HW228620   3.701   1.549   4.848
 9241SOL     OW28621   6.006   6.524   0.456
 9241SOL    HW128622   6.090   6.568   0.426
 9241SOL    HW228623   5.928   6.562   0.405
 9242SOL     OW28624   2.227   2.479   6.916
 9242SOL    HW128625   2.258   2.507   6.825
 9242SOL    HW228626   2.244   2.381   6.927
 9243SOL     OW28627   2.448   0.544   0.136
 9243SOL    HW128628   2.354   0.576   0.125
 9243SOL    HW228629   2.472   0.485   0.059
 9244SOL     OW28630   2.400   6.460   0.121
 9244SOL    HW128631   2.382   6.551   0.159
 9244SOL    HW228632   2.481   6.464   0.062
 9245SOL     OW28633   0.780   4.179   2.656
 9245SOL    HW128634   0.795   4.081   2.642
 9245SOL    HW228635   0.708   4.193   2.724
 9246SOL     OW28636   5.240   0.332   6.930
 9246SOL    HW128637   5.265   0.241   6.964
 9246SOL    HW228638   5.169   0.371   6.988
 9247SOL     OW28639   3.013   6.717   2.816
 9247SOL    HW128640   3.038   6.714   2.719
 9247SOL    HW228641   3.078   6.663   2.869
 9248SOL     OW28642   2.958   0.215   6.759
 9248SOL    HW128643   3.040   0.246   6.806
 9248SOL    HW228644   2.922   0.133   6.804
 9249SOL     OW28645   3.781   1.121   0.837
 9249SOL    HW128646   3.819   1.211   0.858
 9249SOL    HW228647   3.778   1.065   0.920
 9250SOL     OW28648   0.577   3.249   2.219
 9250SOL    HW128649   0.544   3.343   2.228
 9250SOL    HW228650   0.517   3.198   2.156
 9251SOL     OW28651   4.177   1.743   0.838
 9251SOL    HW128652   4.191   1.839   0.860
 9251SOL    HW228653   4.230   1.686   0.902
 9252SOL     OW28654   5.731   1.627   4.617
 9252SOL    HW128655   5.801   1.698   4.624
 9252SOL    HW228656   5.694   1.625   4.524
 9253SOL     OW28657   2.738   5.205   3.987
 9253SOL    HW128658   2.674   5.258   3.931
 9253SOL    HW228659   2.731   5.108   3.963
 9254SOL     OW28660   6.901   6.414   2.482
 9254SOL    HW128661   6.939   6.487   2.539
 9254SOL    HW228662   6.963   6.395   2.406
 9255SOL     OW28663   6.732   3.294   1.042
 9255SOL    HW128664   6.727   3.335   1.133
 9255SOL    HW228665   6.776   3.359   0.979
 9256SOL     OW28666   2.190   6.314   1.371
 9256SOL    HW128667   2.205   6.411   1.352
 9256SOL    HW228668   2.255   6.283   1.440
 9257SOL     OW28669   6.052   5.998   5.066
 9257SOL    HW128670   6.105   5.992   5.151
 9257SOL    HW228671   6.041   6.094   5.040
 9258SOL     OW28672   5.368   3.937   2.788
 9258SOL    HW128673   5.448   3.941   2.848
 9258SOL    HW228674   5.346   4.029   2.756
 9259SOL     OW28675   0.752   2.738   6.766
 9259SOL    HW128676   0.764   2.643   6.796
 9259SOL    HW228677   0.656   2.764   6.776
 9260SOL     OW28678   4.910   4.493   5.046
 9260SOL    HW128679   4.818   4.458   5.063
 9260SOL    HW228680   4.963   4.426   4.995
 9261SOL     OW28681   1.779   3.151   1.200
 9261SOL    HW128682   1.775   3.150   1.101
 9261SOL    HW228683   1.776   3.246   1.233
 9262SOL     OW28684   0.442   6.376   5.800
 9262SOL    HW128685   0.393   6.438   5.737
 9262SOL    HW228686   0.539   6.400   5.800
 9263SOL     OW28687   2.582   4.547   2.863
 9263SOL    HW128688   2.669   4.595   2.877
 9263SOL    HW228689   2.567   4.534   2.765
 9264SOL     OW28690   5.030   3.528   5.540
 9264SOL    HW128691   5.096   3.523   5.615
 9264SOL    HW228692   5.029   3.621   5.503
 9265SOL     OW28693   4.891   0.252   2.080
 9265SOL    HW128694   4.901   0.197   2.163
 9265SOL    HW228695   4.796   0.252   2.051
 9266SOL     OW28696   0.271   4.495   1.397
 9266SOL    HW128697   0.367   4.513   1.374
 9266SOL    HW228698   0.250   4.399   1.379
 9267SOL     OW28699   7.008   0.989   3.367
 9267SOL    HW128700   6.941   0.976   3.295
 9267SOL    HW228701   6.993   1.078   3.411
 9268SOL     OW28702   0.346   0.384   1.072
 9268SOL    HW128703   0.321   0.293   1.104
 9268SOL    HW228704   0.282   0.451   1.111
 9269SOL     OW28705   2.943   6.404   1.003
 9269SOL    HW128706   2.921   6.434   1.096
 9269SOL    HW228707   3.037   6.369   1.000
 9270SOL     OW28708   2.501   1.280   4.889
 9270SOL    HW128709   2.575   1.243   4.833
 9270SOL    HW228710   2.476   1.371   4.856
 9271SOL     OW28711   1.691   4.709   5.364
 9271SOL    HW128712   1.609   4.765   5.375
 9271SOL    HW228713   1.771   4.757   5.401
 9272SOL     OW28714   6.659   6.759   5.716
 9272SOL    HW128715   6.610   6.760   5.803
 9272SOL    HW228716   6.689   6.666   5.697
 9273SOL     OW28717   6.563   3.542   3.637
 9273SOL    HW128718   6.561   3.450   3.677
 9273SOL    HW228719   6.658   3.573   3.631
 9274SOL     OW28720   0.007   3.281   0.510
 9274SOL    HW128721   6.941   3.263   0.572
 9274SOL    HW228722   6.994   3.356   0.448
 9275SOL     OW28723   4.671   1.740   0.712
 9275SOL    HW128724   4.607   1.803   0.669
 9275SOL    HW228725   4.763   1.756   0.675
 9276SOL     OW28726   1.695   4.224   0.259
 9276SOL    HW128727   1.794   4.233   0.250
 9276SOL    HW228728   1.666   4.134   0.226
 9277SOL     OW28729   3.016   5.891   2.661
 9277SOL    HW128730   3.029   5.863   2.566
 9277SOL    HW228731   3.042   5.987   2.672
 9278SOL     OW28732   1.533   6.645   5.427
 9278SOL    HW128733   1.474   6.626   5.505
 9278SOL    HW228734   1.625   6.667   5.459
 9279SOL     OW28735   3.261   5.968   1.933
 9279SOL    HW128736   3.264   5.979   1.833
 9279SOL    HW228737   3.329   6.029   1.975
 9280SOL     OW28738   1.490   4.885   1.497
 9280SOL    HW128739   1.453   4.972   1.528
 9280SOL    HW228740   1.565   4.857   1.557
 9281SOL     OW28741   1.326   5.604   0.827
 9281SOL    HW128742   1.343   5.666   0.903
 9281SOL    HW228743   1.325   5.655   0.741
 9282SOL     OW28744   2.110   0.468   4.351
 9282SOL    HW128745   2.053   0.387   4.341
 9282SOL    HW228746   2.128   0.508   4.261
 9283SOL     OW28747   5.306   5.255   6.792
 9283SOL    HW128748   5.384   5.314   6.812
 9283SOL    HW228749   5.338   5.161   6.779
 9284SOL     OW28750   4.338   6.598   1.198
 9284SOL    HW128751   4.355   6.526   1.266
 9284SOL    HW228752   4.309   6.556   1.111
 9285SOL     OW28753   0.038   5.744   3.159
 9285SOL    HW128754   0.067   5.761   3.253
 9285SOL    HW228755   0.115   5.761   3.097
 9286SOL     OW28756   5.278   6.006   1.639
 9286SOL    HW128757   5.377   6.019   1.631
 9286SOL    HW228758   5.233   6.047   1.560
 9287SOL     OW28759   4.319   4.615   0.516
 9287SOL    HW128760   4.379   4.536   0.508
 9287SOL    HW228761   4.306   4.637   0.613
 9288SOL     OW28762   4.229   0.834   3.128
 9288SOL    HW128763   4.168   0.808   3.053
 9288SOL    HW228764   4.190   0.912   3.177
 9289SOL     OW28765   4.504   6.044   2.508
 9289SOL    HW128766   4.476   5.950   2.525
 9289SOL    HW228767   4.468   6.075   2.420
 9290SOL     OW28768   5.184   0.861   3.761
 9290SOL    HW128769   5.090   0.894   3.757
 9290SOL    HW228770   5.233   0.892   3.679
 9291SOL     OW28771   0.921   4.619   5.652
 9291SOL    HW128772   0.962   4.571   5.575
 9291SOL    HW228773   0.870   4.699   5.619
 9292SOL     OW28774   1.977   1.824   6.780
 9292SOL    HW128775   1.982   1.808   6.879
 9292SOL    HW228776   2.025   1.908   6.757
 9293SOL     OW28777   4.149   0.813   5.672
 9293SOL    HW128778   4.095   0.872   5.733
 9293SOL    HW228779   4.117   0.719   5.680
 9294SOL     OW28780   4.986   6.221   5.733
 9294SOL    HW128781   5.076   6.239   5.773
 9294SOL    HW228782   4.917   6.220   5.805
 9295SOL     OW28783   6.501   0.410   2.961
 9295SOL    HW128784   6.438   0.348   3.007
 9295SOL    HW228785   6.457   0.452   2.882
 9296SOL     OW28786   2.116   3.422   5.607
 9296SOL    HW128787   2.199   3.476   5.620
 9296SOL    HW228788   2.135   3.346   5.545
 9297SOL     OW28789   6.785   5.431   2.150
 9297SOL    HW128790   6.702   5.481   2.172
 9297SOL    HW228791   6.856   5.494   2.118
 9298SOL     OW28792   0.151   4.794   6.750
 9298SOL    HW128793   0.153   4.887   6.787
 9298SOL    HW228794   0.060   4.775   6.714
 9299SOL     OW28795   3.074   2.041   4.110
 9299SOL    HW128796   3.064   1.942   4.104
 9299SOL    HW228797   3.126   2.064   4.193
 9300SOL     OW28798   2.922   5.975   6.338
 9300SOL    HW128799   2.968   5.906   6.282
 9300SOL    HW228800   2.981   5.999   6.416
 9301SOL     OW28801   0.375   3.511   4.294
 9301SOL    HW128802   0.316   3.583   4.332
 9301SOL    HW228803   0.372   3.430   4.353
 9302SOL     OW28804   2.977   5.876   3.782
 9302SOL    HW128805   2.929   5.921   3.707
 9302SOL    HW228806   3.004   5.784   3.755
 9303SOL     OW28807   2.643   4.691   6.764
 9303SOL    HW128808   2.599   4.613   6.719
 9303SOL    HW228809   2.702   4.739   6.699
 9304SOL     OW28810   5.949   5.859   5.815
 9304SOL    HW128811   5.925   5.827   5.907
 9304SOL    HW228812   5.886   5.931   5.787
 9305SOL     OW28813   2.087   1.887   1.065
 9305SOL    HW128814   2.155   1.861   1.134
 9305SOL    HW228815   2.123   1.869   0.974
 9306SOL     OW28816   6.683   6.239   4.107
 9306SOL    HW128817   6.592   6.222   4.145
 9306SOL    HW228818   6.701   6.337   4.104
 9307SOL     OW28819   2.204   4.060   1.031
 9307SOL    HW128820   2.114   4.099   1.012
 9307SOL    HW228821   2.247   4.109   1.106
 9308SOL     OW28822   2.306   3.607   1.212
 9308SOL    HW128823   2.329   3.683   1.273
 9308SOL    HW228824   2.213   3.577   1.230
 9309SOL     OW28825   3.851   5.011   5.558
 9309SOL    HW128826   3.833   5.076   5.632
 9309SOL    HW228827   3.767   4.961   5.537
 9310SOL     OW28828   6.917   6.752   5.914
 9310SOL    HW128829   6.865   6.693   5.851
 9310SOL    HW228830   7.007   6.712   5.930
 9311SOL     OW28831   5.628   4.601   0.129
 9311SOL    HW128832   5.600   4.538   0.201
 9311SOL    HW228833   5.655   4.548   0.048
 9312SOL     OW28834   5.645   3.275   3.758
 9312SOL    HW128835   5.740   3.258   3.782
 9312SOL    HW228836   5.601   3.189   3.732
 9313SOL     OW28837   0.353   1.015   1.913
 9313SOL    HW128838   0.405   1.100   1.914
 9313SOL    HW228839   0.412   0.940   1.886
 9314SOL     OW28840   4.767   5.006   1.405
 9314SOL    HW128841   4.818   5.071   1.348
 9314SOL    HW228842   4.721   4.939   1.346
 9315SOL     OW28843   5.906   5.594   5.741
 9315SOL    HW128844   5.893   5.595   5.642
 9315SOL    HW228845   5.946   5.681   5.771
 9316SOL     OW28846   5.226   5.908   0.534
 9316SOL    HW128847   5.325   5.912   0.516
 9316SOL    HW228848   5.192   6.001   0.548
 9317SOL     OW28849   3.050   6.587   3.328
 9317SOL    HW128850   3.068   6.660   3.261
 9317SOL    HW228851   3.031   6.628   3.417
 9318SOL     OW28852   3.188   0.190   3.370
 9318SOL    HW128853   3.157   0.212   3.277
 9318SOL    HW228854   3.204   0.091   3.377
 9319SOL     OW28855   3.774   2.365   0.480
 9319SOL    HW128856   3.706   2.302   0.516
 9319SOL    HW228857   3.737   2.458   0.478
 9320SOL     OW28858   6.542   0.130   6.895
 9320SOL    HW128859   6.558   0.102   6.989
 9320SOL    HW228860   6.473   0.202   6.892
 9321SOL     OW28861   0.854   1.915   4.489
 9321SOL    HW128862   0.890   1.941   4.400
 9321SOL    HW228863   0.796   1.989   4.524
 9322SOL     OW28864   5.352   3.019   0.379
 9322SOL    HW128865   5.433   3.043   0.432
 9322SOL    HW228866   5.359   2.924   0.347
 9323SOL     OW28867   0.687   2.411   4.946
 9323SOL    HW128868   0.681   2.453   4.855
 9323SOL    HW228869   0.696   2.312   4.936
 9324SOL     OW28870   0.354   4.118   1.255
 9324SOL    HW128871   0.380   4.187   1.321
 9324SOL    HW228872   0.264   4.080   1.279
 9325SOL     OW28873   0.902   4.269   3.176
 9325SOL    HW128874   0.890   4.199   3.106
 9325SOL    HW228875   0.962   4.234   3.248
 9326SOL     OW28876   4.578   4.810   1.277
 9326SOL    HW128877   4.604   4.726   1.230
 9326SOL    HW228878   4.479   4.825   1.264
 9327SOL     OW28879   2.121   1.314   3.315
 9327SOL    HW128880   2.172   1.320   3.400
 9327SOL    HW228881   2.040   1.373   3.321
 9328SOL     OW28882   1.338   6.945   3.283
 9328SOL    HW128883   1.396   0.003   3.239
 9328SOL    HW228884   1.299   6.885   3.213
 9329SOL     OW28885   1.709   5.000   5.985
 9329SOL    HW128886   1.736   4.977   5.891
 9329SOL    HW228887   1.623   5.051   5.983
 9330SOL     OW28888   0.792   6.650   0.801
 9330SOL    HW128889   0.704   6.620   0.838
 9330SOL    HW228890   0.782   6.668   0.703
 9331SOL     OW28891   1.842   5.011   4.999
 9331SOL    HW128892   1.748   5.041   5.010
 9331SOL    HW228893   1.856   4.926   5.049
 9332SOL     OW28894   5.994   5.343   0.654
 9332SOL    HW128895   6.075   5.284   0.654
 9332SOL    HW228896   5.963   5.357   0.747
 9333SOL     OW28897   1.826   5.064   0.586
 9333SOL    HW128898   1.862   5.017   0.505
 9333SOL    HW228899   1.763   5.003   0.635
 9334SOL     OW28900   6.903   5.365   0.239
 9334SOL    HW128901   6.849   5.291   0.278
 9334SOL    HW228902   6.903   5.443   0.302
 9335SOL     OW28903   6.999   3.836   1.052
 9335SOL    HW128904   6.952   3.752   1.080
 9335SOL    HW228905   0.080   3.813   1.021
 9336SOL     OW28906   4.167   5.483   5.408
 9336SOL    HW128907   4.216   5.514   5.490
 9336SOL    HW228908   4.149   5.385   5.414
 9337SOL     OW28909   3.490   1.730   4.321
 9337SOL    HW128910   3.507   1.643   4.367
 9337SOL    HW228911   3.399   1.729   4.280
 9338SOL     OW28912   4.740   6.722   1.303
 9338SOL    HW128913   4.668   6.706   1.371
 9338SOL    HW228914   4.714   6.799   1.244
 9339SOL     OW28915   6.801   3.687   5.173
 9339SOL    HW128916   6.786   3.725   5.081
 9339SOL    HW228917   6.842   3.597   5.166
 9340SOL     OW28918   2.055   4.847   2.386
 9340SOL    HW128919   2.129   4.787   2.417
 9340SOL    HW228920   1.970   4.796   2.380
 9341SOL     OW28921   6.221   5.643   0.749
 9341SOL    HW128922   6.308   5.670   0.709
 9341SOL    HW228923   6.224   5.546   0.774
 9342SOL     OW28924   2.561   0.369   4.835
 9342SOL    HW128925   2.613   0.312   4.898
 9342SOL    HW228926   2.496   0.425   4.887
 9343SOL     OW28927   5.479   3.694   1.614
 9343SOL    HW128928   5.430   3.756   1.675
 9343SOL    HW228929   5.520   3.620   1.667
 9344SOL     OW28930   5.696   6.727   4.832
 9344SOL    HW128931   5.674   6.813   4.878
 9344SOL    HW228932   5.614   6.690   4.789
 9345SOL     OW28933   6.737   4.447   6.403
 9345SOL    HW128934   6.711   4.371   6.343
 9345SOL    HW228935   6.739   4.532   6.350
 9346SOL     OW28936   5.329   0.568   1.735
 9346SOL    HW128937   5.290   0.578   1.826
 9346SOL    HW228938   5.427   0.550   1.742
 9347SOL     OW28939   4.735   6.916   2.090
 9347SOL    HW128940   4.689   6.967   2.163
 9347SOL    HW228941   4.776   6.981   2.026
 9348SOL     OW28942   2.088   5.425   1.750
 9348SOL    HW128943   2.009   5.480   1.778
 9348SOL    HW228944   2.101   5.433   1.651
 9349SOL     OW28945   6.564   5.335   1.551
 9349SOL    HW128946   6.629   5.328   1.475
 9349SOL    HW228947   6.577   5.423   1.597
 9350SOL     OW28948   6.373   0.709   6.792
 9350SOL    HW128949   6.316   0.730   6.871
 9350SOL    HW228950   6.462   0.676   6.824
 9351SOL     OW28951   4.727   4.009   6.314
 9351SOL    HW128952   4.647   3.975   6.266
 9351SOL    HW228953   4.721   4.108   6.323
 9352SOL     OW28954   2.504   1.924   0.069
 9352SOL    HW128955   2.520   2.023   0.075
 9352SOL    HW228956   2.445   1.904   7.001
 9353SOL     OW28957   1.058   2.973   2.046
 9353SOL    HW128958   0.959   2.985   2.052
 9353SOL    HW228959   1.083   2.937   1.956
 9354SOL     OW28960   5.626   2.236   2.499
 9354SOL    HW128961   5.528   2.226   2.479
 9354SOL    HW228962   5.677   2.236   2.413
 9355SOL     OW28963   6.887   1.508   2.353
 9355SOL    HW128964   6.921   1.597   2.385
 9355SOL    HW228965   6.937   1.434   2.398
 9356SOL     OW28966   4.521   2.565   2.247
 9356SOL    HW128967   4.542   2.543   2.152
 9356SOL    HW228968   4.435   2.616   2.252
 9357SOL     OW28969   2.577   4.758   6.197
 9357SOL    HW128970   2.664   4.748   6.246
 9357SOL    HW228971   2.560   4.676   6.143
 9358SOL     OW28972   5.237   4.166   2.422
 9358SOL    HW128973   5.299   4.107   2.370
 9358SOL    HW228974   5.142   4.144   2.398
 9359SOL     OW28975   4.753   5.438   6.019
 9359SOL    HW128976   4.722   5.479   6.106
 9359SOL    HW228977   4.706   5.351   6.005
 9360SOL     OW28978   1.334   1.050   5.295
 9360SOL    HW128979   1.420   1.045   5.245
 9360SOL    HW228980   1.299   0.958   5.310
 9361SOL     OW28981   1.844   1.287   2.352
 9361SOL    HW128982   1.802   1.331   2.273
 9361SOL    HW228983   1.939   1.317   2.360
 9362SOL     OW28984   1.410   1.485   2.828
 9362SOL    HW128985   1.390   1.582   2.823
 9362SOL    HW228986   1.432   1.451   2.736
 9363SOL     OW28987   1.327   6.225   1.964
 9363SOL    HW128988   1.349   6.268   2.052
 9363SOL    HW228989   1.376   6.272   1.891
 9364SOL     OW28990   5.436   4.114   1.231
 9364SOL    HW128991   5.418   4.167   1.313
 9364SOL    HW228992   5.534   4.100   1.221
 9365SOL     OW28993   1.836   1.519   3.684
 9365SOL    HW128994   1.894   1.439   3.698
 9365SOL    HW228995   1.890   1.591   3.640
 9366SOL     OW28996   2.665   1.630   1.605
 9366SOL    HW128997   2.590   1.697   1.613
 9366SOL    HW228998   2.704   1.634   1.513
 9367SOL     OW28999   5.566   6.597   3.734
 9367SOL    HW129000   5.646   6.587   3.674
 9367SOL    HW229001   5.508   6.670   3.699
 9368SOL     OW29002   5.258   3.214   0.650
 9368SOL    HW129003   5.334   3.185   0.592
 9368SOL    HW229004   5.263   3.167   0.738
 9369SOL     OW29005   6.988   1.585   5.229
 9369SOL    HW129006   0.074   1.589   5.205
 9369SOL    HW229007   6.976   1.524   5.308
 9370SOL     OW29008   5.649   5.508   2.620
 9370SOL    HW129009   5.601   5.427   2.655
 9370SOL    HW229010   5.612   5.590   2.663
 9371SOL     OW29011   1.740   6.837   0.430
 9371SOL    HW129012   1.737   6.911   0.496
 9371SOL    HW229013   1.675   6.766   0.456
 9372SOL     OW29014   5.648   5.705   0.167
 9372SOL    HW129015   5.694   5.695   0.255
 9372SOL    HW229016   5.695   5.651   0.097
 9373SOL     OW29017   5.289   2.979   4.117
 9373SOL    HW129018   5.214   2.918   4.093
 9373SOL    HW229019   5.280   3.006   4.213
 9374SOL     OW29020   5.285   4.246   6.817
 9374SOL    HW129021   5.281   4.167   6.757
 9374SOL    HW229022   5.241   4.224   6.905
 9375SOL     OW29023   6.363   0.231   4.317
 9375SOL    HW129024   6.336   0.251   4.411
 9375SOL    HW229025   6.302   0.280   4.254
 9376SOL     OW29026   2.595   3.224   1.695
 9376SOL    HW129027   2.683   3.218   1.741
 9376SOL    HW229028   2.548   3.307   1.725
 9377SOL     OW29029   6.231   4.761   3.639
 9377SOL    HW129030   6.207   4.676   3.686
 9377SOL    HW229031   6.326   4.785   3.660
 9378SOL     OW29032   3.980   6.255   1.013
 9378SOL    HW129033   3.909   6.275   0.946
 9378SOL    HW229034   3.953   6.291   1.103
 9379SOL     OW29035   4.927   5.373   5.595
 9379SOL    HW129036   4.886   5.281   5.594
 9379SOL    HW229037   4.979   5.387   5.511
 9380SOL     OW29038   6.288   5.671   5.631
 9380SOL    HW129039   6.240   5.662   5.544
 9380SOL    HW229040   6.226   5.712   5.698
 9381SOL     OW29041   0.915   0.706   6.867
 9381SOL    HW129042   0.985   0.654   6.916
 9381SOL    HW229043   0.878   0.777   6.927
 9382SOL     OW29044   5.375   1.570   3.171
 9382SOL    HW129045   5.293   1.561   3.114
 9382SOL    HW229046   5.456   1.565   3.113
 9383SOL     OW29047   6.514   4.893   6.453
 9383SOL    HW129048   6.582   4.964   6.433
 9383SOL    HW229049   6.425   4.937   6.472
 9384SOL     OW29050   3.943   6.726   2.788
 9384SOL    HW129051   3.854   6.773   2.784
 9384SOL    HW229052   3.928   6.627   2.792
 9385SOL     OW29053   3.752   0.304   3.815
 9385SOL    HW129054   3.691   0.247   3.870
 9385SOL    HW229055   3.722   0.302   3.719
 9386SOL     OW29056   3.977   0.176   5.413
 9386SOL    HW129057   3.962   0.128   5.500
 9386SOL    HW229058   4.056   0.237   5.423
 9387SOL     OW29059   4.867   5.416   0.564
 9387SOL    HW129060   4.854   5.394   0.467
 9387SOL    HW229061   4.932   5.351   0.604
 9388SOL     OW29062   6.615   0.399   1.753
 9388SOL    HW129063   6.698   0.367   1.707
 9388SOL    HW229064   6.535   0.360   1.708
 9389SOL     OW29065   2.967   1.159   0.815
 9389SOL    HW129066   2.901   1.084   0.812
 9389SOL    HW229067   2.959   1.213   0.732
 9390SOL     OW29068   3.696   5.102   1.078
 9390SOL    HW129069   3.762   5.162   1.124
 9390SOL    HW229070   3.634   5.063   1.146
 9391SOL     OW29071   6.254   0.979   3.715
 9391SOL    HW129072   6.200   0.984   3.631
 9391SOL    HW229073   6.307   0.894   3.717
 9392SOL     OW29074   0.765   6.535   4.575
 9392SOL    HW129075   0.776   6.532   4.674
 9392SOL    HW229076   0.825   6.467   4.532
 9393SOL     OW29077   4.216   1.509   5.519
 9393SOL    HW129078   4.246   1.591   5.469
 9393SOL    HW229079   4.156   1.537   5.594
 9394SOL     OW29080   5.743   1.907   2.116
 9394SOL    HW129081   5.803   1.976   2.076
 9394SOL    HW229082   5.778   1.816   2.094
 9395SOL     OW29083   1.898   2.879   6.380
 9395SOL    HW129084   1.945   2.839   6.459
 9395SOL    HW229085   1.833   2.813   6.343
 9396SOL     OW29086   0.074   1.030   6.198
 9396SOL    HW129087   0.163   1.072   6.209
 9396SOL    HW229088   0.083   0.930   6.202
 9397SOL     OW29089   1.916   2.015   0.314
 9397SOL    HW129090   1.870   1.969   0.390
 9397SOL    HW229091   1.996   2.064   0.348
 9398SOL     OW29092   2.297   1.658   1.740
 9398SOL    HW129093   2.299   1.630   1.644
 9398SOL    HW229094   2.204   1.646   1.775
 9399SOL     OW29095   0.270   0.346   5.980
 9399SOL    HW129096   0.239   0.349   6.075
 9399SOL    HW229097   0.344   0.279   5.971
 9400SOL     OW29098   3.682   1.798   3.703
 9400SOL    HW129099   3.753   1.730   3.718
 9400SOL    HW229100   3.696   1.875   3.766
 9401SOL     OW29101   4.609   6.682   4.107
 9401SOL    HW129102   4.665   6.732   4.042
 9401SOL    HW229103   4.609   6.730   4.195
 9402SOL     OW29104   2.978   4.987   6.477
 9402SOL    HW129105   3.075   5.007   6.462
 9402SOL    HW229106   2.922   5.051   6.424
 9403SOL     OW29107   5.799   0.086   4.170
 9403SOL    HW129108   5.789   6.998   4.166
 9403SOL    HW229109   5.742   0.129   4.100
 9404SOL     OW29110   1.301   3.746   5.848
 9404SOL    HW129111   1.352   3.788   5.773
 9404SOL    HW229112   1.356   3.750   5.931
 9405SOL     OW29113   0.512   0.524   1.389
 9405SOL    HW129114   0.470   0.499   1.302
 9405SOL    HW229115   0.528   0.442   1.443
 9406SOL     OW29116   6.749   1.069   5.197
 9406SOL    HW129117   6.767   0.985   5.145
 9406SOL    HW229118   6.655   1.098   5.181
 9407SOL     OW29119   3.936   5.534   2.852
 9407SOL    HW129120   3.894   5.585   2.928
 9407SOL    HW229121   3.883   5.451   2.834
 9408SOL     OW29122   3.974   1.782   6.843
 9408SOL    HW129123   3.986   1.857   6.778
 9408SOL    HW229124   4.063   1.745   6.869
 9409SOL     OW29125   6.213   3.587   3.319
 9409SOL    HW129126   6.150   3.659   3.290
 9409SOL    HW229127   6.247   3.538   3.239
 9410SOL     OW29128   4.414   6.668   1.556
 9410SOL    HW129129   4.326   6.622   1.546
 9410SOL    HW229130   4.424   6.700   1.650
 9411SOL     OW29131   4.833   5.463   2.157
 9411SOL    HW129132   4.836   5.547   2.103
 9411SOL    HW229133   4.904   5.401   2.125
 9412SOL     OW29134   6.153   2.749   3.112
 9412SOL    HW129135   6.247   2.771   3.137
 9412SOL    HW229136   6.138   2.769   3.015
 9413SOL     OW29137   4.021   5.302   3.499
 9413SOL    HW129138   3.981   5.244   3.429
 9413SOL    HW229139   3.953   5.323   3.568
 9414SOL     OW29140   2.213   0.223   2.294
 9414SOL    HW129141   2.294   0.164   2.285
 9414SOL    HW229142   2.240   0.309   2.336
 9415SOL     OW29143   1.697   1.020   2.296
 9415SOL    HW129144   1.759   0.955   2.340
 9415SOL    HW229145   1.734   1.113   2.306
 9416SOL     OW29146   1.571   2.362   1.478
 9416SOL    HW129147   1.588   2.278   1.529
 9416SOL    HW229148   1.522   2.427   1.536
 9417SOL     OW29149   1.441   0.323   4.860
 9417SOL    HW129150   1.402   0.353   4.947
 9417SOL    HW229151   1.373   0.335   4.787
 9418SOL     OW29152   4.404   3.915   1.150
 9418SOL    HW129153   4.462   3.870   1.218
 9418SOL    HW229154   4.353   3.988   1.193
 9419SOL     OW29155   2.938   5.173   3.688
 9419SOL    HW129156   2.929   5.085   3.733
 9419SOL    HW229157   2.853   5.196   3.641
 9420SOL     OW29158   1.979   0.453   3.824
 9420SOL    HW129159   1.907   0.511   3.786
 9420SOL    HW229160   2.008   0.489   3.913
 9421SOL     OW29161   1.960   5.212   4.846
 9421SOL    HW129162   1.917   5.158   4.919
 9421SOL    HW229163   2.059   5.200   4.851
 9422SOL     OW29164   4.481   1.191   3.020
 9422SOL    HW129165   4.418   1.222   2.949
 9422SOL    HW229166   4.465   1.094   3.038
 9423SOL     OW29167   4.428   0.321   4.567
 9423SOL    HW129168   4.504   0.363   4.517
 9423SOL    HW229169   4.427   0.356   4.661
 9424SOL     OW29170   3.782   6.029   3.624
 9424SOL    HW129171   3.721   5.954   3.648
 9424SOL    HW229172   3.826   6.065   3.706
 9425SOL     OW29173   0.782   5.128   3.071
 9425SOL    HW129174   0.743   5.172   2.990
 9425SOL    HW229175   0.856   5.184   3.107
 9426SOL     OW29176   3.819   5.477   0.868
 9426SOL    HW129177   3.890   5.490   0.937
 9426SOL    HW229178   3.844   5.401   0.808
 9427SOL     OW29179   3.034   4.942   4.208
 9427SOL    HW129180   3.133   4.948   4.194
 9427SOL    HW229181   3.004   5.017   4.268
 9428SOL     OW29182   4.801   6.389   2.688
 9428SOL    HW129183   4.724   6.331   2.712
 9428SOL    HW229184   4.775   6.450   2.613
 9429SOL     OW29185   0.685   3.698   2.740
 9429SOL    HW129186   0.765   3.638   2.740
 9429SOL    HW229187   0.615   3.660   2.679
 9430SOL     OW29188   6.297   6.804   1.502
 9430SOL    HW129189   6.287   6.777   1.598
 9430SOL    HW229190   6.239   6.747   1.445
 9431SOL     OW29191   6.493   4.404   6.856
 9431SOL    HW129192   6.525   4.411   6.950
 9431SOL    HW229193   6.404   4.449   6.848
 9432SOL     OW29194   6.563   6.703   4.225
 9432SOL    HW129195   6.517   6.647   4.294
 9432SOL    HW229196   6.498   6.770   4.188
 9433SOL     OW29197   2.703   5.671   4.066
 9433SOL    HW129198   2.782   5.636   4.116
 9433SOL    HW229199   2.622   5.619   4.091
 9434SOL     OW29200   5.888   4.234   3.661
 9434SOL    HW129201   5.819   4.303   3.680
 9434SOL    HW229202   5.957   4.272   3.599
 9435SOL     OW29203   2.447   2.396   5.216
 9435SOL    HW129204   2.468   2.476   5.159
 9435SOL    HW229205   2.530   2.368   5.264
 9436SOL     OW29206   3.309   1.793   5.461
 9436SOL    HW129207   3.321   1.892   5.455
 9436SOL    HW229208   3.392   1.748   5.430
 9437SOL     OW29209   0.168   5.862   4.570
 9437SOL    HW129210   0.206   5.801   4.639
 9437SOL    HW229211   0.070   5.872   4.585
 9438SOL     OW29212   0.595   6.413   1.963
 9438SOL    HW129213   0.612   6.385   1.868
 9438SOL    HW229214   0.680   6.449   2.003
 9439SOL     OW29215   1.517   3.656   0.950
 9439SOL    HW129216   1.569   3.686   0.871
 9439SOL    HW229217   1.578   3.643   1.028
 9440SOL     OW29218   3.501   5.247   4.269
 9440SOL    HW129219   3.488   5.240   4.368
 9440SOL    HW229220   3.549   5.333   4.248
 9441SOL     OW29221   1.886   5.589   5.355
 9441SOL    HW129222   1.963   5.544   5.308
 9441SOL    HW229223   1.830   5.521   5.401
 9442SOL     OW29224   0.840   3.574   1.117
 9442SOL    HW129225   0.786   3.555   1.199
 9442SOL    HW229226   0.934   3.596   1.143
 9443SOL     OW29227   1.100   2.632   1.321
 9443SOL    HW129228   1.195   2.602   1.319
 9443SOL    HW229229   1.085   2.689   1.402
 9444SOL     OW29230   1.209   4.044   5.796
 9444SOL    HW129231   1.289   3.990   5.825
 9444SOL    HW229232   1.133   4.027   5.858
 9445SOL     OW29233   6.142   2.517   1.827
 9445SOL    HW129234   6.105   2.428   1.801
 9445SOL    HW229235   6.069   2.574   1.865
 9446SOL     OW29236   6.044   3.817   6.846
 9446SOL    HW129237   6.098   3.872   6.909
 9446SOL    HW229238   5.962   3.784   6.893
 9447SOL     OW29239   5.702   1.306   1.886
 9447SOL    HW129240   5.676   1.283   1.792
 9447SOL    HW229241   5.621   1.339   1.935
 9448SOL     OW29242   6.420   6.075   0.424
 9448SOL    HW129243   6.504   6.079   0.371
 9448SOL    HW229244   6.364   5.998   0.391
 9449SOL     OW29245   5.895   5.413   5.267
 9449SOL    HW129246   5.924   5.327   5.309
 9449SOL    HW229247   5.901   5.405   5.168
 9450SOL     OW29248   2.201   6.037   4.150
 9450SOL    HW129249   2.215   6.070   4.056
 9450SOL    HW229250   2.143   5.956   4.149
 9451SOL     OW29251   3.896   3.532   5.264
 9451SOL    HW129252   3.846   3.570   5.187
 9451SOL    HW229253   3.855   3.445   5.292
 9452SOL     OW29254   3.104   3.807   0.867
 9452SOL    HW129255   3.119   3.818   0.965
 9452SOL    HW229256   3.087   3.896   0.825
 9453SOL     OW29257   3.201   5.723   1.219
 9453SOL    HW129258   3.291   5.728   1.264
 9453SOL    HW229259   3.137   5.675   1.279
 9454SOL     OW29260   2.231   2.548   5.829
 9454SOL    HW129261   2.202   2.551   5.924
 9454SOL    HW229262   2.308   2.484   5.819
 9455SOL     OW29263   2.013   2.103   3.054
 9455SOL    HW129264   2.033   2.055   3.139
 9455SOL    HW229265   1.975   2.039   2.987
 9456SOL     OW29266   1.215   3.236   0.599
 9456SOL    HW129267   1.234   3.169   0.527
 9456SOL    HW229268   1.126   3.278   0.584
 9457SOL     OW29269   6.551   3.727   0.069
 9457SOL    HW129270   6.621   3.796   0.088
 9457SOL    HW229271   6.574   3.642   0.116
 9458SOL     OW29272   1.165   6.131   4.269
 9458SOL    HW129273   1.159   6.069   4.347
 9458SOL    HW229274   1.072   6.161   4.244
 9459SOL     OW29275   4.842   5.862   1.164
 9459SOL    HW129276   4.849   5.840   1.067
 9459SOL    HW229277   4.751   5.898   1.184
 9460SOL     OW29278   1.006   3.760   5.886
 9460SOL    HW129279   1.106   3.754   5.882
 9460SOL    HW229280   0.972   3.704   5.961
 9461SOL     OW29281   1.709   0.593   2.914
 9461SOL    HW129282   1.747   0.516   2.964
 9461SOL    HW229283   1.637   0.636   2.969
 9462SOL     OW29284   0.407   2.992   3.169
 9462SOL    HW129285   0.451   3.065   3.116
 9462SOL    HW229286   0.342   3.033   3.233
 9463SOL     OW29287   5.684   2.137   6.729
 9463SOL    HW129288   5.651   2.193   6.653
 9463SOL    HW229289   5.717   2.196   6.802
 9464SOL     OW29290   4.237   6.523   5.831
 9464SOL    HW129291   4.139   6.505   5.822
 9464SOL    HW229292   4.284   6.498   5.746
 9465SOL     OW29293   5.307   6.462   4.209
 9465SOL    HW129294   5.211   6.438   4.219
 9465SOL    HW229295   5.345   6.482   4.300
 9466SOL     OW29296   3.515   1.583   0.137
 9466SOL    HW129297   3.463   1.534   0.068
 9466SOL    HW229298   3.482   1.559   0.228
 9467SOL     OW29299   1.775   3.154   2.464
 9467SOL    HW129300   1.785   3.173   2.367
 9467SOL    HW229301   1.685   3.112   2.480
 9468SOL     OW29302   0.832   2.141   5.752
 9468SOL    HW129303   0.859   2.072   5.685
 9468SOL    HW229304   0.733   2.136   5.767
 9469SOL     OW29305   6.622   4.180   2.533
 9469SOL    HW129306   6.660   4.228   2.453
 9469SOL    HW229307   6.623   4.241   2.612
 9470SOL     OW29308   6.935   3.483   0.872
 9470SOL    HW129309   6.912   3.467   0.776
 9470SOL    HW229310   0.021   3.463   0.888
 9471SOL     OW29311   0.474   2.364   6.039
 9471SOL    HW129312   0.512   2.451   6.009
 9471SOL    HW229313   0.374   2.370   6.040
 9472SOL     OW29314   6.525   2.217   5.243
 9472SOL    HW129315   6.546   2.222   5.145
 9472SOL    HW229316   6.593   2.158   5.288
 9473SOL     OW29317   3.348   5.476   5.011
 9473SOL    HW129318   3.310   5.568   5.009
 9473SOL    HW229319   3.349   5.443   5.106
 9474SOL     OW29320   3.477   5.501   3.411
 9474SOL    HW129321   3.555   5.542   3.364
 9474SOL    HW229322   3.478   5.528   3.507
 9475SOL     OW29323   2.114   3.172   1.571
 9475SOL    HW129324   2.135   3.096   1.510
 9475SOL    HW229325   2.169   3.251   1.547
 9476SOL     OW29326   2.306   3.597   5.473
 9476SOL    HW129327   2.281   3.679   5.423
 9476SOL    HW229328   2.391   3.560   5.435
 9477SOL     OW29329   0.714   2.281   0.344
 9477SOL    HW129330   0.627   2.239   0.317
 9477SOL    HW229331   0.730   2.263   0.441
 9478SOL     OW29332   5.466   4.185   5.774
 9478SOL    HW129333   5.381   4.183   5.829
 9478SOL    HW229334   5.538   4.136   5.824
 9479SOL     OW29335   5.622   5.378   5.103
 9479SOL    HW129336   5.675   5.303   5.063
 9479SOL    HW229337   5.598   5.355   5.197
 9480SOL     OW29338   6.629   3.727   6.244
 9480SOL    HW129339   6.572   3.784   6.303
 9480SOL    HW229340   6.574   3.692   6.168
 9481SOL     OW29341   6.965   3.094   2.709
 9481SOL    HW129342   6.917   3.029   2.769
 9481SOL    HW229343   6.900   3.160   2.672
 9482SOL     OW29344   4.498   0.183   2.281
 9482SOL    HW129345   4.404   0.152   2.299
 9482SOL    HW229346   4.543   0.203   2.368
 9483SOL     OW29347   1.206   1.418   0.888
 9483SOL    HW129348   1.167   1.467   0.809
 9483SOL    HW229349   1.216   1.482   0.965
 9484SOL     OW29350   6.184   0.333   3.217
 9484SOL    HW129351   6.175   0.410   3.154
 9484SOL    HW229352   6.245   0.357   3.292
 9485SOL     OW29353   0.742   6.771   2.011
 9485SOL    HW129354   0.717   6.868   2.017
 9485SOL    HW229355   0.728   6.738   1.918
 9486SOL     OW29356   2.432   6.707   2.131
 9486SOL    HW129357   2.392   6.783   2.182
 9486SOL    HW229358   2.497   6.659   2.189
 9487SOL     OW29359   3.542   3.362   3.870
 9487SOL    HW129360   3.615   3.360   3.938
 9487SOL    HW229361   3.456   3.384   3.915
 9488SOL     OW29362   1.523   1.126   1.486
 9488SOL    HW129363   1.511   1.081   1.575
 9488SOL    HW229364   1.614   1.167   1.483
 9489SOL     OW29365   2.817   4.226   0.358
 9489SOL    HW129366   2.851   4.170   0.434
 9489SOL    HW229367   2.847   4.186   0.271
 9490SOL     OW29368   5.082   1.393   6.816
 9490SOL    HW129369   5.019   1.468   6.797
 9490SOL    HW229370   5.033   1.306   6.808
 9491SOL     OW29371   6.496   5.562   6.071
 9491SOL    HW129372   6.462   5.531   5.982
 9491SOL    HW229373   6.579   5.615   6.059
 9492SOL     OW29374   2.251   4.829   1.650
 9492SOL    HW129375   2.224   4.899   1.584
 9492SOL    HW229376   2.262   4.741   1.602
 9493SOL     OW29377   5.370   6.743   2.634
 9493SOL    HW129378   5.348   6.826   2.685
 9493SOL    HW229379   5.330   6.664   2.680
 9494SOL     OW29380   3.496   3.456   6.636
 9494SOL    HW129381   3.432   3.532   6.649
 9494SOL    HW229382   3.453   3.385   6.580
 9495SOL     OW29383   5.420   2.259   4.287
 9495SOL    HW129384   5.389   2.286   4.196
 9495SOL    HW229385   5.366   2.181   4.319
 9496SOL     OW29386   6.197   4.097   0.583
 9496SOL    HW129387   6.247   4.022   0.538
 9496SOL    HW229388   6.255   4.140   0.651
 9497SOL     OW29389   0.946   6.014   5.907
 9497SOL    HW129390   0.989   5.925   5.920
 9497SOL    HW229391   0.848   6.003   5.890
 9498SOL     OW29392   3.735   6.958   6.959
 9498SOL    HW129393   3.786   6.882   6.998
 9498SOL    HW229394   3.789   0.031   6.965
 9499SOL     OW29395   4.368   3.870   5.806
 9499SOL    HW129396   4.344   3.961   5.774
 9499SOL    HW229397   4.291   3.832   5.858
 9500SOL     OW29398   4.931   5.378   1.456
 9500SOL    HW129399   4.914   5.454   1.519
 9500SOL    HW229400   4.947   5.294   1.509
 9501SOL     OW29401   3.313   2.078   4.835
 9501SOL    HW129402   3.274   1.988   4.854
 9501SOL    HW229403   3.266   2.147   4.890
 9502SOL     OW29404   3.638   3.213   5.774
 9502SOL    HW129405   3.561   3.160   5.807
 9502SOL    HW229406   3.659   3.187   5.679
 9503SOL     OW29407   1.114   6.541   1.660
 9503SOL    HW129408   1.126   6.483   1.741
 9503SOL    HW229409   1.202   6.576   1.630
 9504SOL     OW29410   0.631   3.132   0.288
 9504SOL    HW129411   0.543   3.092   0.314
 9504SOL    HW229412   0.660   3.197   0.359
 9505SOL     OW29413   5.091   3.062   2.914
 9505SOL    HW129414   4.998   3.076   2.879
 9505SOL    HW229415   5.140   3.149   2.915
 9506SOL     OW29416   6.717   2.031   1.116
 9506SOL    HW129417   6.732   1.943   1.072
 9506SOL    HW229418   6.733   2.023   1.214
 9507SOL     OW29419   1.520   2.629   4.957
 9507SOL    HW129420   1.457   2.576   5.015
 9507SOL    HW229421   1.608   2.636   5.003
 9508SOL     OW29422   4.782   1.374   6.125
 9508SOL    HW129423   4.874   1.401   6.154
 9508SOL    HW229424   4.719   1.383   6.202
 9509SOL     OW29425   3.367   0.249   6.182
 9509SOL    HW129426   3.344   0.189   6.105
 9509SOL    HW229427   3.441   0.311   6.156
 9510SOL     OW29428   6.251   4.209   2.986
 9510SOL    HW129429   6.167   4.181   3.034
 9510SOL    HW229430   6.226   4.252   2.899
 9511SOL     OW29431   2.344   1.160   1.298
 9511SOL    HW129432   2.362   1.091   1.228
 9511SOL    HW229433   2.409   1.236   1.287
 9512SOL     OW29434   1.321   3.479   5.536
 9512SOL    HW129435   1.241   3.520   5.492
 9512SOL    HW229436   1.309   3.479   5.635
 9513SOL     OW29437   2.359   4.380   4.504
 9513SOL    HW129438   2.359   4.372   4.405
 9513SOL    HW229439   2.300   4.310   4.544
 9514SOL     OW29440   2.977   2.843   6.138
 9514SOL    HW129441   3.006   2.753   6.171
 9514SOL    HW229442   2.927   2.831   6.052
 9515SOL     OW29443   2.165   5.346   6.122
 9515SOL    HW129444   2.114   5.424   6.156
 9515SOL    HW229445   2.106   5.265   6.121
 9516SOL     OW29446   5.704   4.342   5.083
 9516SOL    HW129447   5.673   4.314   5.174
 9516SOL    HW229448   5.735   4.262   5.032
 9517SOL     OW29449   0.848   5.447   2.602
 9517SOL    HW129450   0.898   5.525   2.639
 9517SOL    HW229451   0.752   5.473   2.587
 9518SOL     OW29452   0.534   3.070   5.611
 9518SOL    HW129453   0.591   3.085   5.530
 9518SOL    HW229454   0.573   2.996   5.665
 9519SOL     OW29455   3.019   3.178   3.051
 9519SOL    HW129456   2.964   3.164   2.968
 9519SOL    HW229457   3.112   3.145   3.035
 9520SOL     OW29458   5.483   0.827   0.030
 9520SOL    HW129459   5.453   0.919   0.006
 9520SOL    HW229460   5.415   0.760   7.009
 9521SOL     OW29461   3.741   1.127   1.376
 9521SOL    HW129462   3.806   1.071   1.323
 9521SOL    HW229463   3.791   1.179   1.445
 9522SOL     OW29464   3.566   6.158   1.170
 9522SOL    HW129465   3.516   6.191   1.089
 9522SOL    HW229466   3.605   6.236   1.219
 9523SOL     OW29467   2.127   5.062   4.472
 9523SOL    HW129468   2.100   5.016   4.556
 9523SOL    HW229469   2.223   5.088   4.478
 9524SOL     OW29470   2.024   4.240   0.236
 9524SOL    HW129471   2.045   4.296   0.317
 9524SOL    HW229472   2.107   4.231   0.180
 9525SOL     OW29473   2.386   3.448   6.309
 9525SOL    HW129474   2.351   3.397   6.230
 9525SOL    HW229475   2.435   3.529   6.277
 9526SOL     OW29476   5.443   5.530   6.482
 9526SOL    HW129477   5.481   5.443   6.450
 9526SOL    HW229478   5.413   5.584   6.403
 9527SOL     OW29479   3.833   6.875   4.736
 9527SOL    HW129480   3.926   6.882   4.773
 9527SOL    HW229481   3.834   6.906   4.640
 9528SOL     OW29482   4.956   2.445   0.874
 9528SOL    HW129483   4.936   2.349   0.896
 9528SOL    HW229484   5.046   2.450   0.831
 9529SOL     OW29485   5.627   1.214   1.620
 9529SOL    HW129486   5.567   1.136   1.633
 9529SOL    HW229487   5.585   1.278   1.555
 9530SOL     OW29488   1.056   5.738   3.767
 9530SOL    HW129489   1.088   5.795   3.692
 9530SOL    HW229490   0.983   5.786   3.816
 9531SOL     OW29491   3.213   4.990   2.156
 9531SOL    HW129492   3.172   5.080   2.163
 9531SOL    HW229493   3.227   4.967   2.060
 9532SOL     OW29494   6.771   4.709   3.986
 9532SOL    HW129495   6.806   4.628   4.033
 9532SOL    HW229496   6.820   4.721   3.900
 9533SOL     OW29497   1.467   3.826   3.518
 9533SOL    HW129498   1.551   3.782   3.549
 9533SOL    HW229499   1.441   3.790   3.429
 9534SOL     OW29500   4.422   5.934   4.493
 9534SOL    HW129501   4.480   5.881   4.555
 9534SOL    HW229502   4.479   5.998   4.441
 9535SOL     OW29503   0.093   1.023   4.605
 9535SOL    HW129504   0.133   1.103   4.560
 9535SOL    HW229505   0.134   1.012   4.695
 9536SOL     OW29506   3.423   3.578   5.513
 9536SOL    HW129507   3.385   3.523   5.438
 9536SOL    HW229508   3.522   3.566   5.515
 9537SOL     OW29509   6.934   0.852   3.935
 9537SOL    HW129510   6.852   0.897   3.969
 9537SOL    HW229511   6.942   0.867   3.836
 9538SOL     OW29512   5.451   0.161   4.501
 9538SOL    HW129513   5.458   0.216   4.584
 9538SOL    HW229514   5.484   0.213   4.422
 9539SOL     OW29515   3.774   4.002   2.759
 9539SOL    HW129516   3.823   4.004   2.846
 9539SOL    HW229517   3.838   3.981   2.685
 9540SOL     OW29518   4.339   4.821   3.543
 9540SOL    HW129519   4.413   4.889   3.544
 9540SOL    HW229520   4.259   4.859   3.497
 9541SOL     OW29521   1.594   5.780   5.612
 9541SOL    HW129522   1.494   5.779   5.603
 9541SOL    HW229523   1.633   5.839   5.541
 9542SOL     OW29524   6.298   4.171   3.253
 9542SOL    HW129525   6.348   4.186   3.168
 9542SOL    HW229526   6.210   4.128   3.232
 9543SOL     OW29527   2.550   0.658   5.864
 9543SOL    HW129528   2.499   0.595   5.805
 9543SOL    HW229529   2.518   0.648   5.958
 9544SOL     OW29530   6.249   3.564   4.505
 9544SOL    HW129531   6.180   3.493   4.519
 9544SOL    HW229532   6.285   3.557   4.412
 9545SOL     OW29533   6.462   4.353   2.258
 9545SOL    HW129534   6.464   4.398   2.169
 9545SOL    HW229535   6.370   4.318   2.275
 9546SOL     OW29536   2.793   2.796   1.391
 9546SOL    HW129537   2.764   2.850   1.470
 9546SOL    HW229538   2.887   2.766   1.405
 9547SOL     OW29539   4.520   0.443   3.487
 9547SOL    HW129540   4.504   0.479   3.579
 9547SOL    HW229541   4.617   0.454   3.463
 9548SOL     OW29542   0.835   5.118   6.197
 9548SOL    HW129543   0.793   5.047   6.254
 9548SOL    HW229544   0.828   5.206   6.243
 9549SOL     OW29545   4.043   1.611   1.702
 9549SOL    HW129546   4.105   1.672   1.752
 9549SOL    HW229547   4.015   1.536   1.762
 9550SOL     OW29548   6.050   2.798   1.628
 9550SOL    HW129549   6.003   2.728   1.574
 9550SOL    HW229550   6.068   2.762   1.719
 9551SOL     OW29551   5.799   2.655   6.505
 9551SOL    HW129552   5.806   2.694   6.597
 9551SOL    HW229553   5.874   2.691   6.449
 9552SOL     OW29554   2.851   1.834   0.500
 9552SOL    HW129555   2.759   1.867   0.476
 9552SOL    HW229556   2.862   1.740   0.466
 9553SOL     OW29557   5.849   1.369   0.343
 9553SOL    HW129558   5.830   1.272   0.334
 9553SOL    HW229559   5.785   1.411   0.407
 9554SOL     OW29560   3.014   0.961   4.196
 9554SOL    HW129561   2.957   1.007   4.263
 9554SOL    HW229562   2.958   0.930   4.119
 9555SOL     OW29563   0.489   6.503   3.473
 9555SOL    HW129564   0.498   6.574   3.404
 9555SOL    HW229565   0.395   6.471   3.476
 9556SOL     OW29566   2.344   4.545   6.354
 9556SOL    HW129567   2.250   4.535   6.385
 9556SOL    HW229568   2.347   4.542   6.254
 9557SOL     OW29569   5.838   0.839   1.040
 9557SOL    HW129570   5.907   0.862   1.108
 9557SOL    HW229571   5.840   0.740   1.022
 9558SOL     OW29572   5.008   6.440   6.261
 9558SOL    HW129573   4.946   6.364   6.243
 9558SOL    HW229574   5.035   6.482   6.174
 9559SOL     OW29575   2.195   5.029   6.903
 9559SOL    HW129576   2.152   4.939   6.897
 9559SOL    HW229577   2.263   5.039   6.830
 9560SOL     OW29578   2.651   0.388   2.771
 9560SOL    HW129579   2.635   0.357   2.865
 9560SOL    HW229580   2.630   0.314   2.707
 9561SOL     OW29581   0.314   0.264   6.962
 9561SOL    HW129582   0.319   0.323   6.881
 9561SOL    HW229583   0.345   0.315   0.032
 9562SOL     OW29584   2.255   5.726   3.149
 9562SOL    HW129585   2.333   5.766   3.197
 9562SOL    HW229586   2.278   5.714   3.053
 9563SOL     OW29587   1.266   5.899   6.176
 9563SOL    HW129588   1.245   5.988   6.137
 9563SOL    HW229589   1.312   5.842   6.108
 9564SOL     OW29590   1.625   1.037   0.875
 9564SOL    HW129591   1.551   1.074   0.819
 9564SOL    HW229592   1.711   1.080   0.849
 9565SOL     OW29593   2.540   1.797   4.293
 9565SOL    HW129594   2.441   1.784   4.301
 9565SOL    HW229595   2.587   1.736   4.356
 9566SOL     OW29596   3.020   6.826   0.465
 9566SOL    HW129597   3.014   6.734   0.426
 9566SOL    HW229598   3.112   6.862   0.453
 9567SOL     OW29599   0.099   3.934   1.296
 9567SOL    HW129600   0.086   3.865   1.367
 9567SOL    HW229601   0.060   3.900   1.210
 9568SOL     OW29602   4.523   1.713   6.279
 9568SOL    HW129603   4.603   1.752   6.325
 9568SOL    HW229604   4.553   1.657   6.202
 9569SOL     OW29605   6.033   0.364   1.983
 9569SOL    HW129606   5.961   0.429   1.960
 9569SOL    HW229607   5.995   0.271   1.981
 9570SOL     OW29608   0.418   3.367   1.747
 9570SOL    HW129609   0.440   3.462   1.771
 9570SOL    HW229610   0.466   3.341   1.663
 9571SOL     OW29611   1.562   1.338   0.094
 9571SOL    HW129612   1.515   1.419   0.058
 9571SOL    HW229613   1.497   1.283   0.147
 9572SOL     OW29614   2.318   4.740   4.499
 9572SOL    HW129615   2.260   4.733   4.580
 9572SOL    HW229616   2.395   4.677   4.508
 9573SOL     OW29617   6.039   0.048   4.354
 9573SOL    HW129618   5.960   0.014   4.303
 9573SOL    HW229619   6.119   0.054   4.294
 9574SOL     OW29620   4.419   3.160   0.575
 9574SOL    HW129621   4.498   3.144   0.635
 9574SOL    HW229622   4.389   3.255   0.583
 9575SOL     OW29623   5.621   0.056   1.953
 9575SOL    HW129624   5.545   7.007   1.927
 9575SOL    HW229625   5.634   0.126   1.883
 9576SOL     OW29626   1.138   1.293   6.815
 9576SOL    HW129627   1.227   1.255   6.841
 9576SOL    HW229628   1.128   1.287   6.715
 9577SOL     OW29629   6.179   5.252   3.125
 9577SOL    HW129630   6.142   5.339   3.092
 9577SOL    HW229631   6.193   5.190   3.047
 9578SOL     OW29632   1.603   3.354   2.075
 9578SOL    HW129633   1.548   3.308   2.006
 9578SOL    HW229634   1.580   3.451   2.077
 9579SOL     OW29635   5.964   5.688   2.349
 9579SOL    HW129636   6.057   5.657   2.326
 9579SOL    HW229637   5.957   5.787   2.335
 9580SOL     OW29638   4.808   4.252   3.409
 9580SOL    HW129639   4.711   4.259   3.435
 9580SOL    HW229640   4.837   4.157   3.414
 9581SOL     OW29641   5.371   2.130   6.668
 9581SOL    HW129642   5.420   2.052   6.708
 9581SOL    HW229643   5.327   2.101   6.583
 9582SOL     OW29644   5.231   6.602   4.759
 9582SOL    HW129645   5.314   6.567   4.804
 9582SOL    HW229646   5.155   6.541   4.778
 9583SOL     OW29647   3.619   5.008   1.912
 9583SOL    HW129648   3.599   4.930   1.972
 9583SOL    HW229649   3.683   4.980   1.841
 9584SOL     OW29650   2.381   5.010   4.089
 9584SOL    HW129651   2.288   5.010   4.125
 9584SOL    HW229652   2.420   5.102   4.097
 9585SOL     OW29653   4.297   6.258   0.880
 9585SOL    HW129654   4.309   6.189   0.952
 9585SOL    HW229655   4.257   6.341   0.919
 9586SOL     OW29656   3.359   5.531   2.701
 9586SOL    HW129657   3.369   5.511   2.603
 9586SOL    HW229658   3.409   5.615   2.722
 9587SOL     OW29659   3.528   6.048   0.868
 9587SOL    HW129660   3.618   6.088   0.849
 9587SOL    HW229661   3.537   5.949   0.876
 9588SOL     OW29662   6.380   5.892   0.014
 9588SOL    HW129663   6.445   5.906   6.950
 9588SOL    HW229664   6.427   5.898   0.102
 9589SOL     OW29665   1.726   2.318   6.283
 9589SOL    HW129666   1.708   2.378   6.204
 9589SOL    HW229667   1.654   2.332   6.351
 9590SOL     OW29668   6.553   0.228   0.975
 9590SOL    HW129669   6.610   0.147   0.961
 9590SOL    HW229670   6.607   0.310   0.959
 9591SOL     OW29671   5.189   0.926   0.673
 9591SOL    HW129672   5.162   0.830   0.678
 9591SOL    HW229673   5.183   0.967   0.764
 9592SOL     OW29674   2.086   6.247   5.664
 9592SOL    HW129675   2.118   6.337   5.692
 9592SOL    HW229676   2.096   6.237   5.565
 9593SOL     OW29677   1.897   2.589   4.178
 9593SOL    HW129678   1.847   2.673   4.156
 9593SOL    HW229679   1.851   2.541   4.252
 9594SOL     OW29680   0.398   6.153   3.546
 9594SOL    HW129681   0.365   6.129   3.454
 9594SOL    HW229682   0.495   6.131   3.553
 9595SOL     OW29683   0.436   3.355   3.240
 9595SOL    HW129684   0.481   3.366   3.329
 9595SOL    HW229685   0.491   3.399   3.169
 9596SOL     OW29686   1.185   6.696   0.367
 9596SOL    HW129687   1.163   6.719   0.462
 9596SOL    HW229688   1.204   6.598   0.360
 9597SOL     OW29689   1.054   3.280   1.674
 9597SOL    HW129690   1.006   3.275   1.762
 9597SOL    HW229691   1.133   3.219   1.675
 9598SOL     OW29692   2.186   4.066   4.212
 9598SOL    HW129693   2.091   4.068   4.180
 9598SOL    HW229694   2.239   4.132   4.158
 9599SOL     OW29695   4.369   6.843   4.477
 9599SOL    HW129696   4.338   6.791   4.557
 9599SOL    HW229697   4.452   6.801   4.440
 9600SOL     OW29698   3.837   1.346   1.530
 9600SOL    HW129699   3.739   1.364   1.542
 9600SOL    HW229700   3.878   1.324   1.618
 9601SOL     OW29701   0.870   3.739   0.852
 9601SOL    HW129702   0.839   3.773   0.940
 9601SOL    HW229703   0.958   3.692   0.864
 9602SOL     OW29704   4.255   4.913   5.333
 9602SOL    HW129705   4.223   4.856   5.258
 9602SOL    HW229706   4.308   4.857   5.398
 9603SOL     OW29707   5.100   6.965   5.576
 9603SOL    HW129708   5.165   0.021   5.541
 9603SOL    HW229709   5.058   7.000   5.660
 9604SOL     OW29710   4.728   6.918   1.091
 9604SOL    HW129711   4.659   6.942   1.024
 9604SOL    HW229712   4.797   6.991   1.095
 9605SOL     OW29713   5.443   5.465   1.866
 9605SOL    HW129714   5.497   5.493   1.945
 9605SOL    HW229715   5.366   5.409   1.896
 9606SOL     OW29716   1.283   1.116   0.163
 9606SOL    HW129717   1.346   1.045   0.194
 9606SOL    HW229718   1.308   1.145   0.071
 9607SOL     OW29719   1.954   2.059   6.503
 9607SOL    HW129720   1.882   2.052   6.573
 9607SOL    HW229721   1.995   2.150   6.507
 9608SOL     OW29722   5.905   2.718   4.438
 9608SOL    HW129723   5.971   2.658   4.395
 9608SOL    HW229724   5.878   2.680   4.527
 9609SOL     OW29725   4.563   2.988   6.856
 9609SOL    HW129726   4.532   3.070   6.810
 9609SOL    HW229727   4.639   3.011   6.918
 9610SOL     OW29728   0.817   4.789   2.767
 9610SOL    HW129729   0.807   4.887   2.750
 9610SOL    HW229730   0.824   4.773   2.866
 9611SOL     OW29731   2.486   0.909   0.390
 9611SOL    HW129732   2.492   0.822   0.341
 9611SOL    HW229733   2.541   0.978   0.343
 9612SOL     OW29734   0.047   1.968   4.164
 9612SOL    HW129735   0.104   2.047   4.188
 9612SOL    HW229736   0.036   1.909   4.243
 9613SOL     OW29737   6.082   4.936   3.463
 9613SOL    HW129738   6.080   5.019   3.519
 9613SOL    HW229739   6.134   4.865   3.510
 9614SOL     OW29740   4.625   2.441   3.374
 9614SOL    HW129741   4.673   2.353   3.368
 9614SOL    HW229742   4.636   2.491   3.288
 9615SOL     OW29743   1.527   4.444   1.467
 9615SOL    HW129744   1.506   4.346   1.468
 9615SOL    HW229745   1.483   4.488   1.545
 9616SOL     OW29746   3.961   3.597   6.733
 9616SOL    HW129747   3.881   3.548   6.768
 9616SOL    HW229748   4.043   3.564   6.780
 9617SOL     OW29749   1.841   2.803   2.730
 9617SOL    HW129750   1.834   2.834   2.635
 9617SOL    HW229751   1.929   2.832   2.768
 9618SOL     OW29752   2.476   1.997   0.780
 9618SOL    HW129753   2.392   2.046   0.804
 9618SOL    HW229754   2.540   2.003   0.857
 9619SOL     OW29755   2.383   0.667   6.451
 9619SOL    HW129756   2.468   0.701   6.410
 9619SOL    HW229757   2.316   0.653   6.379
 9620SOL     OW29758   5.412   1.021   5.090
 9620SOL    HW129759   5.486   1.024   5.023
 9620SOL    HW229760   5.356   0.940   5.074
 9621SOL     OW29761   1.690   3.471   3.125
 9621SOL    HW129762   1.765   3.536   3.111
 9621SOL    HW229763   1.700   3.395   3.061
 9622SOL     OW29764   4.913   0.244   0.610
 9622SOL    HW129765   4.883   0.210   0.700
 9622SOL    HW229766   4.870   0.190   0.538
 9623SOL     OW29767   2.407   4.236   6.599
 9623SOL    HW129768   2.425   4.158   6.539
 9623SOL    HW229769   2.314   4.269   6.583
 9624SOL     OW29770   6.306   2.825   4.051
 9624SOL    HW129771   6.299   2.749   3.987
 9624SOL    HW229772   6.214   2.860   4.070
 9625SOL     OW29773   5.909   5.640   1.256
 9625SOL    HW129774   5.873   5.729   1.228
 9625SOL    HW229775   5.837   5.587   1.301
 9626SOL     OW29776   3.767   6.553   0.579
 9626SOL    HW129777   3.747   6.630   0.518
 9626SOL    HW229778   3.837   6.580   0.645
 9627SOL     OW29779   1.296   6.766   6.733
 9627SOL    HW129780   1.327   6.855   6.701
 9627SOL    HW229781   1.196   6.766   6.738
 9628SOL     OW29782   2.956   6.707   2.272
 9628SOL    HW129783   2.897   6.628   2.253
 9628SOL    HW229784   3.035   6.706   2.211
 9629SOL     OW29785   2.451   0.373   1.205
 9629SOL    HW129786   2.391   0.411   1.134
 9629SOL    HW229787   2.448   0.273   1.202
 9630SOL     OW29788   6.560   1.809   6.370
 9630SOL    HW129789   6.612   1.772   6.447
 9630SOL    HW229790   6.584   1.759   6.287
 9631SOL     OW29791   6.658   6.120   0.027
 9631SOL    HW129792   6.669   6.219   0.015
 9631SOL    HW229793   6.577   6.090   6.987
 9632SOL     OW29794   0.505   5.364   2.067
 9632SOL    HW129795   0.518   5.401   2.158
 9632SOL    HW229796   0.520   5.436   1.999
 9633SOL     OW29797   6.924   5.118   6.160
 9633SOL    HW129798   6.922   5.210   6.200
 9633SOL    HW229799   6.900   5.051   6.231
 9634SOL     OW29800   1.254   6.174   6.097
 9634SOL    HW129801   1.162   6.211   6.086
 9634SOL    HW229802   1.317   6.222   6.035
 9635SOL     OW29803   0.331   6.034   5.405
 9635SOL    HW129804   0.319   6.043   5.306
 9635SOL    HW229805   0.402   5.966   5.424
 9636SOL     OW29806   3.966   1.356   0.209
 9636SOL    HW129807   3.887   1.295   0.221
 9636SOL    HW229808   3.939   1.434   0.153
 9637SOL     OW29809   2.162   1.153   6.668
 9637SOL    HW129810   2.242   1.137   6.610
 9637SOL    HW229811   2.106   1.226   6.628
 9638SOL     OW29812   6.582   2.439   6.643
 9638SOL    HW129813   6.492   2.421   6.603
 9638SOL    HW229814   6.651   2.383   6.597
 9639SOL     OW29815   3.864   0.811   2.236
 9639SOL    HW129816   3.879   0.878   2.308
 9639SOL    HW229817   3.942   0.748   2.231
 9640SOL     OW29818   1.165   1.788   2.650
 9640SOL    HW129819   1.068   1.763   2.652
 9640SOL    HW229820   1.175   1.876   2.605
 9641SOL     OW29821   5.774   5.799   6.750
 9641SOL    HW129822   5.695   5.740   6.769
 9641SOL    HW229823   5.849   5.776   6.812
 9642SOL     OW29824   3.636   0.328   3.566
 9642SOL    HW129825   3.587   0.399   3.517
 9642SOL    HW229826   3.571   0.270   3.615
 9643SOL     OW29827   4.248   4.743   2.946
 9643SOL    HW129828   4.254   4.738   3.046
 9643SOL    HW229829   4.305   4.672   2.906
 9644SOL     OW29830   3.106   1.582   0.500
 9644SOL    HW129831   3.009   1.555   0.500
 9644SOL    HW229832   3.114   1.679   0.478
 9645SOL     OW29833   2.724   5.781   5.007
 9645SOL    HW129834   2.670   5.708   4.966
 9645SOL    HW229835   2.672   5.867   5.005
 9646SOL     OW29836   3.821   5.184   4.037
 9646SOL    HW129837   3.898   5.137   4.079
 9646SOL    HW229838   3.774   5.240   4.105
 9647SOL     OW29839   6.516   2.778   5.703
 9647SOL    HW129840   6.518   2.710   5.776
 9647SOL    HW229841   6.552   2.865   5.738
 9648SOL     OW29842   4.091   3.916   0.791
 9648SOL    HW129843   4.049   3.997   0.832
 9648SOL    HW229844   4.160   3.879   0.853
 9649SOL     OW29845   2.220   5.387   2.002
 9649SOL    HW129846   2.180   5.298   2.023
 9649SOL    HW229847   2.168   5.431   1.929
 9650SOL     OW29848   0.982   0.287   1.186
 9650SOL    HW129849   0.983   0.387   1.196
 9650SOL    HW229850   1.074   0.255   1.163
 9651SOL     OW29851   0.656   1.631   6.544
 9651SOL    HW129852   0.633   1.602   6.451
 9651SOL    HW229853   0.633   1.727   6.555
 9652SOL     OW29854   0.836   4.797   1.785
 9652SOL    HW129855   0.818   4.865   1.856
 9652SOL    HW229856   0.786   4.821   1.702
 9653SOL     OW29857   6.132   6.309   4.560
 9653SOL    HW129858   6.093   6.311   4.652
 9653SOL    HW229859   6.059   6.309   4.492
 9654SOL     OW29860   2.166   2.816   2.588
 9654SOL    HW129861   2.187   2.913   2.596
 9654SOL    HW229862   2.079   2.803   2.541
 9655SOL     OW29863   5.964   1.958   6.758
 9655SOL    HW129864   6.015   2.010   6.826
 9655SOL    HW229865   5.871   1.996   6.750
 9656SOL     OW29866   2.550   1.549   3.083
 9656SOL    HW129867   2.509   1.607   3.154
 9656SOL    HW229868   2.611   1.482   3.126
 9657SOL     OW29869   6.998   6.958   4.760
 9657SOL    HW129870   0.042   6.875   4.752
 9657SOL    HW229871   6.908   6.936   4.797
 9658SOL     OW29872   5.919   2.086   3.003
 9658SOL    HW129873   5.908   2.010   2.939
 9658SOL    HW229874   5.919   2.050   3.097
 9659SOL     OW29875   1.093   4.914   6.761
 9659SOL    HW129876   1.111   4.982   6.832
 9659SOL    HW229877   1.179   4.881   6.723
 9660SOL     OW29878   1.078   5.360   0.206
 9660SOL    HW129879   1.014   5.415   0.260
 9660SOL    HW229880   1.040   5.343   0.115
 9661SOL     OW29881   4.258   0.197   0.772
 9661SOL    HW129882   4.174   0.145   0.756
 9661SOL    HW229883   4.236   0.281   0.822
 9662SOL     OW29884   5.567   1.575   4.349
 9662SOL    HW129885   5.483   1.618   4.381
 9662SOL    HW229886   5.576   1.588   4.250
 9663SOL     OW29887   2.417   6.076   3.333
 9663SOL    HW129888   2.450   5.985   3.305
 9663SOL    HW229889   2.318   6.073   3.345
 9664SOL     OW29890   2.161   5.826   1.679
 9664SOL    HW129891   2.243   5.768   1.679
 9664SOL    HW229892   2.149   5.866   1.587
 9665SOL     OW29893   5.351   4.101   3.851
 9665SOL    HW129894   5.446   4.129   3.868
 9665SOL    HW229895   5.335   4.093   3.753
 9666SOL     OW29896   5.326   5.108   4.738
 9666SOL    HW129897   5.254   5.172   4.767
 9666SOL    HW229898   5.287   5.017   4.727
 9667SOL     OW29899   3.239   2.980   3.754
 9667SOL    HW129900   3.308   2.959   3.684
 9667SOL    HW229901   3.152   3.002   3.709
 9668SOL     OW29902   0.265   1.105   5.415
 9668SOL    HW129903   0.209   1.065   5.487
 9668SOL    HW229904   0.268   1.043   5.337
 9669SOL     OW29905   1.535   6.152   6.831
 9669SOL    HW129906   1.512   6.149   6.733
 9669SOL    HW229907   1.453   6.174   6.883
 9670SOL     OW29908   5.645   4.695   6.416
 9670SOL    HW129909   5.642   4.653   6.506
 9670SOL    HW229910   5.664   4.626   6.347
 9671SOL     OW29911   6.775   0.738   0.322
 9671SOL    HW129912   6.715   0.808   0.361
 9671SOL    HW229913   6.820   0.775   0.240
 9672SOL     OW29914   1.673   6.227   5.264
 9672SOL    HW129915   1.669   6.228   5.165
 9672SOL    HW229916   1.615   6.300   5.301
 9673SOL     OW29917   2.322   2.858   6.220
 9673SOL    HW129918   2.253   2.846   6.292
 9673SOL    HW229919   2.277   2.887   6.136
 9674SOL     OW29920   2.539   6.576   2.374
 9674SOL    HW129921   2.621   6.624   2.406
 9674SOL    HW229922   2.564   6.483   2.348
 9675SOL     OW29923   0.118   2.456   2.320
 9675SOL    HW129924   0.044   2.514   2.284
 9675SOL    HW229925   0.136   2.481   2.415
 9676SOL     OW29926   0.043   2.516   4.693
 9676SOL    HW129927   0.117   2.501   4.758
 9676SOL    HW229928   0.031   2.615   4.678
 9677SOL     OW29929   1.578   3.358   5.875
 9677SOL    HW129930   1.616   3.405   5.796
 9677SOL    HW229931   1.605   3.262   5.874
 9678SOL     OW29932   3.509   3.239   3.186
 9678SOL    HW129933   3.457   3.171   3.237
 9678SOL    HW229934   3.566   3.193   3.118
 9679SOL     OW29935   0.718   3.900   1.023
 9679SOL    HW129936   0.780   3.977   1.041
 9679SOL    HW229937   0.640   3.904   1.085
 9680SOL     OW29938   4.947   5.413   3.088
 9680SOL    HW129939   5.006   5.338   3.059
 9680SOL    HW229940   4.889   5.383   3.164
 9681SOL     OW29941   1.113   0.380   4.330
 9681SOL    HW129942   1.206   0.344   4.323
 9681SOL    HW229943   1.066   0.368   4.243
 9682SOL     OW29944   0.552   4.453   3.067
 9682SOL    HW129945   0.457   4.450   3.039
 9682SOL    HW229946   0.572   4.543   3.106
 9683SOL     OW29947   4.906   6.888   5.882
 9683SOL    HW129948   4.921   6.888   5.981
 9683SOL    HW229949   4.829   6.829   5.860
 9684SOL     OW29950   0.920   4.309   3.509
 9684SOL    HW129951   0.894   4.401   3.482
 9684SOL    HW229952   1.005   4.283   3.464
 9685SOL     OW29953   2.059   1.594   6.657
 9685SOL    HW129954   2.042   1.689   6.683
 9685SOL    HW229955   1.971   1.547   6.644
 9686SOL     OW29956   5.324   2.402   1.715
 9686SOL    HW129957   5.396   2.472   1.717
 9686SOL    HW229958   5.302   2.379   1.621
 9687SOL     OW29959   3.451   1.200   4.448
 9687SOL    HW129960   3.432   1.104   4.426
 9687SOL    HW229961   3.367   1.253   4.441
 9688SOL     OW29962   6.045   1.730   3.966
 9688SOL    HW129963   6.141   1.708   3.981
 9688SOL    HW229964   6.015   1.798   4.033
 9689SOL     OW29965   2.185   5.067   5.556
 9689SOL    HW129966   2.261   5.130   5.570
 9689SOL    HW229967   2.214   4.991   5.498
 9690SOL     OW29968   6.210   3.908   0.344
 9690SOL    HW129969   6.239   3.879   0.253
 9690SOL    HW229970   6.121   3.953   0.337
 9691SOL     OW29971   1.605   4.498   0.424
 9691SOL    HW129972   1.647   4.421   0.377
 9691SOL    HW229973   1.519   4.468   0.466
 9692SOL     OW29974   3.437   5.778   0.610
 9692SOL    HW129975   3.411   5.699   0.556
 9692SOL    HW229976   3.458   5.749   0.704
 9693SOL     OW29977   6.049   5.951   1.591
 9693SOL    HW129978   5.974   6.013   1.614
 9693SOL    HW229979   6.015   5.857   1.586
 9694SOL     OW29980   0.984   1.652   1.099
 9694SOL    HW129981   0.946   1.741   1.073
 9694SOL    HW229982   1.071   1.638   1.052
 9695SOL     OW29983   6.445   4.543   0.301
 9695SOL    HW129984   6.497   4.469   0.259
 9695SOL    HW229985   6.397   4.509   0.382
 9696SOL     OW29986   3.843   4.531   0.429
 9696SOL    HW129987   3.759   4.556   0.477
 9696SOL    HW229988   3.870   4.606   0.369
 9697SOL     OW29989   0.683   5.937   5.885
 9697SOL    HW129990   0.659   5.969   5.976
 9697SOL    HW229991   0.605   5.952   5.823
 9698SOL     OW29992   4.606   1.316   5.194
 9698SOL    HW129993   4.511   1.334   5.218
 9698SOL    HW229994   4.632   1.225   5.227
 9699SOL     OW29995   1.723   2.149   6.662
 9699SOL    HW129996   1.678   2.200   6.588
 9699SOL    HW229997   1.757   2.213   6.730
 9700SOL     OW29998   4.017   3.689   3.158
 9700SOL    HW129999   3.918   3.705   3.163
 9700SOL    HW230000   4.035   3.591   3.161
 9701SOL     OW30001   4.567   4.392   4.414
 9701SOL    HW130002   4.474   4.379   4.379
 9701SOL    HW230003   4.622   4.311   4.394
 9702SOL     OW30004   5.561   0.335   0.535
 9702SOL    HW130005   5.533   0.256   0.589
 9702SOL    HW230006   5.637   0.382   0.581
 9703SOL     OW30007   2.702   5.944   4.085
 9703SOL    HW130008   2.632   5.963   4.154
 9703SOL    HW230009   2.715   5.846   4.078
 9704SOL     OW30010   2.218   1.240   3.609
 9704SOL    HW130011   2.134   1.211   3.657
 9704SOL    HW230012   2.219   1.340   3.603
 9705SOL     OW30013   3.624   4.282   0.868
 9705SOL    HW130014   3.600   4.345   0.794
 9705SOL    HW230015   3.580   4.194   0.851
 9706SOL     OW30016   6.906   2.514   3.514
 9706SOL    HW130017   7.003   2.490   3.507
 9706SOL    HW230018   6.854   2.433   3.543
 9707SOL     OW30019   2.739   5.041   2.557
 9707SOL    HW130020   2.663   5.021   2.495
 9707SOL    HW230021   2.818   5.071   2.504
 9708SOL     OW30022   1.775   1.957   2.223
 9708SOL    HW130023   1.844   2.027   2.207
 9708SOL    HW230024   1.791   1.915   2.312
 9709SOL     OW30025   1.270   5.911   3.238
 9709SOL    HW130026   1.298   6.007   3.238
 9709SOL    HW230027   1.335   5.858   3.292
 9710SOL     OW30028   1.155   0.420   3.838
 9710SOL    HW130029   1.113   0.502   3.801
 9710SOL    HW230030   1.108   0.393   3.922
 9711SOL     OW30031   1.162   2.979   6.565
 9711SOL    HW130032   1.149   2.998   6.467
 9711SOL    HW230033   1.255   3.001   6.592
 9712SOL     OW30034   4.897   3.827   4.907
 9712SOL    HW130035   4.881   3.731   4.929
 9712SOL    HW230036   4.887   3.841   4.809
 9713SOL     OW30037   6.741   5.000   2.959
 9713SOL    HW130038   6.816   5.023   2.898
 9713SOL    HW230039   6.696   5.084   2.989
 9714SOL     OW30040   2.302   2.054   2.896
 9714SOL    HW130041   2.264   2.134   2.943
 9714SOL    HW230042   2.230   2.010   2.842
 9715SOL     OW30043   6.054   5.404   5.858
 9715SOL    HW130044   5.990   5.468   5.815
 9715SOL    HW230045   6.006   5.346   5.923
 9716SOL     OW30046   3.548   1.211   6.383
 9716SOL    HW130047   3.619   1.268   6.342
 9716SOL    HW230048   3.542   1.229   6.481
 9717SOL     OW30049   5.474   5.494   3.323
 9717SOL    HW130050   5.384   5.496   3.278
 9717SOL    HW230051   5.537   5.555   3.275
 9718SOL     OW30052   4.708   3.192   1.672
 9718SOL    HW130053   4.640   3.147   1.730
 9718SOL    HW230054   4.798   3.151   1.690
 9719SOL     OW30055   0.306   1.144   0.323
 9719SOL    HW130056   0.330   1.124   0.228
 9719SOL    HW230057   0.365   1.218   0.357
 9720SOL     OW30058   0.611   0.436   0.635
 9720SOL    HW130059   0.545   0.427   0.710
 9720SOL    HW230060   0.685   0.496   0.664
 9721SOL     OW30061   0.128   2.800   3.301
 9721SOL    HW130062   0.216   2.753   3.297
 9721SOL    HW230063   0.132   2.874   3.368
 9722SOL     OW30064   0.242   0.169   4.451
 9722SOL    HW130065   0.251   0.071   4.431
 9722SOL    HW230066   0.147   0.197   4.444
 9723SOL     OW30067   0.145   0.455   3.950
 9723SOL    HW130068   0.215   0.494   4.010
 9723SOL    HW230069   0.055   0.489   3.977
 9724SOL     OW30070   3.793   2.352   1.569
 9724SOL    HW130071   3.776   2.446   1.598
 9724SOL    HW230072   3.724   2.292   1.609
 9725SOL     OW30073   3.866   3.370   5.690
 9725SOL    HW130074   3.785   3.342   5.742
 9725SOL    HW230075   3.904   3.291   5.643
 9726SOL     OW30076   5.735   5.891   4.580
 9726SOL    HW130077   5.675   5.844   4.644
 9726SOL    HW230078   5.796   5.952   4.629
 9727SOL     OW30079   1.365   0.267   6.743
 9727SOL    HW130080   1.417   0.339   6.697
 9727SOL    HW230081   1.428   0.202   6.785
 9728SOL     OW30082   3.457   6.078   6.550
 9728SOL    HW130083   3.363   6.060   6.521
 9728SOL    HW230084   3.459   6.096   6.648
 9729SOL     OW30085   3.013   5.212   2.149
 9729SOL    HW130086   3.057   5.247   2.232
 9729SOL    HW230087   2.915   5.232   2.153
 9730SOL     OW30088   5.793   3.392   3.292
 9730SOL    HW130089   5.722   3.323   3.276
 9730SOL    HW230090   5.846   3.366   3.373
 9731SOL     OW30091   5.317   5.204   1.454
 9731SOL    HW130092   5.341   5.129   1.393
 9731SOL    HW230093   5.274   5.277   1.401
 9732SOL     OW30094   5.084   6.249   4.459
 9732SOL    HW130095   5.019   6.291   4.522
 9732SOL    HW230096   5.091   6.305   4.377
 9733SOL     OW30097   5.185   4.799   5.867
 9733SOL    HW130098   5.239   4.782   5.949
 9733SOL    HW230099   5.246   4.812   5.789
 9734SOL     OW30100   6.217   1.718   5.872
 9734SOL    HW130101   6.131   1.700   5.825
 9734SOL    HW230102   6.207   1.799   5.930
 9735SOL     OW30103   3.295   4.578   0.703
 9735SOL    HW130104   3.327   4.485   0.721
 9735SOL    HW230105   3.239   4.609   0.780
 9736SOL     OW30106   2.906   1.949   1.924
 9736SOL    HW130107   2.863   2.033   1.955
 9736SOL    HW230108   2.881   1.931   1.829
 9737SOL     OW30109   4.245   2.159   4.537
 9737SOL    HW130110   4.331   2.111   4.551
 9737SOL    HW230111   4.211   2.192   4.626
 9738SOL     OW30112   2.377   1.059   1.810
 9738SOL    HW130113   2.398   1.144   1.761
 9738SOL    HW230114   2.459   1.027   1.857
 9739SOL     OW30115   5.717   4.190   1.552
 9739SOL    HW130116   5.754   4.212   1.642
 9739SOL    HW230117   5.665   4.268   1.517
 9740SOL     OW30118   6.714   2.843   2.469
 9740SOL    HW130119   6.687   2.844   2.566
 9740SOL    HW230120   6.644   2.889   2.415
 9741SOL     OW30121   3.964   1.846   2.517
 9741SOL    HW130122   3.890   1.797   2.472
 9741SOL    HW230123   3.959   1.830   2.616
 9742SOL     OW30124   4.155   1.422   3.739
 9742SOL    HW130125   4.156   1.460   3.646
 9742SOL    HW230126   4.239   1.372   3.756
 9743SOL     OW30127   1.412   1.482   5.317
 9743SOL    HW130128   1.433   1.413   5.248
 9743SOL    HW230129   1.354   1.443   5.387
 9744SOL     OW30130   2.599   0.409   1.530
 9744SOL    HW130131   2.565   0.484   1.586
 9744SOL    HW230132   2.599   0.436   1.434
 9745SOL     OW30133   0.406   0.739   4.837
 9745SOL    HW130134   0.505   0.728   4.848
 9745SOL    HW230135   0.387   0.817   4.778
 9746SOL     OW30136   6.409   0.664   4.366
 9746SOL    HW130137   6.391   0.759   4.342
 9746SOL    HW230138   6.428   0.611   4.283
 9747SOL     OW30139   0.489   0.172   5.935
 9747SOL    HW130140   0.549   0.119   5.875
 9747SOL    HW230141   0.494   0.135   6.028
 9748SOL     OW30142   1.134   4.071   4.097
 9748SOL    HW130143   1.086   4.025   4.023
 9748SOL    HW230144   1.126   4.170   4.087
 9749SOL     OW30145   0.459   4.995   4.415
 9749SOL    HW130146   0.363   5.021   4.420
 9749SOL    HW230147   0.471   4.921   4.348
 9750SOL     OW30148   2.855   5.460   2.692
 9750SOL    HW130149   2.839   5.543   2.638
 9750SOL    HW230150   2.778   5.397   2.680
 9751SOL     OW30151   1.484   2.523   0.649
 9751SOL    HW130152   1.479   2.585   0.570
 9751SOL    HW230153   1.557   2.456   0.634
 9752SOL     OW30154   3.988   0.405   5.963
 9752SOL    HW130155   4.066   0.399   6.026
 9752SOL    HW230156   3.992   0.491   5.913
 9753SOL     OW30157   6.923   6.681   0.110
 9753SOL    HW130158   6.904   6.778   0.123
 9753SOL    HW230159   6.982   6.649   0.184
 9754SOL     OW30160   0.121   3.131   6.003
 9754SOL    HW130161   0.089   3.135   6.098
 9754SOL    HW230162   0.151   3.222   5.975
 9755SOL     OW30163   3.755   5.506   5.185
 9755SOL    HW130164   3.706   5.566   5.121
 9755SOL    HW230165   3.844   5.545   5.205
 9756SOL     OW30166   5.077   2.650   6.039
 9756SOL    HW130167   5.088   2.740   5.997
 9756SOL    HW230168   5.121   2.650   6.129
 9757SOL     OW30169   6.558   0.858   3.956
 9757SOL    HW130170   6.541   0.807   3.872
 9757SOL    HW230171   6.528   0.952   3.944
 9758SOL     OW30172   3.454   0.472   0.570
 9758SOL    HW130173   3.354   0.478   0.564
 9758SOL    HW230174   3.495   0.503   0.484
 9759SOL     OW30175   2.928   5.900   1.442
 9759SOL    HW130176   2.931   5.803   1.466
 9759SOL    HW230177   2.921   5.954   1.525
 9760SOL     OW30178   5.578   4.657   5.755
 9760SOL    HW130179   5.534   4.578   5.713
 9760SOL    HW230180   5.668   4.630   5.789
 9761SOL     OW30181   5.455   5.177   2.458
 9761SOL    HW130182   5.458   5.122   2.541
 9761SOL    HW230183   5.373   5.234   2.459
 9762SOL     OW30184   3.313   0.504   2.698
 9762SOL    HW130185   3.404   0.546   2.694
 9762SOL    HW230186   3.273   0.521   2.788
 9763SOL     OW30187   2.157   2.029   1.939
 9763SOL    HW130188   2.077   2.000   1.992
 9763SOL    HW230189   2.220   2.079   1.999
 9764SOL     OW30190   0.820   2.693   2.984
 9764SOL    HW130191   0.920   2.703   2.983
 9764SOL    HW230192   0.783   2.744   3.062
 9765SOL     OW30193   0.190   0.557   5.796
 9765SOL    HW130194   0.208   0.502   5.878
 9765SOL    HW230195   0.206   0.653   5.817
 9766SOL     OW30196   2.311   0.848   3.196
 9766SOL    HW130197   2.327   0.941   3.164
 9766SOL    HW230198   2.322   0.784   3.120
 9767SOL     OW30199   4.784   0.445   5.425
 9767SOL    HW130200   4.690   0.472   5.443
 9767SOL    HW230201   4.796   0.431   5.327
 9768SOL     OW30202   4.476   2.411   4.057
 9768SOL    HW130203   4.390   2.388   4.101
 9768SOL    HW230204   4.530   2.471   4.116
 9769SOL     OW30205   0.433   2.133   1.053
 9769SOL    HW130206   0.449   2.066   1.126
 9769SOL    HW230207   0.399   2.218   1.092
 9770SOL     OW30208   0.659   2.879   5.755
 9770SOL    HW130209   0.662   2.783   5.728
 9770SOL    HW230210   0.715   2.893   5.836
 9771SOL     OW30211   2.701   5.879   3.746
 9771SOL    HW130212   2.626   5.857   3.808
 9771SOL    HW230213   2.779   5.913   3.800
 9772SOL     OW30214   6.132   6.843   0.579
 9772SOL    HW130215   6.165   6.776   0.513
 9772SOL    HW230216   6.193   6.922   0.582
 9773SOL     OW30217   4.854   5.583   4.057
 9773SOL    HW130218   4.922   5.638   4.106
 9773SOL    HW230219   4.901   5.509   4.009
 9774SOL     OW30220   6.875   4.885   4.484
 9774SOL    HW130221   6.929   4.823   4.427
 9774SOL    HW230222   6.884   4.858   4.580
 9775SOL     OW30223   2.998   2.073   5.059
 9775SOL    HW130224   3.066   2.145   5.044
 9775SOL    HW230225   2.915   2.093   5.006
 9776SOL     OW30226   0.022   4.718   4.301
 9776SOL    HW130227   0.098   4.747   4.242
 9776SOL    HW230228   6.987   4.639   4.259
 9777SOL     OW30229   5.132   5.824   6.289
 9777SOL    HW130230   5.228   5.797   6.277
 9777SOL    HW230231   5.103   5.878   6.210
 9778SOL     OW30232   3.824   0.507   4.393
 9778SOL    HW130233   3.743   0.564   4.378
 9778SOL    HW230234   3.898   0.564   4.428
 9779SOL     OW30235   3.536   2.290   6.815
 9779SOL    HW130236   3.517   2.335   6.902
 9779SOL    HW230237   3.522   2.354   6.740
 9780SOL     OW30238   2.231   3.797   1.030
 9780SOL    HW130239   2.265   3.762   1.117
 9780SOL    HW230240   2.218   3.896   1.036
 9781SOL     OW30241   1.047   6.574   4.276
 9781SOL    HW130242   1.017   6.494   4.327
 9781SOL    HW230243   1.094   6.637   4.338
 9782SOL     OW30244   5.979   0.147   0.548
 9782SOL    HW130245   5.936   0.196   0.625
 9782SOL    HW230246   6.071   0.118   0.575
 9783SOL     OW30247   6.139   0.072   3.251
 9783SOL    HW130248   6.220   0.019   3.273
 9783SOL    HW230249   6.161   0.170   3.254
 9784SOL     OW30250   5.677   6.966   4.529
 9784SOL    HW130251   5.697   6.990   4.434
 9784SOL    HW230252   5.593   7.010   4.558
 9785SOL     OW30253   0.892   2.423   1.345
 9785SOL    HW130254   0.952   2.372   1.284
 9785SOL    HW230255   0.889   2.519   1.318
 9786SOL     OW30256   2.467   6.786   4.288
 9786SOL    HW130257   2.528   6.707   4.295
 9786SOL    HW230258   2.386   6.771   4.344
 9787SOL     OW30259   5.556   4.391   1.473
 9787SOL    HW130260   5.466   4.383   1.429
 9787SOL    HW230261   5.606   4.468   1.433
 9788SOL     OW30262   6.525   0.634   5.883
 9788SOL    HW130263   6.613   0.654   5.926
 9788SOL    HW230264   6.534   0.554   5.823
 9789SOL     OW30265   1.662   4.785   4.856
 9789SOL    HW130266   1.736   4.751   4.798
 9789SOL    HW230267   1.686   4.768   4.952
 9790SOL     OW30268   0.005   1.199   3.706
 9790SOL    HW130269   0.101   1.222   3.690
 9790SOL    HW230270   7.002   1.101   3.690
 9791SOL     OW30271   1.404   2.667   1.043
 9791SOL    HW130272   1.382   2.683   1.139
 9791SOL    HW230273   1.395   2.570   1.022
 9792SOL     OW30274   3.468   5.615   2.086
 9792SOL    HW130275   3.480   5.577   2.178
 9792SOL    HW230276   3.510   5.706   2.083
 9793SOL     OW30277   5.322   6.418   2.492
 9793SOL    HW130278   5.374   6.390   2.573
 9793SOL    HW230279   5.226   6.397   2.505
 9794SOL     OW30280   3.667   3.272   6.996
 9794SOL    HW130281   3.603   3.336   0.029
 9794SOL    HW230282   3.667   3.186   0.037
 9795SOL     OW30283   1.983   5.200   3.053
 9795SOL    HW130284   1.961   5.284   3.003
 9795SOL    HW230285   1.909   5.134   3.041
 9796SOL     OW30286   3.563   5.236   6.939
 9796SOL    HW130287   3.656   5.260   6.964
 9796SOL    HW230288   3.564   5.162   6.872
 9797SOL     OW30289   5.709   3.156   5.395
 9797SOL    HW130290   5.795   3.105   5.394
 9797SOL    HW230291   5.661   3.139   5.481
 9798SOL     OW30292   2.544   1.518   1.839
 9798SOL    HW130293   2.601   1.560   1.767
 9798SOL    HW230294   2.481   1.587   1.875
 9799SOL     OW30295   3.858   3.629   2.749
 9799SOL    HW130296   3.832   3.576   2.830
 9799SOL    HW230297   3.957   3.628   2.739
 9800SOL     OW30298   4.137   5.646   0.337
 9800SOL    HW130299   4.190   5.695   0.268
 9800SOL    HW230300   4.040   5.660   0.321
 9801SOL     OW30301   5.369   5.003   1.285
 9801SOL    HW130302   5.282   4.954   1.286
 9801SOL    HW230303   5.390   5.032   1.191
 9802SOL     OW30304   0.811   5.621   2.142
 9802SOL    HW130305   0.843   5.712   2.114
 9802SOL    HW230306   0.865   5.551   2.095
 9803SOL     OW30307   5.278   6.668   6.651
 9803SOL    HW130308   5.264   6.631   6.559
 9803SOL    HW230309   5.205   6.733   6.672
 9804SOL     OW30310   4.886   5.091   4.996
 9804SOL    HW130311   4.959   5.034   5.032
 9804SOL    HW230312   4.886   5.087   4.896
 9805SOL     OW30313   3.752   3.733   0.897
 9805SOL    HW130314   3.793   3.729   0.988
 9805SOL    HW230315   3.757   3.827   0.863
 9806SOL     OW30316   6.973   1.747   2.415
 9806SOL    HW130317   6.928   1.724   2.502
 9806SOL    HW230318   6.906   1.785   2.352
 9807SOL     OW30319   1.992   3.344   0.995
 9807SOL    HW130320   2.033   3.371   0.908
 9807SOL    HW230321   1.921   3.277   0.979
 9808SOL     OW30322   1.931   1.747   3.870
 9808SOL    HW130323   1.946   1.844   3.851
 9808SOL    HW230324   1.842   1.719   3.835
 9809SOL     OW30325   0.615   0.815   4.119
 9809SOL    HW130326   0.577   0.862   4.040
 9809SOL    HW230327   0.656   0.881   4.182
 9810SOL     OW30328   4.499   1.612   2.710
 9810SOL    HW130329   4.566   1.679   2.741
 9810SOL    HW230330   4.481   1.625   2.613
 9811SOL     OW30331   1.246   0.351   3.253
 9811SOL    HW130332   1.224   0.263   3.211
 9811SOL    HW230333   1.220   0.348   3.350
 9812SOL     OW30334   5.899   3.573   6.074
 9812SOL    HW130335   5.911   3.475   6.057
 9812SOL    HW230336   5.956   3.626   6.011
 9813SOL     OW30337   6.340   4.462   0.538
 9813SOL    HW130338   6.250   4.503   0.555
 9813SOL    HW230339   6.345   4.374   0.585
 9814SOL     OW30340   6.304   0.785   5.810
 9814SOL    HW130341   6.288   0.866   5.867
 9814SOL    HW230342   6.387   0.739   5.842
 9815SOL     OW30343   6.764   4.554   2.308
 9815SOL    HW130344   6.732   4.459   2.322
 9815SOL    HW230345   6.760   4.576   2.211
 9816SOL     OW30346   6.570   1.678   5.275
 9816SOL    HW130347   6.579   1.761   5.219
 9816SOL    HW230348   6.644   1.615   5.252
 9817SOL     OW30349   2.542   1.085   0.783
 9817SOL    HW130350   2.639   1.065   0.772
 9817SOL    HW230351   2.489   1.002   0.767
 9818SOL     OW30352   0.684   0.036   2.077
 9818SOL    HW130353   0.749   0.109   2.053
 9818SOL    HW230354   0.598   0.053   2.030
 9819SOL     OW30355   5.959   1.668   4.251
 9819SOL    HW130356   5.922   1.578   4.224
 9819SOL    HW230357   5.885   1.724   4.288
 9820SOL     OW30358   3.748   0.855   6.745
 9820SOL    HW130359   3.690   0.863   6.664
 9820SOL    HW230360   3.723   0.924   6.812
 9821SOL     OW30361   4.795   3.667   6.885
 9821SOL    HW130362   4.823   3.661   6.789
 9821SOL    HW230363   4.830   3.587   6.934
 9822SOL     OW30364   3.076   5.165   4.037
 9822SOL    HW130365   3.114   5.229   3.970
 9822SOL    HW230366   3.021   5.096   3.990
 9823SOL     OW30367   4.738   6.399   3.133
 9823SOL    HW130368   4.793   6.422   3.213
 9823SOL    HW230369   4.764   6.458   3.056
 9824SOL     OW30370   1.096   5.653   5.588
 9824SOL    HW130371   1.193   5.629   5.581
 9824SOL    HW230372   1.040   5.573   5.564
 9825SOL     OW30373   1.121   6.439   4.588
 9825SOL    HW130374   1.111   6.447   4.688
 9825SOL    HW230375   1.054   6.374   4.553
 9826SOL     OW30376   2.062   5.773   6.301
 9826SOL    HW130377   2.154   5.740   6.321
 9826SOL    HW230378   2.005   5.763   6.383
 9827SOL     OW30379   1.941   4.936   1.589
 9827SOL    HW130380   1.868   4.885   1.634
 9827SOL    HW230381   1.936   5.032   1.615
 9828SOL     OW30382   4.531   1.973   4.155
 9828SOL    HW130383   4.476   1.950   4.075
 9828SOL    HW230384   4.614   2.020   4.125
 9829SOL     OW30385   5.363   4.800   5.632
 9829SOL    HW130386   5.395   4.811   5.538
 9829SOL    HW230387   5.437   4.766   5.689
 9830SOL     OW30388   6.520   1.048   3.059
 9830SOL    HW130389   6.539   0.956   3.093
 9830SOL    HW230390   6.520   1.113   3.136
 9831SOL     OW30391   0.568   5.040   1.689
 9831SOL    HW130392   0.550   5.117   1.628
 9831SOL    HW230393   0.647   5.061   1.747
 9832SOL     OW30394   4.663   6.402   5.210
 9832SOL    HW130395   4.632   6.325   5.155
 9832SOL    HW230396   4.756   6.386   5.242
 9833SOL     OW30397   4.051   3.243   4.818
 9833SOL    HW130398   4.053   3.186   4.736
 9833SOL    HW230399   4.020   3.188   4.896
 9834SOL     OW30400   3.512   6.067   6.258
 9834SOL    HW130401   3.529   6.087   6.355
 9834SOL    HW230402   3.415   6.076   6.239
 9835SOL     OW30403   3.897   3.431   3.751
 9835SOL    HW130404   3.971   3.499   3.744
 9835SOL    HW230405   3.936   3.341   3.772
 9836SOL     OW30406   6.039   3.043   5.738
 9836SOL    HW130407   5.944   3.012   5.735
 9836SOL    HW230408   6.088   2.994   5.810
 9837SOL     OW30409   6.716   0.663   3.825
 9837SOL    HW130410   6.710   0.565   3.847
 9837SOL    HW230411   6.771   0.709   3.895
 9838SOL     OW30412   0.324   5.772   1.061
 9838SOL    HW130413   0.229   5.766   1.028
 9838SOL    HW230414   0.348   5.867   1.076
 9839SOL     OW30415   3.824   6.618   3.487
 9839SOL    HW130416   3.765   6.556   3.435
 9839SOL    HW230417   3.920   6.594   3.471
 9840SOL     OW30418   6.358   2.054   6.591
 9840SOL    HW130419   6.263   2.026   6.581
 9840SOL    HW230420   6.367   2.114   6.670
 9841SOL     OW30421   0.213   5.938   2.335
 9841SOL    HW130422   0.217   5.850   2.288
 9841SOL    HW230423   0.210   5.923   2.434
 9842SOL     OW30424   3.822   0.321   0.407
 9842SOL    HW130425   3.857   0.395   0.465
 9842SOL    HW230426   3.855   0.233   0.440
 9843SOL     OW30427   0.370   0.033   0.484
 9843SOL    HW130428   0.455   0.086   0.475
 9843SOL    HW230429   0.390   6.947   0.470
 9844SOL     OW30430   4.929   0.600   4.907
 9844SOL    HW130431   4.864   0.643   4.845
 9844SOL    HW230432   5.021   0.604   4.868
 9845SOL     OW30433   0.885   3.462   2.201
 9845SOL    HW130434   0.856   3.368   2.214
 9845SOL    HW230435   0.985   3.466   2.195
 9846SOL     OW30436   5.462   2.109   2.091
 9846SOL    HW130437   5.552   2.068   2.110
 9846SOL    HW230438   5.395   2.036   2.079
 9847SOL     OW30439   3.819   4.262   6.948
 9847SOL    HW130440   3.889   4.328   6.919
 9847SOL    HW230441   3.796   4.278   0.033
 9848SOL     OW30442   2.506   3.942   5.493
 9848SOL    HW130443   2.533   4.002   5.418
 9848SOL    HW230444   2.428   3.886   5.465
 9849SOL     OW30445   1.735   2.000   2.913
 9849SOL    HW130446   1.732   2.042   3.003
 9849SOL    HW230447   1.647   2.014   2.867
 9850SOL     OW30448   1.694   0.110   4.344
 9850SOL    HW130449   1.730   0.135   4.254
 9850SOL    HW230450   1.701   0.188   4.406
 9851SOL     OW30451   3.657   5.220   3.545
 9851SOL    HW130452   3.571   5.175   3.520
 9851SOL    HW230453   3.729   5.192   3.482
 9852SOL     OW30454   2.734   0.004   0.627
 9852SOL    HW130455   2.682   6.935   0.657
 9852SOL    HW230456   2.825   0.003   0.668
 9853SOL     OW30457   0.429   3.917   3.713
 9853SOL    HW130458   0.359   3.893   3.780
 9853SOL    HW230459   0.385   3.955   3.631
 9854SOL     OW30460   6.457   3.755   6.820
 9854SOL    HW130461   6.508   3.775   6.903
 9854SOL    HW230462   6.511   3.785   6.741
 9855SOL     OW30463   1.133   5.903   0.519
 9855SOL    HW130464   1.220   5.947   0.497
 9855SOL    HW230465   1.060   5.970   0.518
 9856SOL     OW30466   5.083   4.114   3.541
 9856SOL    HW130467   5.003   4.055   3.545
 9856SOL    HW230468   5.058   4.207   3.568
 9857SOL     OW30469   5.405   0.335   6.024
 9857SOL    HW130470   5.392   0.269   6.097
 9857SOL    HW230471   5.497   0.375   6.032
 9858SOL     OW30472   0.065   5.174   2.468
 9858SOL    HW130473   0.043   5.243   2.537
 9858SOL    HW230474   0.119   5.101   2.509
 9859SOL     OW30475   0.659   5.143   2.201
 9859SOL    HW130476   0.616   5.172   2.115
 9859SOL    HW230477   0.683   5.223   2.255
 9860SOL     OW30478   1.758   3.420   3.733
 9860SOL    HW130479   1.663   3.452   3.729
 9860SOL    HW230480   1.765   3.333   3.685
 9861SOL     OW30481   3.580   2.128   4.372
 9861SOL    HW130482   3.584   2.041   4.421
 9861SOL    HW230483   3.671   2.151   4.338
 9862SOL     OW30484   2.004   2.807   6.620
 9862SOL    HW130485   1.949   2.846   6.694
 9862SOL    HW230486   1.989   2.708   6.615
 9863SOL     OW30487   3.791   6.026   1.837
 9863SOL    HW130488   3.814   6.106   1.893
 9863SOL    HW230489   3.705   6.043   1.790
 9864SOL     OW30490   3.230   6.013   5.231
 9864SOL    HW130491   3.189   6.058   5.152
 9864SOL    HW230492   3.329   6.029   5.231
 9865SOL     OW30493   2.291   6.357   5.983
 9865SOL    HW130494   2.367   6.366   6.048
 9865SOL    HW230495   2.325   6.317   5.898
 9866SOL     OW30496   6.770   5.324   6.003
 9866SOL    HW130497   6.738   5.396   6.064
 9866SOL    HW230498   6.868   5.336   5.986
 9867SOL     OW30499   4.674   1.071   2.462
 9867SOL    HW130500   4.712   1.101   2.549
 9867SOL    HW230501   4.575   1.058   2.472
 9868SOL     OW30502   2.427   4.365   2.980
 9868SOL    HW130503   2.489   4.427   2.932
 9868SOL    HW230504   2.387   4.413   3.059
 9869SOL     OW30505   5.790   2.468   3.064
 9869SOL    HW130506   5.878   2.477   3.016
 9869SOL    HW230507   5.747   2.382   3.040
 9870SOL     OW30508   1.891   2.604   2.911
 9870SOL    HW130509   1.859   2.673   2.846
 9870SOL    HW230510   1.915   2.520   2.862
 9871SOL     OW30511   5.622   5.674   3.172
 9871SOL    HW130512   5.681   5.753   3.156
 9871SOL    HW230513   5.664   5.593   3.132
 9872SOL     OW30514   1.079   6.450   5.131
 9872SOL    HW130515   1.086   6.547   5.157
 9872SOL    HW230516   1.145   6.397   5.185
 9873SOL     OW30517   0.335   0.493   4.967
 9873SOL    HW130518   0.332   0.569   4.902
 9873SOL    HW230519   0.249   0.488   5.017
 9874SOL     OW30520   6.676   1.789   3.789
 9874SOL    HW130521   6.585   1.751   3.800
 9874SOL    HW230522   6.729   1.773   3.872
 9875SOL     OW30523   6.460   5.915   0.954
 9875SOL    HW130524   6.448   5.945   0.859
 9875SOL    HW230525   6.508   5.986   1.005
 9876SOL     OW30526   0.335   7.009   3.428
 9876SOL    HW130527   0.377   0.069   3.371
 9876SOL    HW230528   0.404   6.965   3.485
 9877SOL     OW30529   1.508   5.801   5.077
 9877SOL    HW130530   1.588   5.743   5.088
 9877SOL    HW230531   1.495   5.857   5.159
 9878SOL     OW30532   4.507   3.354   6.936
 9878SOL    HW130533   4.487   3.444   6.974
 9878SOL    HW230534   4.422   3.301   6.929
 9879SOL     OW30535   5.311   5.716   4.790
 9879SOL    HW130536   5.290   5.626   4.750
 9879SOL    HW230537   5.250   5.732   4.868
 9880SOL     OW30538   2.732   1.355   0.965
 9880SOL    HW130539   2.793   1.361   1.044
 9880SOL    HW230540   2.783   1.325   0.885
 9881SOL     OW30541   6.678   6.849   3.230
 9881SOL    HW130542   6.747   6.791   3.273
 9881SOL    HW230543   6.596   6.795   3.210
 9882SOL     OW30544   3.100   3.609   4.400
 9882SOL    HW130545   3.076   3.558   4.483
 9882SOL    HW230546   3.189   3.578   4.367
 9883SOL     OW30547   1.713   5.999   2.486
 9883SOL    HW130548   1.795   6.045   2.521
 9883SOL    HW230549   1.739   5.914   2.441
 9884SOL     OW30550   3.297   2.541   5.294
 9884SOL    HW130551   3.352   2.491   5.361
 9884SOL    HW230552   3.236   2.478   5.247
 9885SOL     OW30553   5.270   2.410   5.204
 9885SOL    HW130554   5.351   2.359   5.175
 9885SOL    HW230555   5.207   2.348   5.250
 9886SOL     OW30556   2.488   6.395   1.373
 9886SOL    HW130557   2.518   6.376   1.280
 9886SOL    HW230558   2.531   6.479   1.406
 9887SOL     OW30559   3.926   0.851   0.117
 9887SOL    HW130560   3.914   0.907   0.199
 9887SOL    HW230561   3.862   0.775   0.118
 9888SOL     OW30562   6.183   6.637   4.311
 9888SOL    HW130563   6.098   6.618   4.360
 9888SOL    HW230564   6.257   6.653   4.376
 9889SOL     OW30565   6.345   5.880   2.163
 9889SOL    HW130566   6.285   5.838   2.096
 9889SOL    HW230567   6.401   5.950   2.119
 9890SOL     OW30568   1.803   2.811   3.076
 9890SOL    HW130569   1.791   2.773   3.168
 9890SOL    HW230570   1.866   2.752   3.024
 9891SOL     OW30571   3.951   6.583   1.840
 9891SOL    HW130572   4.025   6.647   1.858
 9891SOL    HW230573   3.981   6.490   1.863
 9892SOL     OW30574   2.160   6.073   3.216
 9892SOL    HW130575   2.151   6.090   3.118
 9892SOL    HW230576   2.081   6.023   3.249
 9893SOL     OW30577   5.880   4.560   5.046
 9893SOL    HW130578   5.813   4.486   5.036
 9893SOL    HW230579   5.865   4.606   5.133
 9894SOL     OW30580   4.151   3.779   5.912
 9894SOL    HW130581   4.120   3.815   6.000
 9894SOL    HW230582   4.084   3.800   5.841
 9895SOL     OW30583   5.277   1.896   5.447
 9895SOL    HW130584   5.227   1.818   5.412
 9895SOL    HW230585   5.363   1.865   5.488
 9896SOL     OW30586   4.219   4.088   0.627
 9896SOL    HW130587   4.181   4.011   0.679
 9896SOL    HW230588   4.185   4.085   0.533
 9897SOL     OW30589   1.268   1.458   2.472
 9897SOL    HW130590   1.218   1.542   2.448
 9897SOL    HW230591   1.352   1.482   2.520
 9898SOL     OW30592   0.482   5.573   0.062
 9898SOL    HW130593   0.425   5.568   6.991
 9898SOL    HW230594   0.446   5.644   0.123
 9899SOL     OW30595   4.142   5.759   1.348
 9899SOL    HW130596   4.109   5.697   1.419
 9899SOL    HW230597   4.210   5.712   1.291
 9900SOL     OW30598   2.120   4.921   3.489
 9900SOL    HW130599   2.197   4.973   3.452
 9900SOL    HW230600   2.051   4.908   3.418
 9901SOL     OW30601   3.133   1.744   6.078
 9901SOL    HW130602   3.070   1.818   6.056
 9901SOL    HW230603   3.199   1.733   6.003
 9902SOL     OW30604   4.057   4.042   0.400
 9902SOL    HW130605   4.036   3.963   0.343
 9902SOL    HW230606   4.015   4.124   0.361
 9903SOL     OW30607   2.405   1.036   1.071
 9903SOL    HW130608   2.406   0.951   1.123
 9903SOL    HW230609   2.491   1.047   1.022
 9904SOL     OW30610   6.704   6.460   2.214
 9904SOL    HW130611   6.612   6.474   2.176
 9904SOL    HW230612   6.696   6.426   2.308
 9905SOL     OW30613   2.417   0.090   6.755
 9905SOL    HW130614   2.336   0.044   6.790
 9905SOL    HW230615   2.499   0.043   6.788
 9906SOL     OW30616   3.639   3.931   5.609
 9906SOL    HW130617   3.637   3.849   5.667
 9906SOL    HW230618   3.559   3.988   5.629
 9907SOL     OW30619   0.931   6.490   2.748
 9907SOL    HW130620   0.893   6.448   2.830
 9907SOL    HW230621   1.007   6.549   2.773
 9908SOL     OW30622   6.692   2.885   4.589
 9908SOL    HW130623   6.758   2.958   4.610
 9908SOL    HW230624   6.647   2.906   4.502
 9909SOL     OW30625   2.419   6.120   2.994
 9909SOL    HW130626   2.415   6.102   3.092
 9909SOL    HW230627   2.415   6.219   2.977
 9910SOL     OW30628   0.546   5.602   0.872
 9910SOL    HW130629   0.449   5.600   0.847
 9910SOL    HW230630   0.553   5.618   0.971
 9911SOL     OW30631   4.043   5.044   2.698
 9911SOL    HW130632   4.044   5.141   2.723
 9911SOL    HW230633   3.985   5.031   2.618
 9912SOL     OW30634   5.741   6.597   6.785
 9912SOL    HW130635   5.725   6.685   6.830
 9912SOL    HW230636   5.796   6.611   6.702
 9913SOL     OW30637   5.565   1.913   3.049
 9913SOL    HW130638   5.469   1.925   3.026
 9913SOL    HW230639   5.607   1.849   2.985
 9914SOL     OW30640   1.771   4.950   3.928
 9914SOL    HW130641   1.747   5.046   3.942
 9914SOL    HW230642   1.839   4.943   3.855
 9915SOL     OW30643   6.278   4.789   4.304
 9915SOL    HW130644   6.329   4.707   4.279
 9915SOL    HW230645   6.266   4.847   4.223
 9916SOL     OW30646   1.833   3.202   0.386
 9916SOL    HW130647   1.901   3.187   0.315
 9916SOL    HW230648   1.849   3.291   0.429
 9917SOL     OW30649   1.687   3.466   4.730
 9917SOL    HW130650   1.681   3.374   4.690
 9917SOL    HW230651   1.747   3.522   4.675
 9918SOL     OW30652   1.864   1.786   4.851
 9918SOL    HW130653   1.881   1.783   4.753
 9918SOL    HW230654   1.934   1.842   4.895
 9919SOL     OW30655   1.120   5.681   1.184
 9919SOL    HW130656   1.097   5.627   1.103
 9919SOL    HW230657   1.127   5.777   1.160
 9920SOL     OW30658   3.367   0.711   3.107
 9920SOL    HW130659   3.406   0.761   3.184
 9920SOL    HW230660   3.340   0.776   3.036
 9921SOL     OW30661   5.034   0.780   2.275
 9921SOL    HW130662   5.060   0.684   2.284
 9921SOL    HW230663   4.941   0.792   2.310
 9922SOL     OW30664   5.913   3.124   2.045
 9922SOL    HW130665   5.958   3.166   2.124
 9922SOL    HW230666   5.845   3.057   2.077
 9923SOL     OW30667   5.940   6.998   6.321
 9923SOL    HW130668   5.855   6.951   6.297
 9923SOL    HW230669   5.990   0.010   6.237
 9924SOL     OW30670   5.440   0.733   3.623
 9924SOL    HW130671   5.432   0.659   3.556
 9924SOL    HW230672   5.397   0.815   3.587
 9925SOL     OW30673   3.988   2.155   5.053
 9925SOL    HW130674   4.053   2.230   5.067
 9925SOL    HW230675   3.912   2.185   4.997
 9926SOL     OW30676   2.259   0.842   5.527
 9926SOL    HW130677   2.171   0.862   5.570
 9926SOL    HW230678   2.314   0.925   5.524
 9927SOL     OW30679   1.379   3.514   3.937
 9927SOL    HW130680   1.457   3.576   3.941
 9927SOL    HW230681   1.339   3.504   4.028
 9928SOL     OW30682   6.794   2.816   2.145
 9928SOL    HW130683   6.728   2.874   2.193
 9928SOL    HW230684   6.785   2.832   2.046
 9929SOL     OW30685   0.916   4.972   4.939
 9929SOL    HW130686   1.007   4.997   4.905
 9929SOL    HW230687   0.859   4.943   4.862
 9930SOL     OW30688   0.119   5.192   6.427
 9930SOL    HW130689   0.212   5.216   6.398
 9930SOL    HW230690   0.094   5.103   6.390
 9931SOL     OW30691   1.973   4.032   6.969
 9931SOL    HW130692   2.062   4.050   7.010
 9931SOL    HW230693   1.929   4.118   6.944
 9932SOL     OW30694   2.051   2.105   1.358
 9932SOL    HW130695   2.151   2.111   1.354
 9932SOL    HW230696   2.025   2.011   1.382
 9933SOL     OW30697   0.913   1.314   3.728
 9933SOL    HW130698   0.996   1.258   3.727
 9933SOL    HW230699   0.914   1.377   3.651
 9934SOL     OW30700   5.085   0.553   6.265
 9934SOL    HW130701   5.120   0.620   6.331
 9934SOL    HW230702   5.122   0.463   6.286
 9935SOL     OW30703   2.773   3.151   0.208
 9935SOL    HW130704   2.680   3.117   0.194
 9935SOL    HW230705   2.769   3.241   0.252
 9936SOL     OW30706   4.755   5.960   6.842
 9936SOL    HW130707   4.765   5.958   6.742
 9936SOL    HW230708   4.841   5.933   6.885
 9937SOL     OW30709   1.476   6.639   4.237
 9937SOL    HW130710   1.510   6.547   4.258
 9937SOL    HW230711   1.438   6.640   4.144
 9938SOL     OW30712   0.382   1.629   3.025
 9938SOL    HW130713   0.402   1.532   3.041
 9938SOL    HW230714   0.316   1.637   2.950
 9939SOL     OW30715   2.864   3.718   1.275
 9939SOL    HW130716   2.941   3.659   1.249
 9939SOL    HW230717   2.897   3.811   1.292
 9940SOL     OW30718   0.412   0.938   2.904
 9940SOL    HW130719   0.336   0.944   2.968
 9940SOL    HW230720   0.493   0.904   2.951
 9941SOL     OW30721   5.908   3.129   0.275
 9941SOL    HW130722   5.902   3.129   0.175
 9941SOL    HW230723   5.924   3.223   0.307
 9942SOL     OW30724   5.933   5.592   2.628
 9942SOL    HW130725   5.961   5.624   2.538
 9942SOL    HW230726   5.844   5.546   2.621
 9943SOL     OW30727   1.092   4.665   4.982
 9943SOL    HW130728   1.153   4.595   5.019
 9943SOL    HW230729   1.085   4.654   4.883
 9944SOL     OW30730   2.556   5.679   6.526
 9944SOL    HW130731   2.610   5.595   6.534
 9944SOL    HW230732   2.615   5.754   6.496
 9945SOL     OW30733   6.309   3.125   5.757
 9945SOL    HW130734   6.301   3.221   5.730
 9945SOL    HW230735   6.219   3.092   5.786
 9946SOL     OW30736   5.828   2.141   1.108
 9946SOL    HW130737   5.862   2.199   1.181
 9946SOL    HW230738   5.765   2.073   1.146
 9947SOL     OW30739   0.539   0.485   3.148
 9947SOL    HW130740   0.615   0.477   3.083
 9947SOL    HW230741   0.456   0.512   3.099
 9948SOL     OW30742   5.221   0.792   5.525
 9948SOL    HW130743   5.177   0.876   5.492
 9948SOL    HW230744   5.228   0.727   5.450
 9949SOL     OW30745   6.766   3.212   2.512
 9949SOL    HW130746   6.669   3.210   2.490
 9949SOL    HW230747   6.802   3.303   2.494
 9950SOL     OW30748   5.067   5.079   6.377
 9950SOL    HW130749   5.122   5.146   6.428
 9950SOL    HW230750   5.127   5.023   6.320
 9951SOL     OW30751   0.088   2.196   2.453
 9951SOL    HW130752   0.016   2.211   2.521
 9951SOL    HW230753   0.105   2.281   2.403
 9952SOL     OW30754   1.429   4.858   1.812
 9952SOL    HW130755   1.448   4.901   1.724
 9952SOL    HW230756   1.359   4.910   1.860
 9953SOL     OW30757   5.618   4.906   4.854
 9953SOL    HW130758   5.659   4.819   4.829
 9953SOL    HW230759   5.527   4.914   4.813
 9954SOL     OW30760   4.441   1.576   1.686
 9954SOL    HW130761   4.485   1.666   1.677
 9954SOL    HW230762   4.475   1.530   1.768
 9955SOL     OW30763   6.353   5.194   1.431
 9955SOL    HW130764   6.268   5.203   1.484
 9955SOL    HW230765   6.426   5.246   1.476
 9956SOL     OW30766   1.751   3.852   3.146
 9956SOL    HW130767   1.660   3.845   3.107
 9956SOL    HW230768   1.745   3.886   3.240
 9957SOL     OW30769   5.744   6.793   0.057
 9957SOL    HW130770   5.843   6.807   0.061
 9957SOL    HW230771   5.698   6.877   0.086
 9958SOL     OW30772   6.609   5.914   5.610
 9958SOL    HW130773   6.602   5.814   5.618
 9958SOL    HW230774   6.527   5.956   5.649
 9959SOL     OW30775   5.946   5.405   6.683
 9959SOL    HW130776   5.920   5.388   6.778
 9959SOL    HW230777   6.039   5.372   6.668
 9960SOL     OW30778   6.789   0.141   6.174
 9960SOL    HW130779   6.813   0.047   6.152
 9960SOL    HW230780   6.741   0.182   6.097
 9961SOL     OW30781   3.419   6.439   0.457
 9961SOL    HW130782   3.322   6.421   0.473
 9961SOL    HW230783   3.467   6.438   0.545
 9962SOL     OW30784   3.471   0.540   1.389
 9962SOL    HW130785   3.529   0.591   1.325
 9962SOL    HW230786   3.520   0.525   1.475
 9963SOL     OW30787   1.356   0.000   6.615
 9963SOL    HW130788   1.321   0.091   6.636
 9963SOL    HW230789   1.444   0.009   6.568
 9964SOL     OW30790   4.567   5.320   5.527
 9964SOL    HW130791   4.551   5.263   5.607
 9964SOL    HW230792   4.580   5.262   5.446
 9965SOL     OW30793   1.844   5.150   4.472
 9965SOL    HW130794   1.871   5.242   4.445
 9965SOL    HW230795   1.925   5.095   4.491
 9966SOL     OW30796   2.271   5.096   1.746
 9966SOL    HW130797   2.208   5.169   1.774
 9966SOL    HW230798   2.246   5.011   1.792
 9967SOL     OW30799   0.140   0.691   2.399
 9967SOL    HW130800   0.176   0.784   2.413
 9967SOL    HW230801   0.041   0.693   2.408
 9968SOL     OW30802   4.851   6.088   0.444
 9968SOL    HW130803   4.930   6.137   0.481
 9968SOL    HW230804   4.879   6.035   0.364
 9969SOL     OW30805   0.618   6.154   3.069
 9969SOL    HW130806   0.588   6.063   3.040
 9969SOL    HW230807   0.715   6.152   3.092
 9970SOL     OW30808   6.793   3.322   1.585
 9970SOL    HW130809   6.831   3.264   1.513
 9970SOL    HW230810   6.868   3.362   1.639
 9971SOL     OW30811   6.756   5.161   5.715
 9971SOL    HW130812   6.796   5.134   5.802
 9971SOL    HW230813   6.743   5.260   5.714
 9972SOL     OW30814   2.873   4.642   5.596
 9972SOL    HW130815   2.898   4.735   5.622
 9972SOL    HW230816   2.830   4.643   5.506
 9973SOL     OW30817   2.774   2.336   3.063
 9973SOL    HW130818   2.791   2.374   2.972
 9973SOL    HW230819   2.679   2.353   3.089
 9974SOL     OW30820   0.864   2.948   3.199
 9974SOL    HW130821   0.935   2.956   3.270
 9974SOL    HW230822   0.907   2.952   3.109
 9975SOL     OW30823   1.231   4.463   0.318
 9975SOL    HW130824   1.260   4.436   0.410
 9975SOL    HW230825   1.150   4.521   0.324
 9976SOL     OW30826   4.333   5.987   5.280
 9976SOL    HW130827   4.383   5.923   5.222
 9976SOL    HW230828   4.322   5.948   5.371
 9977SOL     OW30829   4.366   0.294   5.517
 9977SOL    HW130830   4.325   0.235   5.587
 9977SOL    HW230831   4.449   0.251   5.482
 9978SOL     OW30832   6.643   2.623   0.421
 9978SOL    HW130833   6.721   2.677   0.454
 9978SOL    HW230834   6.560   2.652   0.468
 9979SOL     OW30835   3.896   4.037   3.689
 9979SOL    HW130836   3.952   4.079   3.617
 9979SOL    HW230837   3.949   3.965   3.735
 9980SOL     OW30838   0.283   6.998   0.011
 9980SOL    HW130839   0.286   0.087   0.005
 9980SOL    HW230840   0.244   6.960   6.938
 9981SOL     OW30841   5.464   1.495   1.004
 9981SOL    HW130842   5.540   1.431   0.989
 9981SOL    HW230843   5.406   1.498   0.923
 9982SOL     OW30844   2.688   2.292   5.380
 9982SOL    HW130845   2.660   2.197   5.390
 9982SOL    HW230846   2.774   2.296   5.328
 9983SOL     OW30847   0.020   2.939   2.102
 9983SOL    HW130848   6.986   2.854   2.130
 9983SOL    HW230849   7.000   3.014   2.161
 9984SOL     OW30850   0.823   4.363   1.121
 9984SOL    HW130851   0.875   4.411   1.192
 9984SOL    HW230852   0.848   4.266   1.121
 9985SOL     OW30853   4.677   4.296   6.391
 9985SOL    HW130854   4.771   4.322   6.369
 9985SOL    HW230855   4.614   4.351   6.336
 9986SOL     OW30856   5.593   4.564   6.634
 9986SOL    HW130857   5.639   4.481   6.666
 9986SOL    HW230858   5.494   4.554   6.648
 9987SOL     OW30859   4.733   2.600   0.929
 9987SOL    HW130860   4.662   2.583   0.861
 9987SOL    HW230861   4.818   2.556   0.899
 9988SOL     OW30862   5.686   6.320   3.532
 9988SOL    HW130863   5.762   6.303   3.595
 9988SOL    HW230864   5.604   6.276   3.567
 9989SOL     OW30865   5.802   5.656   1.798
 9989SOL    HW130866   5.757   5.714   1.729
 9989SOL    HW230867   5.773   5.561   1.785
 9990SOL     OW30868   0.392   5.825   2.810
 9990SOL    HW130869   0.391   5.729   2.780
 9990SOL    HW230870   0.382   5.884   2.731
 9991SOL     OW30871   1.921   3.510   1.803
 9991SOL    HW130872   1.858   3.587   1.791
 9991SOL    HW230873   2.009   3.543   1.835
 9992SOL     OW30874   2.092   4.713   0.220
 9992SOL    HW130875   2.045   4.626   0.237
 9992SOL    HW230876   2.183   4.710   0.262
 9993SOL     OW30877   3.447   6.901   4.405
 9993SOL    HW130878   3.527   6.843   4.416
 9993SOL    HW230879   3.380   6.879   4.476
 9994SOL     OW30880   5.603   5.082   5.272
 9994SOL    HW130881   5.513   5.093   5.231
 9994SOL    HW230882   5.603   5.001   5.331
 9995SOL     OW30883   4.422   1.357   6.288
 9995SOL    HW130884   4.355   1.427   6.265
 9995SOL    HW230885   4.417   1.336   6.386
 9996SOL     OW30886   2.453   4.603   0.786
 9996SOL    HW130887   2.536   4.547   0.787
 9996SOL    HW230888   2.476   4.696   0.815
 9997SOL     OW30889   6.234   0.700   2.883
 9997SOL    HW130890   6.192   0.790   2.872
 9997SOL    HW230891   6.218   0.666   2.976
 9998SOL     OW30892   5.300   3.559   2.659
 9998SOL    HW130893   5.232   3.626   2.689
 9998SOL    HW230894   5.261   3.503   2.586
 9999SOL     OW30895   0.741   6.840   5.207
 9999SOL    HW130896   0.706   6.807   5.295
 9999SOL    HW230897   0.694   6.793   5.133
10000SOL     OW30898   4.498   3.172   1.089
10000SOL    HW130899   4.449   3.229   1.154
10000SOL    HW230900   4.478   3.075   1.106
10001SOL     OW30901   3.813   6.589   1.354
10001SOL    HW130902   3.778   6.683   1.352
10001SOL    HW230903   3.903   6.588   1.399
10002SOL     OW30904   1.740   6.473   2.546
10002SOL    HW130905   1.709   6.567   2.555
10002SOL    HW230906   1.838   6.473   2.522
10003SOL     OW30907   0.728   0.994   2.305
10003SOL    HW130908   0.765   1.083   2.332
10003SOL    HW230909   0.691   0.947   2.385
10004SOL     OW30910   0.029   3.098   3.191
10004SOL    HW130911   0.061   3.048   3.111
10004SOL    HW230912   0.104   3.109   3.256
10005SOL     OW30913   2.264   5.743   2.635
10005SOL    HW130914   2.301   5.669   2.579
10005SOL    HW230915   2.292   5.831   2.598
10006SOL     OW30916   5.557   2.012   5.817
10006SOL    HW130917   5.474   2.032   5.765
10006SOL    HW230918   5.547   2.045   5.911
10007SOL     OW30919   1.394   5.089   3.640
10007SOL    HW130920   1.373   5.144   3.721
10007SOL    HW230921   1.319   5.026   3.622
10008SOL     OW30922   3.762   0.673   5.907
10008SOL    HW130923   3.792   0.695   6.000
10008SOL    HW230924   3.744   0.757   5.857
10009SOL     OW30925   1.180   4.939   1.960
10009SOL    HW130926   1.217   4.897   2.042
10009SOL    HW230927   1.094   4.893   1.936
10010SOL     OW30928   2.084   4.492   1.092
10010SOL    HW130929   2.165   4.487   1.033
10010SOL    HW230930   2.100   4.559   1.164
10011SOL     OW30931   3.298   4.005   0.581
10011SOL    HW130932   3.260   3.923   0.539
10011SOL    HW230933   3.343   4.060   0.510
10012SOL     OW30934   5.323   1.906   3.421
10012SOL    HW130935   5.326   1.938   3.516
10012SOL    HW230936   5.417   1.893   3.388
10013SOL     OW30937   0.828   6.337   5.231
10013SOL    HW130938   0.781   6.380   5.308
10013SOL    HW230939   0.911   6.388   5.209
10014SOL     OW30940   1.469   0.924   3.058
10014SOL    HW130941   1.421   0.935   2.971
10014SOL    HW230942   1.539   0.995   3.066
10015SOL     OW30943   4.492   0.076   6.833
10015SOL    HW130944   4.402   0.076   6.790
10015SOL    HW230945   4.490   0.018   6.914
10016SOL     OW30946   3.051   1.151   4.467
10016SOL    HW130947   3.122   1.221   4.460
10016SOL    HW230948   3.057   1.105   4.556
10017SOL     OW30949   2.912   1.182   2.722
10017SOL    HW130950   2.835   1.120   2.741
10017SOL    HW230951   2.970   1.188   2.803
10018SOL     OW30952   0.054   4.751   5.512
10018SOL    HW130953   0.135   4.694   5.523
10018SOL    HW230954   0.041   4.772   5.415
10019SOL     OW30955   6.661   1.865   2.985
10019SOL    HW130956   6.590   1.796   2.971
10019SOL    HW230957   6.749   1.819   3.002
10020SOL     OW30958   6.495   0.629   2.490
10020SOL    HW130959   6.559   0.699   2.458
10020SOL    HW230960   6.458   0.579   2.412
10021SOL     OW30961   1.229   3.474   1.685
10021SOL    HW130962   1.163   3.402   1.664
10021SOL    HW230963   1.294   3.483   1.610
10022SOL     OW30964   1.524   6.683   6.050
10022SOL    HW130965   1.596   6.651   6.112
10022SOL    HW230966   1.509   6.614   5.979
10023SOL     OW30967   0.990   1.680   5.698
10023SOL    HW130968   0.907   1.679   5.755
10023SOL    HW230969   0.967   1.712   5.606
10024SOL     OW30970   2.298   4.201   3.625
10024SOL    HW130971   2.319   4.279   3.684
10024SOL    HW230972   2.271   4.234   3.535
10025SOL     OW30973   0.576   2.601   0.708
10025SOL    HW130974   0.612   2.576   0.798
10025SOL    HW230975   0.500   2.540   0.684
10026SOL     OW30976   6.474   1.038   5.068
10026SOL    HW130977   6.525   1.124   5.062
10026SOL    HW230978   6.515   0.970   5.008
10027SOL     OW30979   3.630   1.001   5.490
10027SOL    HW130980   3.612   1.035   5.398
10027SOL    HW230981   3.545   0.998   5.542
10028SOL     OW30982   3.997   6.723   2.314
10028SOL    HW130983   4.052   6.756   2.391
10028SOL    HW230984   3.940   6.646   2.344
10029SOL     OW30985   6.411   4.846   4.032
10029SOL    HW130986   6.431   4.896   3.947
10029SOL    HW230987   6.495   4.837   4.085
10030SOL     OW30988   2.817   6.815   4.127
10030SOL    HW130989   2.784   6.801   4.220
10030SOL    HW230990   2.917   6.826   4.128
10031SOL     OW30991   2.151   6.408   3.863
10031SOL    HW130992   2.221   6.397   3.791
10031SOL    HW230993   2.192   6.454   3.942
10032SOL     OW30994   3.050   5.904   4.045
10032SOL    HW130995   3.027   5.892   3.948
10032SOL    HW230996   3.001   5.834   4.099
10033SOL     OW30997   2.755   1.263   4.747
10033SOL    HW130998   2.738   1.174   4.706
10033SOL    HW230999   2.854   1.278   4.754
10034SOL     OW31000   2.068   0.984   1.856
10034SOL    HW131001   2.148   1.011   1.909
10034SOL    HW231002   2.000   0.944   1.916
10035SOL     OW31003   0.232   3.361   2.130
10035SOL    HW131004   0.291   3.284   2.106
10035SOL    HW231005   0.184   3.341   2.215
10036SOL     OW31006   0.310   1.106   6.832
10036SOL    HW131007   0.388   1.047   6.812
10036SOL    HW231008   0.315   1.135   6.928
10037SOL     OW31009   6.119   0.351   5.962
10037SOL    HW131010   6.219   0.349   5.972
10037SOL    HW231011   6.079   0.393   6.043
10038SOL     OW31012   5.503   6.577   6.869
10038SOL    HW131013   5.469   6.483   6.872
10038SOL    HW231014   5.597   6.577   6.833
10039SOL     OW31015   0.021   5.530   2.057
10039SOL    HW131016   0.070   5.557   2.140
10039SOL    HW231017   0.058   5.443   2.024
10040SOL     OW31018   2.474   0.120   0.137
10040SOL    HW131019   2.466   0.146   0.234
10040SOL    HW231020   2.411   0.044   0.118
10041SOL     OW31021   5.393   5.187   5.094
10041SOL    HW131022   5.321   5.226   5.151
10041SOL    HW231023   5.358   5.172   5.001
10042SOL     OW31024   6.367   0.679   5.357
10042SOL    HW131025   6.308   0.610   5.314
10042SOL    HW231026   6.335   0.770   5.331
10043SOL     OW31027   0.638   0.602   2.794
10043SOL    HW131028   0.677   0.556   2.715
10043SOL    HW231029   0.542   0.624   2.776
10044SOL     OW31030   2.830   2.369   6.833
10044SOL    HW131031   2.788   2.426   6.904
10044SOL    HW231032   2.880   2.427   6.769
10045SOL     OW31033   4.326   6.812   3.989
10045SOL    HW131034   4.381   6.729   3.982
10045SOL    HW231035   4.243   6.792   4.039
10046SOL     OW31036   6.958   2.346   1.523
10046SOL    HW131037   0.006   2.280   1.476
10046SOL    HW231038   6.981   2.347   1.621
10047SOL     OW31039   1.527   2.723   3.167
10047SOL    HW131040   1.441   2.773   3.161
10047SOL    HW231041   1.542   2.671   3.082
10048SOL     OW31042   3.669   2.557   1.681
10048SOL    HW131043   3.596   2.621   1.705
10048SOL    HW231044   3.655   2.470   1.727
10049SOL     OW31045   1.935   5.790   4.628
10049SOL    HW131046   1.837   5.770   4.630
10049SOL    HW231047   1.984   5.725   4.686
10050SOL     OW31048   5.753   1.417   4.791
10050SOL    HW131049   5.751   1.488   4.721
10050SOL    HW231050   5.841   1.418   4.837
10051SOL     OW31051   6.342   2.277   0.777
10051SOL    HW131052   6.303   2.198   0.824
10051SOL    HW231053   6.442   2.272   0.779
10052SOL     OW31054   1.988   5.252   1.022
10052SOL    HW131055   2.048   5.175   1.003
10052SOL    HW231056   1.943   5.281   0.938
10053SOL     OW31057   2.880   6.279   3.170
10053SOL    HW131058   2.854   6.239   3.258
10053SOL    HW231059   2.964   6.332   3.181
10054SOL     OW31060   4.472   5.312   3.724
10054SOL    HW131061   4.469   5.372   3.804
10054SOL    HW231062   4.498   5.364   3.643
10055SOL     OW31063   5.597   2.851   6.780
10055SOL    HW131064   5.606   2.910   6.861
10055SOL    HW231065   5.632   2.900   6.700
10056SOL     OW31066   5.327   4.169   2.677
10056SOL    HW131067   5.278   4.238   2.730
10056SOL    HW231068   5.310   4.184   2.580
10057SOL     OW31069   2.377   2.643   3.345
10057SOL    HW131070   2.335   2.705   3.411
10057SOL    HW231071   2.319   2.562   3.335
10058SOL     OW31072   0.455   4.854   4.163
10058SOL    HW131073   0.523   4.884   4.096
10058SOL    HW231074   0.460   4.755   4.174
10059SOL     OW31075   5.082   0.053   1.553
10059SOL    HW131076   5.102   7.001   1.628
10059SOL    HW231077   5.090   0.148   1.585
10060SOL     OW31078   2.405   2.420   2.113
10060SOL    HW131079   2.436   2.437   2.207
10060SOL    HW231080   2.484   2.424   2.051
10061SOL     OW31081   6.197   1.966   5.188
10061SOL    HW131082   6.188   1.866   5.188
10061SOL    HW231083   6.277   1.992   5.242
10062SOL     OW31084   5.765   6.334   2.970
10062SOL    HW131085   5.666   6.342   2.969
10062SOL    HW231086   5.795   6.273   2.896
10063SOL     OW31087   0.872   2.576   2.124
10063SOL    HW131088   0.837   2.611   2.037
10063SOL    HW231089   0.953   2.628   2.151
10064SOL     OW31090   4.732   5.734   5.540
10064SOL    HW131091   4.705   5.650   5.491
10064SOL    HW231092   4.820   5.719   5.585
10065SOL     OW31093   0.778   6.711   2.742
10065SOL    HW131094   0.828   6.791   2.710
10065SOL    HW231095   0.836   6.629   2.732
10066SOL     OW31096   0.494   0.988   3.478
10066SOL    HW131097   0.554   0.913   3.449
10066SOL    HW231098   0.478   0.982   3.577
10067SOL     OW31099   4.707   6.809   3.650
10067SOL    HW131100   4.790   6.865   3.645
10067SOL    HW231101   4.660   6.827   3.736
10068SOL     OW31102   5.069   3.804   5.450
10068SOL    HW131103   4.981   3.808   5.403
10068SOL    HW231104   5.142   3.791   5.383
10069SOL     OW31105   5.277   1.275   4.161
10069SOL    HW131106   5.329   1.307   4.081
10069SOL    HW231107   5.204   1.340   4.181
10070SOL     OW31108   1.035   6.915   4.354
10070SOL    HW131109   1.075   6.892   4.443
10070SOL    HW231110   1.099   6.973   4.303
10071SOL     OW31111   4.909   5.054   5.391
10071SOL    HW131112   4.989   4.996   5.404
10071SOL    HW231113   4.874   5.084   5.480
10072SOL     OW31114   1.222   6.419   3.944
10072SOL    HW131115   1.132   6.425   3.987
10072SOL    HW231116   1.278   6.351   3.992
10073SOL     OW31117   6.908   5.945   6.431
10073SOL    HW131118   6.971   5.978   6.502
10073SOL    HW231119   6.902   5.845   6.435
10074SOL     OW31120   2.416   6.953   5.187
10074SOL    HW131121   2.419   6.885   5.114
10074SOL    HW231122   2.479   0.017   5.165
10075SOL     OW31123   1.678   2.381   4.196
10075SOL    HW131124   1.697   2.320   4.273
10075SOL    HW231125   1.656   2.327   4.115
10076SOL     OW31126   5.857   6.818   3.773
10076SOL    HW131127   5.947   6.775   3.773
10076SOL    HW231128   5.825   6.828   3.679
10077SOL     OW31129   2.762   1.581   6.834
10077SOL    HW131130   2.667   1.586   6.865
10077SOL    HW231131   2.823   1.603   6.911
10078SOL     OW31132   5.476   5.866   5.467
10078SOL    HW131133   5.384   5.884   5.502
10078SOL    HW231134   5.514   5.950   5.428
10079SOL     OW31135   7.001   2.496   6.260
10079SOL    HW131136   6.996   2.513   6.161
10079SOL    HW231137   6.914   2.458   6.291
10080SOL     OW31138   0.797   2.755   5.080
10080SOL    HW131139   0.771   2.833   5.137
10080SOL    HW231140   0.769   2.670   5.126
10081SOL     OW31141   0.356   1.513   0.270
10081SOL    HW131142   0.423   1.438   0.271
10081SOL    HW231143   0.337   1.542   0.363
10082SOL     OW31144   6.892   0.428   0.632
10082SOL    HW131145   6.863   0.433   0.727
10082SOL    HW231146   6.926   0.336   0.612
10083SOL     OW31147   5.619   1.505   4.075
10083SOL    HW131148   5.686   1.435   4.101
10083SOL    HW231149   5.652   1.555   3.995
10084SOL     OW31150   2.454   0.913   6.661
10084SOL    HW131151   2.435   0.817   6.637
10084SOL    HW231152   2.549   0.934   6.639
10085SOL     OW31153   1.012   5.066   2.607
10085SOL    HW131154   1.049   5.034   2.695
10085SOL    HW231155   0.912   5.064   2.610
10086SOL     OW31156   6.798   3.461   2.016
10086SOL    HW131157   6.781   3.527   1.943
10086SOL    HW231158   6.888   3.477   2.056
10087SOL     OW31159   2.105   0.364   3.160
10087SOL    HW131160   2.088   0.274   3.199
10087SOL    HW231161   2.196   0.367   3.120
10088SOL     OW31162   6.295   0.302   4.563
10088SOL    HW131163   6.340   0.388   4.586
10088SOL    HW231164   6.196   0.317   4.556
10089SOL     OW31165   2.083   2.321   2.236
10089SOL    HW131166   2.180   2.347   2.235
10089SOL    HW231167   2.027   2.401   2.216
10090SOL     OW31168   6.852   5.207   2.318
10090SOL    HW131169   6.823   5.297   2.285
10090SOL    HW231170   6.942   5.215   2.361
10091SOL     OW31171   0.177   1.830   3.842
10091SOL    HW131172   0.189   1.790   3.752
10091SOL    HW231173   0.253   1.890   3.863
10092SOL     OW31174   1.666   2.893   5.230
10092SOL    HW131175   1.742   2.957   5.243
10092SOL    HW231176   1.585   2.944   5.202
10093SOL     OW31177   6.998   5.876   5.907
10093SOL    HW131178   6.998   5.814   5.985
10093SOL    HW231179   6.904   5.893   5.877
10094SOL     OW31180   1.863   1.135   2.040
10094SOL    HW131181   1.941   1.081   2.073
10094SOL    HW231182   1.889   1.181   1.955
10095SOL     OW31183   0.018   2.173   5.239
10095SOL    HW131184   0.052   2.235   5.169
10095SOL    HW231185   0.047   2.205   5.329
10096SOL     OW31186   0.025   5.622   2.465
10096SOL    HW131187   0.022   5.703   2.525
10096SOL    HW231188   6.949   5.613   2.416
10097SOL     OW31189   1.119   2.479   5.797
10097SOL    HW131190   1.144   2.565   5.753
10097SOL    HW231191   1.022   2.480   5.819
10098SOL     OW31192   3.643   5.007   6.465
10098SOL    HW131193   3.644   5.058   6.551
10098SOL    HW231194   3.732   5.016   6.420
10099SOL     OW31195   6.813   5.072   4.700
10099SOL    HW131196   6.805   4.972   4.702
10099SOL    HW231197   6.826   5.106   4.793
10100SOL     OW31198   5.095   0.655   5.781
10100SOL    HW131199   5.134   0.744   5.757
10100SOL    HW231200   5.084   0.600   5.698
10101SOL     OW31201   6.799   4.546   2.840
10101SOL    HW131202   6.748   4.583   2.917
10101SOL    HW231203   6.797   4.611   2.764
10102SOL     OW31204   3.766   0.064   4.225
10102SOL    HW131205   3.809   0.145   4.185
10102SOL    HW231206   3.702   0.092   4.297
10103SOL     OW31207   0.935   2.158   0.863
10103SOL    HW131208   0.996   2.183   0.788
10103SOL    HW231209   0.938   2.228   0.934
10104SOL     OW31210   2.237   6.066   5.811
10104SOL    HW131211   2.183   6.133   5.761
10104SOL    HW231212   2.183   6.030   5.887
10105SOL     OW31213   3.271   0.601   0.239
10105SOL    HW131214   3.246   0.623   0.334
10105SOL    HW231215   3.309   0.509   0.235
10106SOL     OW31216   4.549   5.152   1.558
10106SOL    HW131217   4.546   5.251   1.571
10106SOL    HW231218   4.630   5.127   1.506
10107SOL     OW31219   5.698   1.187   5.739
10107SOL    HW131220   5.628   1.141   5.794
10107SOL    HW231221   5.786   1.141   5.752
10108SOL     OW31222   6.083   6.212   6.847
10108SOL    HW131223   6.136   6.147   6.903
10108SOL    HW231224   6.146   6.268   6.794
10109SOL     OW31225   4.493   6.003   3.565
10109SOL    HW131226   4.396   5.979   3.573
10109SOL    HW231227   4.547   5.946   3.626
10110SOL     OW31228   3.267   1.568   5.165
10110SOL    HW131229   3.312   1.499   5.223
10110SOL    HW231230   3.281   1.659   5.204
10111SOL     OW31231   0.130   2.565   2.583
10111SOL    HW131232   0.130   2.539   2.680
10111SOL    HW231233   0.083   2.653   2.572
10112SOL     OW31234   4.157   3.296   5.986
10112SOL    HW131235   4.173   3.359   5.910
10112SOL    HW231236   4.143   3.347   6.070
10113SOL     OW31237   4.215   6.920   0.512
10113SOL    HW131238   4.192   7.006   0.468
10113SOL    HW231239   4.299   6.932   0.566
10114SOL     OW31240   4.545   1.396   1.879
10114SOL    HW131241   4.620   1.429   1.821
10114SOL    HW231242   4.577   1.390   1.974
10115SOL     OW31243   1.199   1.525   4.378
10115SOL    HW131244   1.101   1.539   4.393
10115SOL    HW231245   1.238   1.607   4.336
10116SOL     OW31246   0.475   0.567   0.438
10116SOL    HW131247   0.527   0.516   0.507
10116SOL    HW231248   0.382   0.582   0.472
10117SOL     OW31249   4.520   0.511   5.478
10117SOL    HW131250   4.478   0.585   5.531
10117SOL    HW231251   4.463   0.429   5.483
10118SOL     OW31252   5.931   5.518   2.109
10118SOL    HW131253   6.018   5.518   2.061
10118SOL    HW231254   5.939   5.571   2.193
10119SOL     OW31255   2.395   0.160   5.964
10119SOL    HW131256   2.429   0.238   6.018
10119SOL    HW231257   2.465   0.088   5.962
10120SOL     OW31258   5.679   2.961   3.437
10120SOL    HW131259   5.640   3.051   3.419
10120SOL    HW231260   5.711   2.920   3.351
10121SOL     OW31261   5.671   4.839   3.854
10121SOL    HW131262   5.688   4.932   3.823
10121SOL    HW231263   5.716   4.775   3.792
10122SOL     OW31264   5.110   3.067   6.640
10122SOL    HW131265   5.204   3.086   6.670
10122SOL    HW231266   5.052   3.146   6.658
10123SOL     OW31267   0.109   6.675   0.347
10123SOL    HW131268   0.160   6.756   0.319
10123SOL    HW231269   0.108   6.669   0.447
10124SOL     OW31270   3.348   4.375   1.088
10124SOL    HW131271   3.280   4.448   1.087
10124SOL    HW231272   3.344   4.327   1.176
10125SOL     OW31273   2.189   0.650   0.437
10125SOL    HW131274   2.188   0.691   0.346
10125SOL    HW231275   2.283   0.628   0.463
10126SOL     OW31276   5.588   5.134   6.934
10126SOL    HW131277   5.517   5.071   6.966
10126SOL    HW231278   5.636   5.173   0.003
10127SOL     OW31279   3.536   5.072   5.236
10127SOL    HW131280   3.561   4.976   5.251
10127SOL    HW231281   3.533   5.091   5.138
10128SOL     OW31282   0.237   1.680   1.431
10128SOL    HW131283   0.152   1.690   1.379
10128SOL    HW231284   0.241   1.750   1.502
10129SOL     OW31285   5.219   2.475   3.357
10129SOL    HW131286   5.228   2.521   3.268
10129SOL    HW231287   5.310   2.458   3.395
10130SOL     OW31288   6.323   6.051   1.338
10130SOL    HW131289   6.412   6.095   1.346
10130SOL    HW231290   6.259   6.111   1.291
10131SOL     OW31291   0.183   0.167   0.339
10131SOL    HW131292   0.173   0.267   0.339
10131SOL    HW231293   0.263   0.142   0.394
10132SOL     OW31294   2.546   0.138   2.623
10132SOL    HW131295   2.496   0.054   2.642
10132SOL    HW231296   2.642   0.117   2.603
10133SOL     OW31297   5.903   4.750   2.372
10133SOL    HW131298   5.995   4.715   2.353
10133SOL    HW231299   5.897   4.777   2.468
10134SOL     OW31300   0.507   1.611   1.826
10134SOL    HW131301   0.527   1.709   1.829
10134SOL    HW231302   0.458   1.584   1.909
10135SOL     OW31303   3.068   6.391   2.878
10135SOL    HW131304   2.977   6.432   2.863
10135SOL    HW231305   3.097   6.408   2.972
10136SOL     OW31306   6.391   6.785   2.263
10136SOL    HW131307   6.484   6.800   2.298
10136SOL    HW231308   6.391   6.796   2.164
10137SOL     OW31309   5.654   5.152   4.460
10137SOL    HW131310   5.665   5.057   4.433
10137SOL    HW231311   5.623   5.157   4.555
10138SOL     OW31312   5.433   2.135   6.040
10138SOL    HW131313   5.380   2.057   6.073
10138SOL    HW231314   5.388   2.220   6.066
10139SOL     OW31315   3.714   2.927   3.432
10139SOL    HW131316   3.677   2.935   3.339
10139SOL    HW231317   3.745   2.833   3.447
10140SOL     OW31318   1.150   5.355   4.373
10140SOL    HW131319   1.244   5.361   4.339
10140SOL    HW231320   1.088   5.401   4.310
10141SOL     OW31321   2.255   0.676   3.829
10141SOL    HW131322   2.222   0.770   3.815
10141SOL    HW231323   2.191   0.612   3.786
10142SOL     OW31324   5.076   6.025   4.077
10142SOL    HW131325   5.122   6.024   4.166
10142SOL    HW231326   5.057   5.931   4.049
10143SOL     OW31327   4.807   5.966   1.534
10143SOL    HW131328   4.837   5.928   1.447
10143SOL    HW231329   4.799   5.894   1.602
10144SOL     OW31330   2.776   4.701   2.946
10144SOL    HW131331   2.756   4.790   2.904
10144SOL    HW231332   2.762   4.708   3.045
10145SOL     OW31333   2.829   6.932   6.112
10145SOL    HW131334   2.850   6.995   6.187
10145SOL    HW231335   2.759   6.867   6.142
10146SOL     OW31336   5.072   4.949   4.143
10146SOL    HW131337   5.146   4.908   4.196
10146SOL    HW231338   4.998   4.975   4.205
10147SOL     OW31339   4.816   5.758   4.426
10147SOL    HW131340   4.878   5.682   4.446
10147SOL    HW231341   4.724   5.734   4.455
10148SOL     OW31342   6.278   5.139   0.448
10148SOL    HW131343   6.231   5.135   0.536
10148SOL    HW231344   6.218   5.178   0.379
10149SOL     OW31345   4.341   3.469   0.873
10149SOL    HW131346   4.420   3.408   0.863
10149SOL    HW231347   4.298   3.483   0.784
10150SOL     OW31348   5.334   4.067   0.946
10150SOL    HW131349   5.386   4.083   0.863
10150SOL    HW231350   5.393   4.080   1.026
10151SOL     OW31351   1.083   6.115   5.696
10151SOL    HW131352   1.066   6.041   5.631
10151SOL    HW231353   1.025   6.104   5.776
10152SOL     OW31354   0.238   5.727   4.347
10152SOL    HW131355   0.235   5.630   4.372
10152SOL    HW231356   0.195   5.782   4.419
10153SOL     OW31357   5.217   5.775   4.003
10153SOL    HW131358   5.205   5.709   4.077
10153SOL    HW231359   5.156   5.752   3.927
10154SOL     OW31360   6.729   5.934   5.866
10154SOL    HW131361   6.715   5.937   5.767
10154SOL    HW231362   6.693   6.017   5.907
10155SOL     OW31363   3.747   1.808   6.188
10155SOL    HW131364   3.789   1.769   6.270
10155SOL    HW231365   3.657   1.768   6.174
10156SOL     OW31366   5.969   0.087   2.227
10156SOL    HW131367   6.065   0.084   2.256
10156SOL    HW231368   5.931   0.177   2.247
10157SOL     OW31369   4.788   0.582   4.545
10157SOL    HW131370   4.732   0.620   4.618
10157SOL    HW231371   4.870   0.540   4.584
10158SOL     OW31372   4.850   3.589   5.914
10158SOL    HW131373   4.804   3.574   5.826
10158SOL    HW231374   4.787   3.634   5.977
10159SOL     OW31375   1.681   1.244   6.352
10159SOL    HW131376   1.693   1.171   6.419
10159SOL    HW231377   1.756   1.309   6.360
10160SOL     OW31378   0.719   5.850   3.424
10160SOL    HW131379   0.656   5.904   3.369
10160SOL    HW231380   0.707   5.872   3.521
10161SOL     OW31381   2.284   5.812   5.573
10161SOL    HW131382   2.330   5.863   5.646
10161SOL    HW231383   2.264   5.720   5.604
10162SOL     OW31384   3.389   2.672   6.856
10162SOL    HW131385   3.455   2.650   6.784
10162SOL    HW231386   3.303   2.703   6.814
10163SOL     OW31387   0.108   2.920   5.841
10163SOL    HW131388   0.118   2.997   5.903
10163SOL    HW231389   0.152   2.942   5.754
10164SOL     OW31390   1.347   2.609   5.429
10164SOL    HW131391   1.388   2.519   5.415
10164SOL    HW231392   1.419   2.678   5.441
10165SOL     OW31393   0.213   1.930   3.176
10165SOL    HW131394   0.226   2.028   3.191
10165SOL    HW231395   0.119   1.905   3.199
10166SOL     OW31396   0.597   1.402   2.159
10166SOL    HW131397   0.591   1.371   2.254
10166SOL    HW231398   0.687   1.382   2.123
10167SOL     OW31399   4.989   0.625   0.914
10167SOL    HW131400   5.072   0.582   0.949
10167SOL    HW231401   4.976   0.714   0.959
10168SOL     OW31402   6.504   4.759   4.795
10168SOL    HW131403   6.517   4.827   4.867
10168SOL    HW231404   6.460   4.801   4.716
10169SOL     OW31405   6.520   4.270   4.319
10169SOL    HW131406   6.570   4.214   4.384
10169SOL    HW231407   6.518   4.365   4.352
10170SOL     OW31408   1.280   3.794   4.690
10170SOL    HW131409   1.268   3.876   4.746
10170SOL    HW231410   1.191   3.753   4.672
10171SOL     OW31411   6.003   3.035   6.134
10171SOL    HW131412   5.911   3.021   6.170
10171SOL    HW231413   6.054   3.094   6.197
10172SOL     OW31414   4.616   0.960   4.298
10172SOL    HW131415   4.577   0.892   4.360
10172SOL    HW231416   4.707   0.986   4.331
10173SOL     OW31417   2.446   2.262   3.370
10173SOL    HW131418   2.483   2.169   3.372
10173SOL    HW231419   2.441   2.294   3.276
10174SOL     OW31420   6.023   4.267   1.109
10174SOL    HW131421   6.119   4.257   1.135
10174SOL    HW231422   6.005   4.214   1.025
10175SOL     OW31423   6.025   2.387   5.899
10175SOL    HW131424   6.034   2.476   5.855
10175SOL    HW231425   5.986   2.322   5.834
10176SOL     OW31426   2.259   3.678   0.223
10176SOL    HW131427   2.282   3.700   0.318
10176SOL    HW231428   2.280   3.756   0.165
10177SOL     OW31429   2.007   0.066   5.545
10177SOL    HW131430   2.074   0.014   5.597
10177SOL    HW231431   2.019   0.049   5.447
10178SOL     OW31432   5.277   3.273   5.470
10178SOL    HW131433   5.284   3.368   5.442
10178SOL    HW231434   5.310   3.214   5.397
10179SOL     OW31435   0.030   3.456   6.241
10179SOL    HW131436   6.947   3.475   6.210
10179SOL    HW231437   0.093   3.471   6.165
10180SOL     OW31438   2.258   6.479   5.717
10180SOL    HW131439   2.345   6.460   5.672
10180SOL    HW231440   2.274   6.530   5.801
10181SOL     OW31441   5.819   3.438   1.829
10181SOL    HW131442   5.897   3.493   1.859
10181SOL    HW231443   5.777   3.393   1.908
10182SOL     OW31444   4.216   1.254   0.158
10182SOL    HW131445   4.127   1.277   0.199
10182SOL    HW231446   4.289   1.292   0.215
10183SOL     OW31447   1.758   1.130   6.583
10183SOL    HW131448   1.695   1.178   6.643
10183SOL    HW231449   1.841   1.185   6.571
10184SOL     OW31450   4.773   0.344   6.870
10184SOL    HW131451   4.754   0.404   6.793
10184SOL    HW231452   4.795   0.252   6.837
10185SOL     OW31453   4.867   1.210   0.056
10185SOL    HW131454   4.940   1.142   0.047
10185SOL    HW231455   4.828   1.229   6.976
10186SOL     OW31456   4.749   2.171   2.903
10186SOL    HW131457   4.717   2.263   2.882
10186SOL    HW231458   4.703   2.105   2.843
10187SOL     OW31459   0.741   2.301   1.982
10187SOL    HW131460   0.645   2.291   2.008
10187SOL    HW231461   0.796   2.313   2.064
10188SOL     OW31462   3.902   4.929   0.630
10188SOL    HW131463   3.908   4.905   0.533
10188SOL    HW231464   3.992   4.959   0.663
10189SOL     OW31465   1.467   6.826   5.689
10189SOL    HW131466   1.473   6.893   5.615
10189SOL    HW231467   1.406   6.752   5.662
10190SOL     OW31468   4.764   2.744   6.985
10190SOL    HW131469   4.717   2.695   0.048
10190SOL    HW231470   4.794   2.679   6.915
10191SOL     OW31471   6.867   5.062   6.630
10191SOL    HW131472   6.875   5.161   6.616
10191SOL    HW231473   6.859   5.016   6.542
10192SOL     OW31474   3.747   1.423   0.442
10192SOL    HW131475   3.846   1.437   0.453
10192SOL    HW231476   3.730   1.358   0.368
10193SOL     OW31477   4.223   4.360   0.740
10193SOL    HW131478   4.256   4.272   0.704
10193SOL    HW231479   4.162   4.403   0.673
10194SOL     OW31480   4.968   2.933   5.211
10194SOL    HW131481   4.969   2.896   5.118
10194SOL    HW231482   4.988   2.860   5.276
10195SOL     OW31483   6.021   4.360   1.654
10195SOL    HW131484   6.004   4.420   1.576
10195SOL    HW231485   5.933   4.326   1.688
10196SOL     OW31486   0.465   1.742   4.641
10196SOL    HW131487   0.368   1.767   4.631
10196SOL    HW231488   0.514   1.764   4.557
10197SOL     OW31489   5.475   0.762   6.719
10197SOL    HW131490   5.421   0.712   6.786
10197SOL    HW231491   5.423   0.840   6.684
10198SOL     OW31492   4.294   6.723   3.452
10198SOL    HW131493   4.212   6.772   3.483
10198SOL    HW231494   4.371   6.786   3.447
10199SOL     OW31495   0.467   2.107   5.259
10199SOL    HW131496   0.460   2.038   5.187
10199SOL    HW231497   0.446   2.065   5.347
10200SOL     OW31498   5.060   1.838   1.796
10200SOL    HW131499   5.016   1.914   1.844
10200SOL    HW231500   5.077   1.865   1.701
10201SOL     OW31501   1.148   3.983   0.629
10201SOL    HW131502   1.126   4.075   0.662
10201SOL    HW231503   1.101   3.967   0.542
10202SOL     OW31504   5.151   0.764   4.173
10202SOL    HW131505   5.068   0.727   4.214
10202SOL    HW231506   5.153   0.863   4.184
10203SOL     OW31507   6.988   2.808   4.354
10203SOL    HW131508   6.955   2.789   4.446
10203SOL    HW231509   0.048   2.742   4.329
10204SOL     OW31510   5.702   5.012   6.322
10204SOL    HW131511   5.714   4.920   6.359
10204SOL    HW231512   5.719   5.080   6.394
10205SOL     OW31513   0.484   1.354   6.410
10205SOL    HW131514   0.468   1.256   6.414
10205SOL    HW231515   0.414   1.402   6.462
10206SOL     OW31516   1.929   1.388   5.126
10206SOL    HW131517   1.912   1.289   5.128
10206SOL    HW231518   1.848   1.435   5.093
10207SOL     OW31519   2.420   2.731   5.721
10207SOL    HW131520   2.500   2.674   5.700
10207SOL    HW231521   2.347   2.673   5.758
10208SOL     OW31522   0.127   6.447   5.463
10208SOL    HW131523   0.042   6.407   5.499
10208SOL    HW231524   0.201   6.380   5.470
10209SOL     OW31525   0.035   6.435   5.725
10209SOL    HW131526   6.997   6.420   5.811
10209SOL    HW231527   0.126   6.473   5.745
10210SOL     OW31528   3.851   0.246   1.797
10210SOL    HW131529   3.823   0.216   1.888
10210SOL    HW231530   3.782   0.310   1.760
10211SOL     OW31531   5.178   5.713   5.978
10211SOL    HW131532   5.123   5.637   6.014
10211SOL    HW231533   5.205   5.693   5.884
10212SOL     OW31534   0.936   0.556   6.612
10212SOL    HW131535   0.947   0.593   6.704
10212SOL    HW231536   0.919   0.458   6.618
10213SOL     OW31537   6.620   2.455   1.020
10213SOL    HW131538   6.609   2.529   0.953
10213SOL    HW231539   6.711   2.463   1.063
10214SOL     OW31540   1.522   2.825   0.075
10214SOL    HW131541   1.477   2.763   0.010
10214SOL    HW231542   1.620   2.808   0.075
10215SOL     OW31543   3.244   4.008   2.753
10215SOL    HW131544   3.198   3.976   2.837
10215SOL    HW231545   3.179   4.008   2.678
10216SOL     OW31546   0.678   5.978   1.932
10216SOL    HW131547   0.609   6.007   1.865
10216SOL    HW231548   0.632   5.933   2.009
10217SOL     OW31549   4.218   1.840   5.158
10217SOL    HW131550   4.138   1.836   5.097
10217SOL    HW231551   4.298   1.869   5.105
10218SOL     OW31552   1.183   3.372   2.715
10218SOL    HW131553   1.122   3.373   2.636
10218SOL    HW231554   1.277   3.357   2.684
10219SOL     OW31555   0.174   5.888   2.981
10219SOL    HW131556   0.258   5.897   2.927
10219SOL    HW231557   0.099   5.864   2.920
10220SOL     OW31558   3.329   3.209   0.306
10220SOL    HW131559   3.238   3.199   0.347
10220SOL    HW231560   3.398   3.214   0.378
10221SOL     OW31561   1.006   5.073   3.382
10221SOL    HW131562   1.080   5.034   3.437
10221SOL    HW231563   0.966   5.151   3.430
10222SOL     OW31564   3.425   3.602   3.657
10222SOL    HW131565   3.501   3.601   3.722
10222SOL    HW231566   3.453   3.647   3.573
10223SOL     OW31567   2.617   6.571   1.138
10223SOL    HW131568   2.638   6.478   1.109
10223SOL    HW231569   2.548   6.611   1.077
10224SOL     OW31570   6.744   3.237   2.942
10224SOL    HW131571   6.816   3.269   3.004
10224SOL    HW231572   6.745   3.292   2.859
10225SOL     OW31573   1.772   3.657   5.965
10225SOL    HW131574   1.694   3.670   5.904
10225SOL    HW231575   1.853   3.699   5.924
10226SOL     OW31576   4.997   4.283   0.203
10226SOL    HW131577   4.900   4.264   0.194
10226SOL    HW231578   5.026   4.266   0.297
10227SOL     OW31579   5.917   3.680   1.590
10227SOL    HW131580   5.913   3.613   1.517
10227SOL    HW231581   5.956   3.638   1.672
10228SOL     OW31582   5.201   0.253   0.888
10228SOL    HW131583   5.209   0.291   0.796
10228SOL    HW231584   5.216   0.154   0.885
10229SOL     OW31585   0.253   2.504   4.862
10229SOL    HW131586   0.342   2.479   4.825
10229SOL    HW231587   0.243   2.603   4.862
10230SOL     OW31588   6.615   6.432   1.270
10230SOL    HW131589   6.611   6.486   1.354
10230SOL    HW231590   6.548   6.467   1.204
10231SOL     OW31591   0.045   4.362   2.620
10231SOL    HW131592   0.142   4.354   2.642
10231SOL    HW231593   0.019   4.459   2.623
10232SOL     OW31594   4.961   4.452   2.830
10232SOL    HW131595   4.945   4.355   2.810
10232SOL    HW231596   4.939   4.470   2.926
10233SOL     OW31597   2.429   4.220   5.272
10233SOL    HW131598   2.333   4.247   5.276
10233SOL    HW231599   2.436   4.123   5.250
10234SOL     OW31600   0.611   0.944   2.052
10234SOL    HW131601   0.583   1.030   2.010
10234SOL    HW231602   0.654   0.962   2.140
10235SOL     OW31603   1.214   1.361   3.293
10235SOL    HW131604   1.277   1.338   3.218
10235SOL    HW231605   1.134   1.408   3.256
10236SOL     OW31606   0.776   0.454   2.620
10236SOL    HW131607   0.743   0.361   2.638
10236SOL    HW231608   0.782   0.470   2.522
10237SOL     OW31609   6.957   3.363   4.663
10237SOL    HW131610   0.008   3.344   4.587
10237SOL    HW231611   0.001   3.380   4.746
10238SOL     OW31612   2.846   6.608   1.322
10238SOL    HW131613   2.751   6.590   1.347
10238SOL    HW231614   2.849   6.667   1.242
10239SOL     OW31615   1.066   2.208   4.856
10239SOL    HW131616   0.978   2.181   4.897
10239SOL    HW231617   1.077   2.307   4.865
10240SOL     OW31618   2.031   6.124   1.032
10240SOL    HW131619   2.131   6.123   1.041
10240SOL    HW231620   2.007   6.141   0.936
10241SOL     OW31621   4.578   3.846   1.714
10241SOL    HW131622   4.488   3.806   1.732
10241SOL    HW231623   4.571   3.912   1.640
10242SOL     OW31624   6.766   3.505   0.624
10242SOL    HW131625   6.693   3.463   0.678
10242SOL    HW231626   6.791   3.443   0.549
10243SOL     OW31627   2.690   5.932   2.113
10243SOL    HW131628   2.735   5.859   2.164
10243SOL    HW231629   2.731   5.940   2.022
10244SOL     OW31630   2.772   4.951   2.012
10244SOL    HW131631   2.849   4.887   2.008
10244SOL    HW231632   2.699   4.919   1.951
10245SOL     OW31633   5.319   4.421   1.013
10245SOL    HW131634   5.406   4.467   1.029
10245SOL    HW231635   5.315   4.337   1.067
10246SOL     OW31636   3.623   3.064   4.169
10246SOL    HW131637   3.556   2.994   4.193
10246SOL    HW231638   3.581   3.154   4.177
10247SOL     OW31639   0.756   2.579   4.563
10247SOL    HW131640   0.842   2.612   4.602
10247SOL    HW231641   0.774   2.497   4.509
10248SOL     OW31642   0.197   1.371   5.372
10248SOL    HW131643   0.227   1.276   5.376
10248SOL    HW231644   0.210   1.414   5.461
10249SOL     OW31645   2.616   4.505   6.101
10249SOL    HW131646   2.606   4.514   6.002
10249SOL    HW231647   2.713   4.499   6.125
10250SOL     OW31648   3.300   2.405   0.936
10250SOL    HW131649   3.271   2.498   0.958
10250SOL    HW231650   3.388   2.408   0.889
10251SOL     OW31651   1.644   0.993   4.808
10251SOL    HW131652   1.711   1.064   4.829
10251SOL    HW231653   1.685   0.903   4.824
10252SOL     OW31654   4.371   4.610   5.734
10252SOL    HW131655   4.294   4.552   5.761
10252SOL    HW231656   4.367   4.696   5.785
10253SOL     OW31657   3.696   6.206   6.670
10253SOL    HW131658   3.600   6.187   6.691
10253SOL    HW231659   3.751   6.191   6.751
10254SOL     OW31660   6.652   1.548   6.006
10254SOL    HW131661   6.689   1.491   6.079
10254SOL    HW231662   6.552   1.554   6.016
10255SOL     OW31663   3.892   4.427   1.696
10255SOL    HW131664   3.947   4.373   1.632
10255SOL    HW231665   3.804   4.380   1.712
10256SOL     OW31666   3.224   1.344   4.437
10256SOL    HW131667   3.197   1.416   4.501
10256SOL    HW231668   3.225   1.381   4.345
10257SOL     OW31669   3.746   5.666   2.996
10257SOL    HW131670   3.815   5.739   3.000
10257SOL    HW231671   3.662   5.702   2.955
10258SOL     OW31672   2.472   1.763   2.564
10258SOL    HW131673   2.479   1.737   2.660
10258SOL    HW231674   2.431   1.689   2.512
10259SOL     OW31675   1.323   3.625   4.187
10259SOL    HW131676   1.285   3.536   4.212
10259SOL    HW231677   1.286   3.696   4.247
10260SOL     OW31678   0.414   0.248   3.286
10260SOL    HW131679   0.469   0.320   3.243
10260SOL    HW231680   0.364   0.197   3.216
10261SOL     OW31681   0.075   4.244   0.951
10261SOL    HW131682   0.169   4.220   0.973
10261SOL    HW231683   0.033   4.290   1.029
10262SOL     OW31684   3.486   0.523   6.901
10262SOL    HW131685   3.566   0.541   6.844
10262SOL    HW231686   3.501   0.441   6.956
10263SOL     OW31687   5.825   0.534   2.860
10263SOL    HW131688   5.841   0.441   2.826
10263SOL    HW231689   5.854   0.539   2.956
10264SOL     OW31690   6.664   0.253   6.456
10264SOL    HW131691   6.718   0.229   6.376
10264SOL    HW231692   6.584   0.193   6.462
10265SOL     OW31693   1.907   1.753   2.107
10265SOL    HW131694   1.852   1.685   2.157
10265SOL    HW231695   1.850   1.833   2.087
10266SOL     OW31696   2.978   3.433   1.658
10266SOL    HW131697   2.906   3.501   1.661
10266SOL    HW231698   2.953   3.355   1.716
10267SOL     OW31699   6.531   0.278   0.501
10267SOL    HW131700   6.434   0.305   0.495
10267SOL    HW231701   6.588   0.351   0.463
10268SOL     OW31702   3.117   5.550   2.480
10268SOL    HW131703   3.112   5.581   2.574
10268SOL    HW231704   3.057   5.606   2.423
10269SOL     OW31705   2.019   1.459   0.509
10269SOL    HW131706   1.963   1.493   0.434
10269SOL    HW231707   2.006   1.360   0.519
10270SOL     OW31708   2.794   0.230   3.535
10270SOL    HW131709   2.711   0.277   3.565
10270SOL    HW231710   2.872   0.264   3.589
10271SOL     OW31711   2.055   1.011   6.872
10271SOL    HW131712   2.137   0.980   6.919
10271SOL    HW231713   2.080   1.059   6.788
10272SOL     OW31714   6.261   6.695   4.804
10272SOL    HW131715   6.320   6.706   4.884
10272SOL    HW231716   6.173   6.740   4.821
10273SOL     OW31717   1.970   4.945   3.738
10273SOL    HW131718   2.038   4.914   3.804
10273SOL    HW231719   2.007   5.021   3.685
10274SOL     OW31720   1.047   3.985   5.065
10274SOL    HW131721   1.019   3.889   5.072
10274SOL    HW231722   0.973   4.038   5.024
10275SOL     OW31723   6.552   1.531   2.213
10275SOL    HW131724   6.639   1.489   2.189
10275SOL    HW231725   6.549   1.624   2.177
10276SOL     OW31726   2.938   5.653   5.141
10276SOL    HW131727   2.941   5.672   5.239
10276SOL    HW231728   2.890   5.728   5.094
10277SOL     OW31729   1.196   5.499   3.734
10277SOL    HW131730   1.259   5.517   3.659
10277SOL    HW231731   1.141   5.581   3.752
10278SOL     OW31732   6.666   0.140   4.657
10278SOL    HW131733   6.709   0.185   4.578
10278SOL    HW231734   6.702   0.180   4.741
10279SOL     OW31735   1.220   4.919   3.843
10279SOL    HW131736   1.262   4.908   3.933
10279SOL    HW231737   1.140   4.979   3.850
10280SOL     OW31738   6.427   4.936   0.368
10280SOL    HW131739   6.378   5.022   0.382
10280SOL    HW231740   6.407   4.900   0.277
10281SOL     OW31741   6.405   0.747   3.642
10281SOL    HW131742   6.395   0.685   3.720
10281SOL    HW231743   6.391   0.695   3.557
10282SOL     OW31744   5.059   2.718   3.220
10282SOL    HW131745   5.005   2.777   3.280
10282SOL    HW231746   5.124   2.774   3.169
10283SOL     OW31747   0.644   2.669   1.257
10283SOL    HW131748   0.639   2.580   1.210
10283SOL    HW231749   0.740   2.697   1.265
10284SOL     OW31750   0.225   4.532   4.095
10284SOL    HW131751   0.167   4.482   4.031
10284SOL    HW231752   0.208   4.630   4.086
10285SOL     OW31753   0.161   6.540   6.148
10285SOL    HW131754   0.065   6.534   6.119
10285SOL    HW231755   0.211   6.600   6.087
10286SOL     OW31756   2.835   1.545   2.826
10286SOL    HW131757   2.933   1.549   2.846
10286SOL    HW231758   2.785   1.592   2.899
10287SOL     OW31759   1.270   5.331   2.573
10287SOL    HW131760   1.330   5.266   2.621
10287SOL    HW231761   1.244   5.293   2.484
10288SOL     OW31762   3.789   6.023   4.783
10288SOL    HW131763   3.698   6.051   4.815
10288SOL    HW231764   3.813   6.075   4.702
10289SOL     OW31765   4.297   6.386   6.925
10289SOL    HW131766   4.274   6.334   7.007
10289SOL    HW231767   4.394   6.410   6.926
10290SOL     OW31768   2.837   3.507   2.227
10290SOL    HW131769   2.752   3.519   2.278
10290SOL    HW231770   2.816   3.499   2.129
10291SOL     OW31771   2.328   2.041   2.349
10291SOL    HW131772   2.365   2.097   2.424
10291SOL    HW231773   2.396   1.972   2.323
10292SOL     OW31774   0.196   6.681   5.889
10292SOL    HW131775   0.195   6.778   5.865
10292SOL    HW231776   0.226   6.628   5.810
10293SOL     OW31777   1.251   3.522   5.072
10293SOL    HW131778   1.338   3.480   5.097
10293SOL    HW231779   1.266   3.617   5.045
10294SOL     OW31780   2.858   0.153   2.119
10294SOL    HW131781   2.776   0.170   2.065
10294SOL    HW231782   2.909   0.238   2.131
10295SOL     OW31783   1.112   1.429   0.555
10295SOL    HW131784   1.099   1.513   0.503
10295SOL    HW231785   1.187   1.376   0.515
10296SOL     OW31786   6.482   1.749   5.729
10296SOL    HW131787   6.413   1.694   5.776
10296SOL    HW231788   6.483   1.726   5.632
10297SOL     OW31789   4.265   0.918   0.878
10297SOL    HW131790   4.203   0.992   0.852
10297SOL    HW231791   4.247   0.838   0.820
10298SOL     OW31792   0.756   2.024   1.916
10298SOL    HW131793   0.713   2.112   1.939
10298SOL    HW231794   0.694   1.949   1.940
10299SOL     OW31795   4.467   0.154   2.590
10299SOL    HW131796   4.502   0.143   2.683
10299SOL    HW231797   4.368   0.139   2.590
10300SOL     OW31798   1.358   3.203   0.816
10300SOL    HW131799   1.438   3.149   0.788
10300SOL    HW231800   1.304   3.228   0.736
10301SOL     OW31801   3.770   0.738   0.416
10301SOL    HW131802   3.848   0.682   0.444
10301SOL    HW231803   3.700   0.679   0.375
10302SOL     OW31804   3.237   6.684   5.019
10302SOL    HW131805   3.163   6.751   5.022
10302SOL    HW231806   3.215   6.607   5.079
10303SOL     OW31807   0.153   4.807   4.519
10303SOL    HW131808   0.108   4.765   4.440
10303SOL    HW231809   0.182   4.900   4.496
10304SOL     OW31810   5.516   6.486   0.972
10304SOL    HW131811   5.578   6.548   0.923
10304SOL    HW231812   5.437   6.466   0.914
10305SOL     OW31813   2.795   3.883   5.519
10305SOL    HW131814   2.783   3.933   5.605
10305SOL    HW231815   2.705   3.865   5.479
10306SOL     OW31816   3.955   0.686   0.729
10306SOL    HW131817   3.970   0.632   0.812
10306SOL    HW231818   3.890   0.760   0.748
10307SOL     OW31819   1.676   0.276   5.262
10307SOL    HW131820   1.753   0.322   5.305
10307SOL    HW231821   1.680   0.290   5.163
10308SOL     OW31822   2.932   4.654   1.629
10308SOL    HW131823   3.004   4.705   1.676
10308SOL    HW231824   2.893   4.586   1.692
10309SOL     OW31825   0.147   0.903   5.801
10309SOL    HW131826   0.062   0.888   5.852
10309SOL    HW231827   0.126   0.931   5.708
10310SOL     OW31828   2.939   3.978   5.786
10310SOL    HW131829   2.868   4.045   5.767
10310SOL    HW231830   3.025   4.009   5.745
10311SOL     OW31831   5.482   5.870   6.857
10311SOL    HW131832   5.567   5.883   6.805
10311SOL    HW231833   5.419   5.813   6.804
10312SOL     OW31834   3.316   6.704   2.643
10312SOL    HW131835   3.360   6.713   2.732
10312SOL    HW231836   3.344   6.780   2.585
10313SOL     OW31837   4.808   6.845   2.721
10313SOL    HW131838   4.876   6.794   2.668
10313SOL    HW231839   4.846   6.934   2.746
10314SOL     OW31840   0.748   0.345   1.023
10314SOL    HW131841   0.706   0.328   1.112
10314SOL    HW231842   0.845   0.319   1.026
10315SOL     OW31843   5.283   5.122   3.340
10315SOL    HW131844   5.301   5.053   3.410
10315SOL    HW231845   5.218   5.190   3.376
10316SOL     OW31846   0.681   1.665   0.084
10316SOL    HW131847   0.750   1.601   0.120
10316SOL    HW231848   0.724   1.724   0.016
10317SOL     OW31849   3.880   6.064   5.291
10317SOL    HW131850   3.909   6.160   5.287
10317SOL    HW231851   3.952   6.006   5.253
10318SOL     OW31852   6.482   0.608   0.458
10318SOL    HW131853   6.397   0.661   0.459
10318SOL    HW231854   6.560   0.669   0.475
10319SOL     OW31855   0.517   4.581   4.124
10319SOL    HW131856   0.431   4.535   4.102
10319SOL    HW231857   0.572   4.591   4.041
10320SOL     OW31858   6.880   6.954   3.036
10320SOL    HW131859   6.812   6.895   3.081
10320SOL    HW231860   6.917   0.008   3.103
10321SOL     OW31861   6.020   2.952   2.413
10321SOL    HW131862   6.086   2.903   2.356
10321SOL    HW231863   5.941   2.893   2.430
10322SOL     OW31864   4.571   4.528   4.982
10322SOL    HW131865   4.599   4.434   5.002
10322SOL    HW231866   4.473   4.537   4.998
10323SOL     OW31867   0.920   4.010   5.907
10323SOL    HW131868   0.945   3.913   5.909
10323SOL    HW231869   0.913   4.044   6.000
10324SOL     OW31870   3.287   3.246   2.579
10324SOL    HW131871   3.381   3.233   2.608
10324SOL    HW231872   3.245   3.157   2.560
10325SOL     OW31873   5.912   6.038   4.801
10325SOL    HW131874   5.932   5.976   4.877
10325SOL    HW231875   5.994   6.048   4.744
10326SOL     OW31876   5.296   3.395   6.473
10326SOL    HW131877   5.324   3.491   6.465
10326SOL    HW231878   5.204   3.384   6.435
10327SOL     OW31879   2.535   5.358   6.837
10327SOL    HW131880   2.512   5.357   6.739
10327SOL    HW231881   2.503   5.444   6.877
10328SOL     OW31882   5.448   2.365   2.148
10328SOL    HW131883   5.445   2.268   2.125
10328SOL    HW231884   5.460   2.376   2.246
10329SOL     OW31885   3.455   1.938   2.229
10329SOL    HW131886   3.356   1.926   2.232
10329SOL    HW231887   3.481   1.973   2.138
10330SOL     OW31888   5.573   0.687   1.696
10330SOL    HW131889   5.612   0.778   1.711
10330SOL    HW231890   5.643   0.627   1.657
10331SOL     OW31891   5.637   6.044   5.882
10331SOL    HW131892   5.585   5.988   5.946
10331SOL    HW231893   5.667   6.128   5.929
10332SOL     OW31894   1.460   1.759   6.405
10332SOL    HW131895   1.382   1.821   6.398
10332SOL    HW231896   1.445   1.678   6.348
10333SOL     OW31897   1.214   3.354   4.532
10333SOL    HW131898   1.233   3.262   4.565
10333SOL    HW231899   1.299   3.395   4.497
10334SOL     OW31900   3.220   1.702   4.235
10334SOL    HW131901   3.218   1.739   4.142
10334SOL    HW231902   3.156   1.753   4.292
10335SOL     OW31903   1.724   2.659   5.117
10335SOL    HW131904   1.766   2.584   5.168
10335SOL    HW231905   1.715   2.739   5.177
10336SOL     OW31906   5.780   6.619   3.117
10336SOL    HW131907   5.831   6.704   3.106
10336SOL    HW231908   5.840   6.541   3.101
10337SOL     OW31909   6.527   5.381   6.687
10337SOL    HW131910   6.442   5.432   6.692
10337SOL    HW231911   6.575   5.387   6.775
10338SOL     OW31912   1.212   6.419   1.400
10338SOL    HW131913   1.189   6.420   1.497
10338SOL    HW231914   1.312   6.420   1.390
10339SOL     OW31915   5.789   2.463   6.160
10339SOL    HW131916   5.710   2.514   6.126
10339SOL    HW231917   5.772   2.365   6.151
10340SOL     OW31918   2.195   3.934   5.996
10340SOL    HW131919   2.132   3.908   6.069
10340SOL    HW231920   2.150   4.001   5.936
10341SOL     OW31921   2.359   4.458   3.726
10341SOL    HW131922   2.457   4.448   3.710
10341SOL    HW231923   2.335   4.555   3.726
10342SOL     OW31924   0.729   0.763   3.761
10342SOL    HW131925   0.715   0.838   3.826
10342SOL    HW231926   0.691   0.679   3.800
10343SOL     OW31927   3.755   5.411   1.818
10343SOL    HW131928   3.813   5.333   1.840
10343SOL    HW231929   3.809   5.495   1.825
10344SOL     OW31930   4.875   6.820   0.159
10344SOL    HW131931   4.805   6.772   0.106
10344SOL    HW231932   4.836   6.847   0.247
10345SOL     OW31933   1.776   4.118   4.260
10345SOL    HW131934   1.839   4.147   4.332
10345SOL    HW231935   1.821   4.128   4.171
10346SOL     OW31936   0.171   6.318   0.084
10346SOL    HW131937   0.218   6.356   0.005
10346SOL    HW231938   0.191   6.221   0.091
10347SOL     OW31939   5.611   1.972   4.842
10347SOL    HW131940   5.674   2.038   4.800
10347SOL    HW231941   5.660   1.920   4.912
10348SOL     OW31942   6.779   5.288   1.377
10348SOL    HW131943   6.822   5.378   1.366
10348SOL    HW231944   6.834   5.234   1.441
10349SOL     OW31945   0.614   6.752   5.937
10349SOL    HW131946   0.580   6.791   5.852
10349SOL    HW231947   0.700   6.796   5.962
10350SOL     OW31948   3.225   0.791   6.231
10350SOL    HW131949   3.149   0.758   6.287
10350SOL    HW231950   3.261   0.876   6.270
10351SOL     OW31951   4.057   5.370   6.097
10351SOL    HW131952   4.001   5.448   6.124
10351SOL    HW231953   4.150   5.401   6.077
10352SOL     OW31954   4.027   3.912   6.439
10352SOL    HW131955   4.018   3.893   6.537
10352SOL    HW231956   4.035   4.011   6.424
10353SOL     OW31957   0.280   2.831   5.134
10353SOL    HW131958   0.284   2.930   5.147
10353SOL    HW231959   0.353   2.802   5.071
10354SOL     OW31960   5.371   1.989   1.166
10354SOL    HW131961   5.370   1.934   1.083
10354SOL    HW231962   5.409   2.080   1.146
10355SOL     OW31963   1.301   4.704   2.999
10355SOL    HW131964   1.328   4.800   2.998
10355SOL    HW231965   1.295   4.671   3.093
10356SOL     OW31966   0.167   2.179   4.795
10356SOL    HW131967   0.160   2.140   4.887
10356SOL    HW231968   0.195   2.275   4.802
10357SOL     OW31969   3.421   2.931   6.966
10357SOL    HW131970   3.504   2.985   6.968
10357SOL    HW231971   3.444   2.833   6.961
10358SOL     OW31972   0.078   1.309   2.418
10358SOL    HW131973   0.005   1.261   2.467
10358SOL    HW231974   0.097   1.261   2.332
10359SOL     OW31975   0.481   1.402   1.015
10359SOL    HW131976   0.579   1.387   1.002
10359SOL    HW231977   0.445   1.339   1.084
10360SOL     OW31978   0.301   4.536   3.031
10360SOL    HW131979   0.284   4.606   2.962
10360SOL    HW231980   0.284   4.575   3.122
10361SOL     OW31981   2.150   5.022   0.956
10361SOL    HW131982   2.227   5.037   0.895
10361SOL    HW231983   2.181   4.976   1.039
10362SOL     OW31984   1.343   4.316   5.192
10362SOL    HW131985   1.440   4.316   5.167
10362SOL    HW231986   1.289   4.352   5.116
10363SOL     OW31987   5.796   6.817   3.502
10363SOL    HW131988   5.704   6.848   3.475
10363SOL    HW231989   5.862   6.889   3.481
10364SOL     OW31990   1.692   4.087   0.851
10364SOL    HW131991   1.602   4.092   0.894
10364SOL    HW231992   1.713   4.174   0.806
10365SOL     OW31993   4.912   5.246   0.073
10365SOL    HW131994   5.009   5.238   0.097
10365SOL    HW231995   4.903   5.280   6.990
10366SOL     OW31996   3.828   6.369   3.725
10366SOL    HW131997   3.877   6.338   3.643
10366SOL    HW231998   3.863   6.458   3.753
10367SOL     OW31999   6.797   1.554   3.332
10367SOL    HW132000   6.829   1.588   3.420
10367SOL    HW232001   6.831   1.461   3.318
10368SOL     OW32002   2.262   0.489   1.484
10368SOL    HW132003   2.211   0.535   1.411
10368SOL    HW232004   2.198   0.437   1.541
10369SOL     OW32005   4.244   2.695   6.786
10369SOL    HW132006   4.187   2.770   6.751
10369SOL    HW232007   4.188   2.614   6.799
10370SOL     OW32008   3.816   1.128   5.201
10370SOL    HW132009   3.879   1.182   5.144
10370SOL    HW232010   3.852   1.035   5.211
10371SOL     OW32011   4.937   6.517   5.735
10371SOL    HW132012   4.867   6.446   5.724
10371SOL    HW232013   4.957   6.557   5.646
10372SOL     OW32014   1.304   0.675   3.626
10372SOL    HW132015   1.317   0.766   3.586
10372SOL    HW232016   1.392   0.629   3.631
10373SOL     OW32017   1.176   5.184   5.072
10373SOL    HW132018   1.267   5.222   5.087
10373SOL    HW232019   1.110   5.259   5.064
10374SOL     OW32020   3.103   1.752   3.955
10374SOL    HW132021   3.046   1.797   3.886
10374SOL    HW232022   3.199   1.756   3.926
10375SOL     OW32023   0.043   1.947   0.900
10375SOL    HW132024   0.128   1.993   0.873
10375SOL    HW232025   0.012   1.889   0.824
10376SOL     OW32026   6.450   0.180   3.210
10376SOL    HW132027   6.550   0.178   3.203
10376SOL    HW232028   6.410   0.160   3.121
10377SOL     OW32029   0.222   6.524   4.089
10377SOL    HW132030   0.163   6.469   4.031
10377SOL    HW232031   0.298   6.468   4.124
10378SOL     OW32032   6.282   6.232   5.949
10378SOL    HW132033   6.247   6.139   5.961
10378SOL    HW232034   6.214   6.287   5.902
10379SOL     OW32035   4.692   1.756   4.234
10379SOL    HW132036   4.622   1.827   4.219
10379SOL    HW232037   4.689   1.691   4.158
10380SOL     OW32038   3.886   0.885   3.598
10380SOL    HW132039   3.812   0.946   3.626
10380SOL    HW232040   3.849   0.812   3.540
10381SOL     OW32041   3.823   5.116   4.721
10381SOL    HW132042   3.725   5.099   4.712
10381SOL    HW232043   3.870   5.030   4.740
10382SOL     OW32044   0.662   5.633   0.304
10382SOL    HW132045   0.599   5.601   0.234
10382SOL    HW232046   0.684   5.729   0.288
10383SOL     OW32047   5.605   2.525   0.336
10383SOL    HW132048   5.651   2.565   0.257
10383SOL    HW232049   5.529   2.468   0.305
10384SOL     OW32050   5.902   1.092   6.783
10384SOL    HW132051   5.877   1.042   6.700
10384SOL    HW232052   5.847   1.060   6.860
10385SOL     OW32053   0.086   2.534   6.502
10385SOL    HW132054   0.057   2.534   6.406
10385SOL    HW232055   0.017   2.486   6.557
10386SOL     OW32056   6.831   1.844   6.192
10386SOL    HW132057   6.901   1.781   6.157
10386SOL    HW232058   6.747   1.832   6.140
10387SOL     OW32059   1.732   3.684   2.747
10387SOL    HW132060   1.783   3.604   2.715
10387SOL    HW232061   1.634   3.663   2.745
10388SOL     OW32062   1.771   4.399   2.285
10388SOL    HW132063   1.689   4.455   2.269
10388SOL    HW232064   1.804   4.415   2.378
10389SOL     OW32065   0.820   5.576   3.673
10389SOL    HW132066   0.807   5.566   3.574
10389SOL    HW232067   0.880   5.654   3.691
10390SOL     OW32068   2.224   3.926   3.578
10390SOL    HW132069   2.282   4.004   3.602
10390SOL    HW232070   2.207   3.926   3.480
10391SOL     OW32071   3.959   6.211   4.462
10391SOL    HW132072   3.999   6.303   4.458
10391SOL    HW232073   3.927   6.185   4.371
10392SOL     OW32074   6.247   5.223   6.393
10392SOL    HW132075   6.256   5.126   6.370
10392SOL    HW232076   6.201   5.270   6.317
10393SOL     OW32077   0.450   1.002   4.667
10393SOL    HW132078   0.436   1.046   4.579
10393SOL    HW232079   0.548   0.998   4.687
10394SOL     OW32080   3.300   6.956   0.877
10394SOL    HW132081   3.340   0.012   0.940
10394SOL    HW232082   3.274   6.874   0.928
10395SOL     OW32083   1.412   0.976   4.295
10395SOL    HW132084   1.427   1.038   4.218
10395SOL    HW232085   1.352   0.901   4.266
10396SOL     OW32086   0.308   0.021   4.912
10396SOL    HW132087   0.273   6.965   4.846
10396SOL    HW232088   0.320   0.110   4.868
10397SOL     OW32089   4.383   2.209   2.285
10397SOL    HW132090   4.454   2.275   2.309
10397SOL    HW232091   4.314   2.206   2.357
10398SOL     OW32092   6.751   3.073   2.029
10398SOL    HW132093   6.819   3.088   1.958
10398SOL    HW232094   6.782   3.114   2.115
10399SOL     OW32095   6.748   3.089   5.558
10399SOL    HW132096   6.777   3.182   5.578
10399SOL    HW232097   6.654   3.090   5.525
10400SOL     OW32098   1.597   4.895   2.008
10400SOL    HW132099   1.538   4.866   1.932
10400SOL    HW232100   1.687   4.853   1.998
10401SOL     OW32101   1.198   5.267   1.199
10401SOL    HW132102   1.294   5.255   1.175
10401SOL    HW232103   1.159   5.339   1.141
10402SOL     OW32104   1.093   2.092   4.611
10402SOL    HW132105   1.099   2.154   4.689
10402SOL    HW232106   0.999   2.090   4.577
10403SOL     OW32107   5.373   0.910   2.507
10403SOL    HW132108   5.451   0.878   2.453
10403SOL    HW232109   5.382   0.879   2.601
10404SOL     OW32110   0.022   0.318   4.259
10404SOL    HW132111   0.099   0.379   4.280
10404SOL    HW232112   6.956   0.371   4.222
10405SOL     OW32113   2.986   6.834   0.020
10405SOL    HW132114   3.040   6.801   0.098
10405SOL    HW232115   2.889   6.819   0.038
10406SOL     OW32116   1.866   5.829   5.240
10406SOL    HW132117   1.887   5.740   5.280
10406SOL    HW232118   1.937   5.895   5.267
10407SOL     OW32119   2.326   1.133   6.416
10407SOL    HW132120   2.415   1.177   6.430
10407SOL    HW232121   2.279   1.176   6.339
10408SOL     OW32122   3.720   6.893   2.816
10408SOL    HW132123   3.691   6.975   2.866
10408SOL    HW232124   3.716   6.910   2.718
10409SOL     OW32125   6.847   4.751   2.544
10409SOL    HW132126   6.809   4.700   2.466
10409SOL    HW232127   6.877   4.841   2.514
10410SOL     OW32128   5.090   5.749   1.200
10410SOL    HW132129   5.014   5.812   1.218
10410SOL    HW232130   5.152   5.747   1.278
10411SOL     OW32131   1.962   4.679   2.747
10411SOL    HW132132   1.978   4.632   2.660
10411SOL    HW232133   1.864   4.682   2.766
10412SOL     OW32134   0.483   2.756   6.803
10412SOL    HW132135   0.452   2.849   6.784
10412SOL    HW232136   0.409   2.692   6.784
10413SOL     OW32137   6.575   1.713   4.941
10413SOL    HW132138   6.646   1.656   4.983
10413SOL    HW232139   6.576   1.804   4.982
10414SOL     OW32140   5.628   6.109   5.345
10414SOL    HW132141   5.670   6.062   5.267
10414SOL    HW232142   5.633   6.208   5.330
10415SOL     OW32143   6.894   5.149   3.241
10415SOL    HW132144   6.968   5.171   3.177
10415SOL    HW232145   6.807   5.178   3.203
10416SOL     OW32146   5.329   0.529   0.189
10416SOL    HW132147   5.374   0.552   0.275
10416SOL    HW232148   5.290   0.437   0.195
10417SOL     OW32149   4.964   4.424   4.355
10417SOL    HW132150   5.021   4.436   4.273
10417SOL    HW232151   4.892   4.357   4.336
10418SOL     OW32152   6.011   3.274   6.800
10418SOL    HW132153   6.014   3.348   6.732
10418SOL    HW232154   6.072   3.200   6.772
10419SOL     OW32155   1.330   0.314   4.565
10419SOL    HW132156   1.312   0.310   4.467
10419SOL    HW232157   1.327   0.409   4.596
10420SOL     OW32158   6.487   3.848   4.048
10420SOL    HW132159   6.452   3.784   3.979
10420SOL    HW232160   6.452   3.939   4.028
10421SOL     OW32161   0.166   3.644   4.461
10421SOL    HW132162   0.100   3.594   4.405
10421SOL    HW232163   0.133   3.652   4.555
10422SOL     OW32164   5.597   3.095   5.626
10422SOL    HW132165   5.649   3.041   5.693
10422SOL    HW232166   5.557   3.175   5.672
10423SOL     OW32167   2.365   5.466   2.588
10423SOL    HW132168   2.393   5.419   2.671
10423SOL    HW232169   2.325   5.400   2.524
10424SOL     OW32170   4.520   0.686   2.229
10424SOL    HW132171   4.610   0.659   2.194
10424SOL    HW232172   4.519   0.785   2.244
10425SOL     OW32173   0.987   4.294   0.490
10425SOL    HW132174   0.996   4.219   0.426
10425SOL    HW232175   0.913   4.354   0.460
10426SOL     OW32176   6.472   2.105   0.482
10426SOL    HW132177   6.524   2.190   0.496
10426SOL    HW232178   6.497   2.039   0.553
10427SOL     OW32179   6.140   0.298   3.926
10427SOL    HW132180   6.099   0.210   3.951
10427SOL    HW232181   6.235   0.284   3.900
10428SOL     OW32182   1.694   6.640   4.576
10428SOL    HW132183   1.693   6.728   4.528
10428SOL    HW232184   1.620   6.582   4.542
10429SOL     OW32185   2.353   4.195   2.015
10429SOL    HW132186   2.359   4.275   2.075
10429SOL    HW232187   2.440   4.146   2.015
10430SOL     OW32188   3.231   0.684   3.900
10430SOL    HW132189   3.243   0.740   3.982
10430SOL    HW232190   3.136   0.689   3.870
10431SOL     OW32191   4.208   2.312   4.132
10431SOL    HW132192   4.154   2.249   4.188
10431SOL    HW232193   4.173   2.312   4.038
10432SOL     OW32194   0.440   4.893   0.820
10432SOL    HW132195   0.485   4.825   0.761
10432SOL    HW232196   0.341   4.881   0.815
10433SOL     OW32197   3.556   6.402   4.414
10433SOL    HW132198   3.471   6.455   4.417
10433SOL    HW232199   3.611   6.433   4.337
10434SOL     OW32200   4.074   1.454   6.840
10434SOL    HW132201   4.132   1.506   6.902
10434SOL    HW232202   3.983   1.495   6.837
10435SOL     OW32203   2.373   1.328   1.722
10435SOL    HW132204   2.458   1.357   1.766
10435SOL    HW232205   2.333   1.406   1.673
10436SOL     OW32206   0.932   3.745   5.149
10436SOL    HW132207   0.980   3.657   5.146
10436SOL    HW232208   0.850   3.739   5.091
10437SOL     OW32209   6.914   6.692   4.938
10437SOL    HW132210   6.820   6.659   4.924
10437SOL    HW232211   6.965   6.686   4.853
10438SOL     OW32212   6.905   5.651   6.702
10438SOL    HW132213   6.985   5.699   6.736
10438SOL    HW232214   6.890   5.569   6.756
10439SOL     OW32215   6.042   5.769   4.844
10439SOL    HW132216   5.955   5.743   4.802
10439SOL    HW232217   6.035   5.758   4.943
10440SOL     OW32218   5.930   2.747   1.032
10440SOL    HW132219   5.946   2.803   1.113
10440SOL    HW232220   5.850   2.781   0.983
10441SOL     OW32221   4.781   1.724   6.371
10441SOL    HW132222   4.806   1.753   6.463
10441SOL    HW232223   4.730   1.638   6.376
10442SOL     OW32224   2.309   0.811   5.251
10442SOL    HW132225   2.401   0.847   5.238
10442SOL    HW232226   2.293   0.797   5.349
10443SOL     OW32227   0.548   0.960   0.198
10443SOL    HW132228   0.501   0.911   0.124
10443SOL    HW232229   0.566   0.897   0.273
10444SOL     OW32230   4.378   5.610   3.659
10444SOL    HW132231   4.304   5.642   3.720
10444SOL    HW232232   4.443   5.684   3.646
10445SOL     OW32233   1.019   3.400   3.865
10445SOL    HW132234   1.046   3.376   3.958
10445SOL    HW232235   0.937   3.349   3.840
10446SOL     OW32236   2.473   4.761   4.819
10446SOL    HW132237   2.490   4.737   4.914
10446SOL    HW232238   2.424   4.687   4.773
10447SOL     OW32239   1.485   2.090   2.853
10447SOL    HW132240   1.428   2.016   2.818
10447SOL    HW232241   1.448   2.178   2.822
10448SOL     OW32242   0.603   5.551   2.699
10448SOL    HW132243   0.515   5.511   2.724
10448SOL    HW232244   0.670   5.535   2.772
10449SOL     OW32245   3.907   4.884   4.467
10449SOL    HW132246   3.955   4.848   4.547
10449SOL    HW232247   3.824   4.931   4.496
10450SOL     OW32248   0.416   2.133   4.195
10450SOL    HW132249   0.318   2.116   4.205
10450SOL    HW232250   0.433   2.231   4.209
10451SOL     OW32251   2.879   1.740   4.752
10451SOL    HW132252   2.822   1.821   4.743
10451SOL    HW232253   2.891   1.719   4.849
10452SOL     OW32254   6.687   2.736   4.137
10452SOL    HW132255   6.777   2.714   4.098
10452SOL    HW232256   6.664   2.669   4.208
10453SOL     OW32257   2.909   5.453   4.022
10453SOL    HW132258   2.918   5.448   3.922
10453SOL    HW232259   2.883   5.363   4.057
10454SOL     OW32260   6.692   1.403   0.017
10454SOL    HW132261   6.649   1.434   6.943
10454SOL    HW232262   6.749   1.477   0.054
10455SOL     OW32263   0.572   5.935   2.484
10455SOL    HW132264   0.623   6.011   2.444
10455SOL    HW232265   0.550   5.957   2.579
10456SOL     OW32266   1.824   5.393   6.605
10456SOL    HW132267   1.920   5.365   6.604
10456SOL    HW232268   1.781   5.368   6.519
10457SOL     OW32269   4.075   1.111   0.803
10457SOL    HW132270   4.092   1.166   0.884
10457SOL    HW232271   3.977   1.110   0.783
10458SOL     OW32272   1.535   6.284   0.211
10458SOL    HW132273   1.472   6.361   0.219
10458SOL    HW232274   1.609   6.307   0.147
10459SOL     OW32275   5.507   5.981   1.138
10459SOL    HW132276   5.534   6.071   1.103
10459SOL    HW232277   5.408   5.980   1.153
10460SOL     OW32278   6.365   0.954   6.206
10460SOL    HW132279   6.331   0.871   6.250
10460SOL    HW232280   6.298   0.985   6.138
10461SOL     OW32281   6.850   3.940   5.265
10461SOL    HW132282   6.843   3.844   5.236
10461SOL    HW232283   6.800   3.953   5.350
10462SOL     OW32284   4.282   3.913   6.953
10462SOL    HW132285   4.235   3.835   6.995
10462SOL    HW232286   4.371   3.883   6.919
10463SOL     OW32287   4.740   2.284   5.210
10463SOL    HW132288   4.645   2.312   5.224
10463SOL    HW232289   4.745   2.220   5.134
10464SOL     OW32290   6.345   4.634   2.010
10464SOL    HW132291   6.401   4.554   1.988
10464SOL    HW232292   6.293   4.662   1.930
10465SOL     OW32293   5.301   4.369   1.378
10465SOL    HW132294   5.238   4.309   1.328
10465SOL    HW232295   5.287   4.464   1.348
10466SOL     OW32296   5.912   4.182   4.988
10466SOL    HW132297   5.935   4.188   5.085
10466SOL    HW232298   5.996   4.171   4.935
10467SOL     OW32299   0.201   2.902   6.492
10467SOL    HW132300   0.113   2.874   6.531
10467SOL    HW232301   0.257   2.944   6.563
10468SOL     OW32302   1.577   3.765   3.910
10468SOL    HW132303   1.478   3.766   3.895
10468SOL    HW232304   1.614   3.856   3.891
10469SOL     OW32305   1.387   1.117   4.058
10469SOL    HW132306   1.463   1.179   4.040
10469SOL    HW232307   1.332   1.105   3.975
10470SOL     OW32308   2.159   3.975   1.743
10470SOL    HW132309   2.067   3.936   1.737
10470SOL    HW232310   2.218   3.913   1.794
10471SOL     OW32311   2.699   4.761   5.793
10471SOL    HW132312   2.714   4.665   5.767
10471SOL    HW232313   2.768   4.818   5.749
10472SOL     OW32314   4.507   5.421   5.848
10472SOL    HW132315   4.478   5.491   5.914
10472SOL    HW232316   4.591   5.451   5.802
10473SOL     OW32317   6.098   5.483   0.438
10473SOL    HW132318   6.187   5.516   0.468
10473SOL    HW232319   6.042   5.460   0.517
10474SOL     OW32320   6.184   5.898   5.306
10474SOL    HW132321   6.098   5.898   5.356
10474SOL    HW232322   6.225   5.807   5.311
10475SOL     OW32323   0.553   5.682   1.149
10475SOL    HW132324   0.603   5.767   1.166
10475SOL    HW232325   0.463   5.704   1.112
10476SOL     OW32326   5.206   6.681   1.286
10476SOL    HW132327   5.217   6.706   1.190
10476SOL    HW232328   5.130   6.733   1.326
10477SOL     OW32329   0.041   5.548   3.570
10477SOL    HW132330   6.965   5.582   3.606
10477SOL    HW232331   0.023   5.480   3.499
10478SOL     OW32332   6.936   0.721   6.558
10478SOL    HW132333   0.006   0.662   6.565
10478SOL    HW232334   6.861   0.670   6.515
10479SOL     OW32335   0.155   4.128   2.438
10479SOL    HW132336   0.085   4.190   2.404
10479SOL    HW232337   0.128   4.094   2.528
10480SOL     OW32338   2.531   0.577   3.321
10480SOL    HW132339   2.532   0.676   3.309
10480SOL    HW232340   2.503   0.555   3.414
10481SOL     OW32341   6.352   1.138   1.373
10481SOL    HW132342   6.396   1.048   1.385
10481SOL    HW232343   6.391   1.183   1.292
10482SOL     OW32344   5.643   4.123   3.957
10482SOL    HW132345   5.641   4.157   4.051
10482SOL    HW232346   5.729   4.074   3.941
10483SOL     OW32347   6.201   1.079   6.825
10483SOL    HW132348   6.228   1.027   6.744
10483SOL    HW232349   6.102   1.094   6.823
10484SOL     OW32350   5.751   0.893   1.788
10484SOL    HW132351   5.814   0.943   1.728
10484SOL    HW232352   5.760   0.926   1.882
10485SOL     OW32353   6.015   3.411   5.547
10485SOL    HW132354   5.917   3.416   5.528
10485SOL    HW232355   6.047   3.317   5.530
10486SOL     OW32356   5.681   2.984   2.110
10486SOL    HW132357   5.686   2.908   2.175
10486SOL    HW232358   5.635   2.954   2.027
10487SOL     OW32359   4.246   6.700   2.188
10487SOL    HW132360   4.245   6.602   2.168
10487SOL    HW232361   4.154   6.729   2.216
10488SOL     OW32362   4.174   4.020   6.735
10488SOL    HW132363   4.084   3.979   6.744
10488SOL    HW232364   4.230   3.998   6.815
10489SOL     OW32365   1.745   5.115   5.447
10489SOL    HW132366   1.656   5.084   5.413
10489SOL    HW232367   1.791   5.040   5.494
10490SOL     OW32368   6.324   0.049   4.677
10490SOL    HW132369   6.419   0.038   4.707
10490SOL    HW232370   6.310   0.143   4.645
10491SOL     OW32371   6.325   5.638   5.338
10491SOL    HW132372   6.298   5.544   5.359
10491SOL    HW232373   6.425   5.645   5.338
10492SOL     OW32374   5.181   4.436   5.535
10492SOL    HW132375   5.123   4.466   5.460
10492SOL    HW232376   5.137   4.460   5.622
10493SOL     OW32377   3.237   1.646   1.198
10493SOL    HW132378   3.234   1.561   1.146
10493SOL    HW232379   3.185   1.717   1.149
10494SOL     OW32380   5.663   1.494   5.492
10494SOL    HW132381   5.652   1.406   5.446
10494SOL    HW232382   5.748   1.537   5.462
10495SOL     OW32383   2.107   7.000   6.352
10495SOL    HW132384   2.163   0.072   6.359
10495SOL    HW232385   2.124   6.955   6.265
10496SOL     OW32386   6.506   6.873   5.479
10496SOL    HW132387   6.521   6.890   5.382
10496SOL    HW232388   6.590   6.837   5.520
10497SOL     OW32389   1.799   1.510   6.558
10497SOL    HW132390   1.799   1.508   6.458
10497SOL    HW232391   1.751   1.592   6.589
10498SOL     OW32392   3.411   5.347   5.658
10498SOL    HW132393   3.350   5.417   5.696
10498SOL    HW232394   3.432   5.279   5.728
10499SOL     OW32395   3.015   6.047   3.045
10499SOL    HW132396   3.074   6.047   3.126
10499SOL    HW232397   2.947   6.120   3.054
10500SOL     OW32398   2.201   2.052   6.743
10500SOL    HW132399   2.175   2.124   6.679
10500SOL    HW232400   2.233   1.972   6.692
10501SOL     OW32401   2.113   3.764   2.822
10501SOL    HW132402   2.040   3.751   2.888
10501SOL    HW232403   2.133   3.677   2.776
10502SOL     OW32404   3.193   5.614   4.341
10502SOL    HW132405   3.181   5.542   4.409
10502SOL    HW232406   3.287   5.648   4.345
10503SOL     OW32407   2.069   3.221   6.031
10503SOL    HW132408   2.039   3.250   5.940
10503SOL    HW232409   2.134   3.287   6.068
10504SOL     OW32410   2.034   3.552   1.181
10504SOL    HW132411   2.010   3.480   1.117
10504SOL    HW232412   2.010   3.523   1.274
10505SOL     OW32413   1.208   6.398   0.282
10505SOL    HW132414   1.151   6.316   0.290
10505SOL    HW232415   1.230   6.414   0.186
10506SOL     OW32416   6.803   4.743   5.576
10506SOL    HW132417   6.896   4.757   5.542
10506SOL    HW232418   6.762   4.664   5.530
10507SOL     OW32419   2.448   0.070   3.738
10507SOL    HW132420   2.526   0.037   3.685
10507SOL    HW232421   2.414   0.155   3.699
10508SOL     OW32422   6.081   4.032   3.120
10508SOL    HW132423   6.058   3.978   3.039
10508SOL    HW232424   6.000   4.043   3.177
10509SOL     OW32425   2.118   0.985   5.123
10509SOL    HW132426   2.168   0.935   5.194
10509SOL    HW232427   2.140   0.945   5.033
10510SOL     OW32428   5.707   0.918   6.668
10510SOL    HW132429   5.615   0.881   6.683
10510SOL    HW232430   5.720   0.936   6.571
10511SOL     OW32431   6.545   2.832   1.803
10511SOL    HW132432   6.506   2.740   1.792
10511SOL    HW232433   6.640   2.824   1.834
10512SOL     OW32434   2.368   0.404   6.116
10512SOL    HW132435   2.436   0.419   6.188
10512SOL    HW232436   2.305   0.482   6.114
10513SOL     OW32437   0.380   2.136   0.509
10513SOL    HW132438   0.435   2.065   0.463
10513SOL    HW232439   0.380   2.219   0.453
10514SOL     OW32440   0.751   2.690   1.884
10514SOL    HW132441   0.801   2.676   1.798
10514SOL    HW232442   0.652   2.686   1.866
10515SOL     OW32443   0.234   3.121   4.888
10515SOL    HW132444   0.249   3.145   4.983
10515SOL    HW232445   0.202   3.202   4.838
10516SOL     OW32446   2.504   0.104   1.202
10516SOL    HW132447   2.562   0.032   1.242
10516SOL    HW232448   2.492   0.086   1.105
10517SOL     OW32449   0.603   2.788   3.142
10517SOL    HW132450   0.537   2.713   3.136
10517SOL    HW232451   0.557   2.871   3.174
10518SOL     OW32452   0.712   5.860   2.736
10518SOL    HW132453   0.782   5.841   2.805
10518SOL    HW232454   0.681   5.774   2.695
10519SOL     OW32455   4.423   3.022   5.712
10519SOL    HW132456   4.409   2.950   5.780
10519SOL    HW232457   4.441   3.109   5.758
10520SOL     OW32458   3.016   4.951   6.091
10520SOL    HW132459   3.058   4.961   6.001
10520SOL    HW232460   3.084   4.917   6.156
10521SOL     OW32461   6.490   5.576   2.206
10521SOL    HW132462   6.436   5.607   2.128
10521SOL    HW232463   6.488   5.646   2.278
10522SOL     OW32464   0.027   0.094   2.230
10522SOL    HW132465   6.941   0.093   2.208
10522SOL    HW232466   0.055   0.005   2.266
10523SOL     OW32467   6.314   6.325   6.469
10523SOL    HW132468   6.284   6.365   6.382
10523SOL    HW232469   6.317   6.397   6.539
10524SOL     OW32470   4.708   0.935   4.577
10524SOL    HW132471   4.795   0.919   4.624
10524SOL    HW232472   4.662   0.848   4.561
10525SOL     OW32473   2.998   6.833   4.784
10525SOL    HW132474   2.919   6.889   4.758
10525SOL    HW232475   3.011   6.838   4.883
10526SOL     OW32476   4.471   6.477   2.728
10526SOL    HW132477   4.466   6.576   2.745
10526SOL    HW232478   4.450   6.428   2.812
10527SOL     OW32479   1.792   2.780   4.898
10527SOL    HW132480   1.756   2.732   4.978
10527SOL    HW232481   1.766   2.729   4.815
10528SOL     OW32482   5.764   4.956   5.533
10528SOL    HW132483   5.831   4.882   5.521
10528SOL    HW232484   5.809   5.036   5.573
10529SOL     OW32485   0.212   6.322   4.535
10529SOL    HW132486   0.126   6.358   4.499
10529SOL    HW232487   0.232   6.235   4.490
10530SOL     OW32488   1.889   2.232   5.278
10530SOL    HW132489   1.885   2.228   5.178
10530SOL    HW232490   1.873   2.326   5.308
10531SOL     OW32491   1.857   2.200   5.013
10531SOL    HW132492   1.777   2.140   5.006
10531SOL    HW232493   1.903   2.204   4.924
10532SOL     OW32494   3.323   3.487   4.860
10532SOL    HW132495   3.232   3.506   4.898
10532SOL    HW232496   3.393   3.524   4.922
10533SOL     OW32497   3.087   1.129   6.263
10533SOL    HW132498   3.094   1.131   6.163
10533SOL    HW232499   2.994   1.101   6.289
10534SOL     OW32500   5.901   4.889   1.615
10534SOL    HW132501   5.924   4.801   1.658
10534SOL    HW232502   5.867   4.952   1.685
10535SOL     OW32503   6.863   0.806   1.718
10535SOL    HW132504   6.767   0.790   1.744
10535SOL    HW232505   6.886   0.902   1.732
10536SOL     OW32506   5.406   6.078   2.971
10536SOL    HW132507   5.389   6.152   3.036
10536SOL    HW232508   5.464   6.009   3.014
10537SOL     OW32509   6.326   5.638   1.271
10537SOL    HW132510   6.285   5.721   1.232
10537SOL    HW232511   6.263   5.561   1.261
10538SOL     OW32512   4.113   3.671   7.009
10538SOL    HW132513   4.019   3.696   6.987
10538SOL    HW232514   4.154   3.623   6.931
10539SOL     OW32515   0.838   3.086   5.154
10539SOL    HW132516   0.844   3.047   5.062
10539SOL    HW232517   0.930   3.100   5.190
10540SOL     OW32518   3.592   0.527   0.325
10540SOL    HW132519   3.610   0.429   0.329
10540SOL    HW232520   3.637   0.566   0.245
10541SOL     OW32521   3.916   2.703   1.635
10541SOL    HW132522   3.831   2.651   1.625
10541SOL    HW232523   3.897   2.801   1.623
10542SOL     OW32524   1.676   2.072   0.589
10542SOL    HW132525   1.585   2.062   0.550
10542SOL    HW232526   1.718   1.982   0.599
10543SOL     OW32527   2.056   0.024   4.680
10543SOL    HW132528   2.146   0.059   4.657
10543SOL    HW232529   2.000   0.017   4.597
10544SOL     OW32530   6.754   2.526   1.696
10544SOL    HW132531   6.731   2.578   1.614
10544SOL    HW232532   6.825   2.459   1.676
10545SOL     OW32533   4.736   1.530   3.136
10545SOL    HW132534   4.717   1.618   3.093
10545SOL    HW232535   4.655   1.500   3.188
10546SOL     OW32536   4.263   1.244   5.523
10546SOL    HW132537   4.359   1.240   5.497
10546SOL    HW232538   4.233   1.339   5.527
10547SOL     OW32539   4.670   6.476   1.822
10547SOL    HW132540   4.748   6.416   1.839
10547SOL    HW232541   4.655   6.535   1.901
10548SOL     OW32542   4.125   3.964   5.615
10548SOL    HW132543   4.119   3.936   5.520
10548SOL    HW232544   4.043   3.936   5.664
10549SOL     OW32545   1.161   1.633   1.661
10549SOL    HW132546   1.243   1.623   1.604
10549SOL    HW232547   1.109   1.547   1.660
10550SOL     OW32548   5.173   6.859   4.676
10550SOL    HW132549   5.215   6.773   4.704
10550SOL    HW232550   5.243   6.930   4.667
10551SOL     OW32551   0.947   2.779   6.359
10551SOL    HW132552   0.918   2.683   6.367
10551SOL    HW232553   0.907   2.831   6.434
10552SOL     OW32554   3.606   1.723   5.232
10552SOL    HW132555   3.589   1.677   5.319
10552SOL    HW232556   3.632   1.656   5.163
10553SOL     OW32557   3.027   5.205   6.189
10553SOL    HW132558   3.037   5.107   6.171
10553SOL    HW232559   3.005   5.219   6.286
10554SOL     OW32560   6.249   3.811   5.623
10554SOL    HW132561   6.160   3.845   5.655
10554SOL    HW232562   6.234   3.741   5.554
10555SOL     OW32563   3.838   3.015   1.691
10555SOL    HW132564   3.853   3.108   1.658
10555SOL    HW232565   3.770   3.016   1.764
10556SOL     OW32566   1.138   3.634   3.746
10556SOL    HW132567   1.234   3.649   3.768
10556SOL    HW232568   1.111   3.542   3.775
10557SOL     OW32569   5.500   1.306   3.683
10557SOL    HW132570   5.436   1.378   3.656
10557SOL    HW232571   5.512   1.242   3.608
10558SOL     OW32572   4.938   6.100   5.101
10558SOL    HW132573   4.889   6.142   5.024
10558SOL    HW232574   4.904   6.007   5.115
10559SOL     OW32575   4.255   2.651   0.429
10559SOL    HW132576   4.307   2.736   0.423
10559SOL    HW232577   4.230   2.620   0.337
10560SOL     OW32578   6.747   2.281   4.285
10560SOL    HW132579   6.778   2.195   4.325
10560SOL    HW232580   6.791   2.295   4.196
10561SOL     OW32581   2.154   4.340   6.585
10561SOL    HW132582   2.155   4.437   6.560
10561SOL    HW232583   2.135   4.285   6.504
10562SOL     OW32584   3.825   1.685   0.363
10562SOL    HW132585   3.765   1.612   0.328
10562SOL    HW232586   3.837   1.755   0.292
10563SOL     OW32587   1.024   2.020   2.820
10563SOL    HW132588   0.994   1.942   2.874
10563SOL    HW232589   1.054   1.989   2.729
10564SOL     OW32590   6.828   2.260   2.754
10564SOL    HW132591   6.759   2.233   2.687
10564SOL    HW232592   6.843   2.185   2.819
10565SOL     OW32593   5.102   1.630   5.086
10565SOL    HW132594   5.041   1.597   5.014
10565SOL    HW232595   5.197   1.606   5.063
10566SOL     OW32596   4.724   5.170   6.762
10566SOL    HW132597   4.738   5.132   6.670
10566SOL    HW232598   4.652   5.119   6.808
10567SOL     OW32599   2.734   5.477   4.492
10567SOL    HW132600   2.723   5.407   4.422
10567SOL    HW232601   2.660   5.469   4.559
10568SOL     OW32602   3.478   1.337   2.994
10568SOL    HW132603   3.461   1.348   2.896
10568SOL    HW232604   3.469   1.425   3.040
10569SOL     OW32605   6.584   2.256   3.415
10569SOL    HW132606   6.557   2.352   3.407
10569SOL    HW232607   6.527   2.201   3.355
10570SOL     OW32608   1.383   4.446   0.868
10570SOL    HW132609   1.307   4.507   0.844
10570SOL    HW232610   1.466   4.476   0.820
10571SOL     OW32611   6.602   6.883   4.645
10571SOL    HW132612   6.640   6.836   4.565
10571SOL    HW232613   6.610   6.982   4.631
10572SOL     OW32614   6.813   3.775   1.488
10572SOL    HW132615   6.863   3.726   1.416
10572SOL    HW232616   6.776   3.709   1.553
10573SOL     OW32617   6.243   5.002   5.666
10573SOL    HW132618   6.281   4.929   5.723
10573SOL    HW232619   6.309   5.026   5.595
10574SOL     OW32620   0.436   2.518   3.071
10574SOL    HW132621   0.521   2.498   3.121
10574SOL    HW232622   0.450   2.501   2.974
10575SOL     OW32623   1.037   6.597   6.738
10575SOL    HW132624   1.091   6.522   6.701
10575SOL    HW232625   0.984   6.564   6.817
10576SOL     OW32626   1.220   5.570   3.053
10576SOL    HW132627   1.284   5.547   3.127
10576SOL    HW232628   1.234   5.507   2.976
10577SOL     OW32629   0.570   2.158   5.840
10577SOL    HW132630   0.475   2.165   5.809
10577SOL    HW232631   0.588   2.228   5.909
10578SOL     OW32632   5.164   1.077   5.474
10578SOL    HW132633   5.083   1.065   5.416
10578SOL    HW232634   5.241   1.104   5.417
10579SOL     OW32635   5.388   6.728   0.585
10579SOL    HW132636   5.374   6.777   0.499
10579SOL    HW232637   5.300   6.718   0.633
10580SOL     OW32638   0.548   5.695   6.741
10580SOL    HW132639   0.455   5.668   6.767
10580SOL    HW232640   0.571   5.654   6.653
10581SOL     OW32641   4.595   2.628   3.568
10581SOL    HW132642   4.607   2.718   3.525
10581SOL    HW232643   4.593   2.558   3.497
10582SOL     OW32644   3.097   4.628   0.028
10582SOL    HW132645   3.056   4.621   6.948
10582SOL    HW232646   3.028   4.659   0.094
10583SOL     OW32647   4.454   1.245   1.370
10583SOL    HW132648   4.396   1.235   1.451
10583SOL    HW232649   4.397   1.252   1.288
10584SOL     OW32650   5.841   6.585   1.180
10584SOL    HW132651   5.888   6.663   1.221
10584SOL    HW232652   5.882   6.565   1.091
10585SOL     OW32653   2.904   4.136   6.136
10585SOL    HW132654   2.961   4.188   6.072
10585SOL    HW232655   2.819   4.186   6.152
10586SOL     OW32656   4.669   2.043   1.435
10586SOL    HW132657   4.586   2.096   1.416
10586SOL    HW232658   4.747   2.087   1.390
10587SOL     OW32659   6.134   3.028   0.378
10587SOL    HW132660   6.130   3.027   0.478
10587SOL    HW232661   6.041   3.032   0.341
10588SOL     OW32662   1.841   5.134   3.365
10588SOL    HW132663   1.817   5.047   3.322
10588SOL    HW232664   1.757   5.183   3.388
10589SOL     OW32665   5.922   1.437   3.801
10589SOL    HW132666   5.925   1.533   3.773
10589SOL    HW232667   6.007   1.391   3.774
10590SOL     OW32668   1.714   0.004   5.320
10590SOL    HW132669   1.632   7.005   5.263
10590SOL    HW232670   1.736   0.101   5.329
10591SOL     OW32671   1.608   2.200   1.807
10591SOL    HW132672   1.676   2.271   1.823
10591SOL    HW232673   1.521   2.227   1.849
10592SOL     OW32674   5.357   1.418   6.276
10592SOL    HW132675   5.452   1.439   6.253
10592SOL    HW232676   5.345   1.319   6.278
10593SOL     OW32677   1.136   4.320   1.615
10593SOL    HW132678   1.136   4.372   1.530
10593SOL    HW232679   1.230   4.310   1.648
10594SOL     OW32680   1.511   1.230   4.615
10594SOL    HW132681   1.442   1.236   4.544
10594SOL    HW232682   1.574   1.155   4.595
10595SOL     OW32683   2.190   5.900   4.688
10595SOL    HW132684   2.231   5.820   4.643
10595SOL    HW232685   2.100   5.918   4.648
10596SOL     OW32686   3.036   1.011   1.878
10596SOL    HW132687   3.021   1.033   1.975
10596SOL    HW232688   3.115   1.062   1.845
10597SOL     OW32689   1.601   0.422   3.910
10597SOL    HW132690   1.592   0.480   3.829
10597SOL    HW232691   1.609   0.326   3.881
10598SOL     OW32692   2.468   0.602   0.583
10598SOL    HW132693   2.507   0.526   0.635
10598SOL    HW232694   2.522   0.617   0.500
10599SOL     OW32695   4.754   0.503   6.635
10599SOL    HW132696   4.812   0.581   6.611
10599SOL    HW232697   4.791   0.420   6.594
10600SOL     OW32698   1.870   3.344   5.062
10600SOL    HW132699   1.887   3.439   5.035
10600SOL    HW232700   1.919   3.283   4.999
10601SOL     OW32701   3.388   6.483   5.330
10601SOL    HW132702   3.386   6.580   5.305
10601SOL    HW232703   3.466   6.439   5.286
10602SOL     OW32704   4.605   2.085   1.718
10602SOL    HW132705   4.611   2.063   1.621
10602SOL    HW232706   4.666   2.162   1.739
10603SOL     OW32707   0.857   5.068   5.190
10603SOL    HW132708   0.896   5.054   5.099
10603SOL    HW232709   0.830   4.980   5.229
10604SOL     OW32710   0.560   3.905   5.936
10604SOL    HW132711   0.471   3.946   5.957
10604SOL    HW232712   0.616   3.971   5.886
10605SOL     OW32713   2.010   5.057   6.386
10605SOL    HW132714   2.034   5.072   6.290
10605SOL    HW232715   1.935   4.992   6.393
10606SOL     OW32716   0.394   1.593   2.101
10606SOL    HW132717   0.463   1.533   2.141
10606SOL    HW232718   0.371   1.665   2.166
10607SOL     OW32719   5.471   4.153   6.452
10607SOL    HW132720   5.540   4.165   6.380
10607SOL    HW232721   5.513   4.112   6.533
10608SOL     OW32722   5.573   0.005   2.449
10608SOL    HW132723   5.633   7.006   2.369
10608SOL    HW232724   5.629   0.013   2.532
10609SOL     OW32725   4.105   6.867   2.527
10609SOL    HW132726   4.121   6.957   2.565
10609SOL    HW232727   4.160   6.799   2.576
10610SOL     OW32728   1.987   4.282   5.027
10610SOL    HW132729   2.030   4.264   5.115
10610SOL    HW232730   2.051   4.258   4.953
10611SOL     OW32731   4.927   2.266   5.877
10611SOL    HW132732   5.004   2.202   5.882
10611SOL    HW232733   4.862   2.235   5.807
10612SOL     OW32734   1.825   0.327   1.120
10612SOL    HW132735   1.771   0.369   1.193
10612SOL    HW232736   1.849   0.233   1.146
10613SOL     OW32737   0.760   6.290   6.821
10613SOL    HW132738   0.841   6.265   6.767
10613SOL    HW232739   0.689   6.324   6.759
10614SOL     OW32740   0.347   0.685   2.768
10614SOL    HW132741   0.361   0.774   2.812
10614SOL    HW232742   0.252   0.677   2.739
10615SOL     OW32743   0.017   6.719   5.356
10615SOL    HW132744   0.071   6.648   5.400
10615SOL    HW232745   0.051   6.735   5.263
10616SOL     OW32746   2.713   5.861   1.042
10616SOL    HW132747   2.708   5.923   0.964
10616SOL    HW232748   2.803   5.870   1.085
10617SOL     OW32749   0.416   1.090   6.454
10617SOL    HW132750   0.500   1.073   6.506
10617SOL    HW232751   0.366   1.004   6.442
10618SOL     OW32752   6.670   4.176   0.862
10618SOL    HW132753   6.696   4.215   0.773
10618SOL    HW232754   6.702   4.235   0.935
10619SOL     OW32755   0.219   3.402   3.437
10619SOL    HW132756   0.239   3.467   3.509
10619SOL    HW232757   0.273   3.424   3.356
10620SOL     OW32758   1.415   5.343   4.279
10620SOL    HW132759   1.474   5.288   4.220
10620SOL    HW232760   1.470   5.380   4.355
10621SOL     OW32761   3.556   6.360   0.944
10621SOL    HW132762   3.558   6.448   0.992
10621SOL    HW232763   3.641   6.348   0.892
10622SOL     OW32764   3.881   2.005   0.694
10622SOL    HW132765   3.844   2.047   0.777
10622SOL    HW232766   3.929   2.074   0.640
10623SOL     OW32767   6.722   1.261   4.802
10623SOL    HW132768   6.812   1.294   4.827
10623SOL    HW232769   6.652   1.309   4.856
10624SOL     OW32770   2.848   1.203   4.319
10624SOL    HW132771   2.783   1.263   4.367
10624SOL    HW232772   2.931   1.193   4.374
10625SOL     OW32773   0.903   2.737   0.570
10625SOL    HW132774   0.962   2.800   0.621
10625SOL    HW232775   0.851   2.789   0.501
10626SOL     OW32776   6.883   2.059   2.955
10626SOL    HW132777   6.904   2.025   2.863
10626SOL    HW232778   6.819   1.997   3.000
10627SOL     OW32779   5.094   5.843   5.223
10627SOL    HW132780   5.004   5.876   5.250
10627SOL    HW232781   5.089   5.800   5.133
10628SOL     OW32782   6.602   5.901   5.122
10628SOL    HW132783   6.658   5.882   5.202
10628SOL    HW232784   6.536   5.827   5.109
10629SOL     OW32785   2.675   4.254   6.378
10629SOL    HW132786   2.589   4.241   6.427
10629SOL    HW232787   2.720   4.337   6.410
10630SOL     OW32788   5.173   0.895   1.847
10630SOL    HW132789   5.261   0.933   1.875
10630SOL    HW232790   5.187   0.803   1.810
10631SOL     OW32791   1.207   6.894   4.586
10631SOL    HW132792   1.215   6.808   4.536
10631SOL    HW232793   1.148   6.881   4.666
10632SOL     OW32794   0.062   3.176   6.590
10632SOL    HW132795   0.161   3.187   6.587
10632SOL    HW232796   0.036   3.135   6.678
10633SOL     OW32797   1.360   5.059   0.126
10633SOL    HW132798   1.320   5.110   0.201
10633SOL    HW232799   1.402   4.975   0.161
10634SOL     OW32800   3.754   6.477   2.318
10634SOL    HW132801   3.802   6.427   2.246
10634SOL    HW232802   3.721   6.412   2.387
10635SOL     OW32803   1.670   1.348   1.808
10635SOL    HW132804   1.768   1.334   1.822
10635SOL    HW232805   1.645   1.440   1.838
10636SOL     OW32806   5.122   1.682   0.277
10636SOL    HW132807   5.199   1.737   0.245
10636SOL    HW232808   5.121   1.595   0.227
10637SOL     OW32809   3.199   3.810   6.131
10637SOL    HW132810   3.263   3.771   6.064
10637SOL    HW232811   3.116   3.840   6.083
10638SOL     OW32812   6.197   0.590   5.636
10638SOL    HW132813   6.164   0.532   5.711
10638SOL    HW232814   6.255   0.662   5.673
10639SOL     OW32815   3.610   2.041   5.074
10639SOL    HW132816   3.529   2.055   5.016
10639SOL    HW232817   3.642   2.129   5.108
10640SOL     OW32818   4.790   6.219   0.717
10640SOL    HW132819   4.758   6.141   0.663
10640SOL    HW232820   4.864   6.189   0.778
10641SOL     OW32821   3.394   6.684   0.246
10641SOL    HW132822   3.309   6.630   0.247
10641SOL    HW232823   3.451   6.654   0.169
10642SOL     OW32824   0.466   5.199   0.881
10642SOL    HW132825   0.389   5.215   0.942
10642SOL    HW232826   0.511   5.113   0.906
10643SOL     OW32827   4.032   3.239   5.270
10643SOL    HW132828   4.085   3.315   5.308
10643SOL    HW232829   3.936   3.251   5.293
10644SOL     OW32830   3.798   1.197   5.607
10644SOL    HW132831   3.766   1.108   5.576
10644SOL    HW232832   3.870   1.229   5.545
10645SOL     OW32833   1.850   0.135   4.832
10645SOL    HW132834   1.782   0.063   4.820
10645SOL    HW232835   1.937   0.107   4.791
10646SOL     OW32836   6.876   5.352   6.596
10646SOL    HW132837   6.788   5.369   6.551
10646SOL    HW232838   6.873   5.388   6.689
10647SOL     OW32839   0.148   5.701   0.693
10647SOL    HW132840   0.092   5.661   0.767
10647SOL    HW232841   0.099   5.778   0.653
10648SOL     OW32842   4.928   4.391   5.813
10648SOL    HW132843   4.831   4.406   5.798
10648SOL    HW232844   4.981   4.463   5.767
10649SOL     OW32845   0.404   4.694   6.777
10649SOL    HW132846   0.308   4.716   6.757
10649SOL    HW232847   0.458   4.778   6.775
10650SOL     OW32848   2.318   0.155   5.438
10650SOL    HW132849   2.392   0.216   5.466
10650SOL    HW232850   2.326   0.135   5.341
10651SOL     OW32851   2.130   0.543   4.833
10651SOL    HW132852   2.056   0.549   4.900
10651SOL    HW232853   2.093   0.509   4.747
10652SOL     OW32854   4.680   1.082   0.656
10652SOL    HW132855   4.683   1.079   0.756
10652SOL    HW232856   4.654   1.174   0.626
10653SOL     OW32857   6.310   3.962   3.832
10653SOL    HW132858   6.276   3.868   3.837
10653SOL    HW232859   6.234   4.025   3.815
10654SOL     OW32860   4.793   0.696   1.578
10654SOL    HW132861   4.776   0.635   1.656
10654SOL    HW232862   4.719   0.763   1.572
10655SOL     OW32863   2.503   5.939   0.844
10655SOL    HW132864   2.453   5.989   0.914
10655SOL    HW232865   2.497   5.841   0.862
10656SOL     OW32866   6.570   2.607   6.074
10656SOL    HW132867   6.475   2.604   6.105
10656SOL    HW232868   6.575   2.579   5.978
10657SOL     OW32869   6.525   0.680   0.983
10657SOL    HW132870   6.520   0.776   1.011
10657SOL    HW232871   6.508   0.673   0.885
10658SOL     OW32872   6.949   6.244   4.162
10658SOL    HW132873   7.001   6.288   4.088
10658SOL    HW232874   6.854   6.232   4.133
10659SOL     OW32875   4.881   1.231   1.225
10659SOL    HW132876   4.832   1.301   1.277
10659SOL    HW232877   4.871   1.143   1.271
10660SOL     OW32878   4.946   5.629   5.678
10660SOL    HW132879   5.040   5.660   5.695
10660SOL    HW232880   4.946   5.531   5.661
10661SOL     OW32881   6.898   1.070   1.738
10661SOL    HW132882   6.846   1.154   1.724
10661SOL    HW232883   6.980   1.071   1.680
10662SOL     OW32884   0.052   2.025   0.525
10662SOL    HW132885   6.996   2.002   0.596
10662SOL    HW232886   0.064   2.125   0.522
10663SOL     OW32887   0.731   2.005   1.470
10663SOL    HW132888   0.697   1.911   1.471
10663SOL    HW232889   0.664   2.065   1.426
10664SOL     OW32890   2.509   5.345   6.254
10664SOL    HW132891   2.557   5.358   6.167
10664SOL    HW232892   2.479   5.250   6.261
10665SOL     OW32893   5.540   1.647   0.262
10665SOL    HW132894   5.494   1.567   0.301
10665SOL    HW232895   5.474   1.721   0.252
10666SOL     OW32896   0.887   6.526   0.281
10666SOL    HW132897   0.794   6.488   0.279
10666SOL    HW232898   0.925   6.517   0.373
10667SOL     OW32899   3.109   2.227   5.713
10667SOL    HW132900   3.108   2.128   5.721
10667SOL    HW232901   3.099   2.253   5.617
10668SOL     OW32902   1.770   0.714   6.133
10668SOL    HW132903   1.854   0.726   6.080
10668SOL    HW232904   1.787   0.652   6.209
10669SOL     OW32905   1.950   5.999   6.815
10669SOL    HW132906   2.049   6.006   6.803
10669SOL    HW232907   1.921   5.905   6.797
10670SOL     OW32908   5.770   4.345   4.709
10670SOL    HW132909   5.798   4.253   4.680
10670SOL    HW232910   5.848   4.407   4.702
10671SOL     OW32911   2.004   2.677   3.476
10671SOL    HW132912   1.995   2.578   3.486
10671SOL    HW232913   1.932   2.712   3.416
10672SOL     OW32914   6.612   2.298   0.796
10672SOL    HW132915   6.694   2.256   0.755
10672SOL    HW232916   6.636   2.338   0.884
10673SOL     OW32917   3.661   3.784   4.018
10673SOL    HW132918   3.598   3.862   4.012
10673SOL    HW232919   3.687   3.755   3.926
10674SOL     OW32920   4.105   1.414   2.406
10674SOL    HW132921   4.048   1.431   2.487
10674SOL    HW232922   4.076   1.474   2.332
10675SOL     OW32923   1.444   1.436   6.079
10675SOL    HW132924   1.358   1.482   6.058
10675SOL    HW232925   1.452   1.353   6.024
10676SOL     OW32926   6.620   1.087   0.239
10676SOL    HW132927   6.580   1.044   0.158
10676SOL    HW232928   6.658   1.177   0.213
10677SOL     OW32929   5.615   1.374   0.564
10677SOL    HW132930   5.545   1.367   0.493
10677SOL    HW232931   5.620   1.469   0.596
10678SOL     OW32932   1.598   5.423   3.522
10678SOL    HW132933   1.565   5.516   3.538
10678SOL    HW232934   1.520   5.360   3.521
10679SOL     OW32935   5.800   5.277   3.627
10679SOL    HW132936   5.883   5.232   3.595
10679SOL    HW232937   5.728   5.209   3.642
10680SOL     OW32938   0.162   2.368   4.028
10680SOL    HW132939   0.066   2.390   4.011
10680SOL    HW232940   0.193   2.300   3.963
10681SOL     OW32941   0.735   3.284   0.011
10681SOL    HW132942   0.660   3.247   6.967
10681SOL    HW232943   0.779   3.210   0.061
10682SOL     OW32944   6.085   2.113   3.321
10682SOL    HW132945   6.040   2.202   3.315
10682SOL    HW232946   6.058   2.067   3.406
10683SOL     OW32947   1.298   0.733   4.155
10683SOL    HW132948   1.322   0.640   4.182
10683SOL    HW232949   1.293   0.739   4.055
10684SOL     OW32950   5.172   5.864   0.831
10684SOL    HW132951   5.211   5.854   0.739
10684SOL    HW232952   5.095   5.801   0.842
10685SOL     OW32953   6.344   2.669   2.461
10685SOL    HW132954   6.435   2.638   2.435
10685SOL    HW232955   6.297   2.706   2.381
10686SOL     OW32956   4.509   4.471   1.473
10686SOL    HW132957   4.502   4.404   1.547
10686SOL    HW232958   4.571   4.544   1.499
10687SOL     OW32959   0.164   5.295   0.843
10687SOL    HW132960   0.164   5.215   0.783
10687SOL    HW232961   0.223   5.366   0.804
10688SOL     OW32962   1.547   4.674   0.816
10688SOL    HW132963   1.623   4.737   0.834
10688SOL    HW232964   1.461   4.725   0.818
10689SOL     OW32965   0.521   0.426   0.883
10689SOL    HW132966   0.465   0.424   0.965
10689SOL    HW232967   0.614   0.395   0.905
10690SOL     OW32968   4.135   0.382   3.628
10690SOL    HW132969   4.230   0.354   3.612
10690SOL    HW232970   4.083   0.371   3.543
10691SOL     OW32971   4.985   1.576   1.491
10691SOL    HW132972   4.982   1.676   1.484
10691SOL    HW232973   4.893   1.539   1.480
10692SOL     OW32974   5.925   6.299   4.388
10692SOL    HW132975   5.966   6.313   4.298
10692SOL    HW232976   5.833   6.261   4.378
10693SOL     OW32977   4.675   2.688   3.947
10693SOL    HW132978   4.629   2.765   3.903
10693SOL    HW232979   4.673   2.700   4.046
10694SOL     OW32980   2.678   6.037   0.269
10694SOL    HW132981   2.581   6.058   0.276
10694SOL    HW232982   2.690   5.947   0.228
10695SOL     OW32983   5.789   3.203   5.910
10695SOL    HW132984   5.732   3.209   5.992
10695SOL    HW232985   5.867   3.264   5.919
10696SOL     OW32986   6.482   7.010   0.371
10696SOL    HW132987   6.440   6.937   0.424
10696SOL    HW232988   6.510   0.073   0.434
10697SOL     OW32989   2.528   5.835   3.289
10697SOL    HW132990   2.577   5.838   3.202
10697SOL    HW232991   2.593   5.818   3.363
10698SOL     OW32992   3.207   0.448   4.260
10698SOL    HW132993   3.217   0.521   4.192
10698SOL    HW232994   3.134   0.472   4.324
10699SOL     OW32995   0.615   2.859   3.677
10699SOL    HW132996   0.668   2.925   3.730
10699SOL    HW232997   0.668   2.776   3.664
10700SOL     OW32998   1.092   2.976   2.485
10700SOL    HW132999   1.159   2.994   2.558
10700SOL    HW233000   1.137   2.983   2.396
10701SOL     OW33001   2.948   0.060   1.220
10701SOL    HW133002   2.957   7.003   1.147
10701SOL    HW233003   2.856   0.096   1.221
10702SOL     OW33004   4.965   2.057   0.477
10702SOL    HW133005   5.007   2.052   0.568
10702SOL    HW233006   4.952   1.965   0.441
10703SOL     OW33007   3.625   4.099   4.203
10703SOL    HW133008   3.568   4.148   4.269
10703SOL    HW233009   3.689   4.040   4.252
10704SOL     OW33010   5.466   5.748   1.850
10704SOL    HW133011   5.464   5.648   1.851
10704SOL    HW233012   5.435   5.782   1.939
10705SOL     OW33013   1.174   3.016   6.938
10705SOL    HW133014   1.222   3.089   6.890
10705SOL    HW233015   1.125   2.960   6.872
10706SOL     OW33016   3.452   3.596   0.618
10706SOL    HW133017   3.405   3.658   0.680
10706SOL    HW233018   3.399   3.512   0.607
10707SOL     OW33019   5.657   0.334   6.428
10707SOL    HW133020   5.686   0.248   6.469
10707SOL    HW233021   5.564   0.355   6.458
10708SOL     OW33022   4.274   2.030   1.792
10708SOL    HW133023   4.215   2.111   1.788
10708SOL    HW233024   4.370   2.060   1.791
10709SOL     OW33025   1.009   0.670   6.393
10709SOL    HW133026   1.071   0.611   6.341
10709SOL    HW233027   0.984   0.623   6.478
10710SOL     OW33028   0.226   6.458   3.420
10710SOL    HW133029   0.165   6.383   3.395
10710SOL    HW233030   0.223   6.528   3.348
10711SOL     OW33031   1.969   4.003   5.295
10711SOL    HW133032   1.955   3.907   5.318
10711SOL    HW233033   1.881   4.049   5.284
10712SOL     OW33034   3.517   2.031   6.912
10712SOL    HW133035   3.509   2.040   0.001
10712SOL    HW233036   3.517   2.122   6.871
10713SOL     OW33037   2.710   6.864   0.148
10713SOL    HW133038   2.618   6.833   0.171
10713SOL    HW233039   2.748   6.917   0.224
10714SOL     OW33040   5.057   5.650   4.228
10714SOL    HW133041   5.139   5.593   4.220
10714SOL    HW233042   5.047   5.682   4.322
10715SOL     OW33043   6.062   0.202   2.690
10715SOL    HW133044   6.093   0.275   2.752
10715SOL    HW233045   6.121   0.200   2.609
10716SOL     OW33046   6.881   1.474   2.088
10716SOL    HW133047   6.879   1.487   2.187
10716SOL    HW233048   6.976   1.462   2.058
10717SOL     OW33049   0.663   6.666   1.770
10717SOL    HW133050   0.587   6.605   1.791
10717SOL    HW233051   0.722   6.624   1.700
10718SOL     OW33052   6.988   4.896   5.265
10718SOL    HW133053   0.072   4.930   5.257
10718SOL    HW233054   6.927   4.974   5.280
10719SOL     OW33055   3.474   6.807   3.374
10719SOL    HW133056   3.518   6.879   3.321
10719SOL    HW233057   3.530   6.783   3.453
10720SOL     OW33058   6.998   2.749   6.024
10720SOL    HW133059   0.030   2.793   5.945
10720SOL    HW233060   0.013   2.798   6.108
10721SOL     OW33061   5.639   1.033   3.915
10721SOL    HW133062   5.548   0.994   3.905
10721SOL    HW233063   5.683   1.040   3.825
10722SOL     OW33064   0.887   5.479   0.367
10722SOL    HW133065   0.852   5.393   0.405
10722SOL    HW233066   0.810   5.540   0.347
10723SOL     OW33067   6.788   3.945   6.103
10723SOL    HW133068   6.760   3.874   6.167
10723SOL    HW233069   6.862   3.999   6.144
10724SOL     OW33070   3.437   6.363   6.035
10724SOL    HW133071   3.445   6.292   6.105
10724SOL    HW233072   3.407   6.321   5.949
10725SOL     OW33073   6.860   0.168   5.323
10725SOL    HW133074   6.872   0.091   5.385
10725SOL    HW233075   6.911   0.150   5.238
10726SOL     OW33076   6.974   0.062   3.248
10726SOL    HW133077   7.008   0.151   3.277
10726SOL    HW233078   0.004   7.001   3.305
10727SOL     OW33079   5.062   6.168   6.369
10727SOL    HW133080   5.075   6.164   6.270
10727SOL    HW233081   5.072   6.262   6.401
10728SOL     OW33082   5.369   6.005   3.882
10728SOL    HW133083   5.304   5.933   3.905
10728SOL    HW233084   5.323   6.094   3.891
10729SOL     OW33085   0.108   3.265   4.086
10729SOL    HW133086   0.115   3.222   3.996
10729SOL    HW233087   0.130   3.197   4.157
10730SOL     OW33088   1.562   5.842   4.409
10730SOL    HW133089   1.602   5.924   4.451
10730SOL    HW233090   1.571   5.849   4.309
10731SOL     OW33091   4.979   4.446   5.352
10731SOL    HW133092   4.887   4.464   5.388
10731SOL    HW233093   4.983   4.353   5.316
10732SOL     OW33094   5.352   5.920   2.075
10732SOL    HW133095   5.354   5.954   1.981
10732SOL    HW233096   5.268   5.952   2.120
10733SOL     OW33097   0.652   1.440   5.999
10733SOL    HW133098   0.584   1.452   6.071
10733SOL    HW233099   0.620   1.373   5.933
10734SOL     OW33100   0.567   0.721   4.527
10734SOL    HW133101   0.547   0.786   4.454
10734SOL    HW233102   0.481   0.683   4.562
10735SOL     OW33103   6.608   0.817   1.792
10735SOL    HW133104   6.585   0.908   1.826
10735SOL    HW233105   6.551   0.749   1.836
10736SOL     OW33106   5.705   5.805   3.504
10736SOL    HW133107   5.690   5.849   3.593
10736SOL    HW233108   5.632   5.829   3.442
10737SOL     OW33109   6.911   0.712   0.707
10737SOL    HW133110   6.914   0.632   0.648
10737SOL    HW233111   6.828   0.765   0.688
10738SOL     OW33112   1.350   6.667   1.615
10738SOL    HW133113   1.414   6.602   1.657
10738SOL    HW233114   1.378   6.683   1.520
10739SOL     OW33115   5.071   2.596   3.905
10739SOL    HW133116   5.163   2.600   3.867
10739SOL    HW233117   5.024   2.515   3.869
10740SOL     OW33118   2.838   0.703   5.744
10740SOL    HW133119   2.901   0.745   5.809
10740SOL    HW233120   2.757   0.669   5.793
10741SOL     OW33121   1.840   2.506   4.445
10741SOL    HW133122   1.785   2.582   4.479
10741SOL    HW233123   1.920   2.494   4.504
10742SOL     OW33124   0.360   0.360   1.931
10742SOL    HW133125   0.377   0.398   1.840
10742SOL    HW233126   0.284   0.409   1.973
10743SOL     OW33127   3.986   2.650   6.114
10743SOL    HW133128   4.025   2.725   6.062
10743SOL    HW233129   3.978   2.676   6.210
10744SOL     OW33130   1.795   1.735   0.997
10744SOL    HW133131   1.826   1.754   0.903
10744SOL    HW233132   1.851   1.786   1.062
10745SOL     OW33133   3.089   5.535   1.370
10745SOL    HW133134   2.990   5.541   1.384
10745SOL    HW233135   3.135   5.537   1.459
10746SOL     OW33136   2.626   5.717   6.067
10746SOL    HW133137   2.545   5.659   6.065
10746SOL    HW233138   2.602   5.808   6.101
10747SOL     OW33139   6.938   6.955   4.452
10747SOL    HW133140   6.874   6.884   4.423
10747SOL    HW233141   7.004   6.915   4.516
10748SOL     OW33142   2.912   6.295   2.509
10748SOL    HW133143   2.857   6.360   2.561
10748SOL    HW233144   2.865   6.206   2.507
10749SOL     OW33145   4.888   3.281   2.285
10749SOL    HW133146   4.826   3.206   2.309
10749SOL    HW233147   4.943   3.254   2.205
10750SOL     OW33148   3.542   1.448   4.118
10750SOL    HW133149   3.614   1.474   4.182
10750SOL    HW233150   3.547   1.506   4.036
10751SOL     OW33151   6.364   6.068   3.602
10751SOL    HW133152   6.367   5.969   3.607
10751SOL    HW233153   6.324   6.096   3.515
10752SOL     OW33154   0.160   6.251   6.571
10752SOL    HW133155   0.105   6.332   6.547
10752SOL    HW233156   0.160   6.240   6.670
10753SOL     OW33157   5.588   6.920   4.991
10753SOL    HW133158   5.562   6.831   5.029
10753SOL    HW233159   5.535   6.992   5.036
10754SOL     OW33160   6.823   5.725   2.357
10754SOL    HW133161   6.896   5.789   2.381
10754SOL    HW233162   6.738   5.776   2.339
10755SOL     OW33163   0.686   2.219   2.352
10755SOL    HW133164   0.596   2.201   2.311
10755SOL    HW233165   0.693   2.171   2.440
10756SOL     OW33166   1.172   0.081   6.391
10756SOL    HW133167   1.265   0.048   6.410
10756SOL    HW233168   1.138   0.133   6.469
10757SOL     OW33169   6.828   2.792   1.830
10757SOL    HW133170   6.914   2.842   1.833
10757SOL    HW233171   6.825   2.735   1.748
10758SOL     OW33172   0.584   1.668   0.337
10758SOL    HW133173   0.539   1.584   0.365
10758SOL    HW233174   0.591   1.671   0.237
10759SOL     OW33175   3.688   4.774   5.591
10759SOL    HW133176   3.768   4.756   5.533
10759SOL    HW233177   3.605   4.749   5.541
10760SOL     OW33178   0.532   5.153   0.154
10760SOL    HW133179   0.607   5.120   0.211
10760SOL    HW233180   0.452   5.170   0.212
10761SOL     OW33181   1.510   1.329   6.722
10761SOL    HW133182   1.585   1.361   6.781
10761SOL    HW233183   1.482   1.403   6.661
10762SOL     OW33184   1.714   6.326   1.104
10762SOL    HW133185   1.763   6.258   1.158
10762SOL    HW233186   1.710   6.412   1.154
10763SOL     OW33187   4.989   1.020   2.106
10763SOL    HW133188   5.071   1.066   2.072
10763SOL    HW233189   5.016   0.945   2.168
10764SOL     OW33190   5.432   6.259   5.045
10764SOL    HW133191   5.381   6.173   5.053
10764SOL    HW233192   5.472   6.266   4.953
10765SOL     OW33193   6.712   2.716   1.341
10765SOL    HW133194   6.810   2.708   1.359
10765SOL    HW233195   6.672   2.784   1.403
10766SOL     OW33196   3.309   5.070   6.773
10766SOL    HW133197   3.249   5.140   6.733
10766SOL    HW233198   3.260   5.023   6.846
10767SOL     OW33199   1.804   4.898   6.374
10767SOL    HW133200   1.713   4.939   6.386
10767SOL    HW233201   1.819   4.879   6.277
10768SOL     OW33202   5.752   6.246   0.269
10768SOL    HW133203   5.832   6.257   0.328
10768SOL    HW233204   5.762   6.303   0.188
10769SOL     OW33205   3.099   3.583   4.987
10769SOL    HW133206   3.085   3.506   5.051
10769SOL    HW233207   3.012   3.632   4.975
10770SOL     OW33208   4.408   0.065   3.599
10770SOL    HW133209   4.336   0.019   3.652
10770SOL    HW233210   4.475   0.104   3.662
10771SOL     OW33211   4.750   5.884   5.974
10771SOL    HW133212   4.682   5.957   5.966
10771SOL    HW233213   4.724   5.806   5.918
10772SOL     OW33214   4.808   4.002   3.540
10772SOL    HW133215   4.848   3.916   3.510
10772SOL    HW233216   4.765   3.989   3.630
10773SOL     OW33217   0.378   4.167   0.923
10773SOL    HW133218   0.393   4.113   1.006
10773SOL    HW233219   0.458   4.161   0.864
10774SOL     OW33220   0.023   2.990   0.485
10774SOL    HW133221   0.016   3.088   0.501
10774SOL    HW233222   0.094   2.951   0.544
10775SOL     OW33223   2.773   4.489   6.458
10775SOL    HW133224   2.761   4.582   6.424
10775SOL    HW233225   2.787   4.491   6.557
10776SOL     OW33226   1.046   3.657   3.225
10776SOL    HW133227   1.117   3.687   3.161
10776SOL    HW233228   1.089   3.609   3.302
10777SOL     OW33229   1.067   6.333   1.854
10777SOL    HW133230   1.153   6.305   1.898
10777SOL    HW233231   0.998   6.348   1.925
10778SOL     OW33232   5.080   0.332   3.958
10778SOL    HW133233   5.067   0.419   3.911
10778SOL    HW233234   5.114   0.264   3.894
10779SOL     OW33235   5.444   2.940   6.051
10779SOL    HW133236   5.531   2.984   6.073
10779SOL    HW233237   5.403   2.984   5.972
10780SOL     OW33238   0.903   5.050   4.621
10780SOL    HW133239   0.827   5.114   4.636
10780SOL    HW233240   0.867   4.959   4.605
10781SOL     OW33241   6.104   2.500   5.673
10781SOL    HW133242   6.183   2.515   5.614
10781SOL    HW233243   6.037   2.443   5.626
10782SOL     OW33244   1.082   3.161   5.296
10782SOL    HW133245   1.170   3.178   5.251
10782SOL    HW233246   1.096   3.099   5.374
10783SOL     OW33247   1.274   3.804   3.967
10783SOL    HW133248   1.280   3.739   4.042
10783SOL    HW233249   1.252   3.895   4.004
10784SOL     OW33250   4.918   5.332   3.969
10784SOL    HW133251   4.943   5.292   3.880
10784SOL    HW233252   4.863   5.266   4.020
10785SOL     OW33253   1.643   5.196   1.762
10785SOL    HW133254   1.601   5.174   1.850
10785SOL    HW233255   1.741   5.177   1.766
10786SOL     OW33256   5.145   1.457   2.420
10786SOL    HW133257   5.143   1.435   2.323
10786SOL    HW233258   5.236   1.490   2.445
10787SOL     OW33259   3.005   1.511   3.933
10787SOL    HW133260   3.031   1.607   3.936
10787SOL    HW233261   2.963   1.484   4.020
10788SOL     OW33262   1.436   3.073   0.382
10788SOL    HW133263   1.399   3.166   0.380
10788SOL    HW233264   1.405   3.023   0.301
10789SOL     OW33265   6.154   1.919   2.744
10789SOL    HW133266   6.113   1.999   2.700
10789SOL    HW233267   6.250   1.938   2.763
10790SOL     OW33268   6.906   2.457   5.482
10790SOL    HW133269   6.810   2.467   5.457
10790SOL    HW233270   6.952   2.545   5.477
10791SOL     OW33271   1.832   3.537   3.422
10791SOL    HW133272   1.812   3.590   3.339
10791SOL    HW233273   1.922   3.494   3.413
10792SOL     OW33274   3.790   1.329   2.368
10792SOL    HW133275   3.823   1.340   2.462
10792SOL    HW233276   3.719   1.397   2.350
10793SOL     OW33277   3.858   2.112   4.297
10793SOL    HW133278   3.955   2.089   4.294
10793SOL    HW233279   3.829   2.149   4.209
10794SOL     OW33280   4.573   3.073   6.498
10794SOL    HW133281   4.545   2.980   6.524
10794SOL    HW233282   4.568   3.083   6.398
10795SOL     OW33283   6.314   3.021   3.077
10795SOL    HW133284   6.357   3.094   3.025
10795SOL    HW233285   6.218   3.013   3.050
10796SOL     OW33286   0.067   1.512   6.734
10796SOL    HW133287   0.068   1.543   6.829
10796SOL    HW233288   0.060   1.413   6.731
10797SOL     OW33289   5.603   4.838   6.733
10797SOL    HW133290   5.678   4.904   6.730
10797SOL    HW233291   5.630   4.756   6.683
10798SOL     OW33292   2.348   5.647   0.381
10798SOL    HW133293   2.299   5.710   0.441
10798SOL    HW233294   2.334   5.673   0.285
10799SOL     OW33295   2.391   0.401   3.109
10799SOL    HW133296   2.452   0.468   3.152
10799SOL    HW233297   2.369   0.430   3.016
10800SOL     OW33298   1.706   0.791   4.967
10800SOL    HW133299   1.794   0.753   4.936
10800SOL    HW233300   1.660   0.724   5.025
10801SOL     OW33301   2.896   6.061   6.631
10801SOL    HW133302   2.968   6.082   6.697
10801SOL    HW233303   2.815   6.028   6.679
10802SOL     OW33304   0.679   4.661   3.923
10802SOL    HW133305   0.718   4.753   3.917
10802SOL    HW233306   0.749   4.594   3.897
10803SOL     OW33307   6.841   4.510   4.737
10803SOL    HW133308   6.916   4.445   4.753
10803SOL    HW233309   6.779   4.473   4.668
10804SOL     OW33310   4.195   4.672   6.731
10804SOL    HW133311   4.208   4.628   6.642
10804SOL    HW233312   4.210   4.605   6.804
10805SOL     OW33313   4.745   5.937   0.667
10805SOL    HW133314   4.786   5.944   0.576
10805SOL    HW233315   4.667   5.874   0.664
10806SOL     OW33316   5.916   2.998   5.384
10806SOL    HW133317   5.925   2.949   5.297
10806SOL    HW233318   5.924   2.933   5.460
10807SOL     OW33319   4.655   2.917   5.505
10807SOL    HW133320   4.658   2.945   5.601
10807SOL    HW233321   4.668   2.997   5.446
10808SOL     OW33322   0.528   2.827   1.088
10808SOL    HW133323   0.609   2.871   1.050
10808SOL    HW233324   0.555   2.758   1.155
10809SOL     OW33325   1.158   0.969   3.052
10809SOL    HW133326   1.058   0.971   3.046
10809SOL    HW233327   1.195   0.924   2.971
10810SOL     OW33328   1.975   1.752   6.116
10810SOL    HW133329   1.906   1.733   6.186
10810SOL    HW233330   2.017   1.841   6.133
10811SOL     OW33331   4.140   5.986   6.516
10811SOL    HW133332   4.175   6.068   6.470
10811SOL    HW233333   4.153   5.907   6.456
10812SOL     OW33334   6.410   3.112   2.687
10812SOL    HW133335   6.315   3.097   2.662
10812SOL    HW233336   6.414   3.152   2.779
10813SOL     OW33337   2.973   5.830   2.396
10813SOL    HW133338   2.890   5.791   2.355
10813SOL    HW233339   3.021   5.886   2.328
10814SOL     OW33340   1.925   5.867   4.366
10814SOL    HW133341   1.878   5.956   4.370
10814SOL    HW233342   1.953   5.841   4.458
10815SOL     OW33343   5.650   2.279   5.543
10815SOL    HW133344   5.578   2.314   5.603
10815SOL    HW233345   5.607   2.229   5.467
10816SOL     OW33346   2.322   2.385   0.926
10816SOL    HW133347   2.335   2.438   1.009
10816SOL    HW233348   2.288   2.293   0.949
10817SOL     OW33349   3.807   1.720   2.002
10817SOL    HW133350   3.788   1.790   1.933
10817SOL    HW233351   3.899   1.734   2.039
10818SOL     OW33352   4.473   3.376   6.085
10818SOL    HW133353   4.394   3.437   6.081
10818SOL    HW233354   4.472   3.316   6.005
10819SOL     OW33355   2.136   2.944   5.178
10819SOL    HW133356   2.147   3.027   5.233
10819SOL    HW233357   2.215   2.932   5.119
10820SOL     OW33358   1.462   6.400   5.643
10820SOL    HW133359   1.445   6.309   5.680
10820SOL    HW233360   1.560   6.421   5.650
10821SOL     OW33361   6.997   0.529   7.004
10821SOL    HW133362   0.019   0.440   6.973
10821SOL    HW233363   6.899   0.525   0.011
10822SOL     OW33364   0.194   4.849   5.933
10822SOL    HW133365   0.199   4.854   5.833
10822SOL    HW233366   0.186   4.753   5.961
10823SOL     OW33367   1.911   1.815   0.760
10823SOL    HW133368   2.008   1.794   0.775
10823SOL    HW233369   1.894   1.824   0.662
10824SOL     OW33370   5.301   1.224   4.548
10824SOL    HW133371   5.362   1.257   4.475
10824SOL    HW233372   5.333   1.259   4.636
10825SOL     OW33373   3.837   0.965   2.467
10825SOL    HW133374   3.894   1.026   2.521
10825SOL    HW233375   3.755   1.014   2.437
10826SOL     OW33376   6.948   3.580   1.324
10826SOL    HW133377   6.861   3.532   1.317
10826SOL    HW233378   0.010   3.521   1.288
10827SOL     OW33379   0.404   2.273   4.433
10827SOL    HW133380   0.383   2.359   4.480
10827SOL    HW233381   0.341   2.202   4.463
10828SOL     OW33382   2.666   4.853   7.004
10828SOL    HW133383   2.655   4.949   6.977
10828SOL    HW233384   2.633   4.794   6.930
10829SOL     OW33385   2.210   3.667   1.584
10829SOL    HW133386   2.220   3.711   1.673
10829SOL    HW233387   2.286   3.694   1.525
10830SOL     OW33388   6.323   0.135   3.660
10830SOL    HW133389   6.379   0.215   3.680
10830SOL    HW233390   6.355   0.091   3.577
10831SOL     OW33391   5.211   3.017   1.964
10831SOL    HW133392   5.293   3.000   2.019
10831SOL    HW233393   5.209   2.954   1.887
10832SOL     OW33394   1.609   2.898   1.977
10832SOL    HW133395   1.562   2.811   1.991
10832SOL    HW233396   1.545   2.973   1.993
10833SOL     OW33397   3.380   0.015   4.827
10833SOL    HW133398   3.316   6.974   4.770
10833SOL    HW233399   3.462   6.971   4.842
10834SOL     OW33400   0.006   1.891   5.887
10834SOL    HW133401   6.942   1.957   5.891
10834SOL    HW233402   7.004   1.831   5.808
10835SOL     OW33403   0.179   1.374   0.569
10835SOL    HW133404   0.228   1.461   0.566
10835SOL    HW233405   0.116   1.369   0.492
10836SOL     OW33406   0.051   2.319   1.116
10836SOL    HW133407   0.017   2.283   1.029
10836SOL    HW233408   0.145   2.352   1.104
10837SOL     OW33409   1.482   5.366   0.795
10837SOL    HW133410   1.554   5.359   0.727
10837SOL    HW233411   1.436   5.454   0.787
10838SOL     OW33412   6.812   5.949   0.395
10838SOL    HW133413   6.744   6.017   0.367
10838SOL    HW233414   6.794   5.862   0.350
10839SOL     OW33415   2.279   1.872   6.558
10839SOL    HW133416   2.355   1.814   6.530
10839SOL    HW233417   2.202   1.859   6.496
10840SOL     OW33418   1.861   0.526   3.262
10840SOL    HW133419   1.899   0.610   3.224
10840SOL    HW233420   1.931   0.454   3.261
10841SOL     OW33421   4.578   3.944   0.141
10841SOL    HW133422   4.487   3.937   0.180
10841SOL    HW233423   4.638   3.993   0.205
10842SOL     OW33424   5.915   1.630   2.035
10842SOL    HW133425   5.905   1.538   1.997
10842SOL    HW233426   5.917   1.625   2.135
10843SOL     OW33427   0.997   2.252   1.146
10843SOL    HW133428   1.077   2.274   1.202
10843SOL    HW233429   0.967   2.159   1.166
10844SOL     OW33430   4.859   0.076   3.964
10844SOL    HW133431   4.937   0.106   4.018
10844SOL    HW233432   4.774   0.108   4.007
10845SOL     OW33433   2.680   3.557   1.717
10845SOL    HW133434   2.657   3.649   1.685
10845SOL    HW233435   2.600   3.516   1.761
10846SOL     OW33436   3.457   2.772   1.790
10846SOL    HW133437   3.364   2.801   1.810
10846SOL    HW233438   3.522   2.831   1.839
10847SOL     OW33439   5.469   1.554   5.661
10847SOL    HW133440   5.384   1.530   5.613
10847SOL    HW233441   5.547   1.516   5.612
10848SOL     OW33442   1.805   0.766   6.792
10848SOL    HW133443   1.887   0.716   6.763
10848SOL    HW233444   1.798   0.851   6.740
10849SOL     OW33445   0.717   4.344   4.463
10849SOL    HW133446   0.732   4.260   4.515
10849SOL    HW233447   0.678   4.321   4.374
10850SOL     OW33448   6.134   0.414   2.851
10850SOL    HW133449   6.144   0.504   2.808
10850SOL    HW233450   6.108   0.425   2.947
10851SOL     OW33451   4.490   2.885   0.130
10851SOL    HW133452   4.487   2.903   0.032
10851SOL    HW233453   4.539   2.959   0.176
10852SOL     OW33454   6.213   1.359   6.014
10852SOL    HW133455   6.191   1.404   5.927
10852SOL    HW233456   6.309   1.331   6.014
10853SOL     OW33457   2.600   0.263   5.451
10853SOL    HW133458   2.667   0.190   5.464
10853SOL    HW233459   2.572   0.266   5.355
10854SOL     OW33460   6.024   0.367   6.782
10854SOL    HW133461   5.954   0.304   6.749
10854SOL    HW233462   5.997   0.461   6.761
10855SOL     OW33463   1.100   6.142   0.232
10855SOL    HW133464   1.001   6.128   0.225
10855SOL    HW233465   1.145   6.105   0.151
10856SOL     OW33466   4.861   6.984   6.456
10856SOL    HW133467   4.850   6.925   6.376
10856SOL    HW233468   4.771   7.008   6.492
10857SOL     OW33469   6.628   6.648   4.801
10857SOL    HW133470   6.601   6.724   4.741
10857SOL    HW233471   6.626   6.562   4.750
10858SOL     OW33472   1.893   2.846   0.882
10858SOL    HW133473   1.951   2.817   0.958
10858SOL    HW233474   1.831   2.771   0.858
10859SOL     OW33475   2.392   5.673   1.671
10859SOL    HW133476   2.404   5.645   1.766
10859SOL    HW233477   2.427   5.601   1.611
10860SOL     OW33478   5.806   1.433   1.418
10860SOL    HW133479   5.825   1.459   1.512
10860SOL    HW233480   5.718   1.386   1.413
10861SOL     OW33481   1.947   4.824   0.921
10861SOL    HW133482   1.999   4.909   0.935
10861SOL    HW233483   1.902   4.798   1.006
10862SOL     OW33484   3.646   4.542   5.321
10862SOL    HW133485   3.605   4.454   5.297
10862SOL    HW233486   3.582   4.594   5.378
10863SOL     OW33487   0.500   6.711   3.311
10863SOL    HW133488   0.427   6.692   3.245
10863SOL    HW233489   0.570   6.769   3.268
10864SOL     OW33490   2.982   3.888   2.480
10864SOL    HW133491   3.014   3.944   2.403
10864SOL    HW233492   2.927   3.944   2.542
10865SOL     OW33493   3.110   2.022   2.632
10865SOL    HW133494   3.084   2.053   2.541
10865SOL    HW233495   3.178   1.949   2.625
10866SOL     OW33496   0.397   3.465   4.741
10866SOL    HW133497   0.414   3.560   4.713
10866SOL    HW233498   0.473   3.432   4.797
10867SOL     OW33499   4.932   2.744   0.387
10867SOL    HW133500   4.866   2.766   0.458
10867SOL    HW233501   4.917   2.650   0.356
10868SOL     OW33502   0.835   6.954   5.598
10868SOL    HW133503   0.894   6.929   5.521
10868SOL    HW233504   0.790   0.031   5.578
10869NA      NA33505   6.915   0.881   6.734
10870NA      NA33506   4.643   4.776   5.004
10871NA      NA33507   0.858   4.564   2.695
10872NA      NA33508   6.367   3.557   3.510
10873NA      NA33509   4.247   2.327   5.235
10874NA      NA33510   2.376   3.424   6.870
10875NA      NA33511   1.589   5.616   0.244
10876NA      NA33512   4.111   4.929   2.108
10877NA      NA33513   5.410   3.659   1.375
10878NA      NA33514   3.834   1.802   0.562
10879NA      NA33515   5.380   6.595   1.411
10880NA      NA33516   2.831   6.555   4.416
10881NA      NA33517   3.254   5.410   2.876
10882NA      NA33518   4.057   4.913   6.140
   7.01065   7.01065   7.01065
