Generated by trjconv : CNT in water t= 115.00000
33518
    1C        C    1   2.840   2.765   4.746
    1C        C    2   2.897   2.716   4.866
    1C        C    3   2.839   2.768   4.982
    1C        C    4   2.844   2.766   4.258
    1C        C    5   2.897   2.724   4.382
    1C        C    6   2.840   2.765   4.504
    1C        C    7   3.005   2.630   4.623
    1C        C    8   2.890   2.712   4.625
    1C        C    9   3.071   2.597   4.744
    1C        C   10   3.006   2.626   4.866
    1C        C   11   3.178   2.490   4.971
    1C        C   12   3.056   2.559   4.978
    1C        C   13   2.843   2.763   3.768
    1C        C   14   2.893   2.713   3.891
    1C        C   15   2.846   2.767   4.012
    1C        C   16   3.015   2.642   4.136
    1C        C   17   2.899   2.723   4.136
    1C        C   18   3.076   2.609   4.259
    1C        C   19   3.009   2.638   4.380
    1C        C   20   3.201   2.549   4.502
    1C        C   21   3.067   2.594   4.501
    1C        C   22   3.275   2.537   4.621
    1C        C   23   3.203   2.545   4.743
    1C        C   24   3.410   2.479   4.862
    1C        C   25   3.268   2.498   4.860
    1C        C   26   3.488   2.472   4.978
    1C        C   27   2.843   2.760   3.280
    1C        C   28   2.897   2.714   3.402
    1C        C   29   2.849   2.763   3.525
    1C        C   30   3.012   2.630   3.648
    1C        C   31   2.899   2.714   3.648
    1C        C   32   3.073   2.598   3.772
    1C        C   33   3.010   2.633   3.894
    1C        C   34   3.204   2.545   4.013
    1C        C   35   3.073   2.598   4.015
    1C        C   36   3.272   2.530   4.136
    1C        C   37   3.207   2.557   4.259
    1C        C   38   3.410   2.501   4.380
    1C        C   39   3.272   2.531   4.381
    1C        C   40   3.483   2.501   4.501
    1C        C   41   3.413   2.508   4.624
    1C        C   42   3.628   2.479   4.741
    1C        C   43   3.486   2.482   4.742
    1C        C   44   3.703   2.483   4.861
    1C        C   45   3.627   2.474   4.979
    1C        C   46   2.832   2.746   2.792
    1C        C   47   2.885   2.700   2.914
    1C        C   48   2.839   2.754   3.036
    1C        C   49   3.009   2.629   3.159
    1C        C   50   2.895   2.711   3.158
    1C        C   51   3.074   2.595   3.280
    1C        C   52   3.014   2.634   3.402
    1C        C   53   3.204   2.544   3.526
    1C        C   54   3.073   2.596   3.525
    1C        C   55   3.271   2.520   3.648
    1C        C   56   3.204   2.547   3.769
    1C        C   57   3.413   2.512   3.891
    1C        C   58   3.272   2.527   3.891
    1C        C   59   3.482   2.505   4.014
    1C        C   60   3.411   2.506   4.136
    1C        C   61   3.623   2.498   4.257
    1C        C   62   3.482   2.497   4.259
    1C        C   63   3.697   2.506   4.377
    1C        C   64   3.624   2.508   4.498
    1C        C   65   3.832   2.543   4.618
    1C        C   66   3.695   2.509   4.621
    1C        C   67   3.901   2.565   4.739
    1C        C   68   3.839   2.521   4.858
    1C        C   69   4.048   2.583   4.973
    1C        C   70   3.919   2.529   4.973
    1C        C   71   2.821   2.732   2.305
    1C        C   72   2.877   2.686   2.426
    1C        C   73   2.827   2.737   2.548
    1C        C   74   3.001   2.618   2.671
    1C        C   75   2.883   2.695   2.670
    1C        C   76   3.069   2.589   2.792
    1C        C   77   3.006   2.626   2.913
    1C        C   78   3.199   2.543   3.036
    1C        C   79   3.066   2.590   3.036
    1C        C   80   3.271   2.526   3.157
    1C        C   81   3.205   2.542   3.281
    1C        C   82   3.412   2.507   3.402
    1C        C   83   3.272   2.526   3.404
    1C        C   84   3.483   2.500   3.524
    1C        C   85   3.412   2.501   3.646
    1C        C   86   3.624   2.510   3.768
    1C        C   87   3.482   2.508   3.768
    1C        C   88   3.693   2.516   3.891
    1C        C   89   3.623   2.508   4.014
    1C        C   90   3.831   2.550   4.134
    1C        C   91   3.694   2.514   4.136
    1C        C   92   3.900   2.571   4.255
    1C        C   93   3.834   2.541   4.377
    1C        C   94   4.025   2.634   4.496
    1C        C   95   3.902   2.566   4.498
    1C        C   96   4.089   2.670   4.617
    1C        C   97   4.030   2.627   4.737
    1C        C   98   4.184   2.767   4.858
    1C        C   99   4.099   2.652   4.858
    1C        C  100   4.210   2.842   4.974
    1C        C  101   2.817   2.728   2.065
    1C        C  102   2.989   2.595   2.185
    1C        C  103   2.871   2.677   2.184
    1C        C  104   3.058   2.575   2.308
    1C        C  105   2.997   2.612   2.430
    1C        C  106   3.196   2.532   2.546
    1C        C  107   3.063   2.578   2.550
    1C        C  108   3.266   2.517   2.668
    1C        C  109   3.201   2.540   2.791
    1C        C  110   3.408   2.502   2.910
    1C        C  111   3.268   2.521   2.914
    1C        C  112   3.481   2.500   3.031
    1C        C  113   3.411   2.508   3.153
    1C        C  114   3.619   2.505   3.275
    1C        C  115   3.478   2.501   3.277
    1C        C  116   3.690   2.513   3.397
    1C        C  117   3.625   2.506   3.522
    1C        C  118   3.831   2.545   3.643
    1C        C  119   3.693   2.515   3.645
    1C        C  120   3.897   2.570   3.766
    1C        C  121   3.830   2.548   3.889
    1C        C  122   4.019   2.643   4.009
    1C        C  123   3.896   2.573   4.011
    1C        C  124   4.080   2.679   4.131
    1C        C  125   4.023   2.640   4.254
    1C        C  126   4.195   2.765   4.373
    1C        C  127   4.086   2.676   4.376
    1C        C  128   4.246   2.814   4.495
    1C        C  129   4.197   2.761   4.617
    1C        C  130   4.328   2.930   4.739
    1C        C  131   4.238   2.821   4.738
    1C        C  132   4.359   2.998   4.859
    1C        C  133   4.281   2.961   4.970
    1C        C  134   3.173   2.470   2.075
    1C        C  135   3.039   2.512   2.080
    1C        C  136   3.255   2.478   2.188
    1C        C  137   3.189   2.519   2.306
    1C        C  138   3.403   2.482   2.425
    1C        C  139   3.263   2.503   2.425
    1C        C  140   3.476   2.484   2.545
    1C        C  141   3.405   2.494   2.667
    1C        C  142   3.619   2.500   2.786
    1C        C  143   3.478   2.498   2.788
    1C        C  144   3.691   2.509   2.907
    1C        C  145   3.623   2.504   3.031
    1C        C  146   3.830   2.541   3.153
    1C        C  147   3.692   2.510   3.154
    1C        C  148   3.897   2.564   3.275
    1C        C  149   3.827   2.545   3.396
    1C        C  150   4.026   2.617   3.522
    1C        C  151   3.896   2.560   3.519
    1C        C  152   4.086   2.661   3.642
    1C        C  153   4.025   2.629   3.765
    1C        C  154   4.195   2.758   3.886
    1C        C  155   4.080   2.676   3.886
    1C        C  156   4.249   2.806   4.008
    1C        C  157   4.197   2.759   4.130
    1C        C  158   4.341   2.918   4.251
    1C        C  159   4.250   2.809   4.251
    1C        C  160   4.374   2.981   4.373
    1C        C  161   4.332   2.927   4.496
    1C        C  162   4.438   3.111   4.616
    1C        C  163   4.374   2.985   4.617
    1C        C  164   4.466   3.183   4.734
    1C        C  165   4.430   3.120   4.855
    1C        C  166   4.512   3.321   4.972
    1C        C  167   4.474   3.187   4.970
    1C        C  168   3.470   2.431   2.073
    1C        C  169   3.395   2.459   2.188
    1C        C  170   3.617   2.465   2.304
    1C        C  171   3.474   2.466   2.304
    1C        C  172   3.691   2.485   2.423
    1C        C  173   3.617   2.490   2.543
    1C        C  174   3.826   2.540   2.661
    1C        C  175   3.690   2.502   2.664
    1C        C  176   3.893   2.562   2.784
    1C        C  177   3.827   2.544   2.908
    1C        C  178   4.023   2.625   3.032
    1C        C  179   3.896   2.564   3.030
    1C        C  180   4.087   2.656   3.154
    1C        C  181   4.027   2.621   3.277
    1C        C  182   4.193   2.748   3.396
    1C        C  183   4.086   2.657   3.400
    1C        C  184   4.244   2.799   3.518
    1C        C  185   4.193   2.754   3.641
    1C        C  186   4.342   2.906   3.762
    1C        C  187   4.249   2.800   3.763
    1C        C  188   4.380   2.968   3.883
    1C        C  189   4.339   2.915   4.007
    1C        C  190   4.443   3.102   4.125
    1C        C  191   4.377   2.977   4.128
    1C        C  192   4.474   3.167   4.247
    1C        C  193   4.441   3.106   4.370
    1C        C  194   4.507   3.308   4.488
    1C        C  195   4.466   3.173   4.492
    1C        C  196   4.517   3.384   4.606
    1C        C  197   4.510   3.318   4.731
    1C        C  198   4.555   3.531   4.845
    1C        C  199   4.532   3.390   4.852
    1C        C  200   4.581   3.617   4.956
    1C        C  201   3.610   2.418   2.070
    1C        C  202   3.824   2.508   2.180
    1C        C  203   3.690   2.458   2.182
    1C        C  204   3.899   2.535   2.297
    1C        C  205   3.827   2.521   2.418
    1C        C  206   4.021   2.615   2.542
    1C        C  207   3.894   2.554   2.538
    1C        C  208   4.082   2.656   2.663
    1C        C  209   4.019   2.625   2.786
    1C        C  210   4.194   2.744   2.907
    1C        C  211   4.080   2.661   2.908
    1C        C  212   4.250   2.791   3.028
    1C        C  213   4.199   2.743   3.151
    1C        C  214   4.334   2.905   3.271
    1C        C  215   4.244   2.796   3.273
    1C        C  216   4.370   2.967   3.393
    1C        C  217   4.333   2.908   3.516
    1C        C  218   4.435   3.094   3.634
    1C        C  219   4.377   2.965   3.638
    1C        C  220   4.460   3.162   3.756
    1C        C  221   4.439   3.097   3.879
    1C        C  222   4.499   3.301   4.000
    1C        C  223   4.468   3.163   4.001
    1C        C  224   4.509   3.375   4.120
    1C        C  225   4.504   3.305   4.243
    1C        C  226   4.511   3.518   4.362
    1C        C  227   4.513   3.377   4.364
    1C        C  228   4.513   3.594   4.482
    1C        C  229   4.519   3.525   4.605
    1C        C  230   4.502   3.739   4.723
    1C        C  231   4.537   3.601   4.722
    1C        C  232   4.494   3.816   4.841
    1C        C  233   4.543   3.752   4.956
    1C        C  234   4.017   2.603   2.060
    1C        C  235   3.896   2.535   2.063
    1C        C  236   4.085   2.644   2.176
    1C        C  237   4.025   2.601   2.297
    1C        C  238   4.196   2.730   2.418
    1C        C  239   4.080   2.648   2.418
    1C        C  240   4.253   2.777   2.538
    1C        C  241   4.199   2.734   2.661
    1C        C  242   4.335   2.898   2.781
    1C        C  243   4.247   2.787   2.783
    1C        C  244   4.375   2.958   2.903
    1C        C  245   4.337   2.902   3.027
    1C        C  246   4.437   3.089   3.146
    1C        C  247   4.376   2.962   3.149
    1C        C  248   4.455   3.158   3.268
    1C        C  249   4.430   3.095   3.392
    1C        C  250   4.494   3.299   3.510
    1C        C  251   4.458   3.162   3.513
    1C        C  252   4.504   3.369   3.632
    1C        C  253   4.492   3.300   3.754
    1C        C  254   4.513   3.510   3.874
    1C        C  255   4.508   3.369   3.877
    1C        C  256   4.508   3.582   3.995
    1C        C  257   4.513   3.516   4.120
    1C        C  258   4.488   3.729   4.238
    1C        C  259   4.507   3.589   4.241
    1C        C  260   4.468   3.801   4.358
    1C        C  261   4.486   3.732   4.480
    1C        C  262   4.420   3.935   4.599
    1C        C  263   4.469   3.803   4.602
    1C        C  264   4.398   4.008   4.718
    1C        C  265   4.432   3.943   4.838
    1C        C  266   4.311   4.124   4.952
    1C        C  267   4.387   4.007   4.954
    1C        C  268   4.265   2.767   2.059
    1C        C  269   4.202   2.722   2.175
    1C        C  270   4.344   2.884   2.297
    1C        C  271   4.252   2.776   2.296
    1C        C  272   4.383   2.946   2.417
    1C        C  273   4.345   2.885   2.539
    1C        C  274   4.447   3.076   2.659
    1C        C  275   4.380   2.951   2.658
    1C        C  276   4.472   3.147   2.779
    1C        C  277   4.445   3.080   2.900
    1C        C  278   4.499   3.287   3.020
    1C        C  279   4.467   3.150   3.021
    1C        C  280   4.507   3.361   3.140
    1C        C  281   4.490   3.295   3.264
    1C        C  282   4.511   3.507   3.385
    1C        C  283   4.501   3.366   3.386
    1C        C  284   4.511   3.578   3.507
    1C        C  285   4.514   3.510   3.631
    1C        C  286   4.484   3.720   3.751
    1C        C  287   4.514   3.582   3.752
    1C        C  288   4.466   3.790   3.872
    1C        C  289   4.487   3.722   3.994
    1C        C  290   4.426   3.929   4.112
    1C        C  291   4.471   3.795   4.114
    1C        C  292   4.387   3.994   4.231
    1C        C  293   4.412   3.930   4.355
    1C        C  294   4.318   4.121   4.476
    1C        C  295   4.385   3.996   4.477
    1C        C  296   4.282   4.188   4.594
    1C        C  297   4.329   4.132   4.715
    1C        C  298   4.201   4.312   4.834
    1C        C  299   4.278   4.192   4.834
    1C        C  300   4.164   4.397   4.943
    1C        C  301   4.348   2.878   2.060
    1C        C  302   4.471   3.061   2.175
    1C        C  303   4.398   2.938   2.177
    1C        C  304   4.480   3.135   2.296
    1C        C  305   4.442   3.074   2.418
    1C        C  306   4.506   3.279   2.533
    1C        C  307   4.475   3.142   2.538
    1C        C  308   4.515   3.353   2.654
    1C        C  309   4.505   3.284   2.777
    1C        C  310   4.521   3.497   2.895
    1C        C  311   4.519   3.356   2.898
    1C        C  312   4.517   3.570   3.016
    1C        C  313   4.513   3.502   3.140
    1C        C  314   4.482   3.713   3.262
    1C        C  315   4.507   3.574   3.261
    1C        C  316   4.468   3.784   3.383
    1C        C  317   4.484   3.717   3.506
    1C        C  318   4.418   3.920   3.624
    1C        C  319   4.465   3.786   3.628
    1C        C  320   4.388   3.984   3.746
    1C        C  321   4.414   3.921   3.870
    1C        C  322   4.315   4.111   3.988
    1C        C  323   4.391   3.992   3.990
    1C        C  324   4.271   4.168   4.109
    1C        C  325   4.315   4.116   4.233
    1C        C  326   4.184   4.284   4.350
    1C        C  327   4.278   4.179   4.353
    1C        C  328   4.131   4.334   4.470
    1C        C  329   4.185   4.291   4.593
    1C        C  330   4.017   4.426   4.712
    1C        C  331   4.136   4.349   4.712
    1C        C  332   3.964   4.485   4.830
    1C        C  333   4.050   4.478   4.940
    1C        C  334   4.554   3.261   2.058
    1C        C  335   4.533   3.123   2.061
    1C        C  336   4.538   3.343   2.171
    1C        C  337   4.511   3.274   2.291
    1C        C  338   4.521   3.488   2.407
    1C        C  339   4.522   3.347   2.411
    1C        C  340   4.516   3.562   2.528
    1C        C  341   4.523   3.494   2.651
    1C        C  342   4.492   3.705   2.769
    1C        C  343   4.517   3.566   2.772
    1C        C  344   4.471   3.775   2.890
    1C        C  345   4.487   3.709   3.014
    1C        C  346   4.417   3.909   3.136
    1C        C  347   4.465   3.776   3.136
    1C        C  348   4.385   3.977   3.255
    1C        C  349   4.417   3.916   3.379
    1C        C  350   4.314   4.102   3.499
    1C        C  351   4.387   3.981   3.501
    1C        C  352   4.271   4.162   3.620
    1C        C  353   4.316   4.106   3.741
    1C        C  354   4.177   4.266   3.864
    1C        C  355   4.271   4.160   3.863
    1C        C  356   4.122   4.317   3.984
    1C        C  357   4.168   4.265   4.107
    1C        C  358   4.001   4.393   4.227
    1C        C  359   4.123   4.322   4.228
    1C        C  360   3.948   4.443   4.348
    1C        C  361   4.014   4.414   4.469
    1C        C  362   3.826   4.517   4.592
    1C        C  363   3.953   4.455   4.590
    1C        C  364   3.757   4.547   4.711
    1C        C  365   3.832   4.535   4.830
    1C        C  366   3.622   4.583   4.951
    1C        C  367   3.759   4.558   4.947
    1C        C  368   4.508   3.560   2.052
    1C        C  369   4.521   3.483   2.168
    1C        C  370   4.501   3.701   2.286
    1C        C  371   4.518   3.560   2.286
    1C        C  372   4.481   3.773   2.406
    1C        C  373   4.488   3.700   2.527
    1C        C  374   4.419   3.904   2.648
    1C        C  375   4.469   3.772   2.647
    1C        C  376   4.388   3.968   2.770
    1C        C  377   4.424   3.908   2.893
    1C        C  378   4.311   4.092   3.009
    1C        C  379   4.385   3.971   3.013
    1C        C  380   4.270   4.152   3.130
    1C        C  381   4.310   4.097   3.254
    1C        C  382   4.170   4.255   3.374
    1C        C  383   4.269   4.155   3.376
    1C        C  384   4.116   4.299   3.497
    1C        C  385   4.170   4.261   3.622
    1C        C  386   4.004   4.393   3.737
    1C        C  387   4.121   4.314   3.743
    1C        C  388   3.941   4.429   3.858
    1C        C  389   4.005   4.396   3.980
    1C        C  390   3.817   4.490   4.105
    1C        C  391   3.945   4.431   4.103
    1C        C  392   3.751   4.519   4.226
    1C        C  393   3.818   4.499   4.349
    1C        C  394   3.615   4.556   4.473
    1C        C  395   3.753   4.527   4.471
    1C        C  396   3.543   4.566   4.594
    1C        C  397   3.617   4.568   4.714
    1C        C  398   3.405   4.551   4.835
    1C        C  399   3.544   4.579   4.834
    1C        C  400   3.336   4.511   4.950
    1C        C  401   4.509   3.699   2.050
    1C        C  402   4.444   3.909   2.163
    1C        C  403   4.483   3.773   2.166
    1C        C  404   4.407   3.972   2.284
    1C        C  405   4.433   3.906   2.406
    1C        C  406   4.323   4.091   2.521
    1C        C  407   4.397   3.971   2.526
    1C        C  408   4.274   4.147   2.642
    1C        C  409   4.312   4.087   2.764
    1C        C  410   4.168   4.244   2.884
    1C        C  411   4.267   4.144   2.885
    1C        C  412   4.120   4.295   3.006
    1C        C  413   4.170   4.252   3.131
    1C        C  414   3.997   4.378   3.250
    1C        C  415   4.112   4.296   3.252
    1C        C  416   3.942   4.417   3.374
    1C        C  417   4.001   4.381   3.497
    1C        C  418   3.807   4.478   3.614
    1C        C  419   3.937   4.422   3.616
    1C        C  420   3.745   4.505   3.738
    1C        C  421   3.811   4.485   3.861
    1C        C  422   3.609   4.540   3.982
    1C        C  423   3.747   4.513   3.984
    1C        C  424   3.540   4.546   4.105
    1C        C  425   3.611   4.538   4.228
    1C        C  426   3.403   4.546   4.352
    1C        C  427   3.544   4.557   4.350
    1C        C  428   3.332   4.538   4.474
    1C        C  429   3.403   4.551   4.595
    1C        C  430   3.190   4.515   4.719
    1C        C  431   3.330   4.544   4.716
    1C        C  432   3.119   4.493   4.840
    1C        C  433   3.199   4.486   4.955
    1C        C  434   4.380   4.116   2.051
    1C        C  435   4.438   3.989   2.048
    1C        C  436   4.296   4.158   2.160
    1C        C  437   4.328   4.090   2.280
    1C        C  438   4.174   4.243   2.396
    1C        C  439   4.276   4.145   2.400
    1C        C  440   4.122   4.294   2.517
    1C        C  441   4.176   4.249   2.640
    1C        C  442   4.003   4.375   2.761
    1C        C  443   4.116   4.291   2.761
    1C        C  444   3.941   4.410   2.883
    1C        C  445   4.003   4.374   3.005
    1C        C  446   3.810   4.469   3.126
    1C        C  447   3.939   4.412   3.125
    1C        C  448   3.744   4.492   3.249
    1C        C  449   3.812   4.474   3.371
    1C        C  450   3.604   4.535   3.492
    1C        C  451   3.742   4.502   3.491
    1C        C  452   3.536   4.544   3.615
    1C        C  453   3.607   4.535   3.737
    1C        C  454   3.396   4.541   3.862
    1C        C  455   3.537   4.544   3.860
    1C        C  456   3.328   4.529   3.985
    1C        C  457   3.399   4.540   4.107
    1C        C  458   3.195   4.496   4.236
    1C        C  459   3.332   4.529   4.231
    1C        C  460   3.126   4.476   4.358
    1C        C  461   3.196   4.501   4.478
    1C        C  462   2.995   4.426   4.600
    1C        C  463   3.124   4.484   4.598
    1C        C  464   2.930   4.392   4.721
    1C        C  465   2.986   4.441   4.842
    1C        C  466   2.792   4.337   4.957
    1C        C  467   2.897   4.430   4.954
    1C        C  468   4.121   4.287   2.034
    1C        C  469   4.185   4.248   2.152
    1C        C  470   4.004   4.368   2.273
    1C        C  471   4.123   4.290   2.273
    1C        C  472   3.939   4.402   2.394
    1C        C  473   4.001   4.367   2.516
    1C        C  474   3.811   4.462   2.638
    1C        C  475   3.940   4.405   2.638
    1C        C  476   3.746   4.492   2.760
    1C        C  477   3.812   4.468   2.882
    1C        C  478   3.605   4.520   3.005
    1C        C  479   3.743   4.490   3.003
    1C        C  480   3.535   4.526   3.128
    1C        C  481   3.605   4.519   3.250
    1C        C  482   3.392   4.529   3.374
    1C        C  483   3.533   4.538   3.370
    1C        C  484   3.326   4.525   3.499
    1C        C  485   3.395   4.540   3.621
    1C        C  486   3.185   4.502   3.743
    1C        C  487   3.322   4.536   3.742
    1C        C  488   3.122   4.476   3.867
    1C        C  489   3.191   4.495   3.989
    1C        C  490   3.003   4.406   4.112
    1C        C  491   3.129   4.470   4.114
    1C        C  492   2.940   4.380   4.235
    1C        C  493   2.999   4.413   4.359
    1C        C  494   2.815   4.306   4.479
    1C        C  495   2.933   4.384   4.480
    1C        C  496   2.769   4.255   4.602
    1C        C  497   2.815   4.309   4.724
    1C        C  498   2.658   4.161   4.843
    1C        C  499   2.748   4.271   4.842
    1C        C  500   2.590   4.111   4.955
    1C        C  501   3.998   4.353   2.035
    1C        C  502   3.811   4.461   2.151
    1C        C  503   3.938   4.400   2.153
    1C        C  504   3.741   4.475   2.273
    1C        C  505   3.808   4.455   2.395
    1C        C  506   3.602   4.506   2.518
    1C        C  507   3.741   4.482   2.517
    1C        C  508   3.533   4.517   2.641
    1C        C  509   3.606   4.515   2.762
    1C        C  510   3.394   4.528   2.881
    1C        C  511   3.535   4.528   2.883
    1C        C  512   3.324   4.523   3.004
    1C        C  513   3.393   4.525   3.127
    1C        C  514   3.186   4.489   3.253
    1C        C  515   3.324   4.522   3.250
    1C        C  516   3.121   4.469   3.377
    1C        C  517   3.188   4.494   3.499
    1C        C  518   2.995   4.409   3.624
    1C        C  519   3.121   4.473   3.621
    1C        C  520   2.935   4.370   3.746
    1C        C  521   2.998   4.409   3.866
    1C        C  522   2.834   4.278   3.993
    1C        C  523   2.942   4.368   3.990
    1C        C  524   2.784   4.234   4.118
    1C        C  525   2.829   4.292   4.238
    1C        C  526   2.687   4.134   4.361
    1C        C  527   2.767   4.250   4.358
    1C        C  528   2.648   4.075   4.484
    1C        C  529   2.686   4.141   4.602
    1C        C  530   2.579   3.959   4.730
    1C        C  531   2.635   4.090   4.724
    1C        C  532   2.539   3.896   4.851
    1C        C  533   2.528   3.986   4.962
    1C        C  534   3.613   4.552   2.037
    1C        C  535   3.746   4.508   2.036
    1C        C  536   3.533   4.531   2.153
    1C        C  537   3.602   4.507   2.275
    1C        C  538   3.390   4.520   2.395
    1C        C  539   3.532   4.520   2.397
    1C        C  540   3.320   4.509   2.517
    1C        C  541   3.392   4.519   2.638
    1C        C  542   3.183   4.483   2.764
    1C        C  543   3.321   4.514   2.761
    1C        C  544   3.121   4.464   2.889
    1C        C  545   3.187   4.491   3.011
    1C        C  546   2.994   4.398   3.129
    1C        C  547   3.118   4.465   3.132
    1C        C  548   2.939   4.362   3.254
    1C        C  549   2.995   4.404   3.377
    1C        C  550   2.833   4.274   3.503
    1C        C  551   2.939   4.368   3.501
    1C        C  552   2.780   4.229   3.625
    1C        C  553   2.826   4.281   3.749
    1C        C  554   2.692   4.119   3.874
    1C        C  555   2.780   4.230   3.872
    1C        C  556   2.652   4.063   3.997
    1C        C  557   2.693   4.126   4.116
    1C        C  558   2.594   3.942   4.246
    1C        C  559   2.655   4.069   4.240
    1C        C  560   2.567   3.875   4.368
    1C        C  561   2.591   3.946   4.488
    1C        C  562   2.528   3.746   4.612
    1C        C  563   2.561   3.884   4.611
    1C        C  564   2.515   3.677   4.734
    1C        C  565   2.513   3.756   4.852
    1C        C  566   2.534   3.542   4.974
    1C        C  567   2.520   3.680   4.970
    1C        C  568   3.325   4.474   2.033
    1C        C  569   3.393   4.504   2.152
    1C        C  570   3.182   4.472   2.276
    1C        C  571   3.319   4.507   2.273
    1C        C  572   3.117   4.449   2.399
    1C        C  573   3.183   4.476   2.521
    1C        C  574   2.986   4.399   2.645
    1C        C  575   3.113   4.459   2.643
    1C        C  576   2.929   4.360   2.769
    1C        C  577   2.995   4.400   2.887
    1C        C  578   2.824   4.270   3.014
    1C        C  579   2.933   4.359   3.007
    1C        C  580   2.769   4.227   3.137
    1C        C  581   2.829   4.274   3.256
    1C        C  582   2.697   4.112   3.382
    1C        C  583   2.783   4.224   3.380
    1C        C  584   2.661   4.053   3.506
    1C        C  585   2.696   4.115   3.628
    1C        C  586   2.594   3.932   3.754
    1C        C  587   2.658   4.058   3.751
    1C        C  588   2.568   3.868   3.877
    1C        C  589   2.596   3.933   4.000
    1C        C  590   2.541   3.734   4.124
    1C        C  591   2.574   3.872   4.125
    1C        C  592   2.522   3.669   4.248
    1C        C  593   2.529   3.739   4.371
    1C        C  594   2.511   3.529   4.495
    1C        C  595   2.517   3.671   4.494
    1C        C  596   2.516   3.459   4.617
    1C        C  597   2.515   3.534   4.736
    1C        C  598   2.530   3.323   4.858
    1C        C  599   2.525   3.464   4.858
    1C        C  600   2.526   3.244   4.973
    1C        C  601   3.192   4.437   2.042
    1C        C  602   2.977   4.387   2.156
    1C        C  603   3.113   4.433   2.158
    1C        C  604   2.919   4.358   2.283
    1C        C  605   2.989   4.390   2.401
    1C        C  606   2.817   4.269   2.525
    1C        C  607   2.925   4.360   2.524
    1C        C  608   2.770   4.217   2.648
    1C        C  609   2.821   4.269   2.769
    1C        C  610   2.688   4.106   2.892
    1C        C  611   2.776   4.217   2.892
    1C        C  612   2.650   4.050   3.016
    1C        C  613   2.689   4.110   3.138
    1C        C  614   2.592   3.924   3.263
    1C        C  615   2.655   4.051   3.262
    1C        C  616   2.568   3.860   3.387
    1C        C  617   2.598   3.926   3.508
    1C        C  618   2.534   3.728   3.634
    1C        C  619   2.569   3.865   3.632
    1C        C  620   2.520   3.661   3.758
    1C        C  621   2.533   3.732   3.880
    1C        C  622   2.514   3.522   4.006
    1C        C  623   2.528   3.663   4.003
    1C        C  624   2.519   3.455   4.130
    1C        C  625   2.519   3.528   4.251
    1C        C  626   2.534   3.317   4.376
    1C        C  627   2.519   3.458   4.374
    1C        C  628   2.552   3.247   4.497
    1C        C  629   2.532   3.318   4.617
    1C        C  630   2.588   3.113   4.740
    1C        C  631   2.543   3.248   4.739
    1C        C  632   2.610   3.046   4.863
    1C        C  633   2.554   3.107   4.980
    1C        C  634   2.779   4.300   2.051
    1C        C  635   2.889   4.386   2.044
    1C        C  636   2.744   4.227   2.165
    1C        C  637   2.804   4.273   2.284
    1C        C  638   2.669   4.110   2.409
    1C        C  639   2.759   4.219   2.407
    1C        C  640   2.631   4.049   2.530
    1C        C  641   2.680   4.108   2.649
    1C        C  642   2.581   3.921   2.773
    1C        C  643   2.646   4.046   2.772
    1C        C  644   2.564   3.854   2.897
    1C        C  645   2.594   3.921   3.018
    1C        C  646   2.528   3.722   3.147
    1C        C  647   2.569   3.857   3.141
    1C        C  648   2.515   3.653   3.269
    1C        C  649   2.533   3.724   3.390
    1C        C  650   2.510   3.515   3.517
    1C        C  651   2.528   3.655   3.513
    1C        C  652   2.512   3.449   3.642
    1C        C  653   2.509   3.521   3.763
    1C        C  654   2.533   3.309   3.886
    1C        C  655   2.511   3.449   3.885
    1C        C  656   2.550   3.245   4.010
    1C        C  657   2.541   3.316   4.132
    1C        C  658   2.605   3.115   4.256
    1C        C  659   2.557   3.247   4.255
    1C        C  660   2.631   3.049   4.379
    1C        C  661   2.601   3.115   4.500
    1C        C  662   2.707   2.930   4.622
    1C        C  663   2.627   3.046   4.621
    1C        C  664   2.748   2.874   4.745
    1C        C  665   2.695   2.931   4.864
    1C        C  666   2.737   2.863   4.979
    1C        C  667   2.671   4.024   2.049
    1C        C  668   2.678   4.103   2.165
    1C        C  669   2.594   3.909   2.292
    1C        C  670   2.641   4.043   2.288
    1C        C  671   2.555   3.846   2.412
    1C        C  672   2.573   3.920   2.531
    1C        C  673   2.518   3.714   2.659
    1C        C  674   2.555   3.851   2.653
    1C        C  675   2.506   3.646   2.782
    1C        C  676   2.529   3.718   2.901
    1C        C  677   2.505   3.510   3.027
    1C        C  678   2.518   3.651   3.025
    1C        C  679   2.509   3.440   3.150
    1C        C  680   2.509   3.512   3.272
    1C        C  681   2.538   3.304   3.399
    1C        C  682   2.510   3.443   3.395
    1C        C  683   2.557   3.239   3.522
    1C        C  684   2.539   3.310   3.643
    1C        C  685   2.605   3.108   3.767
    1C        C  686   2.556   3.240   3.765
    1C        C  687   2.631   3.048   3.892
    1C        C  688   2.600   3.113   4.014
    1C        C  689   2.710   2.929   4.133
    1C        C  690   2.636   3.049   4.135
    1C        C  691   2.751   2.873   4.256
    1C        C  692   2.708   2.931   4.378
    1C        C  693   2.746   2.871   4.500
    1C        C  694   2.627   3.892   2.057
    1C        C  695   2.524   3.702   2.175
    1C        C  696   2.577   3.833   2.174
    1C        C  697   2.507   3.634   2.298
    1C        C  698   2.519   3.710   2.416
    1C        C  699   2.491   3.500   2.541
    1C        C  700   2.503   3.641   2.539
    1C        C  701   2.502   3.432   2.664
    1C        C  702   2.501   3.505   2.785
    1C        C  703   2.526   3.295   2.909
    1C        C  704   2.508   3.435   2.907
    1C        C  705   2.549   3.230   3.032
    1C        C  706   2.534   3.301   3.153
    1C        C  707   2.596   3.101   3.276
    1C        C  708   2.551   3.235   3.276
    1C        C  709   2.627   3.038   3.398
    1C        C  710   2.603   3.106   3.520
    1C        C  711   2.706   2.923   3.645
    1C        C  712   2.633   3.044   3.644
    1C        C  713   2.753   2.872   3.768
    1C        C  714   2.711   2.931   3.889
    1C        C  715   2.753   2.873   4.011
    1C        C  716   2.447   3.500   2.067
    1C        C  717   2.491   3.632   2.058
    1C        C  718   2.462   3.416   2.182
    1C        C  719   2.480   3.494   2.299
    1C        C  720   2.515   3.286   2.423
    1C        C  721   2.489   3.425   2.422
    1C        C  722   2.534   3.215   2.544
    1C        C  723   2.520   3.292   2.661
    1C        C  724   2.596   3.098   2.786
    1C        C  725   2.541   3.227   2.785
    1C        C  726   2.620   3.032   2.909
    1C        C  727   2.596   3.096   3.032
    1C        C  728   2.704   2.916   3.157
    1C        C  729   2.628   3.035   3.155
    1C        C  730   2.748   2.865   3.281
    1C        C  731   2.704   2.920   3.404
    1C        C  732   2.749   2.863   3.525
    1C        C  733   2.484   3.193   2.069
    1C        C  734   2.483   3.274   2.183
    1C        C  735   2.580   3.080   2.301
    1C        C  736   2.526   3.212   2.303
    1C        C  737   2.615   3.017   2.422
    1C        C  738   2.595   3.087   2.543
    1C        C  739   2.697   2.905   2.669
    1C        C  740   2.627   3.027   2.667
    1C        C  741   2.734   2.849   2.793
    1C        C  742   2.695   2.912   2.913
    1C        C  743   2.746   2.861   3.034
    1C        C  744   2.537   3.065   2.071
    1C        C  745   2.684   2.894   2.179
    1C        C  746   2.605   3.010   2.181
    1C        C  747   2.727   2.839   2.302
    1C        C  748   2.687   2.896   2.425
    1C        C  749   2.734   2.844   2.547
    1C        C  750   2.731   2.837   2.060
    1C        C  751   3.663   2.316   1.977
    1C        O  752   3.673   2.196   2.016
    1C        O  753   3.643   2.314   1.839
    1C        C  754   4.586   3.046   1.946
    1C        O  755   4.541   3.061   1.829
    1C        O  756   4.714   2.990   1.952
    1C        C  757   4.405   4.212   1.941
    1C        O  758   4.486   4.306   1.962
    1C        O  759   4.420   4.156   1.814
    1C        C  760   3.599   4.658   1.935
    1C        O  761   3.585   4.776   1.977
    1C        O  762   3.584   4.630   1.799
    1C        C  763   2.890   4.471   1.922
    1C        O  764   2.940   4.433   1.813
    1C        O  765   2.835   4.600   1.920
    1C        C  766   2.338   3.476   1.969
    1C        O  767   2.358   3.433   1.852
    1C        O  768   2.202   3.495   1.995
    1C        C  769   4.692   3.581   5.047
    1C        O  770   4.669   3.585   5.171
    1C        O  771   4.823   3.622   5.020
    1C        C  772   4.277   4.442   5.028
    1C        O  773   4.269   4.448   5.154
    1C        O  774   4.366   4.540   4.983
    1C        C  775   4.139   2.534   5.078
    1C        O  776   4.239   2.466   5.042
    1C        O  777   4.102   2.503   5.209
    1C        C  778   2.896   4.525   5.068
    1C        O  779   2.925   4.647   5.050
    1C        O  780   2.911   4.489   5.202
    1C        C  781   2.440   3.033   5.038
    1C        O  782   2.369   2.945   4.983
    1C        O  783   2.412   3.020   5.174
    1C        C  784   2.412   3.992   5.053
    1C        O  785   2.305   4.026   4.996
    1C        O  786   2.418   4.004   5.193
    1C        C  787   2.950   2.441   1.985
    1C        O  788   2.940   2.474   1.863
    1C        O  789   2.877   2.330   2.026
    1C        C  790   3.182   2.366   5.052
    1C        O  791   3.146   2.253   5.009
    1C        O  792   3.201   2.356   5.190
    1C        H  793   4.258   3.032   5.047
    1C        H  794   4.198   2.797   5.070
    1C        H  795   4.522   3.121   5.039
    1C        H  796   4.566   3.352   5.059
    1C        H  797   4.566   3.813   5.041
    1C        H  798   4.425   3.982   5.051
    1C        H  799   4.314   4.185   5.040
    1C        H  800   4.023   4.529   5.030
    1C        H  801   3.801   4.520   5.038
    1C        H  802   3.593   4.659   5.020
    1C        H  803   3.392   4.444   5.012
    1C        H  804   3.156   4.457   5.048
    1C        H  805   3.904   2.448   5.041
    1C        H  806   3.670   2.494   5.075
    1C        H  807   3.009   2.559   5.074
    1C        H  808   3.448   2.413   5.058
    1C        H  809   2.901   2.768   5.069
    1C        H  810   2.690   2.897   5.069
    1C        H  811   2.476   3.280   5.061
    1C        H  812   2.603   3.507   5.049
    1C        H  813   2.532   3.735   5.061
    1C        H  814   2.552   4.184   5.024
    1C        H  815   2.725   4.342   5.040
    1C        H  816   2.671   2.852   1.972
    1C        H  817   2.834   2.669   1.977
    1C        H  818   3.208   2.436   1.980
    1C        H  819   3.428   2.446   1.975
    1C        H  820   3.846   2.532   1.969
    1C        H  821   4.063   2.617   1.964
    1C        H  822   4.279   2.686   1.989
    1C        H  823   4.339   2.941   1.973
    1C        H  824   4.573   3.305   1.962
    1C        H  825   4.482   3.517   1.957
    1C        H  826   4.564   3.739   1.967
    1C        H  827   3.808   4.552   1.961
    1C        H  828   3.932   4.326   1.956
    1C        H  829   4.156   4.261   1.937
    1C        H  830   4.533   3.985   1.999
    1C        H  831   2.663   3.825   1.982
    1C        H  832   2.693   4.068   1.954
    1C        H  833   2.706   4.296   1.973
    1C        H  834   3.358   4.513   1.939
    1C        H  835   3.144   4.411   1.951
    1C        H  836   2.501   2.994   1.999
    1C        H  837   2.429   3.218   1.980
    1C        H  838   2.491   3.674   1.960
    2V3OU   H29  839   2.797   3.542   1.541
    2V3OU   C27  840   2.774   3.499   1.642
    2V3OU   H27  841   2.725   3.565   1.718
    2V3OU   H28  842   2.715   3.405   1.631
    2V3OU   O11  843   2.900   3.472   1.703
    2V3OU   C15  844   2.914   3.393   1.815
    2V3OU   C13  845   3.047   3.374   1.858
    2V3OU   C14  846   3.072   3.268   1.946
    2V3OU   C16  847   2.967   3.188   1.991
    2V3OU    H6  848   2.988   3.105   2.059
    2V3OU   C12  849   3.209   3.220   1.977
    2V3OU    O2  850   3.230   3.124   2.054
    2V3OU   C10  851   3.321   3.301   1.927
    2V3OU    C8  852   3.453   3.260   1.945
    2V3OU   O10  853   3.489   3.143   2.003
    2V3OU   H26  854   3.401   3.106   2.023
    2V3OU    C6  855   3.564   3.341   1.906
    2V3OU    C5  856   3.535   3.462   1.843
    2V3OU    C4  857   3.704   3.290   1.916
    2V3OU    H4  858   3.717   3.231   2.011
    2V3OU    H5  859   3.715   3.221   1.827
    2V3OU    C2  860   3.815   3.396   1.914
    2V3OU    O6  861   3.802   3.473   2.034
    2V3OU   H21  862   3.760   3.557   2.008
    2V3OU    C3  863   3.778   3.492   1.801
    2V3OU    H2  864   3.856   3.570   1.784
    2V3OU    H3  865   3.777   3.432   1.706
    2V3OU   C25  866   3.951   3.327   1.907
    2V3OU    O7  867   4.001   3.296   1.799
    2V3OU   C26  868   4.028   3.283   2.030
    2V3OU   H22  869   4.058   3.378   2.083
    2V3OU   H23  870   4.122   3.232   1.998
    2V3OU    O8  871   3.955   3.203   2.119
    2V3OU   H24  872   3.921   3.266   2.185
    2V3OU    C1  873   3.643   3.560   1.811
    2V3OU    H1  874   3.623   3.616   1.714
    2V3OU    O3  875   3.652   3.653   1.920
    2V3OU   C19  876   3.612   3.788   1.895
    2V3OU    H9  877   3.517   3.795   1.836
    2V3OU    O4  878   3.711   3.845   1.813
    2V3OU   C20  879   3.840   3.869   1.869
    2V3OU   H10  880   3.887   3.768   1.888
    2V3OU   C24  881   3.603   3.851   2.034
    2V3OU   H16  882   3.537   3.793   2.103
    2V3OU   H17  883   3.559   3.954   2.023
    2V3OU   C23  884   3.743   3.870   2.092
    2V3OU   H15  885   3.788   3.768   2.116
    2V3OU    N1  886   3.739   3.953   2.212
    2V3OU   H19  887   3.810   3.933   2.279
    2V3OU   H20  888   3.656   3.933   2.264
    2V3OU   C21  889   3.844   3.946   2.001
    2V3OU   H11  890   3.949   3.928   2.039
    2V3OU    O5  891   3.818   4.086   1.993
    2V3OU   H18  892   3.781   4.101   2.081
    2V3OU   C22  893   3.911   3.950   1.761
    2V3OU   H12  894   3.859   4.048   1.748
    2V3OU   H13  895   3.908   3.892   1.665
    2V3OU   H14  896   4.018   3.965   1.792
    2V3OU   C11  897   3.156   3.469   1.831
    2V3OU    O1  898   3.134   3.583   1.784
    2V3OU    C9  899   3.294   3.423   1.859
    2V3OU    C7  900   3.400   3.502   1.817
    2V3OU    O9  901   3.387   3.619   1.746
    2V3OU   H25  902   3.292   3.626   1.726
    2V3OU   C17  903   2.811   3.311   1.864
    2V3OU    H7  904   2.707   3.345   1.857
    2V3OU   C18  905   2.836   3.203   1.947
    2V3OU    H8  906   2.755   3.138   1.984
    3SOL     OW  907   2.244   4.205   1.532
    3SOL    HW1  908   2.219   4.123   1.480
    3SOL    HW2  909   2.338   4.231   1.509
    4SOL     OW  910   5.981   0.154   1.491
    4SOL    HW1  911   6.043   0.176   1.566
    4SOL    HW2  912   5.999   0.061   1.459
    5SOL     OW  913   4.328   1.173   1.424
    5SOL    HW1  914   4.283   1.150   1.338
    5SOL    HW2  915   4.264   1.160   1.500
    6SOL     OW  916   3.426   2.066   1.961
    6SOL    HW1  917   3.513   2.111   1.977
    6SOL    HW2  918   3.402   2.074   1.864
    7SOL     OW  919   6.030   2.312   2.213
    7SOL    HW1  920   6.031   2.318   2.313
    7SOL    HW2  921   5.968   2.238   2.185
    8SOL     OW  922   2.464   6.586   4.212
    8SOL    HW1  923   2.413   6.671   4.224
    8SOL    HW2  924   2.406   6.518   4.167
    9SOL     OW  925   1.718   5.521   5.851
    9SOL    HW1  926   1.785   5.548   5.920
    9SOL    HW2  927   1.634   5.490   5.897
   10SOL     OW  928   0.600   4.479   6.035
   10SOL    HW1  929   0.673   4.477   5.966
   10SOL    HW2  930   0.536   4.552   6.013
   11SOL     OW  931   3.917   6.621   0.204
   11SOL    HW1  932   3.960   6.532   0.213
   11SOL    HW2  933   3.888   6.655   0.294
   12SOL     OW  934   5.101   5.649   3.189
   12SOL    HW1  935   5.031   5.651   3.118
   12SOL    HW2  936   5.057   5.635   3.278
   13SOL     OW  937   2.932   6.513   4.259
   13SOL    HW1  938   2.844   6.501   4.305
   13SOL    HW2  939   2.918   6.549   4.167
   14SOL     OW  940   3.614   5.780   6.786
   14SOL    HW1  941   3.691   5.717   6.774
   14SOL    HW2  942   3.646   5.874   6.777
   15SOL     OW  943   1.147   6.301   0.116
   15SOL    HW1  944   1.095   6.385   0.098
   15SOL    HW2  945   1.239   6.324   0.147
   16SOL     OW  946   6.515   2.037   5.924
   16SOL    HW1  947   6.557   2.108   5.867
   16SOL    HW2  948   6.579   2.007   5.994
   17SOL     OW  949   5.218   6.465   4.147
   17SOL    HW1  950   5.230   6.511   4.060
   17SOL    HW2  951   5.208   6.533   4.220
   18SOL     OW  952   2.298   1.851   5.937
   18SOL    HW1  953   2.385   1.859   5.987
   18SOL    HW2  954   2.314   1.862   5.839
   19SOL     OW  955   0.326   0.072   3.046
   19SOL    HW1  956   0.384   0.153   3.060
   19SOL    HW2  957   0.305   0.063   2.949
   20SOL     OW  958   3.702   1.534   4.273
   20SOL    HW1  959   3.776   1.546   4.207
   20SOL    HW2  960   3.621   1.498   4.226
   21SOL     OW  961   3.220   1.795   1.946
   21SOL    HW1  962   3.279   1.844   2.010
   21SOL    HW2  963   3.134   1.844   1.935
   22SOL     OW  964   2.289   6.620   6.369
   22SOL    HW1  965   2.199   6.664   6.359
   22SOL    HW2  966   2.276   6.525   6.398
   23SOL     OW  967   4.296   6.357   3.722
   23SOL    HW1  968   4.236   6.326   3.648
   23SOL    HW2  969   4.364   6.420   3.685
   24SOL     OW  970   5.273   0.927   4.395
   24SOL    HW1  971   5.290   0.885   4.306
   24SOL    HW2  972   5.288   0.860   4.468
   25SOL     OW  973   3.085   5.675   0.217
   25SOL    HW1  974   3.145   5.646   0.143
   25SOL    HW2  975   3.057   5.770   0.202
   26SOL     OW  976   6.426   1.287   2.079
   26SOL    HW1  977   6.397   1.278   1.984
   26SOL    HW2  978   6.355   1.251   2.139
   27SOL     OW  979   6.409   0.328   2.533
   27SOL    HW1  980   6.365   0.348   2.620
   27SOL    HW2  981   6.482   0.261   2.548
   28SOL     OW  982   4.194   0.777   6.174
   28SOL    HW1  983   4.253   0.742   6.246
   28SOL    HW2  984   4.243   0.845   6.120
   29SOL     OW  985   5.305   2.597   2.176
   29SOL    HW1  986   5.340   2.524   2.235
   29SOL    HW2  987   5.287   2.560   2.085
   30SOL     OW  988   2.651   6.831   5.328
   30SOL    HW1  989   2.647   6.759   5.258
   30SOL    HW2  990   2.666   6.919   5.283
   31SOL     OW  991   1.011   0.882   5.192
   31SOL    HW1  992   1.086   0.947   5.203
   31SOL    HW2  993   1.007   0.821   5.271
   32SOL     OW  994   0.725   1.981   2.880
   32SOL    HW1  995   0.711   2.011   2.975
   32SOL    HW2  996   0.818   2.005   2.852
   33SOL     OW  997   1.600   2.864   5.645
   33SOL    HW1  998   1.622   2.805   5.567
   33SOL    HW2  999   1.628   2.958   5.625
   34SOL     OW 1000   2.093   0.199   4.867
   34SOL    HW1 1001   2.093   0.134   4.792
   34SOL    HW2 1002   2.168   0.264   4.856
   35SOL     OW 1003   4.087   1.796   6.512
   35SOL    HW1 1004   4.016   1.792   6.582
   35SOL    HW2 1005   4.132   1.707   6.504
   36SOL     OW 1006   1.136   0.694   6.410
   36SOL    HW1 1007   1.088   0.715   6.495
   36SOL    HW2 1008   1.126   0.597   6.388
   37SOL     OW 1009   2.359   6.478   1.290
   37SOL    HW1 1010   2.455   6.475   1.262
   37SOL    HW2 1011   2.335   6.571   1.319
   38SOL     OW 1012   6.942   6.027   2.711
   38SOL    HW1 1013   6.965   5.979   2.626
   38SOL    HW2 1014   6.933   6.125   2.692
   39SOL     OW 1015   6.189   3.875   6.019
   39SOL    HW1 1016   6.189   3.873   6.118
   39SOL    HW2 1017   6.210   3.784   5.983
   40SOL     OW 1018   6.438   1.423   2.777
   40SOL    HW1 1019   6.378   1.501   2.794
   40SOL    HW2 1020   6.429   1.393   2.682
   41SOL     OW 1021   1.676   6.920   4.134
   41SOL    HW1 1022   1.700   6.828   4.165
   41SOL    HW2 1023   1.715   6.988   4.196
   42SOL     OW 1024   3.369   6.894   6.268
   42SOL    HW1 1025   3.275   6.878   6.238
   42SOL    HW2 1026   3.396   6.823   6.332
   43SOL     OW 1027   5.592   6.370   5.797
   43SOL    HW1 1028   5.606   6.464   5.767
   43SOL    HW2 1029   5.498   6.358   5.830
   44SOL     OW 1030   0.215   3.007   6.387
   44SOL    HW1 1031   0.119   3.033   6.401
   44SOL    HW2 1032   0.222   2.943   6.311
   45SOL     OW 1033   2.914   0.535   2.505
   45SOL    HW1 1034   2.850   0.579   2.442
   45SOL    HW2 1035   2.954   0.604   2.566
   46SOL     OW 1036   1.115   3.736   4.435
   46SOL    HW1 1037   1.118   3.639   4.412
   46SOL    HW2 1038   1.177   3.786   4.375
   47SOL     OW 1039   6.178   3.977   3.400
   47SOL    HW1 1040   6.172   3.880   3.421
   47SOL    HW2 1041   6.178   4.030   3.485
   48SOL     OW 1042   0.391   2.763   4.670
   48SOL    HW1 1043   0.430   2.713   4.592
   48SOL    HW2 1044   0.356   2.698   4.737
   49SOL     OW 1045   4.725   4.294   1.040
   49SOL    HW1 1046   4.708   4.320   1.135
   49SOL    HW2 1047   4.667   4.216   1.016
   50SOL     OW 1048   6.785   3.328   4.526
   50SOL    HW1 1049   6.846   3.356   4.452
   50SOL    HW2 1050   6.716   3.399   4.541
   51SOL     OW 1051   3.522   5.017   2.593
   51SOL    HW1 1052   3.454   4.950   2.564
   51SOL    HW2 1053   3.489   5.065   2.674
   52SOL     OW 1054   2.959   1.697   2.532
   52SOL    HW1 1055   3.032   1.655   2.586
   52SOL    HW2 1056   2.953   1.650   2.443
   53SOL     OW 1057   4.640   6.872   3.714
   53SOL    HW1 1058   4.600   6.788   3.750
   53SOL    HW2 1059   4.707   6.849   3.642
   54SOL     OW 1060   2.953   5.071   6.042
   54SOL    HW1 1061   2.930   4.976   6.019
   54SOL    HW2 1062   2.991   5.116   5.961
   55SOL     OW 1063   3.538   0.884   6.037
   55SOL    HW1 1064   3.517   0.907   5.942
   55SOL    HW2 1065   3.628   0.920   6.061
   56SOL     OW 1066   1.942   0.606   2.260
   56SOL    HW1 1067   1.980   0.552   2.335
   56SOL    HW2 1068   1.851   0.639   2.287
   57SOL     OW 1069   5.180   0.635   0.309
   57SOL    HW1 1070   5.129   0.721   0.308
   57SOL    HW2 1071   5.200   0.607   0.215
   58SOL     OW 1072   0.099   6.073   0.093
   58SOL    HW1 1073   0.122   6.159   0.048
   58SOL    HW2 1074   0.144   6.068   0.182
   59SOL     OW 1075   1.589   0.480   5.946
   59SOL    HW1 1076   1.589   0.395   5.999
   59SOL    HW2 1077   1.494   0.511   5.933
   60SOL     OW 1078   4.425   0.238   5.828
   60SOL    HW1 1079   4.417   0.331   5.791
   60SOL    HW2 1080   4.339   0.212   5.873
   61SOL     OW 1081   5.039   0.081   4.128
   61SOL    HW1 1082   5.007   0.079   4.034
   61SOL    HW2 1083   4.962   0.069   4.190
   62SOL     OW 1084   1.177   0.534   3.956
   62SOL    HW1 1085   1.253   0.493   3.905
   62SOL    HW2 1086   1.155   0.623   3.916
   63SOL     OW 1087   6.262   2.134   3.419
   63SOL    HW1 1088   6.249   2.035   3.425
   63SOL    HW2 1089   6.354   2.153   3.384
   64SOL     OW 1090   6.358   3.880   6.371
   64SOL    HW1 1091   6.431   3.912   6.432
   64SOL    HW2 1092   6.390   3.885   6.276
   65SOL     OW 1093   6.891   4.709   5.114
   65SOL    HW1 1094   6.960   4.721   5.185
   65SOL    HW2 1095   6.920   4.636   5.052
   66SOL     OW 1096   3.567   0.695   6.661
   66SOL    HW1 1097   3.535   0.719   6.753
   66SOL    HW2 1098   3.623   0.612   6.666
   67SOL     OW 1099   5.827   6.623   5.340
   67SOL    HW1 1100   5.858   6.604   5.433
   67SOL    HW2 1101   5.905   6.620   5.277
   68SOL     OW 1102   6.138   1.764   6.861
   68SOL    HW1 1103   6.073   1.694   6.892
   68SOL    HW2 1104   6.206   1.779   6.932
   69SOL     OW 1105   1.967   4.177   6.199
   69SOL    HW1 1106   2.015   4.174   6.287
   69SOL    HW2 1107   1.891   4.112   6.201
   70SOL     OW 1108   6.625   5.593   2.734
   70SOL    HW1 1109   6.613   5.624   2.828
   70SOL    HW2 1110   6.585   5.660   2.671
   71SOL     OW 1111   2.783   2.350   3.765
   71SOL    HW1 1112   2.881   2.358   3.784
   71SOL    HW2 1113   2.731   2.383   3.843
   72SOL     OW 1114   3.349   5.839   3.663
   72SOL    HW1 1115   3.421   5.856   3.730
   72SOL    HW2 1116   3.331   5.741   3.656
   73SOL     OW 1117   3.120   2.447   6.793
   73SOL    HW1 1118   3.202   2.503   6.785
   73SOL    HW2 1119   3.135   2.375   6.861
   74SOL     OW 1120   5.244   6.829   0.346
   74SOL    HW1 1121   5.262   6.731   0.346
   74SOL    HW2 1122   5.331   6.879   0.351
   75SOL     OW 1123   3.566   5.277   5.042
   75SOL    HW1 1124   3.466   5.285   5.042
   75SOL    HW2 1125   3.602   5.321   5.125
   76SOL     OW 1126   2.258   2.249   1.269
   76SOL    HW1 1127   2.350   2.245   1.228
   76SOL    HW2 1128   2.210   2.164   1.250
   77SOL     OW 1129   5.376   5.590   4.944
   77SOL    HW1 1130   5.323   5.505   4.942
   77SOL    HW2 1131   5.471   5.569   4.965
   78SOL     OW 1132   6.546   6.330   6.103
   78SOL    HW1 1133   6.554   6.419   6.058
   78SOL    HW2 1134   6.551   6.257   6.035
   79SOL     OW 1135   3.432   0.124   0.691
   79SOL    HW1 1136   3.371   0.182   0.637
   79SOL    HW2 1137   3.444   0.036   0.645
   80SOL     OW 1138   6.571   0.826   5.154
   80SOL    HW1 1139   6.574   0.897   5.083
   80SOL    HW2 1140   6.643   0.844   5.221
   81SOL     OW 1141   2.231   0.926   2.790
   81SOL    HW1 1142   2.137   0.959   2.795
   81SOL    HW2 1143   2.258   0.886   2.877
   82SOL     OW 1144   6.708   5.020   6.679
   82SOL    HW1 1145   6.729   5.025   6.581
   82SOL    HW2 1146   6.619   5.061   6.696
   83SOL     OW 1147   6.973   6.852   0.544
   83SOL    HW1 1148   0.038   6.890   0.587
   83SOL    HW2 1149   6.897   6.856   0.609
   84SOL     OW 1150   5.323   3.604   2.378
   84SOL    HW1 1151   5.422   3.615   2.375
   84SOL    HW2 1152   5.287   3.597   2.285
   85SOL     OW 1153   0.792   0.986   5.073
   85SOL    HW1 1154   0.871   0.932   5.103
   85SOL    HW2 1155   0.733   1.004   5.152
   86SOL     OW 1156   0.158   0.550   5.659
   86SOL    HW1 1157   0.074   0.555   5.605
   86SOL    HW2 1158   0.150   0.476   5.726
   87SOL     OW 1159   4.620   2.643   0.221
   87SOL    HW1 1160   4.619   2.740   0.197
   87SOL    HW2 1161   4.689   2.595   0.166
   88SOL     OW 1162   4.913   1.603   0.297
   88SOL    HW1 1163   4.838   1.651   0.343
   88SOL    HW2 1164   4.898   1.504   0.303
   89SOL     OW 1165   1.663   2.687   6.741
   89SOL    HW1 1166   1.599   2.758   6.771
   89SOL    HW2 1167   1.730   2.670   6.813
   90SOL     OW 1168   5.249   6.577   3.649
   90SOL    HW1 1169   5.278   6.492   3.606
   90SOL    HW2 1170   5.158   6.601   3.616
   91SOL     OW 1171   4.536   4.421   3.817
   91SOL    HW1 1172   4.607   4.449   3.882
   91SOL    HW2 1173   4.478   4.352   3.859
   92SOL     OW 1174   2.972   5.466   0.359
   92SOL    HW1 1175   2.995   5.552   0.313
   92SOL    HW2 1176   3.051   5.405   0.354
   93SOL     OW 1177   3.011   4.612   5.722
   93SOL    HW1 1178   3.016   4.608   5.623
   93SOL    HW2 1179   3.036   4.704   5.753
   94SOL     OW 1180   3.379   5.340   6.880
   94SOL    HW1 1181   3.451   5.374   6.940
   94SOL    HW2 1182   3.292   5.338   6.929
   95SOL     OW 1183   0.571   1.208   3.231
   95SOL    HW1 1184   0.597   1.290   3.179
   95SOL    HW2 1185   0.648   1.182   3.291
   96SOL     OW 1186   2.403   6.874   5.426
   96SOL    HW1 1187   2.499   6.867   5.402
   96SOL    HW2 1188   2.383   6.966   5.461
   97SOL     OW 1189   6.659   3.955   4.783
   97SOL    HW1 1190   6.575   3.998   4.816
   97SOL    HW2 1191   6.635   3.873   4.730
   98SOL     OW 1192   5.684   3.112   6.364
   98SOL    HW1 1193   5.779   3.081   6.367
   98SOL    HW2 1194   5.681   3.212   6.368
   99SOL     OW 1195   4.314   2.922   0.891
   99SOL    HW1 1196   4.259   2.979   0.831
   99SOL    HW2 1197   4.295   2.946   0.987
  100SOL     OW 1198   0.287   6.814   6.680
  100SOL    HW1 1199   0.364   6.872   6.653
  100SOL    HW2 1200   0.321   6.725   6.708
  101SOL     OW 1201   0.830   5.665   3.482
  101SOL    HW1 1202   0.835   5.731   3.407
  101SOL    HW2 1203   0.896   5.690   3.552
  102SOL     OW 1204   4.189   0.382   3.204
  102SOL    HW1 1205   4.157   0.476   3.212
  102SOL    HW2 1206   4.274   0.370   3.255
  103SOL     OW 1207   4.374   1.411   1.921
  103SOL    HW1 1208   4.333   1.496   1.888
  103SOL    HW2 1209   4.325   1.333   1.881
  104SOL     OW 1210   6.477   5.360   2.956
  104SOL    HW1 1211   6.504   5.306   2.875
  104SOL    HW2 1212   6.393   5.323   2.994
  105SOL     OW 1213   6.904   0.822   6.834
  105SOL    HW1 1214   6.956   0.881   6.897
  105SOL    HW2 1215   6.808   0.849   6.836
  106SOL     OW 1216   2.569   6.648   6.473
  106SOL    HW1 1217   2.474   6.676   6.462
  106SOL    HW2 1218   2.592   6.646   6.570
  107SOL     OW 1219   1.772   2.167   1.456
  107SOL    HW1 1220   1.760   2.133   1.549
  107SOL    HW2 1221   1.848   2.120   1.412
  108SOL     OW 1222   4.817   4.036   0.101
  108SOL    HW1 1223   4.832   4.006   0.195
  108SOL    HW2 1224   4.792   3.958   0.045
  109SOL     OW 1225   0.750   0.305   1.400
  109SOL    HW1 1226   0.800   0.298   1.314
  109SOL    HW2 1227   0.760   0.397   1.437
  110SOL     OW 1228   3.738   5.786   5.735
  110SOL    HW1 1229   3.784   5.697   5.742
  110SOL    HW2 1230   3.772   5.846   5.807
  111SOL     OW 1231   3.997   0.807   3.998
  111SOL    HW1 1232   3.930   0.830   3.928
  111SOL    HW2 1233   4.031   0.715   3.983
  112SOL     OW 1234   5.886   5.946   5.556
  112SOL    HW1 1235   5.827   6.026   5.570
  112SOL    HW2 1236   5.914   5.941   5.460
  113SOL     OW 1237   6.419   4.934   3.585
  113SOL    HW1 1238   6.375   4.976   3.664
  113SOL    HW2 1239   6.518   4.933   3.599
  114SOL     OW 1240   0.644   6.854   0.727
  114SOL    HW1 1241   0.623   6.766   0.768
  114SOL    HW2 1242   0.678   6.841   0.634
  115SOL     OW 1243   4.880   0.935   4.055
  115SOL    HW1 1244   4.786   0.966   4.039
  115SOL    HW2 1245   4.885   0.889   4.144
  116SOL     OW 1246   6.424   4.921   2.275
  116SOL    HW1 1247   6.494   4.941   2.343
  116SOL    HW2 1248   6.408   5.002   2.218
  117SOL     OW 1249   0.662   0.959   6.331
  117SOL    HW1 1250   0.639   0.884   6.269
  117SOL    HW2 1251   0.588   1.026   6.331
  118SOL     OW 1252   0.367   0.997   1.343
  118SOL    HW1 1253   0.460   1.034   1.352
  118SOL    HW2 1254   0.301   1.064   1.374
  119SOL     OW 1255   0.099   1.787   6.448
  119SOL    HW1 1256   0.005   1.805   6.474
  119SOL    HW2 1257   0.137   1.716   6.507
  120SOL     OW 1258   6.324   0.267   0.845
  120SOL    HW1 1259   6.327   0.262   0.745
  120SOL    HW2 1260   6.325   0.363   0.874
  121SOL     OW 1261   2.493   3.585   6.874
  121SOL    HW1 1262   2.411   3.641   6.870
  121SOL    HW2 1263   2.471   3.495   6.911
  122SOL     OW 1264   1.455   4.245   5.194
  122SOL    HW1 1265   1.549   4.279   5.187
  122SOL    HW2 1266   1.400   4.284   5.120
  123SOL     OW 1267   0.149   2.201   0.969
  123SOL    HW1 1268   0.241   2.240   0.972
  123SOL    HW2 1269   0.154   2.103   0.988
  124SOL     OW 1270   5.091   3.422   0.670
  124SOL    HW1 1271   5.132   3.423   0.579
  124SOL    HW2 1272   5.158   3.386   0.736
  125SOL     OW 1273   2.021   2.029   2.675
  125SOL    HW1 1274   1.928   2.050   2.706
  125SOL    HW2 1275   2.080   2.014   2.754
  126SOL     OW 1276   3.418   4.568   0.777
  126SOL    HW1 1277   3.470   4.496   0.822
  126SOL    HW2 1278   3.429   4.654   0.828
  127SOL     OW 1279   6.788   5.045   6.161
  127SOL    HW1 1280   6.702   5.019   6.205
  127SOL    HW2 1281   6.864   5.030   6.224
  128SOL     OW 1282   4.477   2.531   1.805
  128SOL    HW1 1283   4.522   2.614   1.836
  128SOL    HW2 1284   4.536   2.482   1.741
  129SOL     OW 1285   3.864   3.248   6.314
  129SOL    HW1 1286   3.832   3.342   6.305
  129SOL    HW2 1287   3.849   3.200   6.227
  130SOL     OW 1288   0.821   0.804   4.435
  130SOL    HW1 1289   0.797   0.825   4.340
  130SOL    HW2 1290   0.903   0.747   4.437
  131SOL     OW 1291   4.445   1.242   3.446
  131SOL    HW1 1292   4.427   1.314   3.379
  131SOL    HW2 1293   4.507   1.276   3.517
  132SOL     OW 1294   1.610   2.601   1.175
  132SOL    HW1 1295   1.632   2.549   1.257
  132SOL    HW2 1296   1.585   2.538   1.102
  133SOL     OW 1297   5.501   6.501   2.996
  133SOL    HW1 1298   5.486   6.479   2.900
  133SOL    HW2 1299   5.512   6.600   3.006
  134SOL     OW 1300   5.796   2.614   3.074
  134SOL    HW1 1301   5.775   2.689   3.138
  134SOL    HW2 1302   5.885   2.630   3.033
  135SOL     OW 1303   5.350   1.574   3.065
  135SOL    HW1 1304   5.329   1.669   3.088
  135SOL    HW2 1305   5.267   1.527   3.036
  136SOL     OW 1306   4.991   4.353   5.744
  136SOL    HW1 1307   4.905   4.393   5.775
  136SOL    HW2 1308   4.975   4.297   5.663
  137SOL     OW 1309   4.631   6.891   5.428
  137SOL    HW1 1310   4.613   6.949   5.507
  137SOL    HW2 1311   4.603   6.939   5.345
  138SOL     OW 1312   0.203   5.052   4.380
  138SOL    HW1 1313   0.111   5.019   4.404
  138SOL    HW2 1314   0.199   5.101   4.293
  139SOL     OW 1315   2.598   5.530   5.383
  139SOL    HW1 1316   2.594   5.609   5.323
  139SOL    HW2 1317   2.693   5.510   5.405
  140SOL     OW 1318   6.115   5.087   4.444
  140SOL    HW1 1319   6.171   5.168   4.428
  140SOL    HW2 1320   6.173   5.006   4.449
  141SOL     OW 1321   0.943   1.868   5.564
  141SOL    HW1 1322   1.025   1.911   5.600
  141SOL    HW2 1323   0.902   1.927   5.494
  142SOL     OW 1324   1.420   6.078   1.680
  142SOL    HW1 1325   1.354   6.070   1.754
  142SOL    HW2 1326   1.400   6.160   1.626
  143SOL     OW 1327   5.628   4.618   2.094
  143SOL    HW1 1328   5.693   4.557   2.140
  143SOL    HW2 1329   5.569   4.661   2.163
  144SOL     OW 1330   1.705   6.405   6.435
  144SOL    HW1 1331   1.655   6.401   6.521
  144SOL    HW2 1332   1.695   6.496   6.395
  145SOL     OW 1333   1.066   4.995   0.822
  145SOL    HW1 1334   0.987   5.017   0.879
  145SOL    HW2 1335   1.145   5.051   0.851
  146SOL     OW 1336   4.523   6.558   0.003
  146SOL    HW1 1337   4.623   6.561   0.005
  146SOL    HW2 1338   4.488   6.571   0.096
  147SOL     OW 1339   6.541   2.689   0.317
  147SOL    HW1 1340   6.490   2.765   0.276
  147SOL    HW2 1341   6.623   2.670   0.262
  148SOL     OW 1342   0.506   5.143   5.284
  148SOL    HW1 1343   0.556   5.223   5.315
  148SOL    HW2 1344   0.540   5.115   5.194
  149SOL     OW 1345   2.715   1.302   4.147
  149SOL    HW1 1346   2.720   1.389   4.098
  149SOL    HW2 1347   2.766   1.309   4.233
  150SOL     OW 1348   6.959   5.300   6.182
  150SOL    HW1 1349   6.886   5.232   6.178
  150SOL    HW2 1350   6.957   5.356   6.099
  151SOL     OW 1351   3.944   1.969   1.515
  151SOL    HW1 1352   3.882   2.012   1.580
  151SOL    HW2 1353   4.028   2.024   1.508
  152SOL     OW 1354   2.169   0.620   4.328
  152SOL    HW1 1355   2.207   0.610   4.236
  152SOL    HW2 1356   2.086   0.565   4.336
  153SOL     OW 1357   2.189   0.117   2.088
  153SOL    HW1 1358   2.206   0.131   1.991
  153SOL    HW2 1359   2.173   0.206   2.133
  154SOL     OW 1360   6.905   3.010   1.799
  154SOL    HW1 1361   6.924   2.912   1.805
  154SOL    HW2 1362   6.983   3.057   1.757
  155SOL     OW 1363   0.283   1.383   3.619
  155SOL    HW1 1364   0.304   1.432   3.534
  155SOL    HW2 1365   0.367   1.345   3.656
  156SOL     OW 1366   6.369   1.914   1.329
  156SOL    HW1 1367   6.377   1.826   1.283
  156SOL    HW2 1368   6.441   1.975   1.297
  157SOL     OW 1369   6.260   3.269   2.037
  157SOL    HW1 1370   6.229   3.193   1.979
  157SOL    HW2 1371   6.333   3.319   1.990
  158SOL     OW 1372   3.267   0.536   2.478
  158SOL    HW1 1373   3.281   0.611   2.414
  158SOL    HW2 1374   3.196   0.474   2.443
  159SOL     OW 1375   4.725   4.258   1.529
  159SOL    HW1 1376   4.784   4.338   1.519
  159SOL    HW2 1377   4.777   4.182   1.567
  160SOL     OW 1378   6.934   4.609   6.459
  160SOL    HW1 1379   6.950   4.522   6.506
  160SOL    HW2 1380   6.988   4.611   6.375
  161SOL     OW 1381   2.110   5.318   4.824
  161SOL    HW1 1382   2.135   5.362   4.738
  161SOL    HW2 1383   2.115   5.219   4.814
  162SOL     OW 1384   4.430   6.196   0.316
  162SOL    HW1 1385   4.377   6.263   0.368
  162SOL    HW2 1386   4.456   6.235   0.228
  163SOL     OW 1387   3.960   6.283   1.537
  163SOL    HW1 1388   3.897   6.292   1.460
  163SOL    HW2 1389   4.018   6.364   1.542
  164SOL     OW 1390   6.677   4.400   1.289
  164SOL    HW1 1391   6.582   4.397   1.321
  164SOL    HW2 1392   6.736   4.432   1.362
  165SOL     OW 1393   4.440   3.242   0.231
  165SOL    HW1 1394   4.537   3.235   0.210
  165SOL    HW2 1395   4.394   3.294   0.159
  166SOL     OW 1396   0.215   5.860   3.452
  166SOL    HW1 1397   0.151   5.912   3.509
  166SOL    HW2 1398   0.308   5.893   3.468
  167SOL     OW 1399   6.045   2.363   0.200
  167SOL    HW1 1400   6.082   2.302   0.270
  167SOL    HW2 1401   5.977   2.314   0.146
  168SOL     OW 1402   2.921   3.882   0.828
  168SOL    HW1 1403   2.914   3.950   0.902
  168SOL    HW2 1404   2.995   3.818   0.849
  169SOL     OW 1405   3.002   6.937   1.717
  169SOL    HW1 1406   2.952   6.939   1.631
  169SOL    HW2 1407   2.982   6.851   1.765
  170SOL     OW 1408   0.427   1.647   3.950
  170SOL    HW1 1409   0.341   1.635   3.901
  170SOL    HW2 1410   0.410   1.645   4.048
  171SOL     OW 1411   3.305   3.784   0.365
  171SOL    HW1 1412   3.219   3.774   0.416
  171SOL    HW2 1413   3.302   3.869   0.311
  172SOL     OW 1414   6.631   1.820   4.624
  172SOL    HW1 1415   6.586   1.826   4.713
  172SOL    HW2 1416   6.729   1.808   4.638
  173SOL     OW 1417   6.834   6.755   4.361
  173SOL    HW1 1418   6.745   6.798   4.373
  173SOL    HW2 1419   6.831   6.693   4.283
  174SOL     OW 1420   2.961   5.522   3.291
  174SOL    HW1 1421   3.036   5.567   3.340
  174SOL    HW2 1422   2.971   5.423   3.299
  175SOL     OW 1423   1.803   6.549   1.945
  175SOL    HW1 1424   1.855   6.484   1.891
  175SOL    HW2 1425   1.863   6.594   2.011
  176SOL     OW 1426   2.290   4.104   1.033
  176SOL    HW1 1427   2.348   4.097   1.115
  176SOL    HW2 1428   2.209   4.158   1.053
  177SOL     OW 1429   5.286   2.550   3.274
  177SOL    HW1 1430   5.220   2.521   3.205
  177SOL    HW2 1431   5.350   2.616   3.234
  178SOL     OW 1432   4.942   4.313   6.439
  178SOL    HW1 1433   4.973   4.339   6.348
  178SOL    HW2 1434   4.877   4.237   6.433
  179SOL     OW 1435   2.971   0.684   0.301
  179SOL    HW1 1436   2.894   0.651   0.357
  179SOL    HW2 1437   2.936   0.719   0.214
  180SOL     OW 1438   0.813   1.186   6.760
  180SOL    HW1 1439   0.732   1.177   6.702
  180SOL    HW2 1440   0.890   1.138   6.717
  181SOL     OW 1441   3.720   1.816   6.547
  181SOL    HW1 1442   3.752   1.816   6.453
  181SOL    HW2 1443   3.692   1.723   6.573
  182SOL     OW 1444   4.554   2.121   4.320
  182SOL    HW1 1445   4.616   2.125   4.242
  182SOL    HW2 1446   4.550   2.211   4.364
  183SOL     OW 1447   3.867   0.672   1.961
  183SOL    HW1 1448   3.924   0.751   1.983
  183SOL    HW2 1449   3.906   0.622   1.884
  184SOL     OW 1450   1.348   5.815   3.623
  184SOL    HW1 1451   1.390   5.905   3.607
  184SOL    HW2 1452   1.419   5.749   3.649
  185SOL     OW 1453   0.978   3.414   6.615
  185SOL    HW1 1454   1.021   3.371   6.536
  185SOL    HW2 1455   0.996   3.513   6.612
  186SOL     OW 1456   6.204   0.313   3.390
  186SOL    HW1 1457   6.190   0.288   3.486
  186SOL    HW2 1458   6.239   0.234   3.340
  187SOL     OW 1459   5.669   0.818   4.264
  187SOL    HW1 1460   5.701   0.762   4.340
  187SOL    HW2 1461   5.690   0.914   4.282
  188SOL     OW 1462   5.453   2.347   3.195
  188SOL    HW1 1463   5.499   2.380   3.112
  188SOL    HW2 1464   5.405   2.423   3.239
  189SOL     OW 1465   1.899   5.670   2.779
  189SOL    HW1 1466   1.996   5.645   2.779
  189SOL    HW2 1467   1.889   5.765   2.749
  190SOL     OW 1468   3.702   1.081   4.905
  190SOL    HW1 1469   3.688   1.180   4.901
  190SOL    HW2 1470   3.790   1.062   4.948
  191SOL     OW 1471   5.932   5.592   6.115
  191SOL    HW1 1472   5.835   5.580   6.136
  191SOL    HW2 1473   5.963   5.519   6.055
  192SOL     OW 1474   0.002   6.616   2.118
  192SOL    HW1 1475   0.100   6.599   2.110
  192SOL    HW2 1476   6.983   6.645   2.030
  193SOL     OW 1477   5.133   2.798   6.472
  193SOL    HW1 1478   5.041   2.762   6.487
  193SOL    HW2 1479   5.133   2.897   6.486
  194SOL     OW 1480   3.551   0.697   2.846
  194SOL    HW1 1481   3.573   0.779   2.900
  194SOL    HW2 1482   3.541   0.723   2.750
  195SOL     OW 1483   1.914   5.506   3.225
  195SOL    HW1 1484   1.965   5.424   3.251
  195SOL    HW2 1485   1.817   5.483   3.216
  196SOL     OW 1486   1.751   2.201   6.613
  196SOL    HW1 1487   1.756   2.278   6.550
  196SOL    HW2 1488   1.657   2.190   6.645
  197SOL     OW 1489   2.390   1.428   1.297
  197SOL    HW1 1490   2.356   1.515   1.263
  197SOL    HW2 1491   2.451   1.387   1.230
  198SOL     OW 1492   4.103   0.858   3.342
  198SOL    HW1 1493   4.190   0.904   3.359
  198SOL    HW2 1494   4.028   0.924   3.352
  199SOL     OW 1495   1.406   2.701   4.084
  199SOL    HW1 1496   1.311   2.686   4.112
  199SOL    HW2 1497   1.411   2.785   4.029
  200SOL     OW 1498   0.633   2.433   0.668
  200SOL    HW1 1499   0.688   2.490   0.728
  200SOL    HW2 1500   0.647   2.461   0.573
  201SOL     OW 1501   0.735   1.087   5.907
  201SOL    HW1 1502   0.827   1.122   5.928
  201SOL    HW2 1503   0.731   1.061   5.811
  202SOL     OW 1504   4.587   0.376   6.134
  202SOL    HW1 1505   4.654   0.373   6.060
  202SOL    HW2 1506   4.572   0.284   6.169
  203SOL     OW 1507   5.883   2.908   5.529
  203SOL    HW1 1508   5.858   3.000   5.557
  203SOL    HW2 1509   5.982   2.896   5.540
  204SOL     OW 1510   0.256   0.248   5.517
  204SOL    HW1 1511   0.161   0.251   5.547
  204SOL    HW2 1512   0.260   0.225   5.420
  205SOL     OW 1513   0.685   2.558   2.318
  205SOL    HW1 1514   0.672   2.611   2.234
  205SOL    HW2 1515   0.681   2.619   2.397
  206SOL     OW 1516   0.549   3.466   1.459
  206SOL    HW1 1517   0.482   3.456   1.532
  206SOL    HW2 1518   0.570   3.376   1.421
  207SOL     OW 1519   5.277   1.855   3.098
  207SOL    HW1 1520   5.334   1.914   3.155
  207SOL    HW2 1521   5.182   1.860   3.129
  208SOL     OW 1522   0.156   4.156   5.263
  208SOL    HW1 1523   0.222   4.178   5.192
  208SOL    HW2 1524   0.170   4.217   5.341
  209SOL     OW 1525   6.538   4.442   2.344
  209SOL    HW1 1526   6.451   4.396   2.323
  209SOL    HW2 1527   6.518   4.531   2.387
  210SOL     OW 1528   4.728   2.515   0.691
  210SOL    HW1 1529   4.803   2.449   0.697
  210SOL    HW2 1530   4.732   2.563   0.603
  211SOL     OW 1531   1.741   0.388   3.164
  211SOL    HW1 1532   1.696   0.466   3.120
  211SOL    HW2 1533   1.708   0.379   3.258
  212SOL     OW 1534   1.396   3.429   2.770
  212SOL    HW1 1535   1.297   3.421   2.784
  212SOL    HW2 1536   1.440   3.443   2.858
  213SOL     OW 1537   2.013   5.827   1.167
  213SOL    HW1 1538   1.956   5.794   1.092
  213SOL    HW2 1539   2.093   5.768   1.177
  214SOL     OW 1540   4.245   5.451   2.466
  214SOL    HW1 1541   4.221   5.357   2.442
  214SOL    HW2 1542   4.345   5.461   2.467
  215SOL     OW 1543   2.543   5.121   1.528
  215SOL    HW1 1544   2.518   5.100   1.433
  215SOL    HW2 1545   2.638   5.095   1.544
  216SOL     OW 1546   1.671   0.289   2.675
  216SOL    HW1 1547   1.630   0.373   2.712
  216SOL    HW2 1548   1.606   0.245   2.613
  217SOL     OW 1549   0.863   3.256   5.734
  217SOL    HW1 1550   0.949   3.264   5.785
  217SOL    HW2 1551   0.829   3.162   5.740
  218SOL     OW 1552   0.891   2.788   5.283
  218SOL    HW1 1553   0.864   2.877   5.321
  218SOL    HW2 1554   0.869   2.716   5.349
  219SOL     OW 1555   3.632   0.898   0.294
  219SOL    HW1 1556   3.718   0.862   0.329
  219SOL    HW2 1557   3.556   0.865   0.350
  220SOL     OW 1558   3.147   0.480   1.121
  220SOL    HW1 1559   3.134   0.540   1.042
  220SOL    HW2 1560   3.066   0.484   1.180
  221SOL     OW 1561   6.023   5.539   1.050
  221SOL    HW1 1562   5.969   5.459   1.024
  221SOL    HW2 1563   6.049   5.531   1.147
  222SOL     OW 1564   2.045   4.556   6.667
  222SOL    HW1 1565   2.062   4.629   6.733
  222SOL    HW2 1566   2.043   4.594   6.575
  223SOL     OW 1567   6.931   2.932   5.440
  223SOL    HW1 1568   6.873   2.957   5.363
  223SOL    HW2 1569   0.002   2.977   5.432
  224SOL     OW 1570   2.896   2.058   5.860
  224SOL    HW1 1571   2.882   2.137   5.801
  224SOL    HW2 1572   2.961   2.082   5.933
  225SOL     OW 1573   4.705   3.671   5.968
  225SOL    HW1 1574   4.671   3.700   5.879
  225SOL    HW2 1575   4.787   3.723   5.991
  226SOL     OW 1576   0.982   1.587   6.372
  226SOL    HW1 1577   1.057   1.615   6.312
  226SOL    HW2 1578   0.991   1.632   6.460
  227SOL     OW 1579   2.136   4.218   2.546
  227SOL    HW1 1580   2.062   4.279   2.517
  227SOL    HW2 1581   2.131   4.132   2.495
  228SOL     OW 1582   1.890   0.725   3.092
  228SOL    HW1 1583   1.873   0.651   3.028
  228SOL    HW2 1584   1.926   0.804   3.043
  229SOL     OW 1585   5.235   4.633   6.837
  229SOL    HW1 1586   5.205   4.703   6.772
  229SOL    HW2 1587   5.334   4.643   6.853
  230SOL     OW 1588   4.496   6.285   4.461
  230SOL    HW1 1589   4.495   6.374   4.414
  230SOL    HW2 1590   4.415   6.233   4.433
  231SOL     OW 1591   5.257   1.405   6.815
  231SOL    HW1 1592   5.328   1.388   6.747
  231SOL    HW2 1593   5.287   1.477   6.877
  232SOL     OW 1594   0.107   2.678   6.768
  232SOL    HW1 1595   0.114   2.756   6.705
  232SOL    HW2 1596   0.132   2.594   6.719
  233SOL     OW 1597   3.069   1.915   3.567
  233SOL    HW1 1598   3.050   1.833   3.621
  233SOL    HW2 1599   2.986   1.943   3.520
  234SOL     OW 1600   5.657   0.895   5.912
  234SOL    HW1 1601   5.606   0.832   5.971
  234SOL    HW2 1602   5.719   0.950   5.968
  235SOL     OW 1603   4.800   2.981   2.459
  235SOL    HW1 1604   4.801   3.019   2.367
  235SOL    HW2 1605   4.892   2.985   2.498
  236SOL     OW 1606   4.490   3.373   6.478
  236SOL    HW1 1607   4.536   3.460   6.495
  236SOL    HW2 1608   4.511   3.341   6.386
  237SOL     OW 1609   6.757   4.300   2.421
  237SOL    HW1 1610   6.772   4.206   2.390
  237SOL    HW2 1611   6.691   4.345   2.361
  238SOL     OW 1612   6.657   1.163   0.489
  238SOL    HW1 1613   6.704   1.088   0.535
  238SOL    HW2 1614   6.714   1.244   0.490
  239SOL     OW 1615   1.278   4.445   0.555
  239SOL    HW1 1616   1.365   4.467   0.600
  239SOL    HW2 1617   1.213   4.411   0.623
  240SOL     OW 1618   6.675   3.584   3.196
  240SOL    HW1 1619   6.726   3.643   3.259
  240SOL    HW2 1620   6.722   3.496   3.187
  241SOL     OW 1621   2.702   2.134   4.075
  241SOL    HW1 1622   2.760   2.179   4.143
  241SOL    HW2 1623   2.642   2.068   4.121
  242SOL     OW 1624   3.451   3.850   3.500
  242SOL    HW1 1625   3.464   3.851   3.599
  242SOL    HW2 1626   3.528   3.804   3.456
  243SOL     OW 1627   4.746   1.959   0.191
  243SOL    HW1 1628   4.844   1.956   0.207
  243SOL    HW2 1629   4.723   1.897   0.115
  244SOL     OW 1630   6.092   3.216   6.695
  244SOL    HW1 1631   6.046   3.299   6.725
  244SOL    HW2 1632   6.057   3.188   6.606
  245SOL     OW 1633   3.629   1.904   3.760
  245SOL    HW1 1634   3.661   1.884   3.853
  245SOL    HW2 1635   3.595   1.821   3.718
  246SOL     OW 1636   5.531   1.736   3.530
  246SOL    HW1 1637   5.510   1.649   3.574
  246SOL    HW2 1638   5.616   1.773   3.566
  247SOL     OW 1639   2.877   1.935   0.355
  247SOL    HW1 1640   2.879   1.903   0.450
  247SOL    HW2 1641   2.874   1.856   0.294
  248SOL     OW 1642   2.282   1.463   3.078
  248SOL    HW1 1643   2.305   1.550   3.122
  248SOL    HW2 1644   2.360   1.432   3.023
  249SOL     OW 1645   5.175   0.244   5.107
  249SOL    HW1 1646   5.229   0.206   5.183
  249SOL    HW2 1647   5.142   0.170   5.049
  250SOL     OW 1648   3.444   2.547   0.688
  250SOL    HW1 1649   3.382   2.553   0.611
  250SOL    HW2 1650   3.453   2.637   0.731
  251SOL     OW 1651   4.795   3.508   5.437
  251SOL    HW1 1652   4.812   3.591   5.490
  251SOL    HW2 1653   4.773   3.533   5.343
  252SOL     OW 1654   6.527   0.026   5.703
  252SOL    HW1 1655   6.495   0.062   5.616
  252SOL    HW2 1656   6.487   0.078   5.778
  253SOL     OW 1657   3.791   4.465   5.896
  253SOL    HW1 1658   3.840   4.456   5.809
  253SOL    HW2 1659   3.718   4.532   5.887
  254SOL     OW 1660   6.690   2.802   4.160
  254SOL    HW1 1661   6.628   2.724   4.170
  254SOL    HW2 1662   6.768   2.790   4.221
  255SOL     OW 1663   1.244   4.764   5.981
  255SOL    HW1 1664   1.203   4.679   5.947
  255SOL    HW2 1665   1.328   4.742   6.031
  256SOL     OW 1666   5.136   3.134   5.966
  256SOL    HW1 1667   5.117   3.073   6.042
  256SOL    HW2 1668   5.174   3.082   5.890
  257SOL     OW 1669   5.082   6.249   2.741
  257SOL    HW1 1670   5.092   6.338   2.696
  257SOL    HW2 1671   4.985   6.229   2.752
  258SOL     OW 1672   2.530   4.091   5.651
  258SOL    HW1 1673   2.517   4.174   5.704
  258SOL    HW2 1674   2.559   4.115   5.558
  259SOL     OW 1675   4.938   0.696   2.303
  259SOL    HW1 1676   4.928   0.599   2.328
  259SOL    HW2 1677   4.984   0.745   2.377
  260SOL     OW 1678   3.637   4.998   2.925
  260SOL    HW1 1679   3.577   5.063   2.879
  260SOL    HW2 1680   3.681   4.939   2.857
  261SOL     OW 1681   5.353   5.200   1.104
  261SOL    HW1 1682   5.391   5.290   1.082
  261SOL    HW2 1683   5.303   5.204   1.190
  262SOL     OW 1684   1.936   3.616   1.317
  262SOL    HW1 1685   1.845   3.604   1.277
  262SOL    HW2 1686   1.977   3.700   1.282
  263SOL     OW 1687   1.079   0.278   3.492
  263SOL    HW1 1688   1.010   0.288   3.419
  263SOL    HW2 1689   1.055   0.199   3.549
  264SOL     OW 1690   6.787   2.687   0.215
  264SOL    HW1 1691   6.802   2.588   0.210
  264SOL    HW2 1692   6.827   2.730   0.135
  265SOL     OW 1693   6.278   6.733   3.022
  265SOL    HW1 1694   6.325   6.821   3.014
  265SOL    HW2 1695   6.184   6.749   3.054
  266SOL     OW 1696   4.876   2.829   5.776
  266SOL    HW1 1697   4.825   2.752   5.814
  266SOL    HW2 1698   4.815   2.907   5.764
  267SOL     OW 1699   1.327   0.927   5.080
  267SOL    HW1 1700   1.284   0.844   5.115
  267SOL    HW2 1701   1.270   1.006   5.100
  268SOL     OW 1702   3.724   1.129   6.324
  268SOL    HW1 1703   3.672   1.194   6.268
  268SOL    HW2 1704   3.755   1.053   6.266
  269SOL     OW 1705   3.141   2.126   6.860
  269SOL    HW1 1706   3.047   2.097   6.846
  269SOL    HW2 1707   3.146   2.191   6.936
  270SOL     OW 1708   0.885   6.035   0.199
  270SOL    HW1 1709   0.981   6.059   0.214
  270SOL    HW2 1710   0.830   6.119   0.199
  271SOL     OW 1711   0.664   1.471   6.089
  271SOL    HW1 1712   0.663   1.490   6.187
  271SOL    HW2 1713   0.591   1.406   6.067
  272SOL     OW 1714   3.463   5.960   3.915
  272SOL    HW1 1715   3.498   5.870   3.941
  272SOL    HW2 1716   3.441   6.012   3.997
  273SOL     OW 1717   1.716   4.789   6.083
  273SOL    HW1 1718   1.718   4.814   5.986
  273SOL    HW2 1719   1.749   4.865   6.138
  274SOL     OW 1720   3.897   0.951   3.791
  274SOL    HW1 1721   3.983   0.968   3.743
  274SOL    HW2 1722   3.835   1.028   3.778
  275SOL     OW 1723   6.976   6.310   2.653
  275SOL    HW1 1724   6.928   6.380   2.706
  275SOL    HW2 1725   0.057   6.328   2.657
  276SOL     OW 1726   0.356   6.914   3.954
  276SOL    HW1 1727   0.388   7.002   3.988
  276SOL    HW2 1728   0.396   6.896   3.864
  277SOL     OW 1729   1.575   2.920   0.402
  277SOL    HW1 1730   1.645   2.884   0.464
  277SOL    HW2 1731   1.489   2.928   0.451
  278SOL     OW 1732   0.119   3.308   3.271
  278SOL    HW1 1733   0.170   3.391   3.248
  278SOL    HW2 1734   0.157   3.267   3.354
  279SOL     OW 1735   5.552   2.554   4.492
  279SOL    HW1 1736   5.485   2.485   4.519
  279SOL    HW2 1737   5.507   2.643   4.484
  280SOL     OW 1738   2.082   5.493   1.509
  280SOL    HW1 1739   2.163   5.483   1.566
  280SOL    HW2 1740   2.034   5.405   1.503
  281SOL     OW 1741   2.272   4.274   1.785
  281SOL    HW1 1742   2.233   4.236   1.701
  281SOL    HW2 1743   2.275   4.202   1.855
  282SOL     OW 1744   3.423   0.808   5.689
  282SOL    HW1 1745   3.425   0.896   5.735
  282SOL    HW2 1746   3.432   0.822   5.590
  283SOL     OW 1747   5.550   2.488   6.484
  283SOL    HW1 1748   5.493   2.410   6.505
  283SOL    HW2 1749   5.518   2.532   6.400
  284SOL     OW 1750   0.561   3.683   3.685
  284SOL    HW1 1751   0.539   3.768   3.734
  284SOL    HW2 1752   0.479   3.645   3.644
  285SOL     OW 1753   5.667   4.828   4.042
  285SOL    HW1 1754   5.661   4.758   4.113
  285SOL    HW2 1755   5.602   4.806   3.969
  286SOL     OW 1756   3.160   4.027   7.015
  286SOL    HW1 1757   3.129   3.948   0.050
  286SOL    HW2 1758   3.118   4.026   6.924
  287SOL     OW 1759   1.734   3.737   0.853
  287SOL    HW1 1760   1.688   3.739   0.764
  287SOL    HW2 1761   1.723   3.646   0.894
  288SOL     OW 1762   3.949   1.269   6.487
  288SOL    HW1 1763   3.990   1.197   6.544
  288SOL    HW2 1764   3.860   1.237   6.453
  289SOL     OW 1765   2.093   4.786   5.587
  289SOL    HW1 1766   2.060   4.873   5.550
  289SOL    HW2 1767   2.085   4.786   5.687
  290SOL     OW 1768   0.180   2.105   5.583
  290SOL    HW1 1769   0.236   2.036   5.536
  290SOL    HW2 1770   0.239   2.163   5.639
  291SOL     OW 1771   0.643   1.591   3.512
  291SOL    HW1 1772   0.654   1.581   3.611
  291SOL    HW2 1773   0.584   1.669   3.493
  292SOL     OW 1774   2.047   0.455   3.517
  292SOL    HW1 1775   2.066   0.357   3.519
  292SOL    HW2 1776   2.013   0.480   3.426
  293SOL     OW 1777   4.556   5.530   4.174
  293SOL    HW1 1778   4.458   5.512   4.159
  293SOL    HW2 1779   4.567   5.622   4.210
  294SOL     OW 1780   5.577   6.201   6.468
  294SOL    HW1 1781   5.527   6.171   6.386
  294SOL    HW2 1782   5.563   6.299   6.482
  295SOL     OW 1783   5.045   0.613   3.607
  295SOL    HW1 1784   5.111   0.636   3.535
  295SOL    HW2 1785   5.078   0.647   3.695
  296SOL     OW 1786   3.073   1.543   2.744
  296SOL    HW1 1787   3.114   1.458   2.711
  296SOL    HW2 1788   3.100   1.558   2.839
  297SOL     OW 1789   1.786   3.599   3.397
  297SOL    HW1 1790   1.786   3.603   3.297
  297SOL    HW2 1791   1.815   3.688   3.434
  298SOL     OW 1792   6.354   5.582   1.017
  298SOL    HW1 1793   6.408   5.648   0.964
  298SOL    HW2 1794   6.260   5.581   0.984
  299SOL     OW 1795   6.162   2.803   4.712
  299SOL    HW1 1796   6.260   2.797   4.693
  299SOL    HW2 1797   6.138   2.741   4.786
  300SOL     OW 1798   6.251   0.709   3.154
  300SOL    HW1 1799   6.174   0.731   3.215
  300SOL    HW2 1800   6.337   0.734   3.198
  301SOL     OW 1801   5.548   3.649   7.003
  301SOL    HW1 1802   5.448   3.648   7.004
  301SOL    HW2 1803   5.581   3.712   0.056
  302SOL     OW 1804   0.631   0.145   3.719
  302SOL    HW1 1805   0.674   0.234   3.731
  302SOL    HW2 1806   0.687   0.088   3.659
  303SOL     OW 1807   4.848   0.576   3.101
  303SOL    HW1 1808   4.772   0.630   3.064
  303SOL    HW2 1809   4.811   0.499   3.153
  304SOL     OW 1810   2.280   6.771   3.142
  304SOL    HW1 1811   2.213   6.831   3.186
  304SOL    HW2 1812   2.302   6.695   3.203
  305SOL     OW 1813   1.336   3.939   0.219
  305SOL    HW1 1814   1.335   3.849   0.263
  305SOL    HW2 1815   1.279   4.003   0.271
  306SOL     OW 1816   2.304   0.776   3.682
  306SOL    HW1 1817   2.247   0.739   3.756
  306SOL    HW2 1818   2.354   0.856   3.715
  307SOL     OW 1819   4.454   0.426   1.213
  307SOL    HW1 1820   4.398   0.395   1.289
  307SOL    HW2 1821   4.524   0.357   1.193
  308SOL     OW 1822   0.952   6.130   3.000
  308SOL    HW1 1823   0.861   6.100   3.028
  308SOL    HW2 1824   0.950   6.228   2.980
  309SOL     OW 1825   3.626   4.498   5.366
  309SOL    HW1 1826   3.717   4.523   5.334
  309SOL    HW2 1827   3.558   4.557   5.324
  310SOL     OW 1828   6.993   6.475   5.769
  310SOL    HW1 1829   6.904   6.506   5.735
  310SOL    HW2 1830   7.017   6.388   5.726
  311SOL     OW 1831   0.415   5.903   1.766
  311SOL    HW1 1832   0.493   5.929   1.824
  311SOL    HW2 1833   0.362   5.832   1.812
  312SOL     OW 1834   5.068   1.972   5.337
  312SOL    HW1 1835   5.010   1.958   5.257
  312SOL    HW2 1836   5.022   1.938   5.418
  313SOL     OW 1837   1.989   4.100   1.898
  313SOL    HW1 1838   2.069   4.059   1.944
  313SOL    HW2 1839   1.923   4.028   1.877
  314SOL     OW 1840   3.636   5.599   0.192
  314SOL    HW1 1841   3.589   5.667   0.135
  314SOL    HW2 1842   3.732   5.623   0.200
  315SOL     OW 1843   0.493   3.009   3.551
  315SOL    HW1 1844   0.459   3.039   3.640
  315SOL    HW2 1845   0.580   3.054   3.532
  316SOL     OW 1846   2.381   2.774   3.727
  316SOL    HW1 1847   2.420   2.847   3.669
  316SOL    HW2 1848   2.283   2.791   3.740
  317SOL     OW 1849   6.832   1.412   6.873
  317SOL    HW1 1850   6.835   1.425   6.972
  317SOL    HW2 1851   6.895   1.476   6.829
  318SOL     OW 1852   2.407   3.841   1.014
  318SOL    HW1 1853   2.492   3.874   0.974
  318SOL    HW2 1854   2.354   3.918   1.049
  319SOL     OW 1855   1.498   6.685   0.907
  319SOL    HW1 1856   1.536   6.668   0.998
  319SOL    HW2 1857   1.432   6.760   0.912
  320SOL     OW 1858   6.403   3.439   0.967
  320SOL    HW1 1859   6.473   3.489   1.018
  320SOL    HW2 1860   6.438   3.348   0.944
  321SOL     OW 1861   2.324   2.512   1.721
  321SOL    HW1 1862   2.251   2.579   1.712
  321SOL    HW2 1863   2.296   2.439   1.785
  322SOL     OW 1864   3.972   3.065   5.239
  322SOL    HW1 1865   3.918   3.146   5.260
  322SOL    HW2 1866   3.941   3.025   5.153
  323SOL     OW 1867   6.607   4.254   1.033
  323SOL    HW1 1868   6.653   4.277   1.119
  323SOL    HW2 1869   6.513   4.286   1.035
  324SOL     OW 1870   0.928   3.148   4.565
  324SOL    HW1 1871   0.988   3.081   4.521
  324SOL    HW2 1872   0.980   3.200   4.633
  325SOL     OW 1873   1.999   2.462   1.767
  325SOL    HW1 1874   1.908   2.497   1.748
  325SOL    HW2 1875   2.003   2.365   1.743
  326SOL     OW 1876   2.019   5.904   6.663
  326SOL    HW1 1877   2.059   5.817   6.694
  326SOL    HW2 1878   2.074   5.940   6.587
  327SOL     OW 1879   6.588   4.984   5.675
  327SOL    HW1 1880   6.639   4.945   5.752
  327SOL    HW2 1881   6.503   5.024   5.708
  328SOL     OW 1882   4.242   4.869   2.280
  328SOL    HW1 1883   4.190   4.848   2.363
  328SOL    HW2 1884   4.185   4.853   2.200
  329SOL     OW 1885   3.652   3.764   3.327
  329SOL    HW1 1886   3.720   3.698   3.294
  329SOL    HW2 1887   3.697   3.852   3.342
  330SOL     OW 1888   3.299   6.776   1.545
  330SOL    HW1 1889   3.218   6.792   1.488
  330SOL    HW2 1890   3.309   6.851   1.610
  331SOL     OW 1891   5.129   5.080   5.770
  331SOL    HW1 1892   5.187   5.153   5.805
  331SOL    HW2 1893   5.039   5.085   5.815
  332SOL     OW 1894   2.977   1.822   3.940
  332SOL    HW1 1895   2.988   1.786   3.848
  332SOL    HW2 1896   2.886   1.862   3.950
  333SOL     OW 1897   3.792   5.948   6.226
  333SOL    HW1 1898   3.693   5.956   6.230
  333SOL    HW2 1899   3.825   5.981   6.137
  334SOL     OW 1900   3.435   0.221   2.427
  334SOL    HW1 1901   3.460   0.291   2.495
  334SOL    HW2 1902   3.378   0.263   2.356
  335SOL     OW 1903   2.938   6.599   3.396
  335SOL    HW1 1904   2.975   6.525   3.341
  335SOL    HW2 1905   2.942   6.574   3.493
  336SOL     OW 1906   3.333   1.161   3.929
  336SOL    HW1 1907   3.337   1.154   4.028
  336SOL    HW2 1908   3.243   1.195   3.901
  337SOL     OW 1909   0.059   4.059   1.393
  337SOL    HW1 1910   0.088   4.043   1.487
  337SOL    HW2 1911   6.982   4.091   1.392
  338SOL     OW 1912   3.034   2.630   1.454
  338SOL    HW1 1913   3.042   2.547   1.508
  338SOL    HW2 1914   3.004   2.607   1.361
  339SOL     OW 1915   4.061   6.401   2.565
  339SOL    HW1 1916   4.081   6.461   2.642
  339SOL    HW2 1917   4.118   6.319   2.571
  340SOL     OW 1918   4.961   3.554   4.543
  340SOL    HW1 1919   4.953   3.512   4.633
  340SOL    HW2 1920   5.042   3.517   4.497
  341SOL     OW 1921   5.264   5.796   4.274
  341SOL    HW1 1922   5.192   5.841   4.326
  341SOL    HW2 1923   5.352   5.838   4.295
  342SOL     OW 1924   6.222   5.124   0.509
  342SOL    HW1 1925   6.294   5.056   0.494
  342SOL    HW2 1926   6.259   5.201   0.562
  343SOL     OW 1927   3.797   0.095   1.527
  343SOL    HW1 1928   3.854   0.151   1.587
  343SOL    HW2 1929   3.729   0.047   1.582
  344SOL     OW 1930   2.229   4.664   0.719
  344SOL    HW1 1931   2.182   4.625   0.799
  344SOL    HW2 1932   2.268   4.590   0.665
  345SOL     OW 1933   0.879   0.325   5.187
  345SOL    HW1 1934   0.810   0.397   5.197
  345SOL    HW2 1935   0.848   0.259   5.119
  346SOL     OW 1936   1.450   0.243   2.527
  346SOL    HW1 1937   1.372   0.229   2.588
  346SOL    HW2 1938   1.417   0.280   2.439
  347SOL     OW 1939   4.998   6.934   6.606
  347SOL    HW1 1940   4.962   6.847   6.639
  347SOL    HW2 1941   4.970   6.948   6.511
  348SOL     OW 1942   3.236   5.205   0.985
  348SOL    HW1 1943   3.281   5.288   1.018
  348SOL    HW2 1944   3.172   5.172   1.054
  349SOL     OW 1945   1.026   4.978   2.568
  349SOL    HW1 1946   1.067   4.915   2.503
  349SOL    HW2 1947   0.933   5.001   2.539
  350SOL     OW 1948   4.035   3.321   1.536
  350SOL    HW1 1949   4.033   3.273   1.624
  350SOL    HW2 1950   3.963   3.284   1.477
  351SOL     OW 1951   2.780   1.498   6.900
  351SOL    HW1 1952   2.700   1.439   6.897
  351SOL    HW2 1953   2.752   1.591   6.925
  352SOL     OW 1954   3.297   0.494   6.119
  352SOL    HW1 1955   3.388   0.478   6.080
  352SOL    HW2 1956   3.294   0.586   6.159
  353SOL     OW 1957   1.657   6.077   0.621
  353SOL    HW1 1958   1.693   6.062   0.713
  353SOL    HW2 1959   1.710   6.150   0.576
  354SOL     OW 1960   4.282   1.538   0.514
  354SOL    HW1 1961   4.295   1.449   0.557
  354SOL    HW2 1962   4.278   1.609   0.584
  355SOL     OW 1963   6.902   3.504   2.968
  355SOL    HW1 1964   6.924   3.583   3.025
  355SOL    HW2 1965   6.843   3.534   2.892
  356SOL     OW 1966   4.037   5.286   3.328
  356SOL    HW1 1967   4.118   5.345   3.333
  356SOL    HW2 1968   4.063   5.197   3.291
  357SOL     OW 1969   0.036   5.824   5.304
  357SOL    HW1 1970   0.121   5.808   5.354
  357SOL    HW2 1971   6.991   5.747   5.318
  358SOL     OW 1972   5.357   0.298   1.638
  358SOL    HW1 1973   5.415   0.327   1.715
  358SOL    HW2 1974   5.308   0.378   1.603
  359SOL     OW 1975   1.156   1.810   2.304
  359SOL    HW1 1976   1.071   1.792   2.254
  359SOL    HW2 1977   1.212   1.874   2.251
  360SOL     OW 1978   3.928   6.896   0.122
  360SOL    HW1 1979   3.914   6.797   0.128
  360SOL    HW2 1980   3.841   6.941   0.104
  361SOL     OW 1981   4.603   6.557   2.273
  361SOL    HW1 1982   4.600   6.656   2.259
  361SOL    HW2 1983   4.586   6.510   2.187
  362SOL     OW 1984   3.050   3.178   0.987
  362SOL    HW1 1985   2.991   3.256   1.005
  362SOL    HW2 1986   2.995   3.100   0.957
  363SOL     OW 1987   4.137   4.938   3.979
  363SOL    HW1 1988   4.119   4.924   4.077
  363SOL    HW2 1989   4.194   4.863   3.945
  364SOL     OW 1990   1.187   5.165   6.351
  364SOL    HW1 1991   1.189   5.082   6.295
  364SOL    HW2 1992   1.234   5.239   6.302
  365SOL     OW 1993   4.871   6.396   1.941
  365SOL    HW1 1994   4.774   6.371   1.944
  365SOL    HW2 1995   4.903   6.390   1.846
  366SOL     OW 1996   5.626   1.216   0.042
  366SOL    HW1 1997   5.686   1.285   0.002
  366SOL    HW2 1998   5.594   1.154   6.988
  367SOL     OW 1999   5.583   2.873   1.363
  367SOL    HW1 2000   5.603   2.883   1.460
  367SOL    HW2 2001   5.576   2.963   1.320
  368SOL     OW 2002   1.296   4.824   5.206
  368SOL    HW1 2003   1.351   4.814   5.123
  368SOL    HW2 2004   1.199   4.823   5.182
  369SOL     OW 2005   0.986   3.998   1.751
  369SOL    HW1 2006   0.986   4.041   1.660
  369SOL    HW2 2007   1.033   3.910   1.746
  370SOL     OW 2008   3.359   1.348   5.755
  370SOL    HW1 2009   3.282   1.378   5.700
  370SOL    HW2 2010   3.335   1.352   5.852
  371SOL     OW 2011   3.204   3.145   0.353
  371SOL    HW1 2012   3.221   3.050   0.325
  371SOL    HW2 2013   3.282   3.202   0.327
  372SOL     OW 2014   0.029   6.313   6.456
  372SOL    HW1 2015   0.033   6.213   6.443
  372SOL    HW2 2016   6.999   6.354   6.378
  373SOL     OW 2017   0.059   6.798   0.309
  373SOL    HW1 2018   0.059   6.698   0.311
  373SOL    HW2 2019   0.006   6.834   0.386
  374SOL     OW 2020   3.500   0.655   1.762
  374SOL    HW1 2021   3.406   0.620   1.761
  374SOL    HW2 2022   3.561   0.584   1.798
  375SOL     OW 2023   6.592   4.878   3.174
  375SOL    HW1 2024   6.609   4.827   3.089
  375SOL    HW2 2025   6.555   4.816   3.243
  376SOL     OW 2026   1.950   2.750   3.967
  376SOL    HW1 2027   1.989   2.710   4.050
  376SOL    HW2 2028   1.850   2.751   3.975
  377SOL     OW 2029   4.736   2.022   3.448
  377SOL    HW1 2030   4.825   2.004   3.406
  377SOL    HW2 2031   4.728   1.972   3.534
  378SOL     OW 2032   4.888   2.777   5.168
  378SOL    HW1 2033   4.881   2.801   5.265
  378SOL    HW2 2034   4.864   2.856   5.112
  379SOL     OW 2035   5.938   3.457   1.091
  379SOL    HW1 2036   5.943   3.377   1.032
  379SOL    HW2 2037   6.019   3.514   1.077
  380SOL     OW 2038   1.501   1.648   1.249
  380SOL    HW1 2039   1.513   1.729   1.192
  380SOL    HW2 2040   1.530   1.668   1.342
  381SOL     OW 2041   3.444   3.598   1.204
  381SOL    HW1 2042   3.442   3.637   1.296
  381SOL    HW2 2043   3.490   3.509   1.206
  382SOL     OW 2044   2.690   5.955   0.441
  382SOL    HW1 2045   2.720   5.883   0.504
  382SOL    HW2 2046   2.736   6.041   0.464
  383SOL     OW 2047   6.439   2.449   0.296
  383SOL    HW1 2048   6.361   2.439   0.235
  383SOL    HW2 2049   6.459   2.546   0.309
  384SOL     OW 2050   1.288   5.231   4.748
  384SOL    HW1 2051   1.269   5.227   4.650
  384SOL    HW2 2052   1.269   5.142   4.790
  385SOL     OW 2053   5.020   5.973   0.763
  385SOL    HW1 2054   4.960   5.929   0.829
  385SOL    HW2 2055   4.966   6.004   0.684
  386SOL     OW 2056   3.222   6.151   5.851
  386SOL    HW1 2057   3.206   6.163   5.949
  386SOL    HW2 2058   3.179   6.227   5.801
  387SOL     OW 2059   0.178   0.787   5.211
  387SOL    HW1 2060   0.165   0.878   5.250
  387SOL    HW2 2061   0.212   0.725   5.282
  388SOL     OW 2062   6.271   2.625   5.108
  388SOL    HW1 2063   6.254   2.580   5.196
  388SOL    HW2 2064   6.366   2.607   5.080
  389SOL     OW 2065   4.261   4.882   1.546
  389SOL    HW1 2066   4.298   4.840   1.629
  389SOL    HW2 2067   4.186   4.827   1.511
  390SOL     OW 2068   3.285   1.969   0.536
  390SOL    HW1 2069   3.320   1.927   0.453
  390SOL    HW2 2070   3.206   2.026   0.514
  391SOL     OW 2071   3.395   4.322   5.919
  391SOL    HW1 2072   3.301   4.353   5.906
  391SOL    HW2 2073   3.397   4.252   5.991
  392SOL     OW 2074   1.190   3.801   1.978
  392SOL    HW1 2075   1.172   3.785   1.881
  392SOL    HW2 2076   1.168   3.718   2.030
  393SOL     OW 2077   1.256   4.493   1.498
  393SOL    HW1 2078   1.261   4.404   1.545
  393SOL    HW2 2079   1.303   4.487   1.411
  394SOL     OW 2080   6.823   1.161   6.419
  394SOL    HW1 2081   6.872   1.248   6.426
  394SOL    HW2 2082   6.819   1.118   6.510
  395SOL     OW 2083   5.532   4.681   1.227
  395SOL    HW1 2084   5.621   4.674   1.273
  395SOL    HW2 2085   5.523   4.772   1.187
  396SOL     OW 2086   2.643   1.275   2.176
  396SOL    HW1 2087   2.622   1.293   2.272
  396SOL    HW2 2088   2.601   1.345   2.119
  397SOL     OW 2089   4.805   1.730   4.918
  397SOL    HW1 2090   4.880   1.795   4.931
  397SOL    HW2 2091   4.735   1.772   4.860
  398SOL     OW 2092   2.155   1.481   4.148
  398SOL    HW1 2093   2.141   1.457   4.052
  398SOL    HW2 2094   2.066   1.495   4.192
  399SOL     OW 2095   5.841   6.287   3.976
  399SOL    HW1 2096   5.877   6.225   4.046
  399SOL    HW2 2097   5.762   6.335   4.012
  400SOL     OW 2098   6.705   0.802   4.783
  400SOL    HW1 2099   6.686   0.723   4.842
  400SOL    HW2 2100   6.618   0.842   4.752
  401SOL     OW 2101   6.778   5.870   6.003
  401SOL    HW1 2102   6.716   5.873   5.925
  401SOL    HW2 2103   6.803   5.775   6.022
  402SOL     OW 2104   6.371   0.156   2.288
  402SOL    HW1 2105   6.432   0.214   2.342
  402SOL    HW2 2106   6.299   0.212   2.247
  403SOL     OW 2107   2.263   1.136   5.253
  403SOL    HW1 2108   2.363   1.136   5.250
  403SOL    HW2 2109   2.233   1.097   5.339
  404SOL     OW 2110   3.730   4.888   3.775
  404SOL    HW1 2111   3.811   4.841   3.739
  404SOL    HW2 2112   3.758   4.965   3.831
  405SOL     OW 2113   2.716   4.662   3.923
  405SOL    HW1 2114   2.771   4.735   3.881
  405SOL    HW2 2115   2.657   4.621   3.853
  406SOL     OW 2116   0.731   5.649   5.805
  406SOL    HW1 2117   0.745   5.598   5.890
  406SOL    HW2 2118   0.738   5.747   5.823
  407SOL     OW 2119   2.141   3.328   4.761
  407SOL    HW1 2120   2.192   3.413   4.778
  407SOL    HW2 2121   2.201   3.250   4.774
  408SOL     OW 2122   2.690   1.681   3.800
  408SOL    HW1 2123   2.628   1.727   3.863
  408SOL    HW2 2124   2.711   1.742   3.724
  409SOL     OW 2125   1.149   3.776   2.669
  409SOL    HW1 2126   1.201   3.690   2.669
  409SOL    HW2 2127   1.082   3.774   2.743
  410SOL     OW 2128   2.021   1.718   1.602
  410SOL    HW1 2129   2.044   1.677   1.514
  410SOL    HW2 2130   2.091   1.784   1.629
  411SOL     OW 2131   0.865   3.029   1.378
  411SOL    HW1 2132   0.867   2.950   1.316
  411SOL    HW2 2133   0.946   3.028   1.436
  412SOL     OW 2134   1.633   5.202   1.784
  412SOL    HW1 2135   1.664   5.165   1.872
  412SOL    HW2 2136   1.708   5.198   1.718
  413SOL     OW 2137   5.567   5.568   2.471
  413SOL    HW1 2138   5.550   5.657   2.428
  413SOL    HW2 2139   5.661   5.564   2.504
  414SOL     OW 2140   2.209   6.506   3.517
  414SOL    HW1 2141   2.244   6.413   3.529
  414SOL    HW2 2142   2.250   6.547   3.435
  415SOL     OW 2143   6.810   1.056   0.720
  415SOL    HW1 2144   6.855   1.124   0.778
  415SOL    HW2 2145   6.849   0.966   0.739
  416SOL     OW 2146   4.876   2.997   4.997
  416SOL    HW1 2147   4.954   3.041   5.042
  416SOL    HW2 2148   4.907   2.956   4.911
  417SOL     OW 2149   2.780   1.855   5.984
  417SOL    HW1 2150   2.837   1.806   6.050
  417SOL    HW2 2151   2.831   1.933   5.948
  418SOL     OW 2152   3.837   6.400   5.079
  418SOL    HW1 2153   3.905   6.327   5.069
  418SOL    HW2 2154   3.753   6.374   5.033
  419SOL     OW 2155   0.403   6.901   0.934
  419SOL    HW1 2156   0.468   6.957   0.883
  419SOL    HW2 2157   0.318   6.951   0.946
  420SOL     OW 2158   5.105   1.333   6.176
  420SOL    HW1 2159   5.110   1.235   6.192
  420SOL    HW2 2160   5.039   1.374   6.239
  421SOL     OW 2161   5.251   3.215   2.533
  421SOL    HW1 2162   5.291   3.185   2.619
  421SOL    HW2 2163   5.165   3.263   2.550
  422SOL     OW 2164   4.888   3.029   1.757
  422SOL    HW1 2165   4.972   3.008   1.807
  422SOL    HW2 2166   4.810   3.023   1.820
  423SOL     OW 2167   3.641   1.571   6.628
  423SOL    HW1 2168   3.713   1.531   6.685
  423SOL    HW2 2169   3.648   1.535   6.535
  424SOL     OW 2170   1.019   3.737   3.447
  424SOL    HW1 2171   0.978   3.651   3.415
  424SOL    HW2 2172   0.959   3.778   3.516
  425SOL     OW 2173   2.732   0.979   5.613
  425SOL    HW1 2174   2.795   0.951   5.540
  425SOL    HW2 2175   2.638   0.975   5.579
  426SOL     OW 2176   2.797   2.271   4.331
  426SOL    HW1 2177   2.837   2.226   4.411
  426SOL    HW2 2178   2.720   2.329   4.360
  427SOL     OW 2179   3.650   2.126   3.345
  427SOL    HW1 2180   3.580   2.113   3.415
  427SOL    HW2 2181   3.608   2.149   3.258
  428SOL     OW 2182   2.564   1.811   5.502
  428SOL    HW1 2183   2.647   1.821   5.557
  428SOL    HW2 2184   2.544   1.898   5.456
  429SOL     OW 2185   0.857   6.043   3.939
  429SOL    HW1 2186   0.913   5.962   3.920
  429SOL    HW2 2187   0.870   6.110   3.866
  430SOL     OW 2188   1.249   0.058   3.313
  430SOL    HW1 2189   1.222   0.143   3.268
  430SOL    HW2 2190   1.290   0.080   3.402
  431SOL     OW 2191   2.588   1.828   1.763
  431SOL    HW1 2192   2.507   1.770   1.752
  431SOL    HW2 2193   2.586   1.870   1.854
  432SOL     OW 2194   4.143   2.220   2.283
  432SOL    HW1 2195   4.218   2.254   2.225
  432SOL    HW2 2196   4.062   2.204   2.226
  433SOL     OW 2197   2.250   5.411   0.359
  433SOL    HW1 2198   2.337   5.458   0.342
  433SOL    HW2 2199   2.268   5.315   0.378
  434SOL     OW 2200   4.052   6.153   3.755
  434SOL    HW1 2201   3.965   6.192   3.727
  434SOL    HW2 2202   4.120   6.225   3.765
  435SOL     OW 2203   3.754   1.750   6.048
  435SOL    HW1 2204   3.769   1.747   6.146
  435SOL    HW2 2205   3.729   1.843   6.020
  436SOL     OW 2206   4.912   6.861   2.669
  436SOL    HW1 2207   4.914   6.781   2.729
  436SOL    HW2 2208   4.849   6.845   2.593
  437SOL     OW 2209   6.739   0.628   5.117
  437SOL    HW1 2210   6.701   0.542   5.152
  437SOL    HW2 2211   6.664   0.693   5.102
  438SOL     OW 2212   0.331   4.211   2.961
  438SOL    HW1 2213   0.248   4.185   2.911
  438SOL    HW2 2214   0.379   4.283   2.911
  439SOL     OW 2215   6.734   0.133   4.107
  439SOL    HW1 2216   6.699   0.132   4.200
  439SOL    HW2 2217   6.829   0.102   4.106
  440SOL     OW 2218   3.636   1.379   0.790
  440SOL    HW1 2219   3.613   1.470   0.825
  440SOL    HW2 2220   3.680   1.326   0.862
  441SOL     OW 2221   0.120   3.866   2.594
  441SOL    HW1 2222   0.158   3.868   2.502
  441SOL    HW2 2223   0.106   3.771   2.622
  442SOL     OW 2224   4.990   3.327   6.085
  442SOL    HW1 2225   5.025   3.248   6.033
  442SOL    HW2 2226   5.061   3.360   6.147
  443SOL     OW 2227   4.956   3.310   2.091
  443SOL    HW1 2228   4.914   3.223   2.117
  443SOL    HW2 2229   4.918   3.384   2.146
  444SOL     OW 2230   3.832   0.859   1.771
  444SOL    HW1 2231   3.778   0.797   1.828
  444SOL    HW2 2232   3.877   0.927   1.829
  445SOL     OW 2233   1.495   5.812   2.382
  445SOL    HW1 2234   1.418   5.762   2.422
  445SOL    HW2 2235   1.543   5.752   2.318
  446SOL     OW 2236   5.288   6.957   1.629
  446SOL    HW1 2237   5.321   0.005   1.562
  446SOL    HW2 2238   5.235   6.885   1.584
  447SOL     OW 2239   6.198   4.615   1.020
  447SOL    HW1 2240   6.216   4.526   0.979
  447SOL    HW2 2241   6.279   4.647   1.069
  448SOL     OW 2242   2.635   6.915   3.069
  448SOL    HW1 2243   2.589   6.902   3.156
  448SOL    HW2 2244   2.717   6.971   3.082
  449SOL     OW 2245   1.294   4.330   4.979
  449SOL    HW1 2246   1.269   4.420   4.942
  449SOL    HW2 2247   1.379   4.299   4.936
  450SOL     OW 2248   0.594   4.804   3.563
  450SOL    HW1 2249   0.591   4.743   3.642
  450SOL    HW2 2250   0.540   4.764   3.489
  451SOL     OW 2251   0.668   2.084   2.157
  451SOL    HW1 2252   0.688   2.000   2.207
  451SOL    HW2 2253   0.726   2.158   2.193
  452SOL     OW 2254   4.831   5.133   2.080
  452SOL    HW1 2255   4.781   5.057   2.121
  452SOL    HW2 2256   4.870   5.104   1.993
  453SOL     OW 2257   3.625   0.643   6.312
  453SOL    HW1 2258   3.623   0.549   6.345
  453SOL    HW2 2259   3.548   0.694   6.350
  454SOL     OW 2260   6.582   3.216   6.327
  454SOL    HW1 2261   6.576   3.286   6.256
  454SOL    HW2 2262   6.516   3.143   6.306
  455SOL     OW 2263   6.056   4.518   6.130
  455SOL    HW1 2264   6.037   4.556   6.220
  455SOL    HW2 2265   6.155   4.509   6.118
  456SOL     OW 2266   2.813   0.990   2.719
  456SOL    HW1 2267   2.779   1.002   2.812
  456SOL    HW2 2268   2.755   1.039   2.655
  457SOL     OW 2269   2.821   0.253   7.013
  457SOL    HW1 2270   2.746   0.285   6.954
  457SOL    HW2 2271   2.816   0.154   0.005
  458SOL     OW 2272   3.142   1.511   3.279
  458SOL    HW1 2273   3.127   1.413   3.263
  458SOL    HW2 2274   3.210   1.545   3.214
  459SOL     OW 2275   3.483   7.009   3.850
  459SOL    HW1 2276   3.541   6.935   3.817
  459SOL    HW2 2277   3.536   0.076   3.855
  460SOL     OW 2278   0.923   1.340   6.142
  460SOL    HW1 2279   0.832   1.377   6.125
  460SOL    HW2 2280   0.937   1.259   6.085
  461SOL     OW 2281   0.710   5.195   5.834
  461SOL    HW1 2282   0.665   5.172   5.920
  461SOL    HW2 2283   0.802   5.155   5.832
  462SOL     OW 2284   2.985   3.976   4.832
  462SOL    HW1 2285   2.987   4.012   4.738
  462SOL    HW2 2286   3.043   4.033   4.890
  463SOL     OW 2287   5.202   6.835   2.849
  463SOL    HW1 2288   5.113   6.797   2.823
  463SOL    HW2 2289   5.257   6.765   2.893
  464SOL     OW 2290   3.922   5.249   6.423
  464SOL    HW1 2291   3.902   5.190   6.501
  464SOL    HW2 2292   3.930   5.344   6.455
  465SOL     OW 2293   0.955   3.682   1.272
  465SOL    HW1 2294   0.877   3.626   1.301
  465SOL    HW2 2295   0.925   3.748   1.203
  466SOL     OW 2296   3.612   5.184   4.562
  466SOL    HW1 2297   3.543   5.242   4.605
  466SOL    HW2 2298   3.702   5.205   4.600
  467SOL     OW 2299   6.030   0.163   2.049
  467SOL    HW1 2300   5.990   0.152   2.140
  467SOL    HW2 2301   6.127   0.187   2.057
  468SOL     OW 2302   3.163   0.006   6.531
  468SOL    HW1 2303   3.103   0.010   6.451
  468SOL    HW2 2304   3.132   0.074   6.598
  469SOL     OW 2305   3.552   4.774   5.633
  469SOL    HW1 2306   3.615   4.805   5.561
  469SOL    HW2 2307   3.467   4.742   5.592
  470SOL     OW 2308   2.128   5.009   2.724
  470SOL    HW1 2309   2.124   4.916   2.760
  470SOL    HW2 2310   2.223   5.033   2.705
  471SOL     OW 2311   1.693   2.323   4.006
  471SOL    HW1 2312   1.769   2.260   3.991
  471SOL    HW2 2313   1.713   2.381   4.085
  472SOL     OW 2314   5.735   3.327   6.624
  472SOL    HW1 2315   5.795   3.291   6.553
  472SOL    HW2 2316   5.669   3.256   6.650
  473SOL     OW 2317   6.588   2.969   2.044
  473SOL    HW1 2318   6.595   3.067   2.064
  473SOL    HW2 2319   6.574   2.956   1.946
  474SOL     OW 2320   4.425   6.356   3.979
  474SOL    HW1 2321   4.367   6.367   3.898
  474SOL    HW2 2322   4.512   6.315   3.952
  475SOL     OW 2323   6.054   1.823   0.677
  475SOL    HW1 2324   5.977   1.845   0.737
  475SOL    HW2 2325   6.045   1.872   0.591
  476SOL     OW 2326   1.338   4.697   1.655
  476SOL    HW1 2327   1.260   4.747   1.692
  476SOL    HW2 2328   1.306   4.616   1.606
  477SOL     OW 2329   1.756   4.558   3.604
  477SOL    HW1 2330   1.806   4.605   3.677
  477SOL    HW2 2331   1.670   4.523   3.640
  478SOL     OW 2332   5.158   5.472   2.065
  478SOL    HW1 2333   5.229   5.406   2.041
  478SOL    HW2 2334   5.090   5.429   2.124
  479SOL     OW 2335   3.376   4.158   3.725
  479SOL    HW1 2336   3.311   4.234   3.724
  479SOL    HW2 2337   3.328   4.073   3.703
  480SOL     OW 2338   1.471   0.843   2.979
  480SOL    HW1 2339   1.447   0.840   3.077
  480SOL    HW2 2340   1.531   0.921   2.962
  481SOL     OW 2341   7.002   6.922   0.856
  481SOL    HW1 2342   6.955   7.006   0.827
  481SOL    HW2 2343   0.053   6.944   0.924
  482SOL     OW 2344   3.843   5.091   1.658
  482SOL    HW1 2345   3.806   5.071   1.749
  482SOL    HW2 2346   3.810   5.022   1.594
  483SOL     OW 2347   5.376   1.863   3.932
  483SOL    HW1 2348   5.395   1.949   3.980
  483SOL    HW2 2349   5.350   1.881   3.838
  484SOL     OW 2350   2.622   4.637   4.543
  484SOL    HW1 2351   2.686   4.632   4.466
  484SOL    HW2 2352   2.629   4.727   4.586
  485SOL     OW 2353   5.691   3.462   1.700
  485SOL    HW1 2354   5.677   3.364   1.684
  485SOL    HW2 2355   5.683   3.511   1.614
  486SOL     OW 2356   6.163   6.029   6.530
  486SOL    HW1 2357   6.231   5.963   6.561
  486SOL    HW2 2358   6.173   6.114   6.582
  487SOL     OW 2359   6.419   0.026   6.124
  487SOL    HW1 2360   6.364   0.100   6.163
  487SOL    HW2 2361   6.512   0.031   6.160
  488SOL     OW 2362   1.900   5.942   2.767
  488SOL    HW1 2363   1.840   5.970   2.842
  488SOL    HW2 2364   1.995   5.948   2.796
  489SOL     OW 2365   1.346   6.104   6.458
  489SOL    HW1 2366   1.419   6.053   6.504
  489SOL    HW2 2367   1.372   6.200   6.449
  490SOL     OW 2368   1.190   4.275   4.420
  490SOL    HW1 2369   1.108   4.324   4.390
  490SOL    HW2 2370   1.239   4.330   4.488
  491SOL     OW 2371   0.440   2.607   0.880
  491SOL    HW1 2372   0.462   2.641   0.972
  491SOL    HW2 2373   0.521   2.614   0.822
  492SOL     OW 2374   1.049   2.629   5.795
  492SOL    HW1 2375   1.093   2.550   5.753
  492SOL    HW2 2376   1.098   2.653   5.879
  493SOL     OW 2377   2.671   5.444   4.540
  493SOL    HW1 2378   2.713   5.464   4.451
  493SOL    HW2 2379   2.572   5.435   4.528
  494SOL     OW 2380   2.405   6.410   4.559
  494SOL    HW1 2381   2.497   6.403   4.599
  494SOL    HW2 2382   2.338   6.421   4.632
  495SOL     OW 2383   3.964   3.915   5.870
  495SOL    HW1 2384   3.889   3.920   5.936
  495SOL    HW2 2385   3.967   3.824   5.829
  496SOL     OW 2386   4.684   1.467   3.256
  496SOL    HW1 2387   4.761   1.423   3.302
  496SOL    HW2 2388   4.629   1.516   3.323
  497SOL     OW 2389   3.928   1.732   0.007
  497SOL    HW1 2390   3.968   1.645   6.997
  497SOL    HW2 2391   3.997   1.789   0.051
  498SOL     OW 2392   0.734   6.720   1.605
  498SOL    HW1 2393   0.750   6.809   1.561
  498SOL    HW2 2394   0.646   6.683   1.575
  499SOL     OW 2395   2.820   6.021   6.958
  499SOL    HW1 2396   2.808   5.975   0.029
  499SOL    HW2 2397   2.880   5.966   6.900
  500SOL     OW 2398   5.970   1.977   0.449
  500SOL    HW1 2399   5.989   2.075   0.450
  500SOL    HW2 2400   5.896   1.957   0.385
  501SOL     OW 2401   1.094   1.073   4.216
  501SOL    HW1 2402   1.184   1.031   4.220
  501SOL    HW2 2403   1.073   1.097   4.121
  502SOL     OW 2404   1.843   5.010   6.591
  502SOL    HW1 2405   1.817   4.944   6.521
  502SOL    HW2 2406   1.910   4.969   6.653
  503SOL     OW 2407   4.127   4.857   0.343
  503SOL    HW1 2408   4.051   4.812   0.295
  503SOL    HW2 2409   4.214   4.820   0.311
  504SOL     OW 2410   5.811   6.302   1.679
  504SOL    HW1 2411   5.876   6.360   1.728
  504SOL    HW2 2412   5.856   6.216   1.654
  505SOL     OW 2413   4.589   5.947   4.846
  505SOL    HW1 2414   4.659   5.935   4.915
  505SOL    HW2 2415   4.520   6.012   4.879
  506SOL     OW 2416   4.303   5.061   2.061
  506SOL    HW1 2417   4.293   5.028   2.155
  506SOL    HW2 2418   4.235   5.133   2.044
  507SOL     OW 2419   2.875   0.885   0.966
  507SOL    HW1 2420   2.865   0.830   0.883
  507SOL    HW2 2421   2.971   0.885   0.994
  508SOL     OW 2422   6.960   4.254   3.384
  508SOL    HW1 2423   6.896   4.184   3.417
  508SOL    HW2 2424   0.036   4.219   3.391
  509SOL     OW 2425   4.520   0.088   6.195
  509SOL    HW1 2426   4.423   0.061   6.190
  509SOL    HW2 2427   4.547   0.096   6.291
  510SOL     OW 2428   6.584   3.791   0.144
  510SOL    HW1 2429   6.601   3.792   0.045
  510SOL    HW2 2430   6.572   3.885   0.176
  511SOL     OW 2431   0.842   2.171   0.708
  511SOL    HW1 2432   0.743   2.172   0.695
  511SOL    HW2 2433   0.888   2.169   0.619
  512SOL     OW 2434   0.067   2.496   4.989
  512SOL    HW1 2435   0.166   2.505   5.002
  512SOL    HW2 2436   0.033   2.423   5.048
  513SOL     OW 2437   5.546   1.065   3.010
  513SOL    HW1 2438   5.476   1.024   2.952
  513SOL    HW2 2439   5.598   0.993   3.056
  514SOL     OW 2440   6.287   0.045   4.752
  514SOL    HW1 2441   6.384   0.033   4.770
  514SOL    HW2 2442   6.240   6.974   4.759
  515SOL     OW 2443   3.718   0.214   5.793
  515SOL    HW1 2444   3.715   0.303   5.749
  515SOL    HW2 2445   3.670   0.147   5.736
  516SOL     OW 2446   2.274   5.843   1.952
  516SOL    HW1 2447   2.215   5.919   1.922
  516SOL    HW2 2448   2.317   5.866   2.039
  517SOL     OW 2449   4.024   5.632   1.184
  517SOL    HW1 2450   4.051   5.701   1.250
  517SOL    HW2 2451   3.979   5.676   1.106
  518SOL     OW 2452   2.099   3.401   3.803
  518SOL    HW1 2453   2.094   3.496   3.773
  518SOL    HW2 2454   2.056   3.392   3.893
  519SOL     OW 2455   0.243   0.115   2.310
  519SOL    HW1 2456   0.250   0.026   2.265
  519SOL    HW2 2457   0.315   0.124   2.379
  520SOL     OW 2458   1.451   3.516   0.770
  520SOL    HW1 2459   1.473   3.421   0.791
  520SOL    HW2 2460   1.520   3.554   0.709
  521SOL     OW 2461   6.321   6.422   4.776
  521SOL    HW1 2462   6.382   6.369   4.717
  521SOL    HW2 2463   6.227   6.391   4.764
  522SOL     OW 2464   3.609   3.908   1.544
  522SOL    HW1 2465   3.647   3.918   1.636
  522SOL    HW2 2466   3.671   3.951   1.477
  523SOL     OW 2467   1.023   0.209   0.900
  523SOL    HW1 2468   1.106   0.193   0.846
  523SOL    HW2 2469   0.984   0.120   0.927
  524SOL     OW 2470   0.047   2.449   1.614
  524SOL    HW1 2471   6.965   2.462   1.621
  524SOL    HW2 2472   0.092   2.502   1.685
  525SOL     OW 2473   1.023   3.583   5.451
  525SOL    HW1 2474   1.007   3.682   5.446
  525SOL    HW2 2475   0.936   3.535   5.439
  526SOL     OW 2476   3.256   0.299   3.699
  526SOL    HW1 2477   3.306   0.232   3.645
  526SOL    HW2 2478   3.165   0.263   3.720
  527SOL     OW 2479   0.474   0.849   0.647
  527SOL    HW1 2480   0.521   0.812   0.566
  527SOL    HW2 2481   0.395   0.902   0.617
  528SOL     OW 2482   6.579   3.660   4.009
  528SOL    HW1 2483   6.656   3.668   4.072
  528SOL    HW2 2484   6.566   3.747   3.961
  529SOL     OW 2485   1.696   0.832   0.194
  529SOL    HW1 2486   1.772   0.780   0.157
  529SOL    HW2 2487   1.697   0.827   0.294
  530SOL     OW 2488   3.725   3.760   0.864
  530SOL    HW1 2489   3.748   3.683   0.804
  530SOL    HW2 2490   3.683   3.725   0.948
  531SOL     OW 2491   1.326   0.701   0.843
  531SOL    HW1 2492   1.365   0.788   0.813
  531SOL    HW2 2493   1.397   0.647   0.889
  532SOL     OW 2494   1.664   2.142   6.932
  532SOL    HW1 2495   1.728   2.216   6.913
  532SOL    HW2 2496   1.708   2.073   6.988
  533SOL     OW 2497   3.664   0.205   4.490
  533SOL    HW1 2498   3.698   0.296   4.513
  533SOL    HW2 2499   3.734   0.137   4.508
  534SOL     OW 2500   1.451   5.117   1.583
  534SOL    HW1 2501   1.528   5.139   1.643
  534SOL    HW2 2502   1.475   5.037   1.528
  535SOL     OW 2503   5.299   3.129   3.983
  535SOL    HW1 2504   5.251   3.042   3.988
  535SOL    HW2 2505   5.390   3.115   3.944
  536SOL     OW 2506   6.903   0.128   2.154
  536SOL    HW1 2507   6.829   0.063   2.168
  536SOL    HW2 2508   6.981   0.104   2.212
  537SOL     OW 2509   3.994   2.200   4.471
  537SOL    HW1 2510   4.061   2.274   4.482
  537SOL    HW2 2511   4.041   2.112   4.477
  538SOL     OW 2512   3.333   4.679   5.486
  538SOL    HW1 2513   3.392   4.709   5.411
  538SOL    HW2 2514   3.262   4.749   5.502
  539SOL     OW 2515   0.981   0.294   0.099
  539SOL    HW1 2516   1.041   0.344   0.161
  539SOL    HW2 2517   0.980   0.198   0.125
  540SOL     OW 2518   0.888   0.178   3.970
  540SOL    HW1 2519   0.941   0.241   3.914
  540SOL    HW2 2520   0.854   0.226   4.051
  541SOL     OW 2521   4.001   5.488   4.269
  541SOL    HW1 2522   3.977   5.392   4.285
  541SOL    HW2 2523   3.990   5.509   4.171
  542SOL     OW 2524   3.355   0.457   5.776
  542SOL    HW1 2525   3.317   0.365   5.767
  542SOL    HW2 2526   3.285   0.525   5.752
  543SOL     OW 2527   6.511   2.450   4.485
  543SOL    HW1 2528   6.531   2.402   4.399
  543SOL    HW2 2529   6.434   2.405   4.531
  544SOL     OW 2530   1.706   3.874   1.248
  544SOL    HW1 2531   1.689   3.967   1.216
  544SOL    HW2 2532   1.804   3.858   1.256
  545SOL     OW 2533   5.784   0.862   1.027
  545SOL    HW1 2534   5.713   0.910   1.079
  545SOL    HW2 2535   5.782   0.765   1.051
  546SOL     OW 2536   0.068   4.232   2.905
  546SOL    HW1 2537   0.049   4.315   2.854
  546SOL    HW2 2538   0.004   4.225   2.982
  547SOL     OW 2539   4.921   0.986   6.152
  547SOL    HW1 2540   4.994   1.030   6.101
  547SOL    HW2 2541   4.954   0.900   6.192
  548SOL     OW 2542   3.623   2.187   6.915
  548SOL    HW1 2543   3.530   2.154   6.900
  548SOL    HW2 2544   3.686   2.135   6.858
  549SOL     OW 2545   6.141   1.464   1.804
  549SOL    HW1 2546   6.189   1.376   1.805
  549SOL    HW2 2547   6.127   1.493   1.709
  550SOL     OW 2548   6.921   5.355   3.165
  550SOL    HW1 2549   6.987   5.388   3.232
  550SOL    HW2 2550   6.840   5.413   3.167
  551SOL     OW 2551   6.611   0.715   0.693
  551SOL    HW1 2552   6.518   0.733   0.725
  551SOL    HW2 2553   6.663   0.800   0.693
  552SOL     OW 2554   6.318   5.136   5.726
  552SOL    HW1 2555   6.320   5.201   5.802
  552SOL    HW2 2556   6.229   5.090   5.724
  553SOL     OW 2557   2.578   1.214   6.673
  553SOL    HW1 2558   2.559   1.283   6.603
  553SOL    HW2 2559   2.493   1.166   6.696
  554SOL     OW 2560   5.786   6.525   1.437
  554SOL    HW1 2561   5.738   6.612   1.446
  554SOL    HW2 2562   5.813   6.493   1.528
  555SOL     OW 2563   1.431   3.974   5.685
  555SOL    HW1 2564   1.374   4.036   5.738
  555SOL    HW2 2565   1.433   4.003   5.590
  556SOL     OW 2566   5.370   0.024   4.307
  556SOL    HW1 2567   5.413   0.083   4.376
  556SOL    HW2 2568   5.379   0.067   4.217
  557SOL     OW 2569   6.826   4.583   6.838
  557SOL    HW1 2570   6.854   4.602   6.932
  557SOL    HW2 2571   6.752   4.646   6.812
  558SOL     OW 2572   3.267   4.062   2.491
  558SOL    HW1 2573   3.210   4.039   2.571
  558SOL    HW2 2574   3.208   4.088   2.415
  559SOL     OW 2575   6.141   0.201   5.618
  559SOL    HW1 2576   6.054   0.205   5.667
  559SOL    HW2 2577   6.209   0.154   5.674
  560SOL     OW 2578   6.075   3.091   3.325
  560SOL    HW1 2579   5.987   3.066   3.366
  560SOL    HW2 2580   6.118   3.009   3.287
  561SOL     OW 2581   0.882   3.063   0.176
  561SOL    HW1 2582   0.965   3.023   0.216
  561SOL    HW2 2583   0.874   3.158   0.206
  562SOL     OW 2584   4.123   7.009   5.396
  562SOL    HW1 2585   4.046   6.959   5.354
  562SOL    HW2 2586   4.158   0.059   5.331
  563SOL     OW 2587   1.930   1.378   4.445
  563SOL    HW1 2588   1.902   1.442   4.374
  563SOL    HW2 2589   1.962   1.293   4.404
  564SOL     OW 2590   6.960   2.026   5.722
  564SOL    HW1 2591   6.878   2.083   5.715
  564SOL    HW2 2592   0.023   2.079   5.692
  565SOL     OW 2593   4.110   3.692   3.348
  565SOL    HW1 2594   4.055   3.774   3.362
  565SOL    HW2 2595   4.087   3.624   3.417
  566SOL     OW 2596   3.421   6.841   3.099
  566SOL    HW1 2597   3.445   6.778   3.025
  566SOL    HW2 2598   3.460   6.808   3.185
  567SOL     OW 2599   1.957   3.088   6.223
  567SOL    HW1 2600   2.020   3.115   6.296
  567SOL    HW2 2601   2.008   3.036   6.154
  568SOL     OW 2602   6.761   6.470   0.399
  568SOL    HW1 2603   6.724   6.377   0.399
  568SOL    HW2 2604   6.842   6.473   0.457
  569SOL     OW 2605   6.585   2.280   0.484
  569SOL    HW1 2606   6.532   2.335   0.420
  569SOL    HW2 2607   6.611   2.335   0.563
  570SOL     OW 2608   2.396   0.817   5.824
  570SOL    HW1 2609   2.413   0.838   5.728
  570SOL    HW2 2610   2.300   0.793   5.837
  571SOL     OW 2611   2.191   5.321   2.437
  571SOL    HW1 2612   2.146   5.323   2.527
  571SOL    HW2 2613   2.125   5.343   2.366
  572SOL     OW 2614   2.590   0.005   3.971
  572SOL    HW1 2615   2.521   6.950   3.960
  572SOL    HW2 2616   2.548   0.084   4.016
  573SOL     OW 2617   0.125   1.246   5.282
  573SOL    HW1 2618   0.058   1.256   5.209
  573SOL    HW2 2619   0.127   1.329   5.337
  574SOL     OW 2620   2.259   2.185   5.716
  574SOL    HW1 2621   2.271   2.220   5.623
  574SOL    HW2 2622   2.303   2.247   5.781
  575SOL     OW 2623   3.628   2.824   0.342
  575SOL    HW1 2624   3.558   2.757   0.317
  575SOL    HW2 2625   3.697   2.779   0.398
  576SOL     OW 2626   2.054   3.156   2.900
  576SOL    HW1 2627   1.957   3.133   2.906
  576SOL    HW2 2628   2.109   3.076   2.923
  577SOL     OW 2629   0.892   1.379   2.048
  577SOL    HW1 2630   0.893   1.453   1.981
  577SOL    HW2 2631   0.841   1.301   2.011
  578SOL     OW 2632   2.178   6.528   6.703
  578SOL    HW1 2633   2.093   6.570   6.673
  578SOL    HW2 2634   2.233   6.596   6.753
  579SOL     OW 2635   2.408   4.556   2.019
  579SOL    HW1 2636   2.339   4.513   1.960
  579SOL    HW2 2637   2.494   4.564   1.969
  580SOL     OW 2638   4.127   5.149   4.535
  580SOL    HW1 2639   4.199   5.206   4.576
  580SOL    HW2 2640   4.098   5.080   4.602
  581SOL     OW 2641   1.811   2.945   4.598
  581SOL    HW1 2642   1.854   3.034   4.583
  581SOL    HW2 2643   1.861   2.896   4.669
  582SOL     OW 2644   5.500   5.853   3.725
  582SOL    HW1 2645   5.473   5.832   3.819
  582SOL    HW2 2646   5.421   5.847   3.665
  583SOL     OW 2647   4.014   5.660   5.746
  583SOL    HW1 2648   4.016   5.621   5.654
  583SOL    HW2 2649   3.967   5.596   5.808
  584SOL     OW 2650   4.335   0.709   5.635
  584SOL    HW1 2651   4.316   0.727   5.538
  584SOL    HW2 2652   4.430   0.732   5.655
  585SOL     OW 2653   2.825   0.285   2.089
  585SOL    HW1 2654   2.759   0.360   2.076
  585SOL    HW2 2655   2.843   0.241   2.001
  586SOL     OW 2656   4.673   6.969   1.041
  586SOL    HW1 2657   4.761   6.925   1.052
  586SOL    HW2 2658   4.680   0.023   0.971
  587SOL     OW 2659   4.840   1.967   1.734
  587SOL    HW1 2660   4.785   2.030   1.788
  587SOL    HW2 2661   4.789   1.882   1.720
  588SOL     OW 2662   1.073   5.489   2.617
  588SOL    HW1 2663   1.092   5.409   2.559
  588SOL    HW2 2664   1.026   5.559   2.563
  589SOL     OW 2665   3.192   6.011   0.989
  589SOL    HW1 2666   3.273   5.981   0.940
  589SOL    HW2 2667   3.161   6.099   0.951
  590SOL     OW 2668   4.831   1.808   0.737
  590SOL    HW1 2669   4.924   1.776   0.759
  590SOL    HW2 2670   4.781   1.827   0.821
  591SOL     OW 2671   3.679   5.997   4.763
  591SOL    HW1 2672   3.772   6.033   4.749
  591SOL    HW2 2673   3.675   5.903   4.731
  592SOL     OW 2674   4.362   2.055   4.053
  592SOL    HW1 2675   4.423   2.049   4.131
  592SOL    HW2 2676   4.287   2.118   4.073
  593SOL     OW 2677   3.016   1.347   6.366
  593SOL    HW1 2678   3.024   1.311   6.459
  593SOL    HW2 2679   3.020   1.271   6.300
  594SOL     OW 2680   5.258   1.428   1.920
  594SOL    HW1 2681   5.282   1.396   1.829
  594SOL    HW2 2682   5.174   1.482   1.916
  595SOL     OW 2683   5.265   6.000   2.345
  595SOL    HW1 2684   5.240   5.954   2.431
  595SOL    HW2 2685   5.227   5.948   2.268
  596SOL     OW 2686   6.496   4.848   3.948
  596SOL    HW1 2687   6.570   4.894   3.996
  596SOL    HW2 2688   6.408   4.884   3.980
  597SOL     OW 2689   2.672   0.150   5.919
  597SOL    HW1 2690   2.650   0.199   5.834
  597SOL    HW2 2691   2.761   0.179   5.952
  598SOL     OW 2692   3.065   3.287   4.455
  598SOL    HW1 2693   3.124   3.207   4.461
  598SOL    HW2 2694   3.022   3.304   4.544
  599SOL     OW 2695   1.370   5.727   1.978
  599SOL    HW1 2696   1.429   5.656   1.939
  599SOL    HW2 2697   1.325   5.692   2.060
  600SOL     OW 2698   0.031   3.803   4.748
  600SOL    HW1 2699   7.000   3.853   4.677
  600SOL    HW2 2700   0.113   3.760   4.709
  601SOL     OW 2701   1.951   6.591   4.879
  601SOL    HW1 2702   2.009   6.635   4.947
  601SOL    HW2 2703   1.867   6.559   4.922
  602SOL     OW 2704   2.799   6.043   4.082
  602SOL    HW1 2705   2.752   6.098   4.013
  602SOL    HW2 2706   2.732   5.996   4.139
  603SOL     OW 2707   1.653   1.284   5.489
  603SOL    HW1 2708   1.611   1.196   5.468
  603SOL    HW2 2709   1.752   1.275   5.489
  604SOL     OW 2710   6.509   2.585   1.854
  604SOL    HW1 2711   6.538   2.570   1.948
  604SOL    HW2 2712   6.409   2.593   1.850
  605SOL     OW 2713   0.382   5.606   2.107
  605SOL    HW1 2714   0.434   5.580   2.188
  605SOL    HW2 2715   0.285   5.584   2.121
  606SOL     OW 2716   3.493   6.647   4.772
  606SOL    HW1 2717   3.524   6.676   4.862
  606SOL    HW2 2718   3.393   6.654   4.766
  607SOL     OW 2719   0.979   4.719   5.793
  607SOL    HW1 2720   0.964   4.799   5.736
  607SOL    HW2 2721   0.974   4.744   5.890
  608SOL     OW 2722   2.952   1.334   5.444
  608SOL    HW1 2723   3.008   1.302   5.367
  608SOL    HW2 2724   2.880   1.396   5.410
  609SOL     OW 2725   3.347   2.860   1.989
  609SOL    HW1 2726   3.264   2.914   2.001
  609SOL    HW2 2727   3.325   2.776   1.939
  610SOL     OW 2728   4.800   3.508   0.729
  610SOL    HW1 2729   4.897   3.485   0.724
  610SOL    HW2 2730   4.765   3.483   0.820
  611SOL     OW 2731   3.923   0.402   2.407
  611SOL    HW1 2732   3.852   0.389   2.477
  611SOL    HW2 2733   3.996   0.336   2.421
  612SOL     OW 2734   4.063   4.654   6.180
  612SOL    HW1 2735   4.093   4.663   6.085
  612SOL    HW2 2736   3.994   4.582   6.186
  613SOL     OW 2737   4.330   5.367   5.269
  613SOL    HW1 2738   4.266   5.297   5.302
  613SOL    HW2 2739   4.424   5.337   5.286
  614SOL     OW 2740   4.134   5.068   5.940
  614SOL    HW1 2741   4.129   5.073   6.040
  614SOL    HW2 2742   4.048   5.031   5.904
  615SOL     OW 2743   0.740   5.214   1.983
  615SOL    HW1 2744   0.714   5.212   1.887
  615SOL    HW2 2745   0.779   5.303   2.005
  616SOL     OW 2746   5.814   3.624   3.283
  616SOL    HW1 2747   5.770   3.534   3.279
  616SOL    HW2 2748   5.871   3.636   3.201
  617SOL     OW 2749   3.044   5.557   6.538
  617SOL    HW1 2750   3.089   5.521   6.456
  617SOL    HW2 2751   2.945   5.547   6.528
  618SOL     OW 2752   1.323   0.876   2.234
  618SOL    HW1 2753   1.356   0.943   2.301
  618SOL    HW2 2754   1.305   0.922   2.147
  619SOL     OW 2755   0.978   0.990   6.646
  619SOL    HW1 2756   0.970   0.995   6.546
  619SOL    HW2 2757   1.071   1.014   6.673
  620SOL     OW 2758   4.408   3.935   0.672
  620SOL    HW1 2759   4.483   3.996   0.645
  620SOL    HW2 2760   4.444   3.844   0.690
  621SOL     OW 2761   0.482   4.886   2.103
  621SOL    HW1 2762   0.474   4.800   2.054
  621SOL    HW2 2763   0.575   4.921   2.096
  622SOL     OW 2764   1.690   1.311   0.196
  622SOL    HW1 2765   1.705   1.222   0.153
  622SOL    HW2 2766   1.592   1.330   0.202
  623SOL     OW 2767   0.649   4.549   6.654
  623SOL    HW1 2768   0.719   4.571   6.587
  623SOL    HW2 2769   0.690   4.541   6.745
  624SOL     OW 2770   0.565   2.682   2.818
  624SOL    HW1 2771   0.524   2.767   2.852
  624SOL    HW2 2772   0.506   2.643   2.747
  625SOL     OW 2773   2.682   1.744   2.154
  625SOL    HW1 2774   2.585   1.723   2.147
  625SOL    HW2 2775   2.734   1.659   2.158
  626SOL     OW 2776   2.834   6.216   4.813
  626SOL    HW1 2777   2.845   6.124   4.777
  626SOL    HW2 2778   2.850   6.216   4.911
  627SOL     OW 2779   5.546   1.063   6.844
  627SOL    HW1 2780   5.447   1.072   6.832
  627SOL    HW2 2781   5.567   0.971   6.875
  628SOL     OW 2782   4.757   4.082   3.726
  628SOL    HW1 2783   4.715   4.103   3.638
  628SOL    HW2 2784   4.830   4.149   3.744
  629SOL     OW 2785   1.149   0.437   1.090
  629SOL    HW1 2786   1.234   0.456   1.140
  629SOL    HW2 2787   1.159   0.352   1.038
  630SOL     OW 2788   4.117   1.833   1.130
  630SOL    HW1 2789   4.064   1.914   1.107
  630SOL    HW2 2790   4.214   1.851   1.113
  631SOL     OW 2791   2.378   0.031   5.153
  631SOL    HW1 2792   2.366   6.996   5.237
  631SOL    HW2 2793   2.389   6.986   5.076
  632SOL     OW 2794   2.175   0.804   0.821
  632SOL    HW1 2795   2.088   0.833   0.782
  632SOL    HW2 2796   2.166   0.796   0.921
  633SOL     OW 2797   2.594   6.934   6.235
  633SOL    HW1 2798   2.519   6.868   6.228
  633SOL    HW2 2799   2.681   6.884   6.239
  634SOL     OW 2800   3.675   5.916   0.557
  634SOL    HW1 2801   3.639   5.997   0.603
  634SOL    HW2 2802   3.613   5.889   0.483
  635SOL     OW 2803   2.621   0.450   2.527
  635SOL    HW1 2804   2.655   0.499   2.607
  635SOL    HW2 2805   2.631   0.352   2.542
  636SOL     OW 2806   5.066   4.959   0.264
  636SOL    HW1 2807   5.063   5.035   0.200
  636SOL    HW2 2808   4.994   4.971   0.333
  637SOL     OW 2809   4.566   4.518   1.221
  637SOL    HW1 2810   4.482   4.544   1.269
  637SOL    HW2 2811   4.544   4.490   1.128
  638SOL     OW 2812   4.902   1.172   2.681
  638SOL    HW1 2813   4.882   1.230   2.761
  638SOL    HW2 2814   4.934   1.083   2.712
  639SOL     OW 2815   4.391   4.527   2.068
  639SOL    HW1 2816   4.420   4.444   2.020
  639SOL    HW2 2817   4.291   4.528   2.075
  640SOL     OW 2818   2.848   4.220   5.312
  640SOL    HW1 2819   2.932   4.171   5.291
  640SOL    HW2 2820   2.856   4.315   5.280
  641SOL     OW 2821   6.959   5.878   4.656
  641SOL    HW1 2822   6.963   5.907   4.560
  641SOL    HW2 2823   6.923   5.953   4.712
  642SOL     OW 2824   0.913   5.156   4.711
  642SOL    HW1 2825   0.840   5.170   4.777
  642SOL    HW2 2826   0.971   5.237   4.707
  643SOL     OW 2827   5.927   5.935   5.287
  643SOL    HW1 2828   5.857   5.865   5.274
  643SOL    HW2 2829   5.986   5.938   5.207
  644SOL     OW 2830   1.285   6.603   2.244
  644SOL    HW1 2831   1.332   6.654   2.316
  644SOL    HW2 2832   1.328   6.514   2.232
  645SOL     OW 2833   5.608   2.604   3.627
  645SOL    HW1 2834   5.546   2.590   3.549
  645SOL    HW2 2835   5.703   2.602   3.595
  646SOL     OW 2836   1.708   1.732   4.353
  646SOL    HW1 2837   1.772   1.752   4.279
  646SOL    HW2 2838   1.758   1.730   4.440
  647SOL     OW 2839   6.122   3.386   0.301
  647SOL    HW1 2840   6.181   3.377   0.382
  647SOL    HW2 2841   6.138   3.309   0.240
  648SOL     OW 2842   6.037   3.431   1.691
  648SOL    HW1 2843   5.978   3.411   1.769
  648SOL    HW2 2844   6.119   3.479   1.722
  649SOL     OW 2845   4.150   4.411   1.455
  649SOL    HW1 2846   4.221   4.368   1.512
  649SOL    HW2 2847   4.189   4.491   1.409
  650SOL     OW 2848   4.961   4.817   0.590
  650SOL    HW1 2849   5.059   4.820   0.607
  650SOL    HW2 2850   4.943   4.765   0.507
  651SOL     OW 2851   1.074   6.112   6.939
  651SOL    HW1 2852   1.122   6.162   7.012
  651SOL    HW2 2853   1.022   6.177   6.884
  652SOL     OW 2854   4.028   1.435   2.526
  652SOL    HW1 2855   4.020   1.373   2.449
  652SOL    HW2 2856   4.077   1.518   2.496
  653SOL     OW 2857   3.467   4.981   3.395
  653SOL    HW1 2858   3.440   5.077   3.388
  653SOL    HW2 2859   3.448   4.949   3.488
  654SOL     OW 2860   6.728   4.441   0.512
  654SOL    HW1 2861   6.647   4.383   0.503
  654SOL    HW2 2862   6.754   4.475   0.422
  655SOL     OW 2863   0.599   0.706   1.109
  655SOL    HW1 2864   0.691   0.673   1.089
  655SOL    HW2 2865   0.594   0.738   1.203
  656SOL     OW 2866   2.875   6.549   2.027
  656SOL    HW1 2867   2.928   6.466   2.047
  656SOL    HW2 2868   2.846   6.591   2.113
  657SOL     OW 2869   3.067   1.575   6.968
  657SOL    HW1 2870   3.061   1.643   6.895
  657SOL    HW2 2871   3.024   1.490   6.939
  658SOL     OW 2872   3.348   4.409   6.203
  658SOL    HW1 2873   3.276   4.476   6.187
  658SOL    HW2 2874   3.409   4.406   6.124
  659SOL     OW 2875   2.290   6.985   6.513
  659SOL    HW1 2876   2.336   0.055   6.510
  659SOL    HW2 2877   2.217   6.983   6.445
  660SOL     OW 2878   3.891   5.299   2.798
  660SOL    HW1 2879   3.856   5.391   2.780
  660SOL    HW2 2880   3.943   5.298   2.883
  661SOL     OW 2881   5.027   5.409   2.858
  661SOL    HW1 2882   5.005   5.368   2.769
  661SOL    HW2 2883   5.125   5.403   2.874
  662SOL     OW 2884   3.252   1.139   6.984
  662SOL    HW1 2885   3.176   1.203   6.972
  662SOL    HW2 2886   3.311   1.171   0.040
  663SOL     OW 2887   2.459   4.313   5.212
  663SOL    HW1 2888   2.535   4.315   5.277
  663SOL    HW2 2889   2.420   4.221   5.210
  664SOL     OW 2890   6.561   0.759   6.729
  664SOL    HW1 2891   6.471   0.797   6.708
  664SOL    HW2 2892   6.568   0.741   6.826
  665SOL     OW 2893   2.172   5.650   2.792
  665SOL    HW1 2894   2.231   5.676   2.716
  665SOL    HW2 2895   2.225   5.602   2.862
  666SOL     OW 2896   4.329   0.872   2.245
  666SOL    HW1 2897   4.274   0.954   2.227
  666SOL    HW2 2898   4.406   0.896   2.305
  667SOL     OW 2899   0.658   6.797   2.589
  667SOL    HW1 2900   0.730   6.815   2.657
  667SOL    HW2 2901   0.649   6.698   2.576
  668SOL     OW 2902   5.476   3.821   0.257
  668SOL    HW1 2903   5.560   3.872   0.238
  668SOL    HW2 2904   5.399   3.885   0.265
  669SOL     OW 2905   4.948   1.564   2.970
  669SOL    HW1 2906   4.911   1.651   3.002
  669SOL    HW2 2907   4.894   1.489   3.009
  670SOL     OW 2908   2.198   2.110   3.556
  670SOL    HW1 2909   2.158   2.037   3.500
  670SOL    HW2 2910   2.298   2.099   3.557
  671SOL     OW 2911   2.673   6.529   1.452
  671SOL    HW1 2912   2.763   6.572   1.463
  671SOL    HW2 2913   2.644   6.535   1.357
  672SOL     OW 2914   1.029   6.707   2.286
  672SOL    HW1 2915   1.055   6.802   2.300
  672SOL    HW2 2916   1.110   6.654   2.260
  673SOL     OW 2917   5.155   0.100   0.490
  673SOL    HW1 2918   5.164   0.161   0.411
  673SOL    HW2 2919   5.067   0.052   0.484
  674SOL     OW 2920   0.241   0.688   4.468
  674SOL    HW1 2921   0.244   0.606   4.525
  674SOL    HW2 2922   0.288   0.671   4.382
  675SOL     OW 2923   6.205   2.807   2.565
  675SOL    HW1 2924   6.284   2.782   2.509
  675SOL    HW2 2925   6.179   2.730   2.623
  676SOL     OW 2926   1.993   5.942   6.237
  676SOL    HW1 2927   1.991   5.991   6.150
  676SOL    HW2 2928   2.072   5.881   6.239
  677SOL     OW 2929   4.862   1.357   0.547
  677SOL    HW1 2930   4.925   1.423   0.587
  677SOL    HW2 2931   4.892   1.334   0.454
  678SOL     OW 2932   2.100   4.755   4.886
  678SOL    HW1 2933   2.068   4.671   4.844
  678SOL    HW2 2934   2.128   4.737   4.981
  679SOL     OW 2935   5.373   1.887   5.330
  679SOL    HW1 2936   5.443   1.817   5.321
  679SOL    HW2 2937   5.316   1.888   5.247
  680SOL     OW 2938   4.199   0.133   4.521
  680SOL    HW1 2939   4.173   0.082   4.439
  680SOL    HW2 2940   4.236   0.222   4.495
  681SOL     OW 2941   4.729   5.018   2.367
  681SOL    HW1 2942   4.764   5.071   2.444
  681SOL    HW2 2943   4.734   4.921   2.388
  682SOL     OW 2944   0.892   0.659   3.689
  682SOL    HW1 2945   0.793   0.661   3.681
  682SOL    HW2 2946   0.921   0.719   3.764
  683SOL     OW 2947   4.377   3.625   1.216
  683SOL    HW1 2948   4.469   3.586   1.222
  683SOL    HW2 2949   4.316   3.573   1.275
  684SOL     OW 2950   6.547   0.834   6.120
  684SOL    HW1 2951   6.544   0.929   6.153
  684SOL    HW2 2952   6.636   0.794   6.142
  685SOL     OW 2953   3.352   0.488   3.161
  685SOL    HW1 2954   3.411   0.568   3.169
  685SOL    HW2 2955   3.259   0.512   3.187
  686SOL     OW 2956   4.269   0.992   5.106
  686SOL    HW1 2957   4.238   1.087   5.100
  686SOL    HW2 2958   4.193   0.934   5.136
  687SOL     OW 2959   1.519   1.862   4.228
  687SOL    HW1 2960   1.594   1.825   4.283
  687SOL    HW2 2961   1.455   1.788   4.207
  688SOL     OW 2962   6.288   1.482   0.090
  688SOL    HW1 2963   6.321   1.431   0.169
  688SOL    HW2 2964   6.188   1.479   0.087
  689SOL     OW 2965   1.354   5.267   6.087
  689SOL    HW1 2966   1.417   5.190   6.095
  689SOL    HW2 2967   1.357   5.322   6.170
  690SOL     OW 2968   5.734   3.460   2.484
  690SOL    HW1 2969   5.802   3.468   2.412
  690SOL    HW2 2970   5.747   3.374   2.534
  691SOL     OW 2971   4.451   1.587   0.099
  691SOL    HW1 2972   4.384   1.610   0.028
  691SOL    HW2 2973   4.521   1.528   0.061
  692SOL     OW 2974   2.841   0.808   4.658
  692SOL    HW1 2975   2.930   0.853   4.655
  692SOL    HW2 2976   2.848   0.716   4.620
  693SOL     OW 2977   5.056   6.089   3.855
  693SOL    HW1 2978   5.120   6.101   3.930
  693SOL    HW2 2979   4.969   6.054   3.890
  694SOL     OW 2980   4.622   5.532   5.057
  694SOL    HW1 2981   4.595   5.554   5.151
  694SOL    HW2 2982   4.694   5.463   5.059
  695SOL     OW 2983   3.285   0.065   4.037
  695SOL    HW1 2984   3.328   0.054   4.126
  695SOL    HW2 2985   3.347   0.034   3.965
  696SOL     OW 2986   4.555   4.477   3.357
  696SOL    HW1 2987   4.628   4.536   3.322
  696SOL    HW2 2988   4.479   4.476   3.292
  697SOL     OW 2989   0.183   5.110   2.467
  697SOL    HW1 2990   0.203   5.013   2.450
  697SOL    HW2 2991   0.251   5.167   2.422
  698SOL     OW 2992   5.699   0.216   1.083
  698SOL    HW1 2993   5.610   0.170   1.081
  698SOL    HW2 2994   5.712   0.267   0.998
  699SOL     OW 2995   2.430   1.986   0.967
  699SOL    HW1 2996   2.506   1.953   0.910
  699SOL    HW2 2997   2.373   1.909   0.995
  700SOL     OW 2998   3.806   6.633   3.077
  700SOL    HW1 2999   3.892   6.684   3.070
  700SOL    HW2 3000   3.793   6.602   3.171
  701SOL     OW 3001   6.255   5.319   1.145
  701SOL    HW1 3002   6.335   5.287   1.197
  701SOL    HW2 3003   6.251   5.419   1.148
  702SOL     OW 3004   3.002   1.137   3.996
  702SOL    HW1 3005   3.053   1.052   4.006
  702SOL    HW2 3006   2.983   1.176   4.087
  703SOL     OW 3007   3.020   2.566   6.024
  703SOL    HW1 3008   3.114   2.582   6.053
  703SOL    HW2 3009   2.979   2.651   5.992
  704SOL     OW 3010   1.257   2.844   6.030
  704SOL    HW1 3011   1.279   2.855   6.127
  704SOL    HW2 3012   1.195   2.765   6.019
  705SOL     OW 3013   0.189   6.468   4.752
  705SOL    HW1 3014   0.152   6.397   4.692
  705SOL    HW2 3015   0.179   6.441   4.847
  706SOL     OW 3016   4.686   1.028   5.095
  706SOL    HW1 3017   4.622   0.962   5.055
  706SOL    HW2 3018   4.779   0.993   5.087
  707SOL     OW 3019   3.367   5.253   3.424
  707SOL    HW1 3020   3.361   5.236   3.325
  707SOL    HW2 3021   3.427   5.331   3.441
  708SOL     OW 3022   3.486   0.427   3.684
  708SOL    HW1 3023   3.393   0.391   3.695
  708SOL    HW2 3024   3.505   0.493   3.757
  709SOL     OW 3025   2.387   0.107   1.358
  709SOL    HW1 3026   2.339   0.066   1.280
  709SOL    HW2 3027   2.327   0.104   1.439
  710SOL     OW 3028   4.674   2.844   1.683
  710SOL    HW1 3029   4.738   2.795   1.741
  710SOL    HW2 3030   4.639   2.924   1.732
  711SOL     OW 3031   0.145   2.425   5.906
  711SOL    HW1 3032   0.184   2.517   5.914
  711SOL    HW2 3033   0.197   2.373   5.839
  712SOL     OW 3034   5.070   3.662   0.461
  712SOL    HW1 3035   5.059   3.570   0.423
  712SOL    HW2 3036   5.167   3.685   0.465
  713SOL     OW 3037   3.953   2.651   5.351
  713SOL    HW1 3038   3.894   2.720   5.309
  713SOL    HW2 3039   4.000   2.600   5.279
  714SOL     OW 3040   5.230   5.046   3.538
  714SOL    HW1 3041   5.200   5.130   3.492
  714SOL    HW2 3042   5.277   4.987   3.472
  715SOL     OW 3043   6.194   5.312   5.540
  715SOL    HW1 3044   6.124   5.326   5.610
  715SOL    HW2 3045   6.261   5.246   5.572
  716SOL     OW 3046   2.033   1.427   2.496
  716SOL    HW1 3047   2.110   1.480   2.459
  716SOL    HW2 3048   1.971   1.403   2.421
  717SOL     OW 3049   5.206   5.461   3.998
  717SOL    HW1 3050   5.275   5.451   3.926
  717SOL    HW2 3051   5.243   5.426   4.084
  718SOL     OW 3052   5.749   1.724   4.338
  718SOL    HW1 3053   5.700   1.642   4.309
  718SOL    HW2 3054   5.837   1.729   4.291
  719SOL     OW 3055   5.301   0.300   3.456
  719SOL    HW1 3056   5.397   0.326   3.442
  719SOL    HW2 3057   5.294   0.200   3.458
  720SOL     OW 3058   2.091   0.856   6.879
  720SOL    HW1 3059   2.170   0.817   6.831
  720SOL    HW2 3060   2.103   0.846   6.978
  721SOL     OW 3061   0.195   2.394   2.876
  721SOL    HW1 3062   0.115   2.415   2.819
  721SOL    HW2 3063   0.227   2.477   2.921
  722SOL     OW 3064   4.184   6.941   0.223
  722SOL    HW1 3065   4.102   6.961   0.169
  722SOL    HW2 3066   4.158   6.893   0.307
  723SOL     OW 3067   2.734   5.604   3.578
  723SOL    HW1 3068   2.822   5.557   3.584
  723SOL    HW2 3069   2.715   5.629   3.483
  724SOL     OW 3070   1.223   0.795   3.459
  724SOL    HW1 3071   1.171   0.879   3.476
  724SOL    HW2 3072   1.270   0.803   3.371
  725SOL     OW 3073   1.717   3.912   2.529
  725SOL    HW1 3074   1.694   3.861   2.447
  725SOL    HW2 3075   1.707   4.010   2.511
  726SOL     OW 3076   2.050   4.122   0.678
  726SOL    HW1 3077   2.028   4.110   0.581
  726SOL    HW2 3078   2.109   4.047   0.708
  727SOL     OW 3079   4.145   5.354   5.074
  727SOL    HW1 3080   4.088   5.435   5.081
  727SOL    HW2 3081   4.230   5.368   5.125
  728SOL     OW 3082   6.510   3.207   4.138
  728SOL    HW1 3083   6.415   3.208   4.168
  728SOL    HW2 3084   6.514   3.188   4.040
  729SOL     OW 3085   0.376   4.262   1.450
  729SOL    HW1 3086   0.410   4.322   1.522
  729SOL    HW2 3087   0.447   4.249   1.381
  730SOL     OW 3088   5.068   0.338   3.589
  730SOL    HW1 3089   5.036   0.429   3.563
  730SOL    HW2 3090   5.164   0.329   3.566
  731SOL     OW 3091   4.305   4.303   6.164
  731SOL    HW1 3092   4.401   4.329   6.161
  731SOL    HW2 3093   4.293   4.226   6.227
  732SOL     OW 3094   5.072   1.388   3.685
  732SOL    HW1 3095   5.129   1.314   3.651
  732SOL    HW2 3096   5.130   1.457   3.729
  733SOL     OW 3097   6.058   6.726   3.193
  733SOL    HW1 3098   5.974   6.674   3.206
  733SOL    HW2 3099   6.065   6.797   3.263
  734SOL     OW 3100   5.409   6.229   2.624
  734SOL    HW1 3101   5.340   6.194   2.560
  734SOL    HW2 3102   5.494   6.178   2.612
  735SOL     OW 3103   4.987   1.209   1.992
  735SOL    HW1 3104   4.918   1.225   2.062
  735SOL    HW2 3105   5.077   1.235   2.028
  736SOL     OW 3106   0.953   1.242   4.383
  736SOL    HW1 3107   1.012   1.319   4.409
  736SOL    HW2 3108   1.005   1.179   4.325
  737SOL     OW 3109   5.505   1.013   6.295
  737SOL    HW1 3110   5.590   1.033   6.344
  737SOL    HW2 3111   5.464   1.099   6.264
  738SOL     OW 3112   2.688   4.227   1.274
  738SOL    HW1 3113   2.786   4.218   1.291
  738SOL    HW2 3114   2.674   4.268   1.184
  739SOL     OW 3115   2.894   6.779   4.985
  739SOL    HW1 3116   2.860   6.710   4.920
  739SOL    HW2 3117   2.981   6.816   4.952
  740SOL     OW 3118   5.189   3.144   3.015
  740SOL    HW1 3119   5.124   3.215   3.042
  740SOL    HW2 3120   5.234   3.107   3.096
  741SOL     OW 3121   2.860   0.447   2.816
  741SOL    HW1 3122   2.871   0.541   2.783
  741SOL    HW2 3123   2.942   0.394   2.795
  742SOL     OW 3124   1.795   6.851   1.501
  742SOL    HW1 3125   1.723   6.781   1.496
  742SOL    HW2 3126   1.883   6.806   1.517
  743SOL     OW 3127   0.829   6.392   3.198
  743SOL    HW1 3128   0.893   6.430   3.132
  743SOL    HW2 3129   0.828   6.448   3.281
  744SOL     OW 3130   4.566   2.113   0.338
  744SOL    HW1 3131   4.640   2.068   0.289
  744SOL    HW2 3132   4.488   2.050   0.346
  745SOL     OW 3133   3.057   6.497   5.044
  745SOL    HW1 3134   3.124   6.434   5.083
  745SOL    HW2 3135   3.014   6.456   4.964
  746SOL     OW 3136   6.392   4.248   5.490
  746SOL    HW1 3137   6.355   4.206   5.407
  746SOL    HW2 3138   6.339   4.330   5.512
  747SOL     OW 3139   5.269   5.861   3.047
  747SOL    HW1 3140   5.231   5.772   3.072
  747SOL    HW2 3141   5.319   5.899   3.125
  748SOL     OW 3142   5.707   5.386   2.179
  748SOL    HW1 3143   5.720   5.337   2.092
  748SOL    HW2 3144   5.624   5.442   2.173
  749SOL     OW 3145   4.894   3.711   3.478
  749SOL    HW1 3146   4.839   3.793   3.465
  749SOL    HW2 3147   4.940   3.688   3.392
  750SOL     OW 3148   2.322   2.137   1.671
  750SOL    HW1 3149   2.249   2.174   1.613
  750SOL    HW2 3150   2.291   2.136   1.766
  751SOL     OW 3151   4.817   0.352   7.001
  751SOL    HW1 3152   4.883   0.427   6.996
  751SOL    HW2 3153   4.725   0.390   7.011
  752SOL     OW 3154   3.491   2.521   5.441
  752SOL    HW1 3155   3.445   2.449   5.493
  752SOL    HW2 3156   3.427   2.563   5.377
  753SOL     OW 3157   4.013   3.794   4.878
  753SOL    HW1 3158   4.096   3.740   4.861
  753SOL    HW2 3159   3.987   3.840   4.793
  754SOL     OW 3160   5.670   0.505   6.770
  754SOL    HW1 3161   5.658   0.424   6.828
  754SOL    HW2 3162   5.705   0.580   6.826
  755SOL     OW 3163   4.105   4.597   5.358
  755SOL    HW1 3164   4.152   4.509   5.355
  755SOL    HW2 3165   4.066   4.611   5.449
  756SOL     OW 3166   2.276   4.846   5.854
  756SOL    HW1 3167   2.332   4.832   5.772
  756SOL    HW2 3168   2.318   4.798   5.931
  757SOL     OW 3169   2.757   6.852   2.437
  757SOL    HW1 3170   2.751   6.770   2.380
  757SOL    HW2 3171   2.671   6.865   2.486
  758SOL     OW 3172   3.193   1.544   3.908
  758SOL    HW1 3173   3.129   1.581   3.975
  758SOL    HW2 3174   3.285   1.578   3.927
  759SOL     OW 3175   0.671   3.024   4.290
  759SOL    HW1 3176   0.629   3.114   4.300
  759SOL    HW2 3177   0.604   2.959   4.256
  760SOL     OW 3178   6.739   5.899   3.640
  760SOL    HW1 3179   6.681   5.978   3.656
  760SOL    HW2 3180   6.825   5.928   3.597
  761SOL     OW 3181   4.740   3.452   5.812
  761SOL    HW1 3182   4.675   3.460   5.736
  761SOL    HW2 3183   4.729   3.529   5.874
  762SOL     OW 3184   3.376   5.679   4.629
  762SOL    HW1 3185   3.353   5.582   4.619
  762SOL    HW2 3186   3.324   5.732   4.561
  763SOL     OW 3187   5.711   0.589   0.087
  763SOL    HW1 3188   5.683   0.657   0.019
  763SOL    HW2 3189   5.803   0.611   0.119
  764SOL     OW 3190   5.332   0.116   5.304
  764SOL    HW1 3191   5.421   0.099   5.346
  764SOL    HW2 3192   5.265   0.052   5.341
  765SOL     OW 3193   0.076   6.639   1.126
  765SOL    HW1 3194   0.010   6.705   1.163
  765SOL    HW2 3195   0.046   6.610   1.035
  766SOL     OW 3196   1.844   2.129   5.465
  766SOL    HW1 3197   1.907   2.155   5.392
  766SOL    HW2 3198   1.893   2.120   5.551
  767SOL     OW 3199   0.650   6.345   4.719
  767SOL    HW1 3200   0.663   6.262   4.774
  767SOL    HW2 3201   0.651   6.322   4.622
  768SOL     OW 3202   2.302   5.328   2.007
  768SOL    HW1 3203   2.229   5.317   1.939
  768SOL    HW2 3204   2.374   5.261   1.989
  769SOL     OW 3205   2.872   2.247   4.940
  769SOL    HW1 3206   2.832   2.221   5.028
  769SOL    HW2 3207   2.967   2.275   4.953
  770SOL     OW 3208   1.820   4.700   4.991
  770SOL    HW1 3209   1.750   4.743   5.048
  770SOL    HW2 3210   1.904   4.689   5.045
  771SOL     OW 3211   1.064   6.019   3.242
  771SOL    HW1 3212   1.075   6.095   3.178
  771SOL    HW2 3213   1.125   6.032   3.320
  772SOL     OW 3214   5.698   4.449   0.659
  772SOL    HW1 3215   5.652   4.538   0.653
  772SOL    HW2 3216   5.629   4.378   0.673
  773SOL     OW 3217   0.329   3.980   3.547
  773SOL    HW1 3218   0.250   4.012   3.495
  773SOL    HW2 3219   0.306   3.892   3.590
  774SOL     OW 3220   2.385   0.532   2.908
  774SOL    HW1 3221   2.335   0.607   2.865
  774SOL    HW2 3222   2.365   0.530   3.005
  775SOL     OW 3223   2.083   4.439   3.377
  775SOL    HW1 3224   2.074   4.453   3.475
  775SOL    HW2 3225   2.105   4.526   3.333
  776SOL     OW 3226   2.508   5.268   6.826
  776SOL    HW1 3227   2.530   5.343   6.764
  776SOL    HW2 3228   2.464   5.194   6.775
  777SOL     OW 3229   1.975   3.798   0.489
  777SOL    HW1 3230   1.915   3.872   0.457
  777SOL    HW2 3231   1.954   3.714   0.439
  778SOL     OW 3232   2.922   0.054   1.167
  778SOL    HW1 3233   2.924   0.117   1.245
  778SOL    HW2 3234   2.891   6.981   1.197
  779SOL     OW 3235   0.315   2.224   3.686
  779SOL    HW1 3236   0.347   2.255   3.597
  779SOL    HW2 3237   0.283   2.302   3.740
  780SOL     OW 3238   1.059   1.501   4.403
  780SOL    HW1 3239   1.017   1.559   4.333
  780SOL    HW2 3240   1.037   1.538   4.493
  781SOL     OW 3241   1.081   4.378   0.759
  781SOL    HW1 3242   1.060   4.475   0.774
  781SOL    HW2 3243   1.007   4.336   0.707
  782SOL     OW 3244   2.134   3.546   5.267
  782SOL    HW1 3245   2.137   3.618   5.198
  782SOL    HW2 3246   2.046   3.550   5.315
  783SOL     OW 3247   6.060   4.995   6.623
  783SOL    HW1 3248   5.989   4.929   6.652
  783SOL    HW2 3249   6.139   4.945   6.588
  784SOL     OW 3250   3.064   6.508   0.475
  784SOL    HW1 3251   3.057   6.548   0.384
  784SOL    HW2 3252   3.156   6.471   0.489
  785SOL     OW 3253   1.592   6.783   4.852
  785SOL    HW1 3254   1.586   6.734   4.939
  785SOL    HW2 3255   1.509   6.838   4.840
  786SOL     OW 3256   6.933   1.387   3.390
  786SOL    HW1 3257   6.979   1.389   3.301
  786SOL    HW2 3258   6.984   1.327   3.452
  787SOL     OW 3259   2.873   0.712   0.663
  787SOL    HW1 3260   2.807   0.672   0.727
  787SOL    HW2 3261   2.836   0.797   0.625
  788SOL     OW 3262   3.425   2.641   1.219
  788SOL    HW1 3263   3.464   2.725   1.181
  788SOL    HW2 3264   3.450   2.633   1.316
  789SOL     OW 3265   4.169   5.227   1.479
  789SOL    HW1 3266   4.203   5.292   1.411
  789SOL    HW2 3267   4.241   5.208   1.546
  790SOL     OW 3268   0.938   2.312   2.843
  790SOL    HW1 3269   0.952   2.369   2.924
  790SOL    HW2 3270   0.940   2.369   2.761
  791SOL     OW 3271   3.246   5.246   4.997
  791SOL    HW1 3272   3.288   5.175   4.941
  791SOL    HW2 3273   3.223   5.209   5.087
  792SOL     OW 3274   1.291   0.807   1.106
  792SOL    HW1 3275   1.273   0.773   1.014
  792SOL    HW2 3276   1.299   0.730   1.169
  793SOL     OW 3277   3.279   5.850   4.270
  793SOL    HW1 3278   3.331   5.935   4.256
  793SOL    HW2 3279   3.330   5.774   4.230
  794SOL     OW 3280   3.423   3.595   3.340
  794SOL    HW1 3281   3.505   3.650   3.323
  794SOL    HW2 3282   3.449   3.511   3.388
  795SOL     OW 3283   3.673   6.953   6.454
  795SOL    HW1 3284   3.673   0.003   6.380
  795SOL    HW2 3285   3.582   6.949   6.495
  796SOL     OW 3286   0.886   3.009   6.910
  796SOL    HW1 3287   0.876   2.987   7.007
  796SOL    HW2 3288   0.807   2.975   6.859
  797SOL     OW 3289   5.424   6.565   0.899
  797SOL    HW1 3290   5.480   6.624   0.958
  797SOL    HW2 3291   5.377   6.496   0.955
  798SOL     OW 3292   3.840   6.394   0.896
  798SOL    HW1 3293   3.890   6.446   0.965
  798SOL    HW2 3294   3.770   6.453   0.854
  799SOL     OW 3295   1.258   2.261   5.886
  799SOL    HW1 3296   1.305   2.345   5.912
  799SOL    HW2 3297   1.296   2.184   5.937
  800SOL     OW 3298   5.989   2.617   1.889
  800SOL    HW1 3299   6.015   2.678   1.963
  800SOL    HW2 3300   5.893   2.632   1.866
  801SOL     OW 3301   2.027   5.298   5.812
  801SOL    HW1 3302   1.944   5.297   5.756
  801SOL    HW2 3303   2.029   5.381   5.867
  802SOL     OW 3304   5.772   2.821   6.831
  802SOL    HW1 3305   5.704   2.788   6.766
  802SOL    HW2 3306   5.808   2.743   6.883
  803SOL     OW 3307   2.753   1.439   5.264
  803SOL    HW1 3308   2.712   1.530   5.269
  803SOL    HW2 3309   2.833   1.442   5.204
  804SOL     OW 3310   6.201   0.990   2.418
  804SOL    HW1 3311   6.296   0.962   2.431
  804SOL    HW2 3312   6.160   1.011   2.506
  805SOL     OW 3313   3.762   0.433   3.612
  805SOL    HW1 3314   3.819   0.420   3.694
  805SOL    HW2 3315   3.667   0.447   3.640
  806SOL     OW 3316   2.073   6.090   5.765
  806SOL    HW1 3317   2.135   6.033   5.712
  806SOL    HW2 3318   1.979   6.071   5.739
  807SOL     OW 3319   0.674   6.177   5.815
  807SOL    HW1 3320   0.640   6.220   5.899
  807SOL    HW2 3321   0.615   6.202   5.738
  808SOL     OW 3322   5.343   2.748   6.845
  808SOL    HW1 3323   5.253   2.708   6.826
  808SOL    HW2 3324   5.406   2.724   6.771
  809SOL     OW 3325   2.088   4.388   0.279
  809SOL    HW1 3326   2.015   4.381   0.212
  809SOL    HW2 3327   2.154   4.314   0.265
  810SOL     OW 3328   3.929   3.354   0.020
  810SOL    HW1 3329   4.008   3.357   0.081
  810SOL    HW2 3330   3.947   3.291   6.962
  811SOL     OW 3331   5.194   5.040   4.431
  811SOL    HW1 3332   5.271   5.022   4.492
  811SOL    HW2 3333   5.192   5.137   4.407
  812SOL     OW 3334   0.262   2.986   1.855
  812SOL    HW1 3335   0.362   2.992   1.851
  812SOL    HW2 3336   0.222   3.068   1.814
  813SOL     OW 3337   0.927   1.904   4.366
  813SOL    HW1 3338   0.956   1.823   4.315
  813SOL    HW2 3339   0.949   1.986   4.313
  814SOL     OW 3340   0.991   5.215   3.152
  814SOL    HW1 3341   1.025   5.309   3.148
  814SOL    HW2 3342   0.937   5.202   3.235
  815SOL     OW 3343   4.540   1.505   3.895
  815SOL    HW1 3344   4.624   1.492   3.947
  815SOL    HW2 3345   4.489   1.584   3.931
  816SOL     OW 3346   5.667   4.859   6.597
  816SOL    HW1 3347   5.636   4.933   6.656
  816SOL    HW2 3348   5.619   4.774   6.621
  817SOL     OW 3349   0.749   4.499   6.924
  817SOL    HW1 3350   0.740   4.406   6.961
  817SOL    HW2 3351   0.836   4.506   6.875
  818SOL     OW 3352   6.205   3.014   4.517
  818SOL    HW1 3353   6.180   2.952   4.592
  818SOL    HW2 3354   6.304   3.012   4.504
  819SOL     OW 3355   5.402   2.847   2.194
  819SOL    HW1 3356   5.409   2.901   2.111
  819SOL    HW2 3357   5.361   2.758   2.172
  820SOL     OW 3358   2.051   2.236   5.052
  820SOL    HW1 3359   2.099   2.156   5.090
  820SOL    HW2 3360   2.092   2.261   4.964
  821SOL     OW 3361   6.060   3.574   5.719
  821SOL    HW1 3362   6.071   3.504   5.648
  821SOL    HW2 3363   5.965   3.606   5.719
  822SOL     OW 3364   0.890   4.065   3.341
  822SOL    HW1 3365   0.850   3.995   3.282
  822SOL    HW2 3366   0.818   4.114   3.389
  823SOL     OW 3367   0.799   4.221   5.285
  823SOL    HW1 3368   0.713   4.222   5.233
  823SOL    HW2 3369   0.799   4.145   5.349
  824SOL     OW 3370   5.785   1.868   5.476
  824SOL    HW1 3371   5.747   1.956   5.448
  824SOL    HW2 3372   5.740   1.837   5.560
  825SOL     OW 3373   6.648   5.714   0.993
  825SOL    HW1 3374   6.739   5.747   0.969
  825SOL    HW2 3375   6.585   5.731   0.917
  826SOL     OW 3376   3.484   1.058   5.765
  826SOL    HW1 3377   3.418   1.132   5.754
  826SOL    HW2 3378   3.577   1.094   5.755
  827SOL     OW 3379   3.686   4.159   4.616
  827SOL    HW1 3380   3.680   4.130   4.521
  827SOL    HW2 3381   3.607   4.123   4.667
  828SOL     OW 3382   6.530   5.979   5.363
  828SOL    HW1 3383   6.443   5.954   5.406
  828SOL    HW2 3384   6.568   5.899   5.315
  829SOL     OW 3385   3.144   3.007   2.649
  829SOL    HW1 3386   3.068   3.049   2.599
  829SOL    HW2 3387   3.137   2.907   2.643
  830SOL     OW 3388   6.476   4.331   0.079
  830SOL    HW1 3389   6.532   4.376   0.148
  830SOL    HW2 3390   6.456   4.396   0.005
  831SOL     OW 3391   4.969   6.431   1.435
  831SOL    HW1 3392   4.980   6.338   1.399
  831SOL    HW2 3393   4.942   6.492   1.360
  832SOL     OW 3394   3.238   2.076   4.568
  832SOL    HW1 3395   3.325   2.098   4.612
  832SOL    HW2 3396   3.173   2.042   4.636
  833SOL     OW 3397   2.408   2.995   6.671
  833SOL    HW1 3398   2.477   2.923   6.668
  833SOL    HW2 3399   2.326   2.961   6.716
  834SOL     OW 3400   5.308   3.475   0.202
  834SOL    HW1 3401   5.368   3.410   0.156
  834SOL    HW2 3402   5.331   3.479   0.299
  835SOL     OW 3403   0.577   6.819   4.305
  835SOL    HW1 3404   0.642   6.882   4.347
  835SOL    HW2 3405   0.520   6.779   4.376
  836SOL     OW 3406   3.665   1.544   4.554
  836SOL    HW1 3407   3.749   1.507   4.594
  836SOL    HW2 3408   3.674   1.549   4.455
  837SOL     OW 3409   1.622   0.737   0.627
  837SOL    HW1 3410   1.650   0.813   0.568
  837SOL    HW2 3411   1.576   0.773   0.708
  838SOL     OW 3412   2.030   5.789   3.071
  838SOL    HW1 3413   1.939   5.776   3.032
  838SOL    HW2 3414   2.021   5.818   3.167
  839SOL     OW 3415   1.327   2.153   0.337
  839SOL    HW1 3416   1.238   2.192   0.361
  839SOL    HW2 3417   1.349   2.177   0.242
  840SOL     OW 3418   4.943   5.491   6.900
  840SOL    HW1 3419   5.004   5.496   6.821
  840SOL    HW2 3420   4.906   5.398   6.908
  841SOL     OW 3421   3.847   4.515   6.304
  841SOL    HW1 3422   3.790   4.453   6.250
  841SOL    HW2 3423   3.831   4.499   6.401
  842SOL     OW 3424   3.146   6.771   6.671
  842SOL    HW1 3425   3.180   6.783   6.765
  842SOL    HW2 3426   3.152   6.858   6.622
  843SOL     OW 3427   1.444   1.140   2.323
  843SOL    HW1 3428   1.399   1.139   2.234
  843SOL    HW2 3429   1.531   1.188   2.317
  844SOL     OW 3430   5.753   0.581   1.334
  844SOL    HW1 3431   5.721   0.497   1.378
  844SOL    HW2 3432   5.708   0.591   1.245
  845SOL     OW 3433   3.630   1.553   2.382
  845SOL    HW1 3434   3.645   1.456   2.401
  845SOL    HW2 3435   3.696   1.584   2.314
  846SOL     OW 3436   2.716   2.418   0.048
  846SOL    HW1 3437   2.717   2.401   6.967
  846SOL    HW2 3438   2.810   2.422   0.082
  847SOL     OW 3439   2.392   4.708   1.677
  847SOL    HW1 3440   2.475   4.661   1.708
  847SOL    HW2 3441   2.314   4.645   1.683
  848SOL     OW 3442   6.825   5.599   6.725
  848SOL    HW1 3443   6.881   5.635   6.800
  848SOL    HW2 3444   6.883   5.553   6.658
  849SOL     OW 3445   6.164   3.476   0.013
  849SOL    HW1 3446   6.085   3.510   0.065
  849SOL    HW2 3447   6.233   3.549   0.006
  850SOL     OW 3448   0.715   0.573   5.455
  850SOL    HW1 3449   0.723   0.506   5.528
  850SOL    HW2 3450   0.648   0.643   5.481
  851SOL     OW 3451   6.496   3.213   5.964
  851SOL    HW1 3452   6.527   3.295   6.012
  851SOL    HW2 3453   6.508   3.133   6.023
  852SOL     OW 3454   0.813   4.159   2.207
  852SOL    HW1 3455   0.780   4.206   2.125
  852SOL    HW2 3456   0.899   4.112   2.187
  853SOL     OW 3457   2.692   3.688   7.006
  853SOL    HW1 3458   2.628   3.629   6.956
  853SOL    HW2 3459   2.662   3.699   0.083
  854SOL     OW 3460   5.452   6.498   6.372
  854SOL    HW1 3461   5.430   6.504   6.275
  854SOL    HW2 3462   5.540   6.541   6.389
  855SOL     OW 3463   6.116   1.056   0.308
  855SOL    HW1 3464   6.058   0.993   0.361
  855SOL    HW2 3465   6.179   1.003   0.252
  856SOL     OW 3466   2.040   6.055   0.478
  856SOL    HW1 3467   2.068   5.970   0.523
  856SOL    HW2 3468   2.049   6.045   0.379
  857SOL     OW 3469   6.009   4.923   5.462
  857SOL    HW1 3470   5.913   4.952   5.467
  857SOL    HW2 3471   6.051   4.933   5.552
  858SOL     OW 3472   3.982   3.646   0.284
  858SOL    HW1 3473   4.036   3.586   0.225
  858SOL    HW2 3474   4.025   3.736   0.288
  859SOL     OW 3475   4.235   6.443   5.696
  859SOL    HW1 3476   4.189   6.383   5.762
  859SOL    HW2 3477   4.167   6.489   5.639
  860SOL     OW 3478   5.479   3.547   5.822
  860SOL    HW1 3479   5.408   3.496   5.773
  860SOL    HW2 3480   5.437   3.595   5.900
  861SOL     OW 3481   2.596   6.261   2.487
  861SOL    HW1 3482   2.567   6.352   2.457
  861SOL    HW2 3483   2.693   6.262   2.508
  862SOL     OW 3484   1.296   4.570   3.680
  862SOL    HW1 3485   1.221   4.603   3.737
  862SOL    HW2 3486   1.283   4.605   3.587
  863SOL     OW 3487   0.022   0.592   6.799
  863SOL    HW1 3488   6.993   0.681   6.805
  863SOL    HW2 3489   0.117   0.606   6.773
  864SOL     OW 3490   5.839   0.367   4.833
  864SOL    HW1 3491   5.905   0.407   4.896
  864SOL    HW2 3492   5.867   0.385   4.738
  865SOL     OW 3493   1.931   6.270   4.351
  865SOL    HW1 3494   2.017   6.222   4.369
  865SOL    HW2 3495   1.884   6.288   4.438
  866SOL     OW 3496   3.257   6.325   2.142
  866SOL    HW1 3497   3.241   6.231   2.113
  866SOL    HW2 3498   3.347   6.333   2.184
  867SOL     OW 3499   6.193   2.086   0.111
  867SOL    HW1 3500   6.125   2.018   0.085
  867SOL    HW2 3501   6.164   2.176   0.078
  868SOL     OW 3502   0.319   1.864   2.448
  868SOL    HW1 3503   0.247   1.851   2.517
  868SOL    HW2 3504   0.312   1.957   2.410
  869SOL     OW 3505   6.771   3.991   3.179
  869SOL    HW1 3506   6.676   4.014   3.200
  869SOL    HW2 3507   6.824   4.076   3.167
  870SOL     OW 3508   3.540   5.257   1.886
  870SOL    HW1 3509   3.591   5.322   1.943
  870SOL    HW2 3510   3.459   5.225   1.936
  871SOL     OW 3511   4.443   1.818   3.636
  871SOL    HW1 3512   4.413   1.894   3.695
  871SOL    HW2 3513   4.371   1.748   3.633
  872SOL     OW 3514   6.851   3.346   4.811
  872SOL    HW1 3515   6.828   3.366   4.716
  872SOL    HW2 3516   6.817   3.418   4.870
  873SOL     OW 3517   4.772   6.383   6.263
  873SOL    HW1 3518   4.737   6.476   6.272
  873SOL    HW2 3519   4.871   6.386   6.255
  874SOL     OW 3520   5.012   4.446   0.573
  874SOL    HW1 3521   5.053   4.408   0.655
  874SOL    HW2 3522   4.926   4.399   0.553
  875SOL     OW 3523   4.917   5.281   0.702
  875SOL    HW1 3524   4.911   5.292   0.603
  875SOL    HW2 3525   5.012   5.294   0.731
  876SOL     OW 3526   0.049   6.478   1.381
  876SOL    HW1 3527   0.080   6.383   1.375
  876SOL    HW2 3528   0.078   6.529   1.300
  877SOL     OW 3529   2.787   3.900   6.829
  877SOL    HW1 3530   2.792   3.823   6.765
  877SOL    HW2 3531   2.748   3.869   6.916
  878SOL     OW 3532   4.065   6.701   4.394
  878SOL    HW1 3533   4.142   6.668   4.449
  878SOL    HW2 3534   3.990   6.729   4.455
  879SOL     OW 3535   5.813   0.674   0.802
  879SOL    HW1 3536   5.786   0.742   0.870
  879SOL    HW2 3537   5.897   0.629   0.832
  880SOL     OW 3538   2.964   3.767   2.535
  880SOL    HW1 3539   2.904   3.693   2.567
  880SOL    HW2 3540   3.001   3.816   2.614
  881SOL     OW 3541   4.477   1.839   6.419
  881SOL    HW1 3542   4.391   1.863   6.374
  881SOL    HW2 3543   4.554   1.871   6.362
  882SOL     OW 3544   0.867   3.437   4.476
  882SOL    HW1 3545   0.955   3.466   4.438
  882SOL    HW2 3546   0.872   3.342   4.505
  883SOL     OW 3547   2.675   0.167   2.620
  883SOL    HW1 3548   2.696   0.161   2.717
  883SOL    HW2 3549   2.613   0.092   2.594
  884SOL     OW 3550   4.645   2.726   4.955
  884SOL    HW1 3551   4.664   2.769   5.043
  884SOL    HW2 3552   4.709   2.650   4.941
  885SOL     OW 3553   3.382   1.794   6.431
  885SOL    HW1 3554   3.433   1.829   6.353
  885SOL    HW2 3555   3.285   1.819   6.421
  886SOL     OW 3556   3.544   0.439   0.079
  886SOL    HW1 3557   3.556   0.404   7.003
  886SOL    HW2 3558   3.572   0.534   0.084
  887SOL     OW 3559   4.426   0.770   4.091
  887SOL    HW1 3560   4.441   0.798   4.186
  887SOL    HW2 3561   4.396   0.675   4.088
  888SOL     OW 3562   0.206   0.421   3.307
  888SOL    HW1 3563   0.174   0.457   3.220
  888SOL    HW2 3564   0.297   0.382   3.296
  889SOL     OW 3565   0.740   3.785   0.006
  889SOL    HW1 3566   0.769   3.803   0.100
  889SOL    HW2 3567   0.750   3.687   7.003
  890SOL     OW 3568   2.269   6.015   3.854
  890SOL    HW1 3569   2.339   5.949   3.881
  890SOL    HW2 3570   2.230   5.988   3.767
  891SOL     OW 3571   5.738   5.959   0.779
  891SOL    HW1 3572   5.652   5.962   0.727
  891SOL    HW2 3573   5.792   6.040   0.758
  892SOL     OW 3574   2.733   3.911   5.912
  892SOL    HW1 3575   2.819   3.859   5.914
  892SOL    HW2 3576   2.751   4.003   5.876
  893SOL     OW 3577   2.788   6.602   2.613
  893SOL    HW1 3578   2.850   6.559   2.548
  893SOL    HW2 3579   2.791   6.701   2.602
  894SOL     OW 3580   1.563   4.177   1.755
  894SOL    HW1 3581   1.467   4.151   1.763
  894SOL    HW2 3582   1.616   4.098   1.724
  895SOL     OW 3583   0.427   6.128   3.608
  895SOL    HW1 3584   0.429   6.210   3.551
  895SOL    HW2 3585   0.510   6.123   3.663
  896SOL     OW 3586   6.261   6.253   6.056
  896SOL    HW1 3587   6.351   6.293   6.039
  896SOL    HW2 3588   6.201   6.320   6.099
  897SOL     OW 3589   5.465   0.789   6.517
  897SOL    HW1 3590   5.470   0.774   6.418
  897SOL    HW2 3591   5.555   0.773   6.558
  898SOL     OW 3592   3.528   5.627   2.777
  898SOL    HW1 3593   3.461   5.611   2.851
  898SOL    HW2 3594   3.564   5.539   2.746
  899SOL     OW 3595   0.317   4.961   6.147
  899SOL    HW1 3596   0.287   5.055   6.161
  899SOL    HW2 3597   0.270   4.901   6.210
  900SOL     OW 3598   5.791   0.131   0.683
  900SOL    HW1 3599   5.847   0.142   0.601
  900SOL    HW2 3600   5.694   0.143   0.660
  901SOL     OW 3601   1.872   1.018   2.296
  901SOL    HW1 3602   1.917   1.023   2.385
  901SOL    HW2 3603   1.846   0.923   2.277
  902SOL     OW 3604   6.261   4.297   1.289
  902SOL    HW1 3605   6.242   4.214   1.341
  902SOL    HW2 3606   6.248   4.377   1.347
  903SOL     OW 3607   6.772   1.773   0.309
  903SOL    HW1 3608   6.710   1.845   0.338
  903SOL    HW2 3609   6.847   1.765   0.374
  904SOL     OW 3610   3.221   2.131   3.658
  904SOL    HW1 3611   3.173   2.062   3.603
  904SOL    HW2 3612   3.211   2.110   3.755
  905SOL     OW 3613   6.052   2.667   0.238
  905SOL    HW1 3614   6.086   2.680   0.145
  905SOL    HW2 3615   6.031   2.570   0.253
  906SOL     OW 3616   0.248   2.972   5.351
  906SOL    HW1 3617   0.330   2.935   5.395
  906SOL    HW2 3618   0.223   3.059   5.394
  907SOL     OW 3619   4.811   3.318   6.981
  907SOL    HW1 3620   4.904   3.348   6.960
  907SOL    HW2 3621   4.756   3.398   7.005
  908SOL     OW 3622   2.664   4.742   2.068
  908SOL    HW1 3623   2.623   4.707   2.152
  908SOL    HW2 3624   2.704   4.666   2.017
  909SOL     OW 3625   4.935   4.987   6.313
  909SOL    HW1 3626   4.967   5.015   6.404
  909SOL    HW2 3627   4.836   5.002   6.307
  910SOL     OW 3628   2.827   2.982   1.651
  910SOL    HW1 3629   2.727   2.986   1.655
  910SOL    HW2 3630   2.857   2.888   1.665
  911SOL     OW 3631   1.686   5.381   6.218
  911SOL    HW1 3632   1.735   5.329   6.148
  911SOL    HW2 3633   1.647   5.464   6.177
  912SOL     OW 3634   4.847   2.388   3.659
  912SOL    HW1 3635   4.770   2.452   3.668
  912SOL    HW2 3636   4.847   2.325   3.736
  913SOL     OW 3637   5.295   7.016   3.111
  913SOL    HW1 3638   5.325   6.945   3.047
  913SOL    HW2 3639   5.370   0.024   3.171
  914SOL     OW 3640   2.642   0.194   6.782
  914SOL    HW1 3641   2.612   0.181   6.687
  914SOL    HW2 3642   2.689   0.112   6.814
  915SOL     OW 3643   6.188   6.045   0.834
  915SOL    HW1 3644   6.155   5.953   0.858
  915SOL    HW2 3645   6.239   6.040   0.748
  916SOL     OW 3646   0.771   2.300   2.307
  916SOL    HW1 3647   0.762   2.231   2.379
  916SOL    HW2 3648   0.744   2.389   2.343
  917SOL     OW 3649   0.183   0.075   0.705
  917SOL    HW1 3650   0.203   0.142   0.776
  917SOL    HW2 3651   0.127   0.118   0.634
  918SOL     OW 3652   1.678   6.097   0.960
  918SOL    HW1 3653   1.765   6.127   0.922
  918SOL    HW2 3654   1.619   6.176   0.977
  919SOL     OW 3655   5.990   1.719   3.731
  919SOL    HW1 3656   5.907   1.744   3.681
  919SOL    HW2 3657   6.044   1.654   3.676
  920SOL     OW 3658   2.664   5.005   2.156
  920SOL    HW1 3659   2.570   5.018   2.185
  920SOL    HW2 3660   2.671   4.922   2.100
  921SOL     OW 3661   4.937   5.813   4.570
  921SOL    HW1 3662   4.879   5.740   4.605
  921SOL    HW2 3663   4.915   5.831   4.474
  922SOL     OW 3664   3.996   3.559   3.809
  922SOL    HW1 3665   3.979   3.465   3.840
  922SOL    HW2 3666   3.972   3.623   3.881
  923SOL     OW 3667   2.228   3.203   5.642
  923SOL    HW1 3668   2.303   3.152   5.602
  923SOL    HW2 3669   2.197   3.273   5.577
  924SOL     OW 3670   6.959   3.623   2.456
  924SOL    HW1 3671   6.917   3.713   2.447
  924SOL    HW2 3672   6.986   3.608   2.551
  925SOL     OW 3673   5.886   1.682   0.378
  925SOL    HW1 3674   5.893   1.656   0.475
  925SOL    HW2 3675   5.818   1.755   0.368
  926SOL     OW 3676   0.702   1.227   1.933
  926SOL    HW1 3677   0.656   1.141   1.956
  926SOL    HW2 3678   0.698   1.242   1.834
  927SOL     OW 3679   5.537   4.172   3.651
  927SOL    HW1 3680   5.474   4.207   3.720
  927SOL    HW2 3681   5.580   4.248   3.603
  928SOL     OW 3682   2.967   5.838   6.820
  928SOL    HW1 3683   2.885   5.782   6.810
  928SOL    HW2 3684   3.011   5.850   6.730
  929SOL     OW 3685   6.638   1.394   5.531
  929SOL    HW1 3686   6.568   1.428   5.593
  929SOL    HW2 3687   6.602   1.314   5.481
  930SOL     OW 3688   5.194   4.982   6.472
  930SOL    HW1 3689   5.151   5.057   6.421
  930SOL    HW2 3690   5.259   4.935   6.413
  931SOL     OW 3691   6.365   2.502   3.399
  931SOL    HW1 3692   6.450   2.502   3.347
  931SOL    HW2 3693   6.288   2.520   3.338
  932SOL     OW 3694   3.547   0.596   3.899
  932SOL    HW1 3695   3.544   0.693   3.875
  932SOL    HW2 3696   3.637   0.574   3.936
  933SOL     OW 3697   1.173   4.866   2.769
  933SOL    HW1 3698   1.100   4.879   2.702
  933SOL    HW2 3699   1.175   4.943   2.833
  934SOL     OW 3700   1.763   4.742   6.560
  934SOL    HW1 3701   1.754   4.674   6.634
  934SOL    HW2 3702   1.782   4.694   6.474
  935SOL     OW 3703   5.328   3.441   3.405
  935SOL    HW1 3704   5.256   3.465   3.470
  935SOL    HW2 3705   5.374   3.524   3.374
  936SOL     OW 3706   1.513   0.253   6.486
  936SOL    HW1 3707   1.469   0.217   6.568
  936SOL    HW2 3708   1.589   0.314   6.512
  937SOL     OW 3709   5.175   1.310   5.466
  937SOL    HW1 3710   5.230   1.297   5.548
  937SOL    HW2 3711   5.198   1.240   5.399
  938SOL     OW 3712   5.832   5.428   4.204
  938SOL    HW1 3713   5.807   5.404   4.110
  938SOL    HW2 3714   5.753   5.417   4.264
  939SOL     OW 3715   0.198   0.096   5.222
  939SOL    HW1 3716   0.123   0.155   5.194
  939SOL    HW2 3717   0.162   0.005   5.243
  940SOL     OW 3718   2.097   4.880   0.500
  940SOL    HW1 3719   2.137   4.801   0.546
  940SOL    HW2 3720   1.999   4.885   0.521
  941SOL     OW 3721   3.638   0.377   6.374
  941SOL    HW1 3722   3.577   0.303   6.347
  941SOL    HW2 3723   3.727   0.365   6.329
  942SOL     OW 3724   0.436   5.410   0.832
  942SOL    HW1 3725   0.363   5.476   0.851
  942SOL    HW2 3726   0.396   5.319   0.816
  943SOL     OW 3727   3.014   4.990   3.040
  943SOL    HW1 3728   2.991   4.983   2.943
  943SOL    HW2 3729   2.998   5.083   3.071
  944SOL     OW 3730   0.806   6.661   4.411
  944SOL    HW1 3731   0.714   6.644   4.377
  944SOL    HW2 3732   0.819   6.760   4.423
  945SOL     OW 3733   0.753   5.541   6.376
  945SOL    HW1 3734   0.838   5.591   6.360
  945SOL    HW2 3735   0.760   5.449   6.337
  946SOL     OW 3736   5.041   3.415   3.792
  946SOL    HW1 3737   4.984   3.478   3.843
  946SOL    HW2 3738   4.991   3.330   3.775
  947SOL     OW 3739   3.933   3.916   4.656
  947SOL    HW1 3740   3.877   3.998   4.663
  947SOL    HW2 3741   3.960   3.902   4.560
  948SOL     OW 3742   4.676   0.990   2.764
  948SOL    HW1 3743   4.711   1.078   2.794
  948SOL    HW2 3744   4.611   0.955   2.831
  949SOL     OW 3745   2.879   6.496   6.924
  949SOL    HW1 3746   2.928   6.457   7.002
  949SOL    HW2 3747   2.884   6.434   6.846
  950SOL     OW 3748   0.275   6.499   2.099
  950SOL    HW1 3749   0.346   6.502   2.168
  950SOL    HW2 3750   0.316   6.499   2.008
  951SOL     OW 3751   2.069   6.589   2.955
  951SOL    HW1 3752   2.112   6.677   2.934
  951SOL    HW2 3753   2.014   6.559   2.878
  952SOL     OW 3754   3.501   1.621   2.054
  952SOL    HW1 3755   3.526   1.598   1.960
  952SOL    HW2 3756   3.414   1.579   2.076
  953SOL     OW 3757   6.123   4.733   5.296
  953SOL    HW1 3758   6.078   4.806   5.347
  953SOL    HW2 3759   6.057   4.687   5.237
  954SOL     OW 3760   4.802   5.933   2.316
  954SOL    HW1 3761   4.733   5.941   2.389
  954SOL    HW2 3762   4.804   6.017   2.263
  955SOL     OW 3763   1.562   4.075   0.424
  955SOL    HW1 3764   1.583   4.168   0.393
  955SOL    HW2 3765   1.465   4.056   0.411
  956SOL     OW 3766   5.998   0.861   1.809
  956SOL    HW1 3767   5.903   0.835   1.825
  956SOL    HW2 3768   6.059   0.795   1.855
  957SOL     OW 3769   6.289   2.595   3.856
  957SOL    HW1 3770   6.268   2.680   3.806
  957SOL    HW2 3771   6.228   2.587   3.934
  958SOL     OW 3772   5.181   0.203   1.852
  958SOL    HW1 3773   5.143   0.286   1.894
  958SOL    HW2 3774   5.224   0.227   1.765
  959SOL     OW 3775   3.774   6.333   4.271
  959SOL    HW1 3776   3.748   6.282   4.352
  959SOL    HW2 3777   3.766   6.274   4.190
  960SOL     OW 3778   0.937   0.501   6.914
  960SOL    HW1 3779   0.890   0.445   6.846
  960SOL    HW2 3780   0.965   0.443   6.991
  961SOL     OW 3781   3.871   7.003   2.583
  961SOL    HW1 3782   3.811   0.040   2.525
  961SOL    HW2 3783   3.902   0.040   2.661
  962SOL     OW 3784   6.647   0.178   4.738
  962SOL    HW1 3785   6.736   0.158   4.696
  962SOL    HW2 3786   6.578   0.191   4.667
  963SOL     OW 3787   4.956   2.835   0.750
  963SOL    HW1 3788   4.957   2.743   0.790
  963SOL    HW2 3789   4.876   2.885   0.784
  964SOL     OW 3790   4.539   4.339   5.178
  964SOL    HW1 3791   4.601   4.262   5.194
  964SOL    HW2 3792   4.469   4.312   5.112
  965SOL     OW 3793   5.854   2.587   3.911
  965SOL    HW1 3794   5.825   2.673   3.869
  965SOL    HW2 3795   5.791   2.514   3.885
  966SOL     OW 3796   5.213   1.752   4.363
  966SOL    HW1 3797   5.287   1.728   4.300
  966SOL    HW2 3798   5.163   1.832   4.328
  967SOL     OW 3799   5.581   4.096   6.347
  967SOL    HW1 3800   5.627   4.086   6.435
  967SOL    HW2 3801   5.608   4.020   6.287
  968SOL     OW 3802   3.745   0.357   1.965
  968SOL    HW1 3803   3.716   0.427   2.031
  968SOL    HW2 3804   3.845   0.350   1.965
  969SOL     OW 3805   3.371   3.888   5.754
  969SOL    HW1 3806   3.378   3.940   5.668
  969SOL    HW2 3807   3.328   3.945   5.824
  970SOL     OW 3808   5.750   0.580   5.848
  970SOL    HW1 3809   5.847   0.604   5.852
  970SOL    HW2 3810   5.721   0.541   5.935
  971SOL     OW 3811   5.428   4.098   2.911
  971SOL    HW1 3812   5.386   4.141   2.831
  971SOL    HW2 3813   5.362   4.093   2.985
  972SOL     OW 3814   0.167   2.614   0.860
  972SOL    HW1 3815   0.132   2.704   0.836
  972SOL    HW2 3816   0.267   2.616   0.861
  973SOL     OW 3817   6.943   3.430   6.155
  973SOL    HW1 3818   6.959   3.339   6.118
  973SOL    HW2 3819   6.922   3.493   6.080
  974SOL     OW 3820   0.049   5.737   3.875
  974SOL    HW1 3821   0.023   5.691   3.790
  974SOL    HW2 3822   0.141   5.775   3.866
  975SOL     OW 3823   2.721   6.645   2.254
  975SOL    HW1 3824   2.658   6.568   2.263
  975SOL    HW2 3825   2.678   6.717   2.199
  976SOL     OW 3826   6.815   3.838   2.534
  976SOL    HW1 3827   6.866   3.921   2.510
  976SOL    HW2 3828   6.717   3.861   2.541
  977SOL     OW 3829   0.159   0.912   2.588
  977SOL    HW1 3830   0.103   0.990   2.616
  977SOL    HW2 3831   0.207   0.875   2.667
  978SOL     OW 3832   5.551   3.030   2.012
  978SOL    HW1 3833   5.575   3.107   2.071
  978SOL    HW2 3834   5.602   2.949   2.041
  979SOL     OW 3835   0.037   3.895   7.013
  979SOL    HW1 3836   6.973   3.917   6.959
  979SOL    HW2 3837   0.011   3.833   0.070
  980SOL     OW 3838   3.407   1.684   4.797
  980SOL    HW1 3839   3.338   1.728   4.854
  980SOL    HW2 3840   3.389   1.704   4.701
  981SOL     OW 3841   6.449   6.472   5.477
  981SOL    HW1 3842   6.485   6.379   5.490
  981SOL    HW2 3843   6.439   6.490   5.379
  982SOL     OW 3844   6.866   1.242   5.236
  982SOL    HW1 3845   6.798   1.315   5.238
  982SOL    HW2 3846   6.824   1.158   5.204
  983SOL     OW 3847   6.924   4.290   4.266
  983SOL    HW1 3848   6.985   4.295   4.346
  983SOL    HW2 3849   6.835   4.328   4.290
  984SOL     OW 3850   1.352   2.286   2.992
  984SOL    HW1 3851   1.436   2.330   3.025
  984SOL    HW2 3852   1.301   2.351   2.936
  985SOL     OW 3853   6.803   4.078   4.575
  985SOL    HW1 3854   6.850   4.156   4.617
  985SOL    HW2 3855   6.734   4.043   4.637
  986SOL     OW 3856   5.376   4.902   1.410
  986SOL    HW1 3857   5.310   4.868   1.342
  986SOL    HW2 3858   5.409   4.825   1.465
  987SOL     OW 3859   5.405   5.340   3.842
  987SOL    HW1 3860   5.444   5.401   3.774
  987SOL    HW2 3861   5.381   5.253   3.799
  988SOL     OW 3862   2.977   4.245   1.245
  988SOL    HW1 3863   3.032   4.168   1.277
  988SOL    HW2 3864   3.020   4.331   1.271
  989SOL     OW 3865   0.486   1.437   1.294
  989SOL    HW1 3866   0.450   1.384   1.217
  989SOL    HW2 3867   0.423   1.431   1.371
  990SOL     OW 3868   4.029   0.028   3.464
  990SOL    HW1 3869   4.086   6.983   3.411
  990SOL    HW2 3870   4.014   0.112   3.412
  991SOL     OW 3871   6.993   4.535   3.992
  991SOL    HW1 3872   6.956   4.444   4.010
  991SOL    HW2 3873   0.046   4.556   4.060
  992SOL     OW 3874   0.321   2.718   1.425
  992SOL    HW1 3875   0.292   2.638   1.373
  992SOL    HW2 3876   0.400   2.693   1.481
  993SOL     OW 3877   1.495   5.182   0.528
  993SOL    HW1 3878   1.449   5.268   0.549
  993SOL    HW2 3879   1.562   5.197   0.456
  994SOL     OW 3880   3.087   6.603   0.229
  994SOL    HW1 3881   3.077   6.514   0.184
  994SOL    HW2 3882   3.144   6.663   0.172
  995SOL     OW 3883   5.657   3.124   6.075
  995SOL    HW1 3884   5.727   3.189   6.045
  995SOL    HW2 3885   5.654   3.121   6.175
  996SOL     OW 3886   3.885   6.003   5.934
  996SOL    HW1 3887   3.960   5.975   5.874
  996SOL    HW2 3888   3.837   6.080   5.892
  997SOL     OW 3889   1.564   5.568   3.959
  997SOL    HW1 3890   1.489   5.546   4.022
  997SOL    HW2 3891   1.616   5.485   3.939
  998SOL     OW 3892   6.424   6.967   6.646
  998SOL    HW1 3893   6.436   0.047   6.627
  998SOL    HW2 3894   6.357   6.955   6.719
  999SOL     OW 3895   4.849   3.779   1.804
  999SOL    HW1 3896   4.827   3.687   1.772
  999SOL    HW2 3897   4.812   3.846   1.740
 1000SOL     OW 3898   4.329   1.612   1.688
 1000SOL    HW1 3899   4.409   1.591   1.631
 1000SOL    HW2 3900   4.261   1.539   1.678
 1001SOL     OW 3901   2.984   6.328   2.140
 1001SOL    HW1 3902   2.947   6.254   2.196
 1001SOL    HW2 3903   3.080   6.344   2.164
 1002SOL     OW 3904   5.367   2.352   1.471
 1002SOL    HW1 3905   5.315   2.405   1.404
 1002SOL    HW2 3906   5.406   2.413   1.540
 1003SOL     OW 3907   0.659   6.982   2.921
 1003SOL    HW1 3908   0.724   6.944   2.855
 1003SOL    HW2 3909   0.569   6.942   2.905
 1004SOL     OW 3910   5.314   1.394   3.491
 1004SOL    HW1 3911   5.307   1.321   3.559
 1004SOL    HW2 3912   5.387   1.373   3.426
 1005SOL     OW 3913   1.537   4.502   3.772
 1005SOL    HW1 3914   1.570   4.557   3.849
 1005SOL    HW2 3915   1.449   4.536   3.742
 1006SOL     OW 3916   2.631   3.249   1.299
 1006SOL    HW1 3917   2.717   3.212   1.334
 1006SOL    HW2 3918   2.651   3.321   1.233
 1007SOL     OW 3919   4.750   1.167   6.423
 1007SOL    HW1 3920   4.818   1.121   6.365
 1007SOL    HW2 3921   4.775   1.155   6.519
 1008SOL     OW 3922   0.110   4.884   4.675
 1008SOL    HW1 3923   0.068   4.962   4.629
 1008SOL    HW2 3924   0.083   4.884   4.772
 1009SOL     OW 3925   6.399   5.199   6.788
 1009SOL    HW1 3926   6.301   5.188   6.802
 1009SOL    HW2 3927   6.421   5.186   6.691
 1010SOL     OW 3928   2.464   3.063   1.411
 1010SOL    HW1 3929   2.506   3.017   1.489
 1010SOL    HW2 3930   2.516   3.145   1.389
 1011SOL     OW 3931   0.168   4.933   2.781
 1011SOL    HW1 3932   0.090   4.918   2.841
 1011SOL    HW2 3933   0.176   4.857   2.717
 1012SOL     OW 3934   5.038   0.036   2.470
 1012SOL    HW1 3935   5.008   0.097   2.544
 1012SOL    HW2 3936   5.089   6.976   2.509
 1013SOL     OW 3937   6.569   0.488   6.293
 1013SOL    HW1 3938   6.553   0.512   6.389
 1013SOL    HW2 3939   6.652   0.434   6.285
 1014SOL     OW 3940   1.446   5.028   4.504
 1014SOL    HW1 3941   1.517   5.068   4.561
 1014SOL    HW2 3942   1.356   5.055   4.538
 1015SOL     OW 3943   3.387   6.033   6.803
 1015SOL    HW1 3944   3.447   6.106   6.837
 1015SOL    HW2 3945   3.324   6.005   6.876
 1016SOL     OW 3946   6.095   4.511   1.595
 1016SOL    HW1 3947   6.172   4.575   1.594
 1016SOL    HW2 3948   6.010   4.562   1.591
 1017SOL     OW 3949   2.261   1.602   2.452
 1017SOL    HW1 3950   2.259   1.701   2.465
 1017SOL    HW2 3951   2.306   1.559   2.531
 1018SOL     OW 3952   0.438   5.157   3.264
 1018SOL    HW1 3953   0.454   5.069   3.219
 1018SOL    HW2 3954   0.469   5.153   3.359
 1019SOL     OW 3955   0.060   4.914   0.826
 1019SOL    HW1 3956   0.066   4.913   0.726
 1019SOL    HW2 3957   0.020   5.001   0.856
 1020SOL     OW 3958   6.627   0.226   0.908
 1020SOL    HW1 3959   6.531   0.251   0.913
 1020SOL    HW2 3960   6.677   0.294   0.854
 1021SOL     OW 3961   6.416   6.162   1.431
 1021SOL    HW1 3962   6.369   6.118   1.355
 1021SOL    HW2 3963   6.496   6.108   1.456
 1022SOL     OW 3964   2.234   6.368   6.484
 1022SOL    HW1 3965   2.223   6.386   6.581
 1022SOL    HW2 3966   2.170   6.298   6.455
 1023SOL     OW 3967   0.906   1.874   3.569
 1023SOL    HW1 3968   0.932   1.958   3.521
 1023SOL    HW2 3969   0.929   1.794   3.513
 1024SOL     OW 3970   1.297   2.032   5.119
 1024SOL    HW1 3971   1.364   1.969   5.080
 1024SOL    HW2 3972   1.257   2.087   5.046
 1025SOL     OW 3973   4.671   3.701   0.558
 1025SOL    HW1 3974   4.729   3.782   0.562
 1025SOL    HW2 3975   4.707   3.631   0.620
 1026SOL     OW 3976   2.935   2.608   1.175
 1026SOL    HW1 3977   2.892   2.538   1.117
 1026SOL    HW2 3978   3.029   2.623   1.145
 1027SOL     OW 3979   0.402   6.405   0.975
 1027SOL    HW1 3980   0.463   6.389   1.053
 1027SOL    HW2 3981   0.355   6.492   0.988
 1028SOL     OW 3982   1.110   6.109   2.491
 1028SOL    HW1 3983   1.125   6.035   2.426
 1028SOL    HW2 3984   1.180   6.106   2.562
 1029SOL     OW 3985   1.159   1.500   6.077
 1029SOL    HW1 3986   1.199   1.522   6.166
 1029SOL    HW2 3987   1.084   1.435   6.089
 1030SOL     OW 3988   3.569   3.195   1.533
 1030SOL    HW1 3989   3.609   3.110   1.567
 1030SOL    HW2 3990   3.470   3.194   1.548
 1031SOL     OW 3991   3.161   3.411   1.305
 1031SOL    HW1 3992   3.231   3.432   1.236
 1031SOL    HW2 3993   3.136   3.495   1.354
 1032SOL     OW 3994   1.954   1.830   6.203
 1032SOL    HW1 3995   1.958   1.901   6.132
 1032SOL    HW2 3996   1.998   1.747   6.170
 1033SOL     OW 3997   0.549   6.554   1.984
 1033SOL    HW1 3998   0.572   6.498   2.064
 1033SOL    HW2 3999   0.632   6.576   1.934
 1034SOL     OW 4000   3.024   6.689   4.443
 1034SOL    HW1 4001   3.013   6.615   4.377
 1034SOL    HW2 4002   3.065   6.653   4.527
 1035SOL     OW 4003   0.809   2.318   5.855
 1035SOL    HW1 4004   0.871   2.276   5.789
 1035SOL    HW2 4005   0.825   2.417   5.857
 1036SOL     OW 4006   4.918   1.377   1.004
 1036SOL    HW1 4007   5.005   1.367   0.954
 1036SOL    HW2 4008   4.854   1.430   0.948
 1037SOL     OW 4009   1.444   2.824   2.703
 1037SOL    HW1 4010   1.536   2.785   2.697
 1037SOL    HW2 4011   1.447   2.922   2.685
 1038SOL     OW 4012   3.225   6.779   6.963
 1038SOL    HW1 4013   3.295   6.723   7.008
 1038SOL    HW2 4014   3.261   6.871   6.949
 1039SOL     OW 4015   3.735   2.884   3.481
 1039SOL    HW1 4016   3.673   2.896   3.558
 1039SOL    HW2 4017   3.682   2.880   3.396
 1040SOL     OW 4018   4.145   0.675   3.133
 1040SOL    HW1 4019   4.115   0.743   3.200
 1040SOL    HW2 4020   4.168   0.721   3.047
 1041SOL     OW 4021   6.802   6.454   5.998
 1041SOL    HW1 4022   6.833   6.360   6.011
 1041SOL    HW2 4023   6.728   6.456   5.930
 1042SOL     OW 4024   5.242   4.775   2.557
 1042SOL    HW1 4025   5.178   4.745   2.487
 1042SOL    HW2 4026   5.223   4.871   2.580
 1043SOL     OW 4027   3.510   1.836   4.045
 1043SOL    HW1 4028   3.462   1.922   4.028
 1043SOL    HW2 4029   3.578   1.849   4.117
 1044SOL     OW 4030   5.814   4.987   1.354
 1044SOL    HW1 4031   5.769   4.916   1.301
 1044SOL    HW2 4032   5.873   5.042   1.295
 1045SOL     OW 4033   2.349   0.487   3.607
 1045SOL    HW1 4034   2.346   0.584   3.633
 1045SOL    HW2 4035   2.257   0.454   3.590
 1046SOL     OW 4036   2.730   1.098   0.940
 1046SOL    HW1 4037   2.780   1.011   0.949
 1046SOL    HW2 4038   2.778   1.157   0.876
 1047SOL     OW 4039   3.515   6.639   2.915
 1047SOL    HW1 4040   3.612   6.617   2.908
 1047SOL    HW2 4041   3.480   6.607   3.004
 1048SOL     OW 4042   1.572   6.209   2.035
 1048SOL    HW1 4043   1.541   6.119   2.003
 1048SOL    HW2 4044   1.668   6.222   2.011
 1049SOL     OW 4045   4.230   6.191   5.294
 1049SOL    HW1 4046   4.278   6.120   5.242
 1049SOL    HW2 4047   4.297   6.248   5.342
 1050SOL     OW 4048   3.334   5.226   3.146
 1050SOL    HW1 4049   3.295   5.153   3.090
 1050SOL    HW2 4050   3.412   5.266   3.099
 1051SOL     OW 4051   0.300   0.223   6.925
 1051SOL    HW1 4052   0.221   0.174   6.886
 1051SOL    HW2 4053   0.275   0.262   7.013
 1052SOL     OW 4054   3.860   0.688   6.834
 1052SOL    HW1 4055   3.850   0.603   6.783
 1052SOL    HW2 4056   3.940   0.738   6.801
 1053SOL     OW 4057   6.013   3.074   2.936
 1053SOL    HW1 4058   6.020   3.051   2.839
 1053SOL    HW2 4059   6.094   3.127   2.963
 1054SOL     OW 4060   3.205   4.556   6.971
 1054SOL    HW1 4061   3.170   4.587   0.041
 1054SOL    HW2 4062   3.301   4.529   6.981
 1055SOL     OW 4063   4.544   6.059   6.894
 1055SOL    HW1 4064   4.491   6.137   6.928
 1055SOL    HW2 4065   4.641   6.078   6.902
 1056SOL     OW 4066   2.864   3.696   6.584
 1056SOL    HW1 4067   2.956   3.657   6.598
 1056SOL    HW2 4068   2.839   3.686   6.488
 1057SOL     OW 4069   3.120   1.594   1.464
 1057SOL    HW1 4070   3.074   1.679   1.441
 1057SOL    HW2 4071   3.136   1.591   1.563
 1058SOL     OW 4072   2.354   2.607   2.626
 1058SOL    HW1 4073   2.446   2.586   2.592
 1058SOL    HW2 4074   2.330   2.544   2.700
 1059SOL     OW 4075   2.711   6.269   1.463
 1059SOL    HW1 4076   2.696   6.367   1.447
 1059SOL    HW2 4077   2.802   6.255   1.502
 1060SOL     OW 4078   6.093   6.395   5.195
 1060SOL    HW1 4079   6.165   6.332   5.166
 1060SOL    HW2 4080   6.028   6.348   5.254
 1061SOL     OW 4081   6.607   4.119   6.976
 1061SOL    HW1 4082   6.551   4.180   0.014
 1061SOL    HW2 4083   6.554   4.084   6.900
 1062SOL     OW 4084   3.775   6.241   5.832
 1062SOL    HW1 4085   3.730   6.320   5.874
 1062SOL    HW2 4086   3.735   6.224   5.742
 1063SOL     OW 4087   2.213   6.372   5.999
 1063SOL    HW1 4088   2.278   6.440   6.033
 1063SOL    HW2 4089   2.127   6.378   6.051
 1064SOL     OW 4090   1.654   4.342   0.363
 1064SOL    HW1 4091   1.628   4.439   0.363
 1064SOL    HW2 4092   1.721   4.325   0.435
 1065SOL     OW 4093   4.498   0.385   4.186
 1065SOL    HW1 4094   4.513   0.287   4.175
 1065SOL    HW2 4095   4.585   0.433   4.184
 1066SOL     OW 4096   4.754   0.448   1.923
 1066SOL    HW1 4097   4.702   0.429   2.007
 1066SOL    HW2 4098   4.755   0.546   1.906
 1067SOL     OW 4099   2.620   1.080   0.342
 1067SOL    HW1 4100   2.541   1.138   0.360
 1067SOL    HW2 4101   2.635   1.072   0.243
 1068SOL     OW 4102   5.794   3.347   1.294
 1068SOL    HW1 4103   5.850   3.354   1.377
 1068SOL    HW2 4104   5.851   3.363   1.214
 1069SOL     OW 4105   6.505   4.264   1.515
 1069SOL    HW1 4106   6.420   4.279   1.566
 1069SOL    HW2 4107   6.537   4.171   1.530
 1070SOL     OW 4108   1.173   0.533   2.009
 1070SOL    HW1 4109   1.252   0.498   1.959
 1070SOL    HW2 4110   1.135   0.612   1.960
 1071SOL     OW 4111   6.516   2.791   5.690
 1071SOL    HW1 4112   6.558   2.842   5.765
 1071SOL    HW2 4113   6.567   2.808   5.605
 1072SOL     OW 4114   2.689   1.625   2.447
 1072SOL    HW1 4115   2.778   1.607   2.489
 1072SOL    HW2 4116   2.654   1.713   2.478
 1073SOL     OW 4117   4.998   1.532   3.275
 1073SOL    HW1 4118   5.073   1.596   3.288
 1073SOL    HW2 4119   5.026   1.441   3.306
 1074SOL     OW 4120   2.753   4.881   1.801
 1074SOL    HW1 4121   2.801   4.828   1.871
 1074SOL    HW2 4122   2.657   4.854   1.798
 1075SOL     OW 4123   5.758   3.238   5.175
 1075SOL    HW1 4124   5.724   3.239   5.269
 1075SOL    HW2 4125   5.680   3.242   5.111
 1076SOL     OW 4126   2.158   3.751   5.091
 1076SOL    HW1 4127   2.225   3.821   5.066
 1076SOL    HW2 4128   2.135   3.697   5.009
 1077SOL     OW 4129   6.996   6.921   0.068
 1077SOL    HW1 4130   6.984   6.867   0.152
 1077SOL    HW2 4131   0.035   6.871   0.003
 1078SOL     OW 4132   6.792   5.847   3.949
 1078SOL    HW1 4133   6.769   5.887   3.860
 1078SOL    HW2 4134   6.888   5.821   3.950
 1079SOL     OW 4135   0.866   6.105   2.631
 1079SOL    HW1 4136   0.884   6.008   2.646
 1079SOL    HW2 4137   0.940   6.144   2.576
 1080SOL     OW 4138   2.028   4.877   6.331
 1080SOL    HW1 4139   2.072   4.791   6.358
 1080SOL    HW2 4140   2.093   4.933   6.280
 1081SOL     OW 4141   6.404   5.652   4.360
 1081SOL    HW1 4142   6.369   5.563   4.390
 1081SOL    HW2 4143   6.467   5.688   4.428
 1082SOL     OW 4144   5.156   0.149   6.204
 1082SOL    HW1 4145   5.058   0.138   6.222
 1082SOL    HW2 4146   5.183   0.090   6.128
 1083SOL     OW 4147   5.136   4.212   0.922
 1083SOL    HW1 4148   5.079   4.133   0.904
 1083SOL    HW2 4149   5.086   4.296   0.899
 1084SOL     OW 4150   0.511   0.321   6.080
 1084SOL    HW1 4151   0.461   0.256   6.023
 1084SOL    HW2 4152   0.508   0.412   6.038
 1085SOL     OW 4153   1.883   3.883   4.173
 1085SOL    HW1 4154   1.924   3.974   4.180
 1085SOL    HW2 4155   1.953   3.813   4.193
 1086SOL     OW 4156   6.313   4.856   6.943
 1086SOL    HW1 4157   6.290   4.814   0.014
 1086SOL    HW2 4158   6.299   4.955   6.949
 1087SOL     OW 4159   2.300   0.251   5.305
 1087SOL    HW1 4160   2.317   0.176   5.241
 1087SOL    HW2 4161   2.344   0.334   5.271
 1088SOL     OW 4162   0.096   4.519   3.561
 1088SOL    HW1 4163   0.072   4.531   3.464
 1088SOL    HW2 4164   0.037   4.577   3.617
 1089SOL     OW 4165   6.466   4.269   4.475
 1089SOL    HW1 4166   6.525   4.298   4.550
 1089SOL    HW2 4167   6.410   4.191   4.505
 1090SOL     OW 4168   5.220   1.402   4.584
 1090SOL    HW1 4169   5.166   1.400   4.669
 1090SOL    HW2 4170   5.229   1.496   4.553
 1091SOL     OW 4171   2.239   2.856   3.240
 1091SOL    HW1 4172   2.310   2.805   3.288
 1091SOL    HW2 4173   2.223   2.944   3.286
 1092SOL     OW 4174   0.717   4.915   0.694
 1092SOL    HW1 4175   0.649   4.986   0.674
 1092SOL    HW2 4176   0.790   4.954   0.749
 1093SOL     OW 4177   2.221   0.007   1.552
 1093SOL    HW1 4178   2.206   6.928   1.574
 1093SOL    HW2 4179   2.247   0.056   1.635
 1094SOL     OW 4180   1.014   0.427   2.965
 1094SOL    HW1 4181   1.080   0.444   2.893
 1094SOL    HW2 4182   0.987   0.330   2.964
 1095SOL     OW 4183   0.051   3.475   0.388
 1095SOL    HW1 4184   6.990   3.529   0.415
 1095SOL    HW2 4185   0.045   3.453   0.290
 1096SOL     OW 4186   3.025   5.639   1.712
 1096SOL    HW1 4187   2.934   5.602   1.697
 1096SOL    HW2 4188   3.079   5.574   1.766
 1097SOL     OW 4189   3.221   5.289   3.813
 1097SOL    HW1 4190   3.150   5.273   3.881
 1097SOL    HW2 4191   3.310   5.262   3.850
 1098SOL     OW 4192   6.459   4.985   0.212
 1098SOL    HW1 4193   6.408   5.066   0.182
 1098SOL    HW2 4194   6.523   4.958   0.141
 1099SOL     OW 4195   4.447   0.579   6.220
 1099SOL    HW1 4196   4.517   0.520   6.181
 1099SOL    HW2 4197   4.488   0.666   6.248
 1100SOL     OW 4198   3.461   1.591   3.976
 1100SOL    HW1 4199   3.452   1.547   4.066
 1100SOL    HW2 4200   3.491   1.685   3.988
 1101SOL     OW 4201   6.703   2.918   5.881
 1101SOL    HW1 4202   6.798   2.912   5.913
 1101SOL    HW2 4203   6.688   3.008   5.840
 1102SOL     OW 4204   2.767   1.013   4.212
 1102SOL    HW1 4205   2.779   1.102   4.168
 1102SOL    HW2 4206   2.689   1.017   4.275
 1103SOL     OW 4207   3.138   0.320   6.458
 1103SOL    HW1 4208   3.178   0.310   6.367
 1103SOL    HW2 4209   3.155   0.236   6.511
 1104SOL     OW 4210   0.198   3.479   3.608
 1104SOL    HW1 4211   0.117   3.499   3.552
 1104SOL    HW2 4212   0.177   3.495   3.704
 1105SOL     OW 4213   5.407   0.894   5.059
 1105SOL    HW1 4214   5.339   0.873   5.129
 1105SOL    HW2 4215   5.499   0.881   5.097
 1106SOL     OW 4216   0.364   1.668   0.907
 1106SOL    HW1 4217   0.452   1.699   0.870
 1106SOL    HW2 4218   0.358   1.690   1.004
 1107SOL     OW 4219   1.043   0.946   0.216
 1107SOL    HW1 4220   1.059   0.927   0.119
 1107SOL    HW2 4221   0.997   1.035   0.226
 1108SOL     OW 4222   2.582   6.219   4.309
 1108SOL    HW1 4223   2.487   6.190   4.312
 1108SOL    HW2 4224   2.637   6.151   4.260
 1109SOL     OW 4225   5.545   1.501   4.875
 1109SOL    HW1 4226   5.503   1.586   4.845
 1109SOL    HW2 4227   5.624   1.481   4.817
 1110SOL     OW 4228   3.538   1.112   2.317
 1110SOL    HW1 4229   3.504   1.028   2.358
 1110SOL    HW2 4230   3.602   1.090   2.243
 1111SOL     OW 4231   5.019   3.827   6.478
 1111SOL    HW1 4232   4.930   3.846   6.520
 1111SOL    HW2 4233   5.038   3.729   6.483
 1112SOL     OW 4234   5.162   0.422   2.204
 1112SOL    HW1 4235   5.156   0.423   2.105
 1112SOL    HW2 4236   5.162   0.328   2.237
 1113SOL     OW 4237   5.868   4.574   2.366
 1113SOL    HW1 4238   5.935   4.545   2.298
 1113SOL    HW2 4239   5.848   4.499   2.429
 1114SOL     OW 4240   4.452   3.346   5.565
 1114SOL    HW1 4241   4.474   3.429   5.514
 1114SOL    HW2 4242   4.502   3.268   5.525
 1115SOL     OW 4243   3.150   4.355   5.765
 1115SOL    HW1 4244   3.092   4.436   5.772
 1115SOL    HW2 4245   3.095   4.276   5.738
 1116SOL     OW 4246   4.666   0.169   6.441
 1116SOL    HW1 4247   4.641   0.094   6.502
 1116SOL    HW2 4248   4.647   0.256   6.487
 1117SOL     OW 4249   1.120   3.209   1.834
 1117SOL    HW1 4250   1.128   3.130   1.895
 1117SOL    HW2 4251   1.181   3.198   1.756
 1118SOL     OW 4252   3.078   4.908   0.116
 1118SOL    HW1 4253   3.138   4.969   0.066
 1118SOL    HW2 4254   3.002   4.880   0.058
 1119SOL     OW 4255   3.924   5.137   3.527
 1119SOL    HW1 4256   3.882   5.061   3.478
 1119SOL    HW2 4257   3.954   5.206   3.461
 1120SOL     OW 4258   6.564   5.438   0.854
 1120SOL    HW1 4259   6.659   5.424   0.882
 1120SOL    HW2 4260   6.508   5.461   0.934
 1121SOL     OW 4261   6.610   4.972   4.801
 1121SOL    HW1 4262   6.632   4.909   4.726
 1121SOL    HW2 4263   6.679   5.044   4.805
 1122SOL     OW 4264   5.438   2.667   1.803
 1122SOL    HW1 4265   5.370   2.738   1.787
 1122SOL    HW2 4266   5.412   2.615   1.885
 1123SOL     OW 4267   4.216   2.145   3.180
 1123SOL    HW1 4268   4.231   2.116   3.274
 1123SOL    HW2 4269   4.301   2.137   3.128
 1124SOL     OW 4270   2.184   3.073   4.798
 1124SOL    HW1 4271   2.251   3.029   4.858
 1124SOL    HW2 4272   2.101   3.094   4.850
 1125SOL     OW 4273   1.235   3.840   3.837
 1125SOL    HW1 4274   1.304   3.884   3.895
 1125SOL    HW2 4275   1.225   3.892   3.752
 1126SOL     OW 4276   3.638   5.367   5.437
 1126SOL    HW1 4277   3.638   5.322   5.527
 1126SOL    HW2 4278   3.702   5.320   5.377
 1127SOL     OW 4279   5.683   6.398   3.178
 1127SOL    HW1 4280   5.601   6.415   3.124
 1127SOL    HW2 4281   5.760   6.381   3.117
 1128SOL     OW 4282   6.103   1.533   3.563
 1128SOL    HW1 4283   6.093   1.436   3.584
 1128SOL    HW2 4284   6.146   1.543   3.473
 1129SOL     OW 4285   1.549   0.601   1.005
 1129SOL    HW1 4286   1.555   0.510   1.047
 1129SOL    HW2 4287   1.627   0.656   1.034
 1130SOL     OW 4288   2.415   5.322   2.645
 1130SOL    HW1 4289   2.361   5.362   2.571
 1130SOL    HW2 4290   2.510   5.352   2.637
 1131SOL     OW 4291   1.611   6.173   4.301
 1131SOL    HW1 4292   1.648   6.210   4.386
 1131SOL    HW2 4293   1.684   6.160   4.235
 1132SOL     OW 4294   3.390   1.499   2.529
 1132SOL    HW1 4295   3.355   1.587   2.560
 1132SOL    HW2 4296   3.480   1.512   2.487
 1133SOL     OW 4297   1.507   6.660   5.082
 1133SOL    HW1 4298   1.458   6.574   5.067
 1133SOL    HW2 4299   1.452   6.720   5.139
 1134SOL     OW 4300   4.324   0.016   1.301
 1134SOL    HW1 4301   4.291   0.108   1.320
 1134SOL    HW2 4302   4.261   6.987   1.239
 1135SOL     OW 4303   1.989   6.120   3.917
 1135SOL    HW1 4304   1.969   6.121   3.819
 1135SOL    HW2 4305   2.087   6.135   3.932
 1136SOL     OW 4306   2.945   6.080   1.902
 1136SOL    HW1 4307   2.953   5.980   1.904
 1136SOL    HW2 4308   2.940   6.115   1.995
 1137SOL     OW 4309   0.314   5.644   5.763
 1137SOL    HW1 4310   0.400   5.598   5.741
 1137SOL    HW2 4311   0.282   5.695   5.683
 1138SOL     OW 4312   2.154   3.034   4.514
 1138SOL    HW1 4313   2.206   3.022   4.599
 1138SOL    HW2 4314   2.080   3.099   4.529
 1139SOL     OW 4315   2.961   5.245   3.942
 1139SOL    HW1 4316   2.890   5.203   3.886
 1139SOL    HW2 4317   2.950   5.214   4.037
 1140SOL     OW 4318   1.399   1.554   1.888
 1140SOL    HW1 4319   1.413   1.494   1.809
 1140SOL    HW2 4320   1.342   1.631   1.861
 1141SOL     OW 4321   6.516   4.201   6.404
 1141SOL    HW1 4322   6.574   4.239   6.476
 1141SOL    HW2 4323   6.441   4.150   6.446
 1142SOL     OW 4324   2.427   6.963   2.878
 1142SOL    HW1 4325   2.390   0.038   2.880
 1142SOL    HW2 4326   2.510   6.960   2.933
 1143SOL     OW 4327   1.169   3.785   1.702
 1143SOL    HW1 4328   1.134   3.801   1.610
 1143SOL    HW2 4329   1.269   3.792   1.700
 1144SOL     OW 4330   5.333   4.145   2.157
 1144SOL    HW1 4331   5.352   4.056   2.115
 1144SOL    HW2 4332   5.391   4.214   2.115
 1145SOL     OW 4333   0.597   1.616   0.602
 1145SOL    HW1 4334   0.619   1.664   0.687
 1145SOL    HW2 4335   0.626   1.671   0.524
 1146SOL     OW 4336   0.738   1.411   1.496
 1146SOL    HW1 4337   0.709   1.504   1.518
 1146SOL    HW2 4338   0.837   1.410   1.479
 1147SOL     OW 4339   3.259   6.819   1.084
 1147SOL    HW1 4340   3.282   6.878   1.006
 1147SOL    HW2 4341   3.343   6.796   1.134
 1148SOL     OW 4342   4.076   5.631   2.776
 1148SOL    HW1 4343   4.085   5.665   2.870
 1148SOL    HW2 4344   4.126   5.545   2.767
 1149SOL     OW 4345   4.695   2.324   1.685
 1149SOL    HW1 4346   4.775   2.378   1.711
 1149SOL    HW2 4347   4.656   2.281   1.766
 1150SOL     OW 4348   1.656   4.423   7.008
 1150SOL    HW1 4349   1.578   4.398   6.951
 1150SOL    HW2 4350   1.732   4.362   6.989
 1151SOL     OW 4351   6.603   5.377   3.870
 1151SOL    HW1 4352   6.598   5.473   3.897
 1151SOL    HW2 4353   6.521   5.353   3.817
 1152SOL     OW 4354   4.370   6.940   6.699
 1152SOL    HW1 4355   4.427   0.002   6.681
 1152SOL    HW2 4356   4.368   6.881   6.618
 1153SOL     OW 4357   6.356   0.477   1.443
 1153SOL    HW1 4358   6.257   0.461   1.446
 1153SOL    HW2 4359   6.403   0.391   1.419
 1154SOL     OW 4360   1.380   2.655   1.850
 1154SOL    HW1 4361   1.437   2.631   1.771
 1154SOL    HW2 4362   1.438   2.693   1.922
 1155SOL     OW 4363   2.798   6.199   5.093
 1155SOL    HW1 4364   2.733   6.275   5.104
 1155SOL    HW2 4365   2.759   6.116   5.133
 1156SOL     OW 4366   3.914   2.195   4.206
 1156SOL    HW1 4367   3.945   2.210   4.300
 1156SOL    HW2 4368   3.821   2.159   4.206
 1157SOL     OW 4369   3.460   0.832   5.415
 1157SOL    HW1 4370   3.474   0.926   5.383
 1157SOL    HW2 4371   3.535   0.774   5.385
 1158SOL     OW 4372   6.136   6.172   3.088
 1158SOL    HW1 4373   6.048   6.218   3.099
 1158SOL    HW2 4374   6.176   6.154   3.178
 1159SOL     OW 4375   6.304   6.325   2.461
 1159SOL    HW1 4376   6.292   6.240   2.511
 1159SOL    HW2 4377   6.392   6.323   2.413
 1160SOL     OW 4378   5.093   0.895   0.299
 1160SOL    HW1 4379   5.007   0.895   0.351
 1160SOL    HW2 4380   5.141   0.982   0.314
 1161SOL     OW 4381   0.569   5.597   6.778
 1161SOL    HW1 4382   0.650   5.569   6.726
 1161SOL    HW2 4383   0.551   5.529   6.849
 1162SOL     OW 4384   2.069   2.561   5.075
 1162SOL    HW1 4385   1.976   2.565   5.112
 1162SOL    HW2 4386   2.099   2.653   5.049
 1163SOL     OW 4387   6.267   4.331   1.636
 1163SOL    HW1 4388   6.239   4.254   1.693
 1163SOL    HW2 4389   6.190   4.393   1.623
 1164SOL     OW 4390   4.915   1.753   4.370
 1164SOL    HW1 4391   4.937   1.826   4.305
 1164SOL    HW2 4392   4.998   1.706   4.398
 1165SOL     OW 4393   3.738   6.519   3.585
 1165SOL    HW1 4394   3.748   6.455   3.661
 1165SOL    HW2 4395   3.643   6.547   3.577
 1166SOL     OW 4396   2.186   5.991   7.004
 1166SOL    HW1 4397   2.194   5.893   6.988
 1166SOL    HW2 4398   2.177   6.039   6.917
 1167SOL     OW 4399   5.526   4.709   2.633
 1167SOL    HW1 4400   5.558   4.804   2.624
 1167SOL    HW2 4401   5.427   4.707   2.624
 1168SOL     OW 4402   6.220   2.226   3.167
 1168SOL    HW1 4403   6.223   2.211   3.265
 1168SOL    HW2 4404   6.185   2.144   3.121
 1169SOL     OW 4405   5.717   0.669   4.992
 1169SOL    HW1 4406   5.806   0.652   4.949
 1169SOL    HW2 4407   5.646   0.667   4.923
 1170SOL     OW 4408   4.803   6.808   3.495
 1170SOL    HW1 4409   4.716   6.820   3.447
 1170SOL    HW2 4410   4.869   6.875   3.460
 1171SOL     OW 4411   1.549   0.444   1.582
 1171SOL    HW1 4412   1.546   0.532   1.628
 1171SOL    HW2 4413   1.566   0.371   1.649
 1172SOL     OW 4414   6.937   3.688   6.659
 1172SOL    HW1 4415   6.912   3.626   6.585
 1172SOL    HW2 4416   6.946   3.781   6.623
 1173SOL     OW 4417   2.942   1.705   1.009
 1173SOL    HW1 4418   2.969   1.609   1.006
 1173SOL    HW2 4419   3.005   1.759   0.952
 1174SOL     OW 4420   3.649   3.738   1.127
 1174SOL    HW1 4421   3.564   3.686   1.135
 1174SOL    HW2 4422   3.725   3.682   1.158
 1175SOL     OW 4423   3.548   3.301   4.977
 1175SOL    HW1 4424   3.599   3.372   5.024
 1175SOL    HW2 4425   3.513   3.336   4.890
 1176SOL     OW 4426   5.195   4.220   6.516
 1176SOL    HW1 4427   5.105   4.264   6.519
 1176SOL    HW2 4428   5.197   4.154   6.441
 1177SOL     OW 4429   6.408   2.751   4.620
 1177SOL    HW1 4430   6.418   2.665   4.569
 1177SOL    HW2 4431   6.477   2.755   4.692
 1178SOL     OW 4432   2.885   4.724   0.086
 1178SOL    HW1 4433   2.894   4.633   0.125
 1178SOL    HW2 4434   2.807   4.726   0.023
 1179SOL     OW 4435   2.515   5.099   1.009
 1179SOL    HW1 4436   2.474   5.185   0.978
 1179SOL    HW2 4437   2.591   5.075   0.948
 1180SOL     OW 4438   2.874   5.517   0.625
 1180SOL    HW1 4439   2.933   5.499   0.545
 1180SOL    HW2 4440   2.923   5.491   0.708
 1181SOL     OW 4441   0.172   5.738   6.732
 1181SOL    HW1 4442   0.083   5.740   6.777
 1181SOL    HW2 4443   0.240   5.783   6.791
 1182SOL     OW 4444   4.245   5.285   3.068
 1182SOL    HW1 4445   4.289   5.323   2.987
 1182SOL    HW2 4446   4.148   5.271   3.050
 1183SOL     OW 4447   2.026   3.842   6.426
 1183SOL    HW1 4448   1.997   3.749   6.449
 1183SOL    HW2 4449   2.050   3.845   6.329
 1184SOL     OW 4450   1.625   0.126   4.992
 1184SOL    HW1 4451   1.662   0.203   5.043
 1184SOL    HW2 4452   1.692   0.096   4.924
 1185SOL     OW 4453   0.013   0.984   6.992
 1185SOL    HW1 4454   0.037   1.079   7.014
 1185SOL    HW2 4455   7.011   0.935   0.060
 1186SOL     OW 4456   4.823   6.113   4.651
 1186SOL    HW1 4457   4.796   6.107   4.554
 1186SOL    HW2 4458   4.824   6.021   4.690
 1187SOL     OW 4459   6.447   0.188   5.898
 1187SOL    HW1 4460   6.353   0.222   5.899
 1187SOL    HW2 4461   6.466   0.140   5.983
 1188SOL     OW 4462   2.573   6.516   4.895
 1188SOL    HW1 4463   2.504   6.535   4.825
 1188SOL    HW2 4464   2.663   6.541   4.861
 1189SOL     OW 4465   6.202   3.216   3.129
 1189SOL    HW1 4466   6.168   3.187   3.218
 1189SOL    HW2 4467   6.293   3.256   3.140
 1190SOL     OW 4468   1.927   6.408   2.495
 1190SOL    HW1 4469   1.891   6.381   2.584
 1190SOL    HW2 4470   1.866   6.374   2.423
 1191SOL     OW 4471   4.474   5.013   3.128
 1191SOL    HW1 4472   4.461   5.096   3.182
 1191SOL    HW2 4473   4.464   4.933   3.187
 1192SOL     OW 4474   3.984   5.945   2.941
 1192SOL    HW1 4475   3.971   5.987   2.851
 1192SOL    HW2 4476   4.082   5.945   2.963
 1193SOL     OW 4477   6.075   4.910   4.163
 1193SOL    HW1 4478   6.014   4.840   4.126
 1193SOL    HW2 4479   6.026   4.996   4.172
 1194SOL     OW 4480   4.854   0.377   1.415
 1194SOL    HW1 4481   4.759   0.363   1.388
 1194SOL    HW2 4482   4.861   0.459   1.472
 1195SOL     OW 4483   6.111   3.691   1.932
 1195SOL    HW1 4484   6.076   3.685   2.025
 1195SOL    HW2 4485   6.036   3.677   1.867
 1196SOL     OW 4486   6.403   6.585   3.639
 1196SOL    HW1 4487   6.480   6.648   3.648
 1196SOL    HW2 4488   6.410   6.513   3.708
 1197SOL     OW 4489   3.775   6.652   0.477
 1197SOL    HW1 4490   3.764   6.735   0.531
 1197SOL    HW2 4491   3.695   6.639   0.419
 1198SOL     OW 4492   1.636   2.089   0.921
 1198SOL    HW1 4493   1.661   2.137   1.005
 1198SOL    HW2 4494   1.582   2.149   0.863
 1199SOL     OW 4495   4.720   5.254   1.672
 1199SOL    HW1 4496   4.783   5.299   1.736
 1199SOL    HW2 4497   4.757   5.260   1.580
 1200SOL     OW 4498   2.884   3.422   2.309
 1200SOL    HW1 4499   2.803   3.409   2.252
 1200SOL    HW2 4500   2.961   3.450   2.253
 1201SOL     OW 4501   1.434   1.760   4.755
 1201SOL    HW1 4502   1.432   1.792   4.660
 1201SOL    HW2 4503   1.462   1.664   4.757
 1202SOL     OW 4504   0.612   5.295   6.519
 1202SOL    HW1 4505   0.685   5.344   6.567
 1202SOL    HW2 4506   0.529   5.297   6.573
 1203SOL     OW 4507   4.906   6.048   5.861
 1203SOL    HW1 4508   4.825   6.010   5.818
 1203SOL    HW2 4509   4.889   6.143   5.887
 1204SOL     OW 4510   2.560   0.999   2.285
 1204SOL    HW1 4511   2.636   0.953   2.239
 1204SOL    HW2 4512   2.485   1.013   2.220
 1205SOL     OW 4513   5.306   4.001   1.538
 1205SOL    HW1 4514   5.215   4.025   1.504
 1205SOL    HW2 4515   5.320   3.903   1.531
 1206SOL     OW 4516   2.924   3.427   4.654
 1206SOL    HW1 4517   2.952   3.457   4.746
 1206SOL    HW2 4518   2.941   3.501   4.589
 1207SOL     OW 4519   2.192   6.302   1.785
 1207SOL    HW1 4520   2.251   6.339   1.857
 1207SOL    HW2 4521   2.246   6.286   1.703
 1208SOL     OW 4522   3.647   3.336   0.462
 1208SOL    HW1 4523   3.709   3.321   0.539
 1208SOL    HW2 4524   3.609   3.249   0.431
 1209SOL     OW 4525   3.553   0.051   5.625
 1209SOL    HW1 4526   3.506   7.010   5.691
 1209SOL    HW2 4527   3.614   7.012   5.569
 1210SOL     OW 4528   3.139   0.122   3.187
 1210SOL    HW1 4529   3.188   0.064   3.122
 1210SOL    HW2 4530   3.067   0.068   3.232
 1211SOL     OW 4531   1.070   3.958   1.079
 1211SOL    HW1 4532   1.117   3.870   1.082
 1211SOL    HW2 4533   1.119   4.020   1.018
 1212SOL     OW 4534   0.568   0.172   6.622
 1212SOL    HW1 4535   0.492   0.212   6.673
 1212SOL    HW2 4536   0.615   0.245   6.571
 1213SOL     OW 4537   5.496   2.633   0.752
 1213SOL    HW1 4538   5.510   2.565   0.824
 1213SOL    HW2 4539   5.405   2.674   0.763
 1214SOL     OW 4540   6.748   2.318   1.015
 1214SOL    HW1 4541   6.786   2.242   1.067
 1214SOL    HW2 4542   6.714   2.285   0.927
 1215SOL     OW 4543   1.140   4.938   4.471
 1215SOL    HW1 4544   1.095   4.942   4.560
 1215SOL    HW2 4545   1.164   4.843   4.451
 1216SOL     OW 4546   4.370   0.348   6.367
 1216SOL    HW1 4547   4.389   0.360   6.270
 1216SOL    HW2 4548   4.415   0.421   6.418
 1217SOL     OW 4549   2.324   4.499   0.952
 1217SOL    HW1 4550   2.402   4.452   0.911
 1217SOL    HW2 4551   2.356   4.574   1.009
 1218SOL     OW 4552   1.393   4.290   3.867
 1218SOL    HW1 4553   1.471   4.229   3.882
 1218SOL    HW2 4554   1.426   4.378   3.833
 1219SOL     OW 4555   3.794   6.476   1.984
 1219SOL    HW1 4556   3.743   6.422   1.916
 1219SOL    HW2 4557   3.755   6.460   2.074
 1220SOL     OW 4558   1.345   4.835   3.025
 1220SOL    HW1 4559   1.271   4.901   3.009
 1220SOL    HW2 4560   1.345   4.808   3.121
 1221SOL     OW 4561   5.883   3.194   5.922
 1221SOL    HW1 4562   5.872   3.237   5.832
 1221SOL    HW2 4563   5.917   3.101   5.910
 1222SOL     OW 4564   6.708   6.472   6.878
 1222SOL    HW1 4565   6.628   6.514   6.834
 1222SOL    HW2 4566   6.767   6.431   6.808
 1223SOL     OW 4567   3.008   6.847   0.431
 1223SOL    HW1 4568   3.081   6.896   0.384
 1223SOL    HW2 4569   3.042   6.812   0.518
 1224SOL     OW 4570   2.381   0.411   0.967
 1224SOL    HW1 4571   2.405   0.414   1.064
 1224SOL    HW2 4572   2.417   0.492   0.921
 1225SOL     OW 4573   3.228   4.248   6.398
 1225SOL    HW1 4574   3.153   4.184   6.414
 1225SOL    HW2 4575   3.210   4.300   6.314
 1226SOL     OW 4576   1.935   5.254   1.484
 1226SOL    HW1 4577   1.850   5.304   1.468
 1226SOL    HW2 4578   1.945   5.182   1.415
 1227SOL     OW 4579   0.051   3.998   6.700
 1227SOL    HW1 4580   0.117   3.936   6.743
 1227SOL    HW2 4581   7.004   4.031   6.769
 1228SOL     OW 4582   3.941   2.684   5.971
 1228SOL    HW1 4583   3.932   2.596   5.925
 1228SOL    HW2 4584   4.029   2.687   6.019
 1229SOL     OW 4585   4.056   4.673   6.462
 1229SOL    HW1 4586   4.009   4.606   6.406
 1229SOL    HW2 4587   4.134   4.710   6.412
 1230SOL     OW 4588   4.282   6.629   3.427
 1230SOL    HW1 4589   4.265   6.619   3.330
 1230SOL    HW2 4590   4.196   6.637   3.477
 1231SOL     OW 4591   1.968   3.087   4.972
 1231SOL    HW1 4592   1.967   3.187   4.975
 1231SOL    HW2 4593   1.874   3.053   4.963
 1232SOL     OW 4594   1.272   2.430   5.226
 1232SOL    HW1 4595   1.242   2.465   5.137
 1232SOL    HW2 4596   1.369   2.409   5.223
 1233SOL     OW 4597   0.650   3.111   5.369
 1233SOL    HW1 4598   0.608   3.037   5.315
 1233SOL    HW2 4599   0.727   3.074   5.420
 1234SOL     OW 4600   5.624   4.506   4.784
 1234SOL    HW1 4601   5.548   4.496   4.719
 1234SOL    HW2 4602   5.608   4.585   4.843
 1235SOL     OW 4603   6.343   5.788   3.539
 1235SOL    HW1 4604   6.442   5.796   3.550
 1235SOL    HW2 4605   6.322   5.753   3.447
 1236SOL     OW 4606   5.807   0.748   6.862
 1236SOL    HW1 4607   5.792   0.801   6.779
 1236SOL    HW2 4608   5.832   0.809   6.937
 1237SOL     OW 4609   2.865   4.388   6.733
 1237SOL    HW1 4610   2.782   4.442   6.719
 1237SOL    HW2 4611   2.899   4.404   6.826
 1238SOL     OW 4612   1.854   1.595   0.823
 1238SOL    HW1 4613   1.863   1.659   0.747
 1238SOL    HW2 4614   1.758   1.588   0.849
 1239SOL     OW 4615   6.540   6.145   6.754
 1239SOL    HW1 4616   6.467   6.204   6.721
 1239SOL    HW2 4617   6.526   6.126   6.852
 1240SOL     OW 4618   4.947   6.028   1.981
 1240SOL    HW1 4619   4.875   5.958   1.983
 1240SOL    HW2 4620   4.954   6.066   1.889
 1241SOL     OW 4621   6.742   4.053   4.306
 1241SOL    HW1 4622   6.686   3.971   4.315
 1241SOL    HW2 4623   6.767   4.086   4.397
 1242SOL     OW 4624   2.171   3.859   0.657
 1242SOL    HW1 4625   2.190   3.798   0.734
 1242SOL    HW2 4626   2.096   3.821   0.602
 1243SOL     OW 4627   1.813   5.271   5.627
 1243SOL    HW1 4628   1.745   5.243   5.558
 1243SOL    HW2 4629   1.787   5.359   5.666
 1244SOL     OW 4630   0.335   0.937   3.295
 1244SOL    HW1 4631   0.399   0.996   3.344
 1244SOL    HW2 4632   0.372   0.845   3.288
 1245SOL     OW 4633   3.315   3.561   0.164
 1245SOL    HW1 4634   3.284   3.638   0.219
 1245SOL    HW2 4635   3.333   3.482   0.223
 1246SOL     OW 4636   2.117   6.738   2.103
 1246SOL    HW1 4637   2.149   6.644   2.115
 1246SOL    HW2 4638   2.025   6.748   2.140
 1247SOL     OW 4639   2.087   6.617   5.848
 1247SOL    HW1 4640   2.127   6.531   5.877
 1247SOL    HW2 4641   2.068   6.614   5.750
 1248SOL     OW 4642   2.070   5.419   3.532
 1248SOL    HW1 4643   2.000   5.476   3.576
 1248SOL    HW2 4644   2.027   5.359   3.465
 1249SOL     OW 4645   5.747   3.336   3.540
 1249SOL    HW1 4646   5.668   3.322   3.599
 1249SOL    HW2 4647   5.819   3.382   3.592
 1250SOL     OW 4648   1.030   4.508   3.904
 1250SOL    HW1 4649   1.024   4.408   3.901
 1250SOL    HW2 4650   1.125   4.535   3.922
 1251SOL     OW 4651   3.893   0.463   4.765
 1251SOL    HW1 4652   3.865   0.445   4.670
 1251SOL    HW2 4653   3.993   0.461   4.771
 1252SOL     OW 4654   3.095   4.085   5.656
 1252SOL    HW1 4655   3.180   4.088   5.604
 1252SOL    HW2 4656   3.079   3.992   5.689
 1253SOL     OW 4657   3.999   5.119   2.620
 1253SOL    HW1 4658   4.058   5.154   2.547
 1253SOL    HW2 4659   3.967   5.195   2.676
 1254SOL     OW 4660   6.455   2.015   3.038
 1254SOL    HW1 4661   6.357   2.003   3.027
 1254SOL    HW2 4662   6.475   2.036   3.134
 1255SOL     OW 4663   0.044   6.770   6.200
 1255SOL    HW1 4664   7.012   6.799   6.118
 1255SOL    HW2 4665   6.998   6.762   6.277
 1256SOL     OW 4666   5.892   0.244   3.352
 1256SOL    HW1 4667   5.826   0.229   3.278
 1256SOL    HW2 4668   5.939   0.331   3.338
 1257SOL     OW 4669   6.527   0.734   3.745
 1257SOL    HW1 4670   6.605   0.678   3.714
 1257SOL    HW2 4671   6.554   0.830   3.746
 1258SOL     OW 4672   0.574   6.775   3.334
 1258SOL    HW1 4673   0.654   6.834   3.324
 1258SOL    HW2 4674   0.493   6.823   3.300
 1259SOL     OW 4675   3.737   1.873   4.921
 1259SOL    HW1 4676   3.803   1.933   4.966
 1259SOL    HW2 4677   3.717   1.908   4.829
 1260SOL     OW 4678   0.871   1.163   0.264
 1260SOL    HW1 4679   0.802   1.200   0.326
 1260SOL    HW2 4680   0.826   1.124   0.183
 1261SOL     OW 4681   0.096   5.025   0.382
 1261SOL    HW1 4682   0.138   4.944   0.341
 1261SOL    HW2 4683   0.057   5.083   0.311
 1262SOL     OW 4684   5.497   5.727   1.525
 1262SOL    HW1 4685   5.515   5.815   1.570
 1262SOL    HW2 4686   5.583   5.680   1.508
 1263SOL     OW 4687   1.486   2.679   3.663
 1263SOL    HW1 4688   1.550   2.670   3.739
 1263SOL    HW2 4689   1.522   2.630   3.583
 1264SOL     OW 4690   0.997   2.555   4.782
 1264SOL    HW1 4691   0.982   2.641   4.735
 1264SOL    HW2 4692   0.909   2.509   4.798
 1265SOL     OW 4693   5.948   6.504   4.931
 1265SOL    HW1 4694   5.965   6.551   5.018
 1265SOL    HW2 4695   5.945   6.405   4.947
 1266SOL     OW 4696   1.866   0.460   4.672
 1266SOL    HW1 4697   1.880   0.438   4.768
 1266SOL    HW2 4698   1.883   0.558   4.657
 1267SOL     OW 4699   4.147   0.222   2.443
 1267SOL    HW1 4700   4.246   0.227   2.450
 1267SOL    HW2 4701   4.121   0.134   2.403
 1268SOL     OW 4702   4.337   2.374   5.277
 1268SOL    HW1 4703   4.433   2.379   5.251
 1268SOL    HW2 4704   4.283   2.432   5.216
 1269SOL     OW 4705   6.275   2.681   4.234
 1269SOL    HW1 4706   6.308   2.769   4.202
 1269SOL    HW2 4707   6.199   2.651   4.177
 1270SOL     OW 4708   6.944   4.899   3.308
 1270SOL    HW1 4709   6.960   4.997   3.295
 1270SOL    HW2 4710   6.871   4.869   3.246
 1271SOL     OW 4711   1.382   1.400   1.662
 1271SOL    HW1 4712   1.437   1.338   1.719
 1271SOL    HW2 4713   1.382   1.367   1.568
 1272SOL     OW 4714   6.896   4.202   0.575
 1272SOL    HW1 4715   6.855   4.292   0.556
 1272SOL    HW2 4716   6.830   4.130   0.554
 1273SOL     OW 4717   1.526   4.776   5.381
 1273SOL    HW1 4718   1.453   4.817   5.325
 1273SOL    HW2 4719   1.540   4.681   5.352
 1274SOL     OW 4720   0.721   5.186   2.683
 1274SOL    HW1 4721   0.718   5.151   2.776
 1274SOL    HW2 4722   0.710   5.286   2.685
 1275SOL     OW 4723   2.964   0.676   2.735
 1275SOL    HW1 4724   2.911   0.757   2.760
 1275SOL    HW2 4725   3.043   0.668   2.796
 1276SOL     OW 4726   5.229   4.441   4.027
 1276SOL    HW1 4727   5.173   4.360   4.011
 1276SOL    HW2 4728   5.207   4.512   3.960
 1277SOL     OW 4729   0.359   6.177   0.573
 1277SOL    HW1 4730   0.351   6.126   0.659
 1277SOL    HW2 4731   0.388   6.271   0.593
 1278SOL     OW 4732   1.242   5.876   2.665
 1278SOL    HW1 4733   1.151   5.895   2.702
 1278SOL    HW2 4734   1.295   5.961   2.665
 1279SOL     OW 4735   2.622   1.721   6.915
 1279SOL    HW1 4736   2.634   1.767   7.003
 1279SOL    HW2 4737   2.618   1.788   6.842
 1280SOL     OW 4738   2.595   1.861   3.506
 1280SOL    HW1 4739   2.522   1.890   3.444
 1280SOL    HW2 4740   2.666   1.813   3.454
 1281SOL     OW 4741   4.047   5.909   4.193
 1281SOL    HW1 4742   3.967   5.867   4.150
 1281SOL    HW2 4743   4.122   5.842   4.197
 1282SOL     OW 4744   0.311   2.557   1.179
 1282SOL    HW1 4745   0.391   2.614   1.160
 1282SOL    HW2 4746   0.228   2.612   1.171
 1283SOL     OW 4747   6.519   3.089   5.157
 1283SOL    HW1 4748   6.464   3.033   5.095
 1283SOL    HW2 4749   6.512   3.185   5.130
 1284SOL     OW 4750   4.073   1.477   1.437
 1284SOL    HW1 4751   4.002   1.547   1.446
 1284SOL    HW2 4752   4.090   1.435   1.526
 1285SOL     OW 4753   3.438   0.930   4.948
 1285SOL    HW1 4754   3.477   0.838   4.943
 1285SOL    HW2 4755   3.511   0.996   4.963
 1286SOL     OW 4756   4.428   2.199   2.079
 1286SOL    HW1 4757   4.357   2.220   2.012
 1286SOL    HW2 4758   4.430   2.271   2.149
 1287SOL     OW 4759   6.316   4.448   4.683
 1287SOL    HW1 4760   6.370   4.375   4.726
 1287SOL    HW2 4761   6.224   4.448   4.722
 1288SOL     OW 4762   4.497   4.527   6.327
 1288SOL    HW1 4763   4.529   4.559   6.417
 1288SOL    HW2 4764   4.529   4.434   6.312
 1289SOL     OW 4765   0.163   0.495   1.869
 1289SOL    HW1 4766   0.149   0.574   1.928
 1289SOL    HW2 4767   0.261   0.475   1.863
 1290SOL     OW 4768   1.345   0.110   6.881
 1290SOL    HW1 4769   1.358   0.204   6.850
 1290SOL    HW2 4770   1.252   0.080   6.856
 1291SOL     OW 4771   6.419   5.103   3.235
 1291SOL    HW1 4772   6.475   5.023   3.215
 1291SOL    HW2 4773   6.399   5.151   3.149
 1292SOL     OW 4774   0.902   6.168   2.198
 1292SOL    HW1 4775   0.853   6.095   2.151
 1292SOL    HW2 4776   1.000   6.150   2.195
 1293SOL     OW 4777   3.091   0.918   6.906
 1293SOL    HW1 4778   3.035   0.840   6.878
 1293SOL    HW2 4779   3.046   0.965   6.982
 1294SOL     OW 4780   2.317   3.732   5.625
 1294SOL    HW1 4781   2.317   3.765   5.531
 1294SOL    HW2 4782   2.405   3.689   5.646
 1295SOL     OW 4783   6.654   4.086   0.534
 1295SOL    HW1 4784   6.621   4.106   0.626
 1295SOL    HW2 4785   6.644   4.168   0.477
 1296SOL     OW 4786   5.262   6.812   5.681
 1296SOL    HW1 4787   5.269   6.781   5.586
 1296SOL    HW2 4788   5.353   6.832   5.716
 1297SOL     OW 4789   0.543   0.015   1.800
 1297SOL    HW1 4790   0.627   7.007   1.752
 1297SOL    HW2 4791   0.479   0.056   1.736
 1298SOL     OW 4792   5.523   5.823   2.389
 1298SOL    HW1 4793   5.444   5.858   2.440
 1298SOL    HW2 4794   5.501   5.818   2.292
 1299SOL     OW 4795   1.668   3.274   4.765
 1299SOL    HW1 4796   1.632   3.182   4.775
 1299SOL    HW2 4797   1.610   3.327   4.703
 1300SOL     OW 4798   1.586   4.615   1.710
 1300SOL    HW1 4799   1.613   4.530   1.665
 1300SOL    HW2 4800   1.492   4.637   1.687
 1301SOL     OW 4801   1.139   0.770   1.732
 1301SOL    HW1 4802   1.067   0.714   1.772
 1301SOL    HW2 4803   1.133   0.863   1.769
 1302SOL     OW 4804   5.576   6.538   5.406
 1302SOL    HW1 4805   5.668   6.570   5.383
 1302SOL    HW2 4806   5.566   6.530   5.505
 1303SOL     OW 4807   4.356   6.478   1.338
 1303SOL    HW1 4808   4.288   6.540   1.379
 1303SOL    HW2 4809   4.357   6.490   1.239
 1304SOL     OW 4810   0.283   1.361   1.003
 1304SOL    HW1 4811   0.197   1.394   0.964
 1304SOL    HW2 4812   0.359   1.418   0.970
 1305SOL     OW 4813   5.584   4.136   6.933
 1305SOL    HW1 4814   5.632   4.200   6.873
 1305SOL    HW2 4815   5.490   4.125   6.903
 1306SOL     OW 4816   2.302   5.645   3.962
 1306SOL    HW1 4817   2.325   5.666   3.867
 1306SOL    HW2 4818   2.384   5.616   4.010
 1307SOL     OW 4819   2.277   2.376   4.030
 1307SOL    HW1 4820   2.238   2.324   4.106
 1307SOL    HW2 4821   2.269   2.323   3.945
 1308SOL     OW 4822   6.479   5.691   6.194
 1308SOL    HW1 4823   6.500   5.610   6.139
 1308SOL    HW2 4824   6.531   5.686   6.280
 1309SOL     OW 4825   4.949   4.484   6.647
 1309SOL    HW1 4826   4.942   4.428   6.565
 1309SOL    HW2 4827   5.020   4.554   6.635
 1310SOL     OW 4828   1.520   4.273   3.607
 1310SOL    HW1 4829   1.537   4.346   3.672
 1310SOL    HW2 4830   1.479   4.195   3.654
 1311SOL     OW 4831   6.942   5.694   0.407
 1311SOL    HW1 4832   6.869   5.689   0.339
 1311SOL    HW2 4833   0.010   5.663   0.366
 1312SOL     OW 4834   2.006   0.685   6.141
 1312SOL    HW1 4835   1.997   0.586   6.148
 1312SOL    HW2 4836   1.925   0.728   6.183
 1313SOL     OW 4837   6.578   5.616   3.000
 1313SOL    HW1 4838   6.553   5.522   2.979
 1313SOL    HW2 4839   6.646   5.617   3.073
 1314SOL     OW 4840   2.808   1.835   5.037
 1314SOL    HW1 4841   2.783   1.873   5.126
 1314SOL    HW2 4842   2.776   1.896   4.965
 1315SOL     OW 4843   6.192   0.908   4.400
 1315SOL    HW1 4844   6.197   0.970   4.477
 1315SOL    HW2 4845   6.179   0.960   4.315
 1316SOL     OW 4846   4.388   0.675   4.728
 1316SOL    HW1 4847   4.455   0.670   4.655
 1316SOL    HW2 4848   4.434   0.687   4.816
 1317SOL     OW 4849   2.460   2.780   5.857
 1317SOL    HW1 4850   2.479   2.878   5.868
 1317SOL    HW2 4851   2.500   2.747   5.772
 1318SOL     OW 4852   1.430   3.001   6.500
 1318SOL    HW1 4853   1.441   2.927   6.567
 1318SOL    HW2 4854   1.513   3.006   6.443
 1319SOL     OW 4855   6.928   6.554   0.657
 1319SOL    HW1 4856   6.877   6.591   0.735
 1319SOL    HW2 4857   6.972   6.629   0.608
 1320SOL     OW 4858   3.171   2.721   5.741
 1320SOL    HW1 4859   3.178   2.622   5.723
 1320SOL    HW2 4860   3.078   2.742   5.770
 1321SOL     OW 4861   5.735   2.375   6.661
 1321SOL    HW1 4862   5.669   2.435   6.616
 1321SOL    HW2 4863   5.818   2.426   6.680
 1322SOL     OW 4864   3.333   1.601   0.389
 1322SOL    HW1 4865   3.357   1.693   0.360
 1322SOL    HW2 4866   3.274   1.558   0.320
 1323SOL     OW 4867   3.923   0.482   0.003
 1323SOL    HW1 4868   3.893   0.568   6.978
 1323SOL    HW2 4869   3.905   0.486   0.101
 1324SOL     OW 4870   1.183   3.660   0.043
 1324SOL    HW1 4871   1.143   3.747   0.015
 1324SOL    HW2 4872   1.110   3.599   0.077
 1325SOL     OW 4873   2.934   4.852   6.421
 1325SOL    HW1 4874   2.996   4.845   6.343
 1325SOL    HW2 4875   2.945   4.773   6.480
 1326SOL     OW 4876   4.910   3.608   3.931
 1326SOL    HW1 4877   4.875   3.682   3.874
 1326SOL    HW2 4878   4.880   3.622   4.026
 1327SOL     OW 4879   6.805   6.406   1.218
 1327SOL    HW1 4880   6.904   6.415   1.210
 1327SOL    HW2 4881   6.766   6.494   1.247
 1328SOL     OW 4882   1.065   3.621   5.826
 1328SOL    HW1 4883   1.135   3.671   5.776
 1328SOL    HW2 4884   1.081   3.522   5.817
 1329SOL     OW 4885   0.425   3.181   3.233
 1329SOL    HW1 4886   0.365   3.224   3.302
 1329SOL    HW2 4887   0.518   3.218   3.244
 1330SOL     OW 4888   6.418   3.129   1.086
 1330SOL    HW1 4889   6.496   3.153   1.028
 1330SOL    HW2 4890   6.414   3.030   1.098
 1331SOL     OW 4891   4.725   1.724   3.086
 1331SOL    HW1 4892   4.717   1.642   3.143
 1331SOL    HW2 4893   4.651   1.788   3.109
 1332SOL     OW 4894   1.587   6.850   0.656
 1332SOL    HW1 4895   1.581   6.813   0.749
 1332SOL    HW2 4896   1.499   6.838   0.610
 1333SOL     OW 4897   3.338   3.987   2.838
 1333SOL    HW1 4898   3.327   3.936   2.923
 1333SOL    HW2 4899   3.434   4.011   2.826
 1334SOL     OW 4900   6.648   2.567   2.081
 1334SOL    HW1 4901   6.631   2.629   2.158
 1334SOL    HW2 4902   6.647   2.473   2.114
 1335SOL     OW 4903   1.651   3.729   2.336
 1335SOL    HW1 4904   1.675   3.739   2.239
 1335SOL    HW2 4905   1.582   3.657   2.346
 1336SOL     OW 4906   3.587   0.214   5.007
 1336SOL    HW1 4907   3.634   0.296   5.039
 1336SOL    HW2 4908   3.568   0.154   5.085
 1337SOL     OW 4909   6.913   1.259   3.810
 1337SOL    HW1 4910   6.927   1.260   3.909
 1337SOL    HW2 4911   6.817   1.276   3.789
 1338SOL     OW 4912   5.832   4.102   4.999
 1338SOL    HW1 4913   5.826   4.170   4.926
 1338SOL    HW2 4914   5.924   4.105   5.039
 1339SOL     OW 4915   0.541   0.346   6.901
 1339SOL    HW1 4916   0.457   0.292   6.905
 1339SOL    HW2 4917   0.540   0.415   6.974
 1340SOL     OW 4918   5.038   1.949   1.940
 1340SOL    HW1 4919   4.978   1.948   1.861
 1340SOL    HW2 4920   5.037   2.040   1.981
 1341SOL     OW 4921   4.653   6.924   6.577
 1341SOL    HW1 4922   4.620   6.892   6.666
 1341SOL    HW2 4923   4.746   6.891   6.562
 1342SOL     OW 4924   2.945   5.946   1.183
 1342SOL    HW1 4925   3.042   5.943   1.205
 1342SOL    HW2 4926   2.912   6.041   1.192
 1343SOL     OW 4927   5.479   5.907   2.691
 1343SOL    HW1 4928   5.453   5.816   2.724
 1343SOL    HW2 4929   5.543   5.949   2.755
 1344SOL     OW 4930   0.203   6.908   4.905
 1344SOL    HW1 4931   0.220   6.818   4.865
 1344SOL    HW2 4932   0.261   6.976   4.860
 1345SOL     OW 4933   0.793   5.723   1.446
 1345SOL    HW1 4934   0.712   5.740   1.503
 1345SOL    HW2 4935   0.825   5.629   1.461
 1346SOL     OW 4936   2.566   5.335   6.162
 1346SOL    HW1 4937   2.503   5.318   6.086
 1346SOL    HW2 4938   2.614   5.250   6.185
 1347SOL     OW 4939   1.410   0.339   6.764
 1347SOL    HW1 4940   1.468   0.377   6.836
 1347SOL    HW2 4941   1.348   0.410   6.731
 1348SOL     OW 4942   0.191   6.108   5.493
 1348SOL    HW1 4943   0.159   6.164   5.416
 1348SOL    HW2 4944   0.260   6.043   5.461
 1349SOL     OW 4945   4.896   3.616   4.201
 1349SOL    HW1 4946   4.906   3.552   4.278
 1349SOL    HW2 4947   4.952   3.697   4.217
 1350SOL     OW 4948   3.038   3.451   0.806
 1350SOL    HW1 4949   2.971   3.438   0.733
 1350SOL    HW2 4950   2.992   3.442   0.895
 1351SOL     OW 4951   6.764   2.510   5.417
 1351SOL    HW1 4952   6.734   2.590   5.469
 1351SOL    HW2 4953   6.821   2.540   5.340
 1352SOL     OW 4954   0.014   0.193   2.528
 1352SOL    HW1 4955   0.001   0.292   2.519
 1352SOL    HW2 4956   0.092   0.164   2.473
 1353SOL     OW 4957   0.497   1.200   1.110
 1353SOL    HW1 4958   0.424   1.249   1.064
 1353SOL    HW2 4959   0.513   1.113   1.064
 1354SOL     OW 4960   5.829   4.752   1.916
 1354SOL    HW1 4961   5.757   4.704   1.966
 1354SOL    HW2 4962   5.813   4.851   1.920
 1355SOL     OW 4963   6.153   3.608   5.075
 1355SOL    HW1 4964   6.244   3.648   5.083
 1355SOL    HW2 4965   6.143   3.535   5.141
 1356SOL     OW 4966   3.806   3.218   1.379
 1356SOL    HW1 4967   3.817   3.142   1.315
 1356SOL    HW2 4968   3.725   3.202   1.436
 1357SOL     OW 4969   6.652   3.161   5.720
 1357SOL    HW1 4970   6.599   3.183   5.802
 1357SOL    HW2 4971   6.599   3.182   5.639
 1358SOL     OW 4972   1.301   6.784   0.153
 1358SOL    HW1 4973   1.306   6.694   0.110
 1358SOL    HW2 4974   1.247   6.778   0.237
 1359SOL     OW 4975   6.471   4.472   1.767
 1359SOL    HW1 4976   6.419   4.557   1.758
 1359SOL    HW2 4977   6.420   4.397   1.724
 1360SOL     OW 4978   2.602   2.101   6.487
 1360SOL    HW1 4979   2.533   2.173   6.490
 1360SOL    HW2 4980   2.681   2.132   6.434
 1361SOL     OW 4981   6.943   5.103   4.239
 1361SOL    HW1 4982   6.863   5.104   4.179
 1361SOL    HW2 4983   0.003   5.062   4.190
 1362SOL     OW 4984   3.268   3.029   2.988
 1362SOL    HW1 4985   3.214   3.078   2.920
 1362SOL    HW2 4986   3.313   3.095   3.048
 1363SOL     OW 4987   0.872   5.870   5.277
 1363SOL    HW1 4988   0.803   5.926   5.323
 1363SOL    HW2 4989   0.869   5.777   5.312
 1364SOL     OW 4990   4.280   4.130   0.798
 1364SOL    HW1 4991   4.330   4.050   0.764
 1364SOL    HW2 4992   4.184   4.123   0.771
 1365SOL     OW 4993   0.694   3.471   0.116
 1365SOL    HW1 4994   0.625   3.484   0.044
 1365SOL    HW2 4995   0.783   3.500   0.082
 1366SOL     OW 4996   2.271   6.792   4.703
 1366SOL    HW1 4997   2.329   6.783   4.622
 1366SOL    HW2 4998   2.203   6.864   4.688
 1367SOL     OW 4999   2.362   1.153   2.880
 1367SOL    HW1 5000   2.340   1.057   2.860
 1367SOL    HW2 5001   2.377   1.202   2.794
 1368SOL     OW 5002   5.901   6.722   4.472
 1368SOL    HW1 5003   5.988   6.691   4.435
 1368SOL    HW2 5004   5.886   6.681   4.562
 1369SOL     OW 5005   0.920   0.869   3.076
 1369SOL    HW1 5006   0.936   0.773   3.101
 1369SOL    HW2 5007   0.834   0.900   3.116
 1370SOL     OW 5008   2.792   0.878   1.533
 1370SOL    HW1 5009   2.694   0.891   1.514
 1370SOL    HW2 5010   2.836   0.839   1.452
 1371SOL     OW 5011   3.788   0.972   6.093
 1371SOL    HW1 5012   3.843   1.003   6.016
 1371SOL    HW2 5013   3.843   0.910   6.150
 1372SOL     OW 5014   3.440   1.813   2.232
 1372SOL    HW1 5015   3.490   1.899   2.221
 1372SOL    HW2 5016   3.482   1.742   2.177
 1373SOL     OW 5017   0.919   6.185   0.818
 1373SOL    HW1 5018   0.902   6.119   0.745
 1373SOL    HW2 5019   1.017   6.186   0.840
 1374SOL     OW 5020   4.940   2.463   0.417
 1374SOL    HW1 5021   5.002   2.453   0.339
 1374SOL    HW2 5022   4.982   2.422   0.498
 1375SOL     OW 5023   0.333   4.412   5.768
 1375SOL    HW1 5024   0.245   4.386   5.809
 1375SOL    HW2 5025   0.382   4.329   5.740
 1376SOL     OW 5026   5.051   1.958   2.733
 1376SOL    HW1 5027   4.996   1.928   2.654
 1376SOL    HW2 5028   5.145   1.927   2.722
 1377SOL     OW 5029   0.308   5.475   4.788
 1377SOL    HW1 5030   0.294   5.411   4.713
 1377SOL    HW2 5031   0.224   5.526   4.805
 1378SOL     OW 5032   1.571   1.855   1.044
 1378SOL    HW1 5033   1.606   1.944   1.016
 1378SOL    HW2 5034   1.475   1.846   1.017
 1379SOL     OW 5035   3.775   6.258   1.738
 1379SOL    HW1 5036   3.779   6.193   1.814
 1379SOL    HW2 5037   3.863   6.261   1.691
 1380SOL     OW 5038   6.179   6.721   2.290
 1380SOL    HW1 5039   6.183   6.664   2.372
 1380SOL    HW2 5040   6.272   6.743   2.260
 1381SOL     OW 5041   6.145   1.529   1.542
 1381SOL    HW1 5042   6.245   1.533   1.543
 1381SOL    HW2 5043   6.112   1.566   1.455
 1382SOL     OW 5044   5.618   5.103   6.715
 1382SOL    HW1 5045   5.648   5.126   6.622
 1382SOL    HW2 5046   5.532   5.149   6.734
 1383SOL     OW 5047   2.712   0.549   0.400
 1383SOL    HW1 5048   2.689   0.522   0.307
 1383SOL    HW2 5049   2.746   0.470   0.451
 1384SOL     OW 5050   3.439   2.065   2.868
 1384SOL    HW1 5051   3.396   2.146   2.827
 1384SOL    HW2 5052   3.507   2.029   2.804
 1385SOL     OW 5053   6.114   3.041   2.668
 1385SOL    HW1 5054   6.185   3.074   2.730
 1385SOL    HW2 5055   6.139   2.950   2.635
 1386SOL     OW 5056   2.048   2.586   4.215
 1386SOL    HW1 5057   2.083   2.666   4.263
 1386SOL    HW2 5058   2.092   2.503   4.250
 1387SOL     OW 5059   1.943   0.620   4.990
 1387SOL    HW1 5060   1.916   0.626   5.086
 1387SOL    HW2 5061   1.875   0.566   4.940
 1388SOL     OW 5062   6.678   1.099   4.505
 1388SOL    HW1 5063   6.763   1.058   4.473
 1388SOL    HW2 5064   6.601   1.044   4.475
 1389SOL     OW 5065   6.560   0.480   4.832
 1389SOL    HW1 5066   6.496   0.473   4.755
 1389SOL    HW2 5067   6.644   0.429   4.810
 1390SOL     OW 5068   4.668   2.548   2.716
 1390SOL    HW1 5069   4.696   2.644   2.720
 1390SOL    HW2 5070   4.699   2.500   2.798
 1391SOL     OW 5071   5.726   1.049   4.796
 1391SOL    HW1 5072   5.703   1.011   4.886
 1391SOL    HW2 5073   5.662   1.014   4.728
 1392SOL     OW 5074   4.433   5.171   6.019
 1392SOL    HW1 5075   4.403   5.138   5.930
 1392SOL    HW2 5076   4.381   5.124   6.091
 1393SOL     OW 5077   6.124   0.690   6.892
 1393SOL    HW1 5078   6.027   0.709   6.906
 1393SOL    HW2 5079   6.169   0.682   6.981
 1394SOL     OW 5080   4.242   0.007   4.024
 1394SOL    HW1 5081   4.149   7.010   3.988
 1394SOL    HW2 5082   4.287   6.936   4.034
 1395SOL     OW 5083   0.720   5.387   2.422
 1395SOL    HW1 5084   0.739   5.428   2.512
 1395SOL    HW2 5085   0.805   5.351   2.384
 1396SOL     OW 5086   1.590   1.875   3.964
 1396SOL    HW1 5087   1.564   1.871   4.060
 1396SOL    HW2 5088   1.568   1.965   3.927
 1397SOL     OW 5089   0.552   5.643   4.783
 1397SOL    HW1 5090   0.487   5.567   4.773
 1397SOL    HW2 5091   0.581   5.674   4.692
 1398SOL     OW 5092   0.434   0.027   0.520
 1398SOL    HW1 5093   0.440   0.006   0.618
 1398SOL    HW2 5094   0.493   0.104   0.499
 1399SOL     OW 5095   3.960   0.264   0.245
 1399SOL    HW1 5096   4.044   0.279   0.193
 1399SOL    HW2 5097   3.916   0.352   0.264
 1400SOL     OW 5098   0.135   0.750   4.932
 1400SOL    HW1 5099   0.159   0.748   5.030
 1400SOL    HW2 5100   0.216   0.779   4.880
 1401SOL     OW 5101   5.611   0.282   3.420
 1401SOL    HW1 5102   5.626   0.235   3.332
 1401SOL    HW2 5103   5.682   0.254   3.485
 1402SOL     OW 5104   6.969   4.851   2.392
 1402SOL    HW1 5105   0.029   4.862   2.329
 1402SOL    HW2 5106   7.004   4.828   2.483
 1403SOL     OW 5107   3.215   3.142   6.519
 1403SOL    HW1 5108   3.122   3.176   6.530
 1403SOL    HW2 5109   3.254   3.122   6.609
 1404SOL     OW 5110   3.913   0.011   0.369
 1404SOL    HW1 5111   3.911   6.960   0.296
 1404SOL    HW2 5112   3.924   0.102   0.329
 1405SOL     OW 5113   1.067   3.854   1.463
 1405SOL    HW1 5114   1.073   3.931   1.400
 1405SOL    HW2 5115   1.027   3.775   1.416
 1406SOL     OW 5116   2.158   3.011   0.910
 1406SOL    HW1 5117   2.200   3.081   0.968
 1406SOL    HW2 5118   2.211   2.926   0.918
 1407SOL     OW 5119   0.114   3.556   1.142
 1407SOL    HW1 5120   0.165   3.509   1.071
 1407SOL    HW2 5121   0.178   3.595   1.209
 1408SOL     OW 5122   5.634   6.742   0.958
 1408SOL    HW1 5123   5.705   6.794   0.911
 1408SOL    HW2 5124   5.583   6.802   1.019
 1409SOL     OW 5125   6.790   1.638   5.761
 1409SOL    HW1 5126   6.696   1.607   5.760
 1409SOL    HW2 5127   6.801   1.712   5.694
 1410SOL     OW 5128   3.980   0.971   5.881
 1410SOL    HW1 5129   3.927   0.952   5.798
 1410SOL    HW2 5130   4.077   0.961   5.862
 1411SOL     OW 5131   3.532   5.345   0.089
 1411SOL    HW1 5132   3.581   5.262   0.063
 1411SOL    HW2 5133   3.595   5.407   0.138
 1412SOL     OW 5134   2.181   3.141   0.268
 1412SOL    HW1 5135   2.272   3.101   0.261
 1412SOL    HW2 5136   2.174   3.218   0.204
 1413SOL     OW 5137   1.349   1.286   4.833
 1413SOL    HW1 5138   1.384   1.365   4.783
 1413SOL    HW2 5139   1.270   1.314   4.888
 1414SOL     OW 5140   0.814   4.401   2.623
 1414SOL    HW1 5141   0.846   4.362   2.710
 1414SOL    HW2 5142   0.852   4.492   2.611
 1415SOL     OW 5143   2.581   1.631   4.952
 1415SOL    HW1 5144   2.680   1.646   4.959
 1415SOL    HW2 5145   2.538   1.715   4.918
 1416SOL     OW 5146   4.578   0.676   4.530
 1416SOL    HW1 5147   4.670   0.695   4.564
 1416SOL    HW2 5148   4.540   0.758   4.487
 1417SOL     OW 5149   3.909   3.389   5.718
 1417SOL    HW1 5150   3.890   3.408   5.622
 1417SOL    HW2 5151   3.825   3.360   5.764
 1418SOL     OW 5152   3.945   4.198   5.797
 1418SOL    HW1 5153   3.884   4.255   5.851
 1418SOL    HW2 5154   3.936   4.103   5.826
 1419SOL     OW 5155   1.659   5.502   2.074
 1419SOL    HW1 5156   1.636   5.555   1.992
 1419SOL    HW2 5157   1.689   5.565   2.146
 1420SOL     OW 5158   2.770   6.812   2.805
 1420SOL    HW1 5159   2.713   6.850   2.879
 1420SOL    HW2 5160   2.865   6.838   2.820
 1421SOL     OW 5161   1.303   4.887   5.742
 1421SOL    HW1 5162   1.297   4.859   5.838
 1421SOL    HW2 5163   1.218   4.933   5.715
 1422SOL     OW 5164   2.307   3.415   6.191
 1422SOL    HW1 5165   2.225   3.470   6.180
 1422SOL    HW2 5166   2.384   3.460   6.145
 1423SOL     OW 5167   4.343   0.330   4.415
 1423SOL    HW1 5168   4.252   0.353   4.380
 1423SOL    HW2 5169   4.408   0.324   4.340
 1424SOL     OW 5170   6.070   2.920   0.334
 1424SOL    HW1 5171   6.070   2.990   0.263
 1424SOL    HW2 5172   6.033   2.835   0.297
 1425SOL     OW 5173   5.431   6.774   3.607
 1425SOL    HW1 5174   5.374   6.693   3.621
 1425SOL    HW2 5175   5.388   6.853   3.649
 1426SOL     OW 5176   3.391   2.029   6.876
 1426SOL    HW1 5177   3.418   1.972   6.798
 1426SOL    HW2 5178   3.292   2.043   6.874
 1427SOL     OW 5179   1.859   6.974   3.428
 1427SOL    HW1 5180   1.760   6.975   3.443
 1427SOL    HW2 5181   1.896   6.887   3.460
 1428SOL     OW 5182   0.586   2.438   3.813
 1428SOL    HW1 5183   0.552   2.493   3.737
 1428SOL    HW2 5184   0.657   2.376   3.780
 1429SOL     OW 5185   6.478   1.054   1.645
 1429SOL    HW1 5186   6.499   0.975   1.703
 1429SOL    HW2 5187   6.476   1.026   1.549
 1430SOL     OW 5188   2.129   3.402   4.242
 1430SOL    HW1 5189   2.122   3.398   4.341
 1430SOL    HW2 5190   2.174   3.320   4.208
 1431SOL     OW 5191   2.770   0.806   6.846
 1431SOL    HW1 5192   2.724   0.848   6.768
 1431SOL    HW2 5193   2.763   0.706   6.840
 1432SOL     OW 5194   3.353   1.000   2.109
 1432SOL    HW1 5195   3.334   1.091   2.073
 1432SOL    HW2 5196   3.400   1.007   2.197
 1433SOL     OW 5197   2.440   0.289   3.826
 1433SOL    HW1 5198   2.380   0.222   3.870
 1433SOL    HW2 5199   2.392   0.332   3.750
 1434SOL     OW 5200   0.090   3.405   0.650
 1434SOL    HW1 5201   0.061   3.412   0.554
 1434SOL    HW2 5202   0.113   3.496   0.685
 1435SOL     OW 5203   1.590   0.119   3.766
 1435SOL    HW1 5204   1.670   0.170   3.797
 1435SOL    HW2 5205   1.533   0.094   3.844
 1436SOL     OW 5206   5.260   1.125   6.875
 1436SOL    HW1 5207   5.288   1.221   6.873
 1436SOL    HW2 5208   5.181   1.114   6.935
 1437SOL     OW 5209   3.890   0.356   6.280
 1437SOL    HW1 5210   3.968   0.417   6.298
 1437SOL    HW2 5211   3.920   0.280   6.222
 1438SOL     OW 5212   2.141   0.743   1.908
 1438SOL    HW1 5213   2.230   0.758   1.951
 1438SOL    HW2 5214   2.133   0.800   1.826
 1439SOL     OW 5215   0.108   4.350   6.830
 1439SOL    HW1 5216   0.194   4.396   6.848
 1439SOL    HW2 5217   0.091   4.281   6.900
 1440SOL     OW 5218   3.444   3.111   3.240
 1440SOL    HW1 5219   3.503   3.153   3.171
 1440SOL    HW2 5220   3.487   3.119   3.330
 1441SOL     OW 5221   6.530   3.447   3.870
 1441SOL    HW1 5222   6.436   3.412   3.881
 1441SOL    HW2 5223   6.547   3.519   3.937
 1442SOL     OW 5224   5.503   6.380   6.787
 1442SOL    HW1 5225   5.498   6.456   6.852
 1442SOL    HW2 5226   5.562   6.405   6.711
 1443SOL     OW 5227   1.060   2.520   3.456
 1443SOL    HW1 5228   1.105   2.432   3.470
 1443SOL    HW2 5229   1.124   2.594   3.477
 1444SOL     OW 5230   5.173   1.031   4.703
 1444SOL    HW1 5231   5.211   0.950   4.659
 1444SOL    HW2 5232   5.242   1.104   4.704
 1445SOL     OW 5233   6.271   2.487   0.983
 1445SOL    HW1 5234   6.216   2.487   1.067
 1445SOL    HW2 5235   6.368   2.479   1.008
 1446SOL     OW 5236   4.530   0.503   0.936
 1446SOL    HW1 5237   4.520   0.470   1.030
 1446SOL    HW2 5238   4.604   0.571   0.932
 1447SOL     OW 5239   5.366   1.277   5.667
 1447SOL    HW1 5240   5.346   1.231   5.753
 1447SOL    HW2 5241   5.440   1.230   5.620
 1448SOL     OW 5242   5.657   0.230   6.892
 1448SOL    HW1 5243   5.596   0.152   6.876
 1448SOL    HW2 5244   5.686   0.231   6.988
 1449SOL     OW 5245   4.676   5.455   0.961
 1449SOL    HW1 5246   4.688   5.554   0.952
 1449SOL    HW2 5247   4.675   5.413   0.870
 1450SOL     OW 5248   5.683   2.157   3.866
 1450SOL    HW1 5249   5.702   2.101   3.786
 1450SOL    HW2 5250   5.692   2.254   3.842
 1451SOL     OW 5251   1.422   6.733   2.428
 1451SOL    HW1 5252   1.405   6.831   2.416
 1451SOL    HW2 5253   1.519   6.715   2.409
 1452SOL     OW 5254   4.729   0.688   5.176
 1452SOL    HW1 5255   4.722   0.658   5.272
 1452SOL    HW2 5256   4.796   0.761   5.169
 1453SOL     OW 5257   4.530   4.564   4.356
 1453SOL    HW1 5258   4.502   4.469   4.370
 1453SOL    HW2 5259   4.627   4.573   4.377
 1454SOL     OW 5260   4.566   3.948   1.408
 1454SOL    HW1 5261   4.603   3.958   1.316
 1454SOL    HW2 5262   4.490   4.011   1.421
 1455SOL     OW 5263   2.020   2.372   1.422
 1455SOL    HW1 5264   2.014   2.306   1.497
 1455SOL    HW2 5265   2.109   2.418   1.426
 1456SOL     OW 5266   0.008   5.494   4.003
 1456SOL    HW1 5267   6.972   5.513   4.086
 1456SOL    HW2 5268   0.031   5.579   3.957
 1457SOL     OW 5269   2.006   0.015   2.949
 1457SOL    HW1 5270   1.911   7.016   2.921
 1457SOL    HW2 5271   2.016   0.109   2.981
 1458SOL     OW 5272   6.534   5.492   0.061
 1458SOL    HW1 5273   6.569   5.471   0.152
 1458SOL    HW2 5274   6.578   5.434   7.011
 1459SOL     OW 5275   2.663   6.963   0.725
 1459SOL    HW1 5276   2.707   0.007   0.791
 1459SOL    HW2 5277   2.582   6.922   0.766
 1460SOL     OW 5278   0.480   6.279   0.111
 1460SOL    HW1 5279   0.538   6.256   0.189
 1460SOL    HW2 5280   0.384   6.259   0.133
 1461SOL     OW 5281   4.960   5.017   1.355
 1461SOL    HW1 5282   4.896   4.973   1.292
 1461SOL    HW2 5283   4.927   5.109   1.376
 1462SOL     OW 5284   5.531   0.210   5.763
 1462SOL    HW1 5285   5.438   0.179   5.744
 1462SOL    HW2 5286   5.532   0.260   5.850
 1463SOL     OW 5287   0.517   0.845   5.188
 1463SOL    HW1 5288   0.506   0.745   5.192
 1463SOL    HW2 5289   0.442   0.885   5.135
 1464SOL     OW 5290   6.950   6.868   1.452
 1464SOL    HW1 5291   6.978   6.960   1.481
 1464SOL    HW2 5292   6.858   6.849   1.485
 1465SOL     OW 5293   0.603   6.891   4.943
 1465SOL    HW1 5294   0.560   6.830   5.010
 1465SOL    HW2 5295   0.543   6.901   4.864
 1466SOL     OW 5296   5.358   5.353   4.202
 1466SOL    HW1 5297   5.308   5.359   4.288
 1466SOL    HW2 5298   5.436   5.292   4.214
 1467SOL     OW 5299   6.538   3.944   2.596
 1467SOL    HW1 5300   6.463   3.910   2.539
 1467SOL    HW2 5301   6.514   4.033   2.633
 1468SOL     OW 5302   5.538   6.453   2.735
 1468SOL    HW1 5303   5.499   6.374   2.689
 1468SOL    HW2 5304   5.515   6.536   2.684
 1469SOL     OW 5305   0.253   0.789   2.800
 1469SOL    HW1 5306   0.316   0.808   2.876
 1469SOL    HW2 5307   0.173   0.740   2.835
 1470SOL     OW 5308   0.083   0.998   3.447
 1470SOL    HW1 5309   0.180   0.990   3.422
 1470SOL    HW2 5310   0.069   1.084   3.496
 1471SOL     OW 5311   6.646   0.535   0.324
 1471SOL    HW1 5312   6.691   0.613   0.281
 1471SOL    HW2 5313   6.553   0.562   0.352
 1472SOL     OW 5314   4.382   6.571   5.252
 1472SOL    HW1 5315   4.375   6.499   5.321
 1472SOL    HW2 5316   4.381   6.660   5.296
 1473SOL     OW 5317   5.902   4.489   3.935
 1473SOL    HW1 5318   5.976   4.456   3.993
 1473SOL    HW2 5319   5.819   4.500   3.990
 1474SOL     OW 5320   4.965   5.011   3.649
 1474SOL    HW1 5321   5.063   5.028   3.636
 1474SOL    HW2 5322   4.923   5.090   3.692
 1475SOL     OW 5323   6.788   0.657   3.051
 1475SOL    HW1 5324   6.837   0.718   3.113
 1475SOL    HW2 5325   6.799   0.689   2.957
 1476SOL     OW 5326   6.466   2.325   1.093
 1476SOL    HW1 5327   6.550   2.379   1.093
 1476SOL    HW2 5328   6.489   2.228   1.105
 1477SOL     OW 5329   2.942   6.504   2.813
 1477SOL    HW1 5330   3.009   6.565   2.857
 1477SOL    HW2 5331   2.891   6.554   2.744
 1478SOL     OW 5332   6.683   4.566   1.966
 1478SOL    HW1 5333   6.636   4.652   1.987
 1478SOL    HW2 5334   6.689   4.554   1.867
 1479SOL     OW 5335   1.316   5.813   0.506
 1479SOL    HW1 5336   1.248   5.848   0.570
 1479SOL    HW2 5337   1.280   5.733   0.458
 1480SOL     OW 5338   2.813   0.830   0.097
 1480SOL    HW1 5339   2.793   0.797   0.005
 1480SOL    HW2 5340   2.728   0.838   0.150
 1481SOL     OW 5341   6.919   2.326   6.272
 1481SOL    HW1 5342   6.976   2.246   6.289
 1481SOL    HW2 5343   6.949   2.402   6.330
 1482SOL     OW 5344   6.303   0.831   6.710
 1482SOL    HW1 5345   6.246   0.791   6.781
 1482SOL    HW2 5346   6.295   0.930   6.713
 1483SOL     OW 5347   6.179   2.733   6.516
 1483SOL    HW1 5348   6.093   2.765   6.554
 1483SOL    HW2 5349   6.161   2.670   6.440
 1484SOL     OW 5350   6.219   6.576   2.514
 1484SOL    HW1 5351   6.285   6.606   2.583
 1484SOL    HW2 5352   6.250   6.489   2.474
 1485SOL     OW 5353   5.797   2.932   4.274
 1485SOL    HW1 5354   5.782   2.840   4.310
 1485SOL    HW2 5355   5.710   2.978   4.259
 1486SOL     OW 5356   4.828   1.956   2.566
 1486SOL    HW1 5357   4.806   2.049   2.593
 1486SOL    HW2 5358   4.782   1.891   2.626
 1487SOL     OW 5359   6.237   1.324   5.481
 1487SOL    HW1 5360   6.220   1.341   5.384
 1487SOL    HW2 5361   6.324   1.276   5.491
 1488SOL     OW 5362   4.096   1.755   2.797
 1488SOL    HW1 5363   4.025   1.796   2.740
 1488SOL    HW2 5364   4.148   1.689   2.743
 1489SOL     OW 5365   3.599   4.889   4.484
 1489SOL    HW1 5366   3.698   4.905   4.480
 1489SOL    HW2 5367   3.552   4.977   4.496
 1490SOL     OW 5368   2.070   2.610   0.792
 1490SOL    HW1 5369   2.020   2.697   0.784
 1490SOL    HW2 5370   2.088   2.573   0.701
 1491SOL     OW 5371   0.064   2.492   5.594
 1491SOL    HW1 5372   0.159   2.523   5.596
 1491SOL    HW2 5373   0.004   2.570   5.613
 1492SOL     OW 5374   5.475   2.898   2.470
 1492SOL    HW1 5375   5.516   2.984   2.503
 1492SOL    HW2 5376   5.458   2.905   2.372
 1493SOL     OW 5377   5.492   0.576   4.882
 1493SOL    HW1 5378   5.416   0.627   4.923
 1493SOL    HW2 5379   5.495   0.484   4.922
 1494SOL     OW 5380   5.183   2.586   4.672
 1494SOL    HW1 5381   5.197   2.652   4.746
 1494SOL    HW2 5382   5.102   2.612   4.620
 1495SOL     OW 5383   2.082   2.661   2.699
 1495SOL    HW1 5384   2.175   2.634   2.673
 1495SOL    HW2 5385   2.084   2.754   2.736
 1496SOL     OW 5386   0.708   1.386   3.079
 1496SOL    HW1 5387   0.693   1.468   3.135
 1496SOL    HW2 5388   0.784   1.401   3.016
 1497SOL     OW 5389   5.027   4.651   5.584
 1497SOL    HW1 5390   5.074   4.563   5.582
 1497SOL    HW2 5391   5.090   4.722   5.612
 1498SOL     OW 5392   2.127   5.658   0.247
 1498SOL    HW1 5393   2.153   5.737   0.192
 1498SOL    HW2 5394   2.204   5.593   0.251
 1499SOL     OW 5395   0.666   4.983   5.116
 1499SOL    HW1 5396   0.641   4.887   5.125
 1499SOL    HW2 5397   0.754   4.999   5.160
 1500SOL     OW 5398   4.364   6.790   5.379
 1500SOL    HW1 5399   4.312   6.854   5.436
 1500SOL    HW2 5400   4.461   6.806   5.393
 1501SOL     OW 5401   4.226   0.079   6.432
 1501SOL    HW1 5402   4.260   0.172   6.446
 1501SOL    HW2 5403   4.164   0.054   6.506
 1502SOL     OW 5404   6.363   6.355   0.199
 1502SOL    HW1 5405   6.461   6.350   0.179
 1502SOL    HW2 5406   6.337   6.277   0.256
 1503SOL     OW 5407   3.134   3.747   5.692
 1503SOL    HW1 5408   3.133   3.680   5.618
 1503SOL    HW2 5409   3.228   3.760   5.724
 1504SOL     OW 5410   2.598   5.954   4.237
 1504SOL    HW1 5411   2.591   5.925   4.333
 1504SOL    HW2 5412   2.506   5.962   4.199
 1505SOL     OW 5413   4.819   5.288   1.405
 1505SOL    HW1 5414   4.881   5.363   1.426
 1505SOL    HW2 5415   4.783   5.299   1.313
 1506SOL     OW 5416   0.401   6.479   2.797
 1506SOL    HW1 5417   0.342   6.400   2.809
 1506SOL    HW2 5418   0.410   6.528   2.883
 1507SOL     OW 5419   2.193   1.136   6.071
 1507SOL    HW1 5420   2.276   1.080   6.068
 1507SOL    HW2 5421   2.169   1.156   6.166
 1508SOL     OW 5422   4.621   0.274   0.525
 1508SOL    HW1 5423   4.706   0.327   0.523
 1508SOL    HW2 5424   4.618   0.213   0.446
 1509SOL     OW 5425   5.181   1.704   0.352
 1509SOL    HW1 5426   5.157   1.766   0.426
 1509SOL    HW2 5427   5.098   1.668   0.309
 1510SOL     OW 5428   0.142   1.488   4.022
 1510SOL    HW1 5429   0.132   1.574   4.073
 1510SOL    HW2 5430   0.154   1.508   3.925
 1511SOL     OW 5431   2.177   2.427   0.585
 1511SOL    HW1 5432   2.170   2.411   0.683
 1511SOL    HW2 5433   2.272   2.445   0.561
 1512SOL     OW 5434   6.087   0.437   2.689
 1512SOL    HW1 5435   6.012   0.393   2.639
 1512SOL    HW2 5436   6.094   0.532   2.661
 1513SOL     OW 5437   3.954   1.295   2.284
 1513SOL    HW1 5438   3.923   1.387   2.258
 1513SOL    HW2 5439   3.878   1.231   2.280
 1514SOL     OW 5440   5.221   1.720   5.507
 1514SOL    HW1 5441   5.151   1.665   5.461
 1514SOL    HW2 5442   5.266   1.779   5.440
 1515SOL     OW 5443   6.217   4.873   4.882
 1515SOL    HW1 5444   6.199   4.969   4.901
 1515SOL    HW2 5445   6.299   4.844   4.933
 1516SOL     OW 5446   0.903   1.498   1.168
 1516SOL    HW1 5447   0.955   1.463   1.246
 1516SOL    HW2 5448   0.829   1.558   1.201
 1517SOL     OW 5449   3.795   5.125   3.102
 1517SOL    HW1 5450   3.776   5.081   3.190
 1517SOL    HW2 5451   3.744   5.078   3.030
 1518SOL     OW 5452   0.671   4.845   1.490
 1518SOL    HW1 5453   0.716   4.817   1.575
 1518SOL    HW2 5454   0.685   4.942   1.474
 1519SOL     OW 5455   6.753   4.888   0.926
 1519SOL    HW1 5456   6.845   4.882   0.963
 1519SOL    HW2 5457   6.721   4.983   0.929
 1520SOL     OW 5458   1.266   2.950   3.376
 1520SOL    HW1 5459   1.364   2.966   3.376
 1520SOL    HW2 5460   1.218   3.033   3.347
 1521SOL     OW 5461   2.546   4.270   5.933
 1521SOL    HW1 5462   2.477   4.335   5.900
 1521SOL    HW2 5463   2.501   4.195   5.981
 1522SOL     OW 5464   6.896   2.142   6.656
 1522SOL    HW1 5465   6.890   2.053   6.612
 1522SOL    HW2 5466   6.978   2.147   6.712
 1523SOL     OW 5467   6.650   1.335   0.937
 1523SOL    HW1 5468   6.644   1.410   1.003
 1523SOL    HW2 5469   6.666   1.373   0.845
 1524SOL     OW 5470   6.655   1.030   2.622
 1524SOL    HW1 5471   6.580   0.999   2.564
 1524SOL    HW2 5472   6.740   0.985   2.594
 1525SOL     OW 5473   4.085   1.665   6.187
 1525SOL    HW1 5474   4.085   1.658   6.087
 1525SOL    HW2 5475   4.071   1.575   6.226
 1526SOL     OW 5476   6.862   2.075   1.112
 1526SOL    HW1 5477   6.904   2.010   1.048
 1526SOL    HW2 5478   6.926   2.094   1.186
 1527SOL     OW 5479   2.993   1.659   5.658
 1527SOL    HW1 5480   2.932   1.606   5.718
 1527SOL    HW2 5481   2.945   1.742   5.628
 1528SOL     OW 5482   4.864   6.241   3.478
 1528SOL    HW1 5483   4.926   6.233   3.556
 1528SOL    HW2 5484   4.825   6.152   3.457
 1529SOL     OW 5485   2.972   0.502   5.670
 1529SOL    HW1 5486   3.023   0.579   5.707
 1529SOL    HW2 5487   3.036   0.430   5.642
 1530SOL     OW 5488   3.508   6.852   1.917
 1530SOL    HW1 5489   3.477   6.935   1.962
 1530SOL    HW2 5490   3.517   6.778   1.984
 1531SOL     OW 5491   6.860   0.167   4.967
 1531SOL    HW1 5492   6.885   0.198   5.059
 1531SOL    HW2 5493   6.770   0.203   4.943
 1532SOL     OW 5494   3.026   2.102   5.196
 1532SOL    HW1 5495   3.083   2.174   5.157
 1532SOL    HW2 5496   3.078   2.017   5.200
 1533SOL     OW 5497   5.649   3.028   6.933
 1533SOL    HW1 5498   5.711   3.097   6.969
 1533SOL    HW2 5499   5.702   2.957   6.885
 1534SOL     OW 5500   0.420   6.778   1.392
 1534SOL    HW1 5501   0.429   6.741   1.299
 1534SOL    HW2 5502   0.432   6.705   1.458
 1535SOL     OW 5503   5.119   5.306   4.381
 1535SOL    HW1 5504   5.078   5.293   4.291
 1535SOL    HW2 5505   5.141   5.403   4.394
 1536SOL     OW 5506   3.020   5.687   3.651
 1536SOL    HW1 5507   3.013   5.588   3.667
 1536SOL    HW2 5508   3.061   5.731   3.731
 1537SOL     OW 5509   2.608   5.184   4.309
 1537SOL    HW1 5510   2.670   5.180   4.388
 1537SOL    HW2 5511   2.592   5.092   4.274
 1538SOL     OW 5512   2.389   5.078   6.696
 1538SOL    HW1 5513   2.344   5.126   6.621
 1538SOL    HW2 5514   2.476   5.040   6.664
 1539SOL     OW 5515   3.178   4.681   1.484
 1539SOL    HW1 5516   3.254   4.668   1.548
 1539SOL    HW2 5517   3.093   4.688   1.535
 1540SOL     OW 5518   0.196   6.821   5.162
 1540SOL    HW1 5519   0.193   6.856   5.069
 1540SOL    HW2 5520   0.121   6.756   5.176
 1541SOL     OW 5521   5.256   2.299   1.100
 1541SOL    HW1 5522   5.285   2.213   1.142
 1541SOL    HW2 5523   5.189   2.344   1.159
 1542SOL     OW 5524   0.878   6.695   0.898
 1542SOL    HW1 5525   0.919   6.673   0.809
 1542SOL    HW2 5526   0.789   6.651   0.906
 1543SOL     OW 5527   3.120   3.944   4.277
 1543SOL    HW1 5528   3.070   3.910   4.197
 1543SOL    HW2 5529   3.193   4.004   4.247
 1544SOL     OW 5530   3.849   4.031   3.091
 1544SOL    HW1 5531   3.905   4.035   3.174
 1544SOL    HW2 5532   3.890   3.968   3.026
 1545SOL     OW 5533   6.466   0.981   4.945
 1545SOL    HW1 5534   6.383   0.999   4.998
 1545SOL    HW2 5535   6.443   0.971   4.849
 1546SOL     OW 5536   0.157   6.437   5.984
 1546SOL    HW1 5537   0.193   6.497   6.055
 1546SOL    HW2 5538   0.078   6.480   5.940
 1547SOL     OW 5539   3.947   5.946   6.889
 1547SOL    HW1 5540   3.880   5.987   6.828
 1547SOL    HW2 5541   4.011   5.890   6.836
 1548SOL     OW 5542   6.381   4.523   4.115
 1548SOL    HW1 5543   6.371   4.543   4.017
 1548SOL    HW2 5544   6.387   4.608   4.166
 1549SOL     OW 5545   6.435   1.547   1.571
 1549SOL    HW1 5546   6.486   1.606   1.508
 1549SOL    HW2 5547   6.417   1.595   1.656
 1550SOL     OW 5548   2.493   5.852   3.899
 1550SOL    HW1 5549   2.516   5.793   3.977
 1550SOL    HW2 5550   2.502   5.799   3.815
 1551SOL     OW 5551   1.199   2.920   0.991
 1551SOL    HW1 5552   1.181   2.849   0.923
 1551SOL    HW2 5553   1.285   2.967   0.969
 1552SOL     OW 5554   0.579   0.263   0.423
 1552SOL    HW1 5555   0.571   0.362   0.411
 1552SOL    HW2 5556   0.575   0.219   0.333
 1553SOL     OW 5557   5.809   1.654   6.450
 1553SOL    HW1 5558   5.797   1.668   6.352
 1553SOL    HW2 5559   5.720   1.642   6.494
 1554SOL     OW 5560   3.253   1.571   0.887
 1554SOL    HW1 5561   3.249   1.487   0.942
 1554SOL    HW2 5562   3.318   1.635   0.927
 1555SOL     OW 5563   4.661   1.099   5.891
 1555SOL    HW1 5564   4.583   1.161   5.896
 1555SOL    HW2 5565   4.630   1.005   5.894
 1556SOL     OW 5566   3.366   1.851   0.291
 1556SOL    HW1 5567   3.287   1.837   0.231
 1556SOL    HW2 5568   3.445   1.877   0.237
 1557SOL     OW 5569   1.772   2.582   0.378
 1557SOL    HW1 5570   1.776   2.676   0.411
 1557SOL    HW2 5571   1.860   2.537   0.393
 1558SOL     OW 5572   5.549   2.699   6.640
 1558SOL    HW1 5573   5.546   2.624   6.573
 1558SOL    HW2 5574   5.540   2.786   6.591
 1559SOL     OW 5575   2.380   5.279   3.880
 1559SOL    HW1 5576   2.355   5.239   3.967
 1559SOL    HW2 5577   2.479   5.267   3.865
 1560SOL     OW 5578   3.701   1.854   0.950
 1560SOL    HW1 5579   3.748   1.780   0.999
 1560SOL    HW2 5580   3.680   1.824   0.857
 1561SOL     OW 5581   6.455   5.797   0.799
 1561SOL    HW1 5582   6.524   5.820   0.731
 1561SOL    HW2 5583   6.423   5.881   0.843
 1562SOL     OW 5584   4.082   6.961   2.412
 1562SOL    HW1 5585   4.006   6.978   2.474
 1562SOL    HW2 5586   4.074   6.868   2.375
 1563SOL     OW 5587   3.214   2.007   4.287
 1563SOL    HW1 5588   3.222   2.042   4.381
 1563SOL    HW2 5589   3.296   2.032   4.235
 1564SOL     OW 5590   1.032   1.690   3.433
 1564SOL    HW1 5591   1.129   1.683   3.455
 1564SOL    HW2 5592   1.009   1.624   3.361
 1565SOL     OW 5593   3.920   1.415   4.676
 1565SOL    HW1 5594   3.938   1.415   4.774
 1565SOL    HW2 5595   3.961   1.497   4.635
 1566SOL     OW 5596   4.953   4.740   3.711
 1566SOL    HW1 5597   4.961   4.835   3.679
 1566SOL    HW2 5598   4.997   4.679   3.646
 1567SOL     OW 5599   5.530   0.607   4.596
 1567SOL    HW1 5600   5.507   0.553   4.515
 1567SOL    HW2 5601   5.537   0.548   4.676
 1568SOL     OW 5602   2.791   5.083   1.632
 1568SOL    HW1 5603   2.777   5.030   1.715
 1568SOL    HW2 5604   2.823   5.175   1.656
 1569SOL     OW 5605   3.171   0.702   2.903
 1569SOL    HW1 5606   3.203   0.608   2.889
 1569SOL    HW2 5607   3.154   0.717   3.000
 1570SOL     OW 5608   2.987   5.936   6.266
 1570SOL    HW1 5609   2.994   5.997   6.345
 1570SOL    HW2 5610   2.913   5.870   6.281
 1571SOL     OW 5611   0.479   2.428   4.281
 1571SOL    HW1 5612   0.465   2.512   4.229
 1571SOL    HW2 5613   0.511   2.355   4.220
 1572SOL     OW 5614   2.400   5.342   2.264
 1572SOL    HW1 5615   2.351   5.333   2.177
 1572SOL    HW2 5616   2.335   5.348   2.339
 1573SOL     OW 5617   5.951   6.290   0.427
 1573SOL    HW1 5618   5.939   6.249   0.336
 1573SOL    HW2 5619   5.958   6.217   0.495
 1574SOL     OW 5620   6.559   4.037   3.516
 1574SOL    HW1 5621   6.552   3.944   3.554
 1574SOL    HW2 5622   6.486   4.050   3.448
 1575SOL     OW 5623   6.625   1.518   0.293
 1575SOL    HW1 5624   6.638   1.460   0.213
 1575SOL    HW2 5625   6.652   1.611   0.272
 1576SOL     OW 5626   1.117   0.402   1.691
 1576SOL    HW1 5627   1.208   0.428   1.723
 1576SOL    HW2 5628   1.125   0.327   1.625
 1577SOL     OW 5629   3.984   5.560   5.451
 1577SOL    HW1 5630   4.074   5.587   5.417
 1577SOL    HW2 5631   3.915   5.623   5.416
 1578SOL     OW 5632   4.667   1.435   1.263
 1578SOL    HW1 5633   4.692   1.531   1.248
 1578SOL    HW2 5634   4.573   1.430   1.298
 1579SOL     OW 5635   1.913   2.403   1.168
 1579SOL    HW1 5636   1.992   2.411   1.106
 1579SOL    HW2 5637   1.946   2.388   1.261
 1580SOL     OW 5638   3.206   3.574   2.595
 1580SOL    HW1 5639   3.296   3.561   2.555
 1580SOL    HW2 5640   3.148   3.627   2.532
 1581SOL     OW 5641   6.358   4.450   6.079
 1581SOL    HW1 5642   6.327   4.509   6.004
 1581SOL    HW2 5643   6.457   4.438   6.072
 1582SOL     OW 5644   4.389   6.388   5.458
 1582SOL    HW1 5645   4.479   6.429   5.475
 1582SOL    HW2 5646   4.330   6.402   5.538
 1583SOL     OW 5647   1.247   5.008   4.917
 1583SOL    HW1 5648   1.316   4.936   4.915
 1583SOL    HW2 5649   1.277   5.082   4.977
 1584SOL     OW 5650   0.143   4.681   0.413
 1584SOL    HW1 5651   0.111   4.610   0.351
 1584SOL    HW2 5652   0.220   4.729   0.372
 1585SOL     OW 5653   3.367   6.525   3.189
 1585SOL    HW1 5654   3.334   6.523   3.284
 1585SOL    HW2 5655   3.403   6.435   3.165
 1586SOL     OW 5656   3.445   5.606   3.481
 1586SOL    HW1 5657   3.497   5.634   3.400
 1586SOL    HW2 5658   3.502   5.617   3.562
 1587SOL     OW 5659   2.707   6.040   6.689
 1587SOL    HW1 5660   2.685   6.004   6.779
 1587SOL    HW2 5661   2.654   5.991   6.619
 1588SOL     OW 5662   6.389   1.548   3.418
 1588SOL    HW1 5663   6.386   1.599   3.505
 1588SOL    HW2 5664   6.313   1.577   3.360
 1589SOL     OW 5665   6.076   4.675   4.485
 1589SOL    HW1 5666   6.154   4.736   4.494
 1589SOL    HW2 5667   6.025   4.672   4.571
 1590SOL     OW 5668   6.569   2.797   3.687
 1590SOL    HW1 5669   6.488   2.774   3.632
 1590SOL    HW2 5670   6.540   2.816   3.781
 1591SOL     OW 5671   1.481   6.479   1.760
 1591SOL    HW1 5672   1.575   6.501   1.787
 1591SOL    HW2 5673   1.418   6.507   1.833
 1592SOL     OW 5674   0.102   4.309   5.919
 1592SOL    HW1 5675   0.015   4.271   5.886
 1592SOL    HW2 5676   0.135   4.254   5.996
 1593SOL     OW 5677   3.571   0.371   6.820
 1593SOL    HW1 5678   3.642   0.405   6.759
 1593SOL    HW2 5679   3.557   0.273   6.803
 1594SOL     OW 5680   6.157   0.051   2.816
 1594SOL    HW1 5681   6.064   0.084   2.834
 1594SOL    HW2 5682   6.157   7.010   2.735
 1595SOL     OW 5683   0.585   3.874   0.406
 1595SOL    HW1 5684   0.546   3.789   0.368
 1595SOL    HW2 5685   0.628   3.855   0.494
 1596SOL     OW 5686   4.520   4.791   2.979
 1596SOL    HW1 5687   4.477   4.874   3.015
 1596SOL    HW2 5688   4.462   4.751   2.909
 1597SOL     OW 5689   3.739   6.035   6.726
 1597SOL    HW1 5690   3.747   6.006   6.631
 1597SOL    HW2 5691   3.747   6.134   6.731
 1598SOL     OW 5692   1.613   4.995   0.189
 1598SOL    HW1 5693   1.608   4.899   0.163
 1598SOL    HW2 5694   1.574   5.052   0.116
 1599SOL     OW 5695   4.724   5.408   3.456
 1599SOL    HW1 5696   4.778   5.331   3.422
 1599SOL    HW2 5697   4.690   5.387   3.547
 1600SOL     OW 5698   4.231   6.831   2.072
 1600SOL    HW1 5699   4.189   6.827   1.982
 1600SOL    HW2 5700   4.176   6.778   2.137
 1601SOL     OW 5701   0.029   6.775   4.582
 1601SOL    HW1 5702   0.010   6.860   4.631
 1601SOL    HW2 5703   6.977   6.760   4.511
 1602SOL     OW 5704   3.564   5.493   3.723
 1602SOL    HW1 5705   3.563   5.456   3.816
 1602SOL    HW2 5706   3.611   5.429   3.663
 1603SOL     OW 5707   3.306   5.412   2.748
 1603SOL    HW1 5708   3.226   5.355   2.727
 1603SOL    HW2 5709   3.377   5.396   2.679
 1604SOL     OW 5710   4.192   5.318   2.045
 1604SOL    HW1 5711   4.127   5.378   2.091
 1604SOL    HW2 5712   4.281   5.324   2.091
 1605SOL     OW 5713   4.575   5.744   0.862
 1605SOL    HW1 5714   4.616   5.732   0.772
 1605SOL    HW2 5715   4.476   5.749   0.853
 1606SOL     OW 5716   3.518   5.949   5.070
 1606SOL    HW1 5717   3.484   5.882   5.004
 1606SOL    HW2 5718   3.573   6.018   5.023
 1607SOL     OW 5719   4.652   5.760   2.883
 1607SOL    HW1 5720   4.708   5.715   2.813
 1607SOL    HW2 5721   4.680   5.726   2.973
 1608SOL     OW 5722   5.218   0.921   3.265
 1608SOL    HW1 5723   5.145   0.979   3.300
 1608SOL    HW2 5724   5.295   0.978   3.237
 1609SOL     OW 5725   2.508   6.696   0.763
 1609SOL    HW1 5726   2.463   6.718   0.677
 1609SOL    HW2 5727   2.491   6.601   0.787
 1610SOL     OW 5728   5.387   0.496   0.576
 1610SOL    HW1 5729   5.396   0.589   0.542
 1610SOL    HW2 5730   5.330   0.443   0.513
 1611SOL     OW 5731   1.584   4.261   1.463
 1611SOL    HW1 5732   1.579   4.249   1.563
 1611SOL    HW2 5733   1.513   4.207   1.419
 1612SOL     OW 5734   3.573   0.141   1.931
 1612SOL    HW1 5735   3.595   0.238   1.938
 1612SOL    HW2 5736   3.643   0.087   1.978
 1613SOL     OW 5737   6.535   5.315   2.479
 1613SOL    HW1 5738   6.605   5.379   2.511
 1613SOL    HW2 5739   6.506   5.257   2.556
 1614SOL     OW 5740   6.485   1.617   6.421
 1614SOL    HW1 5741   6.409   1.658   6.472
 1614SOL    HW2 5742   6.530   1.688   6.366
 1615SOL     OW 5743   1.142   4.474   6.580
 1615SOL    HW1 5744   1.165   4.559   6.533
 1615SOL    HW2 5745   1.225   4.424   6.603
 1616SOL     OW 5746   1.981   1.545   4.639
 1616SOL    HW1 5747   2.077   1.546   4.667
 1616SOL    HW2 5748   1.965   1.469   4.576
 1617SOL     OW 5749   5.641   6.123   3.344
 1617SOL    HW1 5750   5.704   6.162   3.411
 1617SOL    HW2 5751   5.603   6.197   3.288
 1618SOL     OW 5752   2.950   5.490   2.961
 1618SOL    HW1 5753   2.949   5.390   2.966
 1618SOL    HW2 5754   2.967   5.528   3.052
 1619SOL     OW 5755   0.992   4.505   6.798
 1619SOL    HW1 5756   1.055   4.521   6.874
 1619SOL    HW2 5757   1.043   4.495   6.713
 1620SOL     OW 5758   3.714   5.226   6.232
 1620SOL    HW1 5759   3.643   5.200   6.298
 1620SOL    HW2 5760   3.801   5.238   6.278
 1621SOL     OW 5761   5.024   5.891   1.259
 1621SOL    HW1 5762   5.046   5.805   1.213
 1621SOL    HW2 5763   5.031   5.967   1.194
 1622SOL     OW 5764   0.376   5.313   4.012
 1622SOL    HW1 5765   0.463   5.281   3.973
 1622SOL    HW2 5766   0.301   5.258   3.974
 1623SOL     OW 5767   0.702   2.094   4.015
 1623SOL    HW1 5768   0.691   2.036   3.934
 1623SOL    HW2 5769   0.635   2.168   4.012
 1624SOL     OW 5770   4.238   1.671   0.770
 1624SOL    HW1 5771   4.138   1.674   0.763
 1624SOL    HW2 5772   4.274   1.764   0.771
 1625SOL     OW 5773   0.821   5.792   0.778
 1625SOL    HW1 5774   0.768   5.751   0.852
 1625SOL    HW2 5775   0.769   5.867   0.736
 1626SOL     OW 5776   2.712   2.104   1.275
 1626SOL    HW1 5777   2.780   2.173   1.300
 1626SOL    HW2 5778   2.661   2.076   1.356
 1627SOL     OW 5779   4.465   1.756   5.054
 1627SOL    HW1 5780   4.426   1.765   4.963
 1627SOL    HW2 5781   4.427   1.675   5.099
 1628SOL     OW 5782   5.783   6.651   0.282
 1628SOL    HW1 5783   5.849   6.607   0.342
 1628SOL    HW2 5784   5.694   6.607   0.293
 1629SOL     OW 5785   1.973   0.177   3.492
 1629SOL    HW1 5786   1.933   0.088   3.467
 1629SOL    HW2 5787   1.944   0.202   3.584
 1630SOL     OW 5788   0.243   3.752   6.887
 1630SOL    HW1 5789   0.329   3.760   6.938
 1630SOL    HW2 5790   0.182   3.826   6.914
 1631SOL     OW 5791   6.949   3.457   0.066
 1631SOL    HW1 5792   6.941   3.544   0.113
 1631SOL    HW2 5793   0.002   3.464   7.012
 1632SOL     OW 5794   6.485   5.168   2.721
 1632SOL    HW1 5795   6.458   5.072   2.736
 1632SOL    HW2 5796   6.580   5.180   2.750
 1633SOL     OW 5797   5.399   3.562   4.291
 1633SOL    HW1 5798   5.407   3.478   4.238
 1633SOL    HW2 5799   5.400   3.539   4.389
 1634SOL     OW 5800   6.343   1.387   4.579
 1634SOL    HW1 5801   6.414   1.328   4.616
 1634SOL    HW2 5802   6.385   1.466   4.534
 1635SOL     OW 5803   3.720   6.258   3.158
 1635SOL    HW1 5804   3.708   6.215   3.068
 1635SOL    HW2 5805   3.687   6.353   3.154
 1636SOL     OW 5806   6.122   6.346   1.867
 1636SOL    HW1 5807   6.168   6.279   1.809
 1636SOL    HW2 5808   6.053   6.301   1.923
 1637SOL     OW 5809   0.700   6.997   1.546
 1637SOL    HW1 5810   0.797   0.006   1.551
 1637SOL    HW2 5811   0.645   0.060   1.523
 1638SOL     OW 5812   6.161   3.017   1.863
 1638SOL    HW1 5813   6.064   3.036   1.852
 1638SOL    HW2 5814   6.184   2.932   1.814
 1639SOL     OW 5815   5.569   2.653   2.547
 1639SOL    HW1 5816   5.654   2.649   2.494
 1639SOL    HW2 5817   5.531   2.745   2.543
 1640SOL     OW 5818   6.522   0.302   6.712
 1640SOL    HW1 5819   6.580   0.229   6.747
 1640SOL    HW2 5820   6.491   0.359   6.789
 1641SOL     OW 5821   6.518   2.451   3.152
 1641SOL    HW1 5822   6.479   2.392   3.081
 1641SOL    HW2 5823   6.590   2.401   3.200
 1642SOL     OW 5824   6.478   2.505   6.249
 1642SOL    HW1 5825   6.463   2.570   6.175
 1642SOL    HW2 5826   6.546   2.540   6.312
 1643SOL     OW 5827   2.336   6.281   3.551
 1643SOL    HW1 5828   2.351   6.187   3.519
 1643SOL    HW2 5829   2.413   6.309   3.609
 1644SOL     OW 5830   6.091   2.590   1.479
 1644SOL    HW1 5831   5.995   2.608   1.501
 1644SOL    HW2 5832   6.145   2.673   1.494
 1645SOL     OW 5833   2.153   0.917   5.487
 1645SOL    HW1 5834   2.121   0.925   5.581
 1645SOL    HW2 5835   2.078   0.937   5.425
 1646SOL     OW 5836   1.280   5.141   0.893
 1646SOL    HW1 5837   1.344   5.150   0.969
 1646SOL    HW2 5838   1.272   5.229   0.846
 1647SOL     OW 5839   5.814   2.870   3.844
 1647SOL    HW1 5840   5.732   2.922   3.870
 1647SOL    HW2 5841   5.894   2.928   3.849
 1648SOL     OW 5842   5.435   5.910   1.286
 1648SOL    HW1 5843   5.441   5.992   1.343
 1648SOL    HW2 5844   5.451   5.829   1.342
 1649SOL     OW 5845   3.476   0.618   3.463
 1649SOL    HW1 5846   3.572   0.633   3.441
 1649SOL    HW2 5847   3.468   0.550   3.535
 1650SOL     OW 5848   3.301   4.032   6.683
 1650SOL    HW1 5849   3.202   4.033   6.693
 1650SOL    HW2 5850   3.331   4.114   6.634
 1651SOL     OW 5851   0.707   2.990   3.308
 1651SOL    HW1 5852   0.763   2.908   3.304
 1651SOL    HW2 5853   0.614   2.969   3.279
 1652SOL     OW 5854   0.522   3.201   1.661
 1652SOL    HW1 5855   0.592   3.201   1.590
 1652SOL    HW2 5856   0.437   3.238   1.624
 1653SOL     OW 5857   0.246   4.439   3.128
 1653SOL    HW1 5858   0.198   4.399   3.051
 1653SOL    HW2 5859   0.289   4.367   3.182
 1654SOL     OW 5860   0.028   3.121   2.248
 1654SOL    HW1 5861   6.969   3.124   2.185
 1654SOL    HW2 5862   0.111   3.096   2.199
 1655SOL     OW 5863   0.274   6.718   4.709
 1655SOL    HW1 5864   0.252   6.629   4.749
 1655SOL    HW2 5865   0.204   6.742   4.641
 1656SOL     OW 5866   2.296   4.613   3.402
 1656SOL    HW1 5867   2.337   4.703   3.383
 1656SOL    HW2 5868   2.351   4.542   3.358
 1657SOL     OW 5869   1.275   6.385   5.580
 1657SOL    HW1 5870   1.243   6.404   5.673
 1657SOL    HW2 5871   1.364   6.340   5.583
 1658SOL     OW 5872   6.111   0.002   6.521
 1658SOL    HW1 5873   6.018   0.031   6.544
 1658SOL    HW2 5874   6.176   0.075   6.545
 1659SOL     OW 5875   4.533   6.492   6.516
 1659SOL    HW1 5876   4.586   6.558   6.463
 1659SOL    HW2 5877   4.488   6.538   6.593
 1660SOL     OW 5878   2.658   0.504   2.046
 1660SOL    HW1 5879   2.568   0.468   2.073
 1660SOL    HW2 5880   2.651   0.545   1.956
 1661SOL     OW 5881   4.207   4.700   2.616
 1661SOL    HW1 5882   4.206   4.607   2.578
 1661SOL    HW2 5883   4.163   4.763   2.551
 1662SOL     OW 5884   0.069   1.598   4.916
 1662SOL    HW1 5885   0.025   1.688   4.923
 1662SOL    HW2 5886   0.017   1.532   4.971
 1663SOL     OW 5887   4.680   4.620   0.519
 1663SOL    HW1 5888   4.710   4.595   0.611
 1663SOL    HW2 5889   4.598   4.568   0.496
 1664SOL     OW 5890   1.261   6.941   5.839
 1664SOL    HW1 5891   1.161   6.941   5.832
 1664SOL    HW2 5892   1.296   6.849   5.818
 1665SOL     OW 5893   2.689   4.112   0.215
 1665SOL    HW1 5894   2.729   4.105   0.306
 1665SOL    HW2 5895   2.652   4.204   0.201
 1666SOL     OW 5896   5.701   6.709   6.320
 1666SOL    HW1 5897   5.677   6.675   6.229
 1666SOL    HW2 5898   5.756   6.792   6.311
 1667SOL     OW 5899   0.454   6.210   1.253
 1667SOL    HW1 5900   0.518   6.282   1.226
 1667SOL    HW2 5901   0.472   6.184   1.348
 1668SOL     OW 5902   5.231   4.381   3.341
 1668SOL    HW1 5903   5.280   4.293   3.345
 1668SOL    HW2 5904   5.135   4.364   3.320
 1669SOL     OW 5905   6.507   3.390   5.123
 1669SOL    HW1 5906   6.512   3.421   5.028
 1669SOL    HW2 5907   6.445   3.449   5.175
 1670SOL     OW 5908   1.549   5.235   6.408
 1670SOL    HW1 5909   1.551   5.139   6.436
 1670SOL    HW2 5910   1.615   5.250   6.335
 1671SOL     OW 5911   5.817   2.179   1.200
 1671SOL    HW1 5912   5.914   2.172   1.176
 1671SOL    HW2 5913   5.762   2.156   1.119
 1672SOL     OW 5914   0.847   3.813   0.256
 1672SOL    HW1 5915   0.926   3.759   0.286
 1672SOL    HW2 5916   0.775   3.808   0.325
 1673SOL     OW 5917   2.159   1.086   4.652
 1673SOL    HW1 5918   2.095   1.107   4.727
 1673SOL    HW2 5919   2.112   1.032   4.582
 1674SOL     OW 5920   4.848   1.998   2.958
 1674SOL    HW1 5921   4.930   2.010   2.902
 1674SOL    HW2 5922   4.792   1.925   2.920
 1675SOL     OW 5923   5.113   0.624   1.141
 1675SOL    HW1 5924   5.098   0.696   1.208
 1675SOL    HW2 5925   5.135   0.538   1.188
 1676SOL     OW 5926   0.990   2.038   2.771
 1676SOL    HW1 5927   0.962   2.133   2.777
 1676SOL    HW2 5928   1.077   2.025   2.817
 1677SOL     OW 5929   4.070   3.609   3.075
 1677SOL    HW1 5930   4.094   3.643   3.166
 1677SOL    HW2 5931   4.046   3.512   3.080
 1678SOL     OW 5932   0.956   0.044   1.331
 1678SOL    HW1 5933   1.037   7.010   1.303
 1678SOL    HW2 5934   0.878   0.015   1.277
 1679SOL     OW 5935   0.948   2.982   6.012
 1679SOL    HW1 5936   0.981   2.922   6.084
 1679SOL    HW2 5937   0.977   2.947   5.923
 1680SOL     OW 5938   5.337   2.375   3.974
 1680SOL    HW1 5939   5.242   2.405   3.968
 1680SOL    HW2 5940   5.361   2.359   4.070
 1681SOL     OW 5941   2.338   6.090   4.144
 1681SOL    HW1 5942   2.251   6.074   4.192
 1681SOL    HW2 5943   2.338   6.039   4.058
 1682SOL     OW 5944   3.009   6.840   4.216
 1682SOL    HW1 5945   2.979   6.793   4.299
 1682SOL    HW2 5946   3.095   6.800   4.184
 1683SOL     OW 5947   5.897   4.831   2.681
 1683SOL    HW1 5948   5.861   4.828   2.588
 1683SOL    HW2 5949   5.840   4.776   2.741
 1684SOL     OW 5950   2.595   4.525   1.811
 1684SOL    HW1 5951   2.602   4.429   1.784
 1684SOL    HW2 5952   2.682   4.554   1.850
 1685SOL     OW 5953   0.006   1.363   5.014
 1685SOL    HW1 5954   0.060   1.303   4.956
 1685SOL    HW2 5955   6.965   1.308   5.074
 1686SOL     OW 5956   4.853   5.886   2.647
 1686SOL    HW1 5957   4.897   5.894   2.737
 1686SOL    HW2 5958   4.797   5.967   2.630
 1687SOL     OW 5959   5.722   3.881   2.330
 1687SOL    HW1 5960   5.672   3.920   2.252
 1687SOL    HW2 5961   5.747   3.954   2.393
 1688SOL     OW 5962   1.858   1.238   2.876
 1688SOL    HW1 5963   1.762   1.211   2.868
 1688SOL    HW2 5964   1.874   1.322   2.824
 1689SOL     OW 5965   4.619   1.209   1.486
 1689SOL    HW1 5966   4.532   1.169   1.460
 1689SOL    HW2 5967   4.653   1.266   1.411
 1690SOL     OW 5968   0.635   4.389   3.968
 1690SOL    HW1 5969   0.706   4.319   3.981
 1690SOL    HW2 5970   0.654   4.467   4.027
 1691SOL     OW 5971   4.565   2.766   5.235
 1691SOL    HW1 5972   4.577   2.806   5.326
 1691SOL    HW2 5973   4.467   2.756   5.216
 1692SOL     OW 5974   5.502   4.971   1.176
 1692SOL    HW1 5975   5.474   5.060   1.139
 1692SOL    HW2 5976   5.450   4.951   1.258
 1693SOL     OW 5977   5.135   6.946   5.387
 1693SOL    HW1 5978   5.163   6.851   5.368
 1693SOL    HW2 5979   5.036   6.953   5.380
 1694SOL     OW 5980   5.067   1.150   5.049
 1694SOL    HW1 5981   5.064   1.250   5.053
 1694SOL    HW2 5982   5.161   1.120   5.035
 1695SOL     OW 5983   3.955   0.865   6.291
 1695SOL    HW1 5984   4.038   0.809   6.299
 1695SOL    HW2 5985   3.895   0.846   6.369
 1696SOL     OW 5986   5.267   6.042   0.664
 1696SOL    HW1 5987   5.326   6.066   0.741
 1696SOL    HW2 5988   5.181   6.005   0.697
 1697SOL     OW 5989   5.628   2.401   2.241
 1697SOL    HW1 5990   5.540   2.411   2.286
 1697SOL    HW2 5991   5.693   2.356   2.303
 1698SOL     OW 5992   4.035   0.912   1.472
 1698SOL    HW1 5993   4.054   0.883   1.378
 1698SOL    HW2 5994   3.937   0.905   1.490
 1699SOL     OW 5995   2.447   0.028   0.408
 1699SOL    HW1 5996   2.424   0.118   0.444
 1699SOL    HW2 5997   2.541   0.005   0.431
 1700SOL     OW 5998   6.403   2.669   2.780
 1700SOL    HW1 5999   6.344   2.645   2.857
 1700SOL    HW2 6000   6.374   2.621   2.698
 1701SOL     OW 6001   0.411   6.156   5.003
 1701SOL    HW1 6002   0.329   6.205   5.033
 1701SOL    HW2 6003   0.405   6.061   5.033
 1702SOL     OW 6004   1.919   2.507   6.101
 1702SOL    HW1 6005   1.913   2.540   6.006
 1702SOL    HW2 6006   1.879   2.416   6.107
 1703SOL     OW 6007   3.052   1.905   0.805
 1703SOL    HW1 6008   3.050   1.811   0.771
 1703SOL    HW2 6009   3.147   1.932   0.823
 1704SOL     OW 6010   2.920   2.332   0.600
 1704SOL    HW1 6011   2.871   2.407   0.646
 1704SOL    HW2 6012   2.920   2.251   0.658
 1705SOL     OW 6013   4.291   1.991   0.069
 1705SOL    HW1 6014   4.251   2.000   6.995
 1705SOL    HW2 6015   4.225   1.947   0.130
 1706SOL     OW 6016   4.568   1.993   6.675
 1706SOL    HW1 6017   4.576   2.073   6.616
 1706SOL    HW2 6018   4.648   1.934   6.662
 1707SOL     OW 6019   4.698   2.170   2.676
 1707SOL    HW1 6020   4.705   2.211   2.767
 1707SOL    HW2 6021   4.601   2.160   2.651
 1708SOL     OW 6022   3.366   5.141   1.461
 1708SOL    HW1 6023   3.279   5.179   1.494
 1708SOL    HW2 6024   3.371   5.044   1.484
 1709SOL     OW 6025   4.606   4.997   0.826
 1709SOL    HW1 6026   4.688   4.974   0.774
 1709SOL    HW2 6027   4.582   5.092   0.810
 1710SOL     OW 6028   4.171   5.034   3.288
 1710SOL    HW1 6029   4.268   5.048   3.309
 1710SOL    HW2 6030   4.137   4.955   3.339
 1711SOL     OW 6031   4.049   4.201   6.227
 1711SOL    HW1 6032   4.122   4.241   6.171
 1711SOL    HW2 6033   4.071   4.213   6.324
 1712SOL     OW 6034   0.362   1.706   3.140
 1712SOL    HW1 6035   0.380   1.792   3.091
 1712SOL    HW2 6036   0.263   1.690   3.142
 1713SOL     OW 6037   3.792   0.494   2.881
 1713SOL    HW1 6038   3.810   0.449   2.968
 1713SOL    HW2 6039   3.728   0.569   2.896
 1714SOL     OW 6040   3.865   3.235   0.611
 1714SOL    HW1 6041   3.873   3.239   0.710
 1714SOL    HW2 6042   3.925   3.304   0.570
 1715SOL     OW 6043   1.983   6.971   2.416
 1715SOL    HW1 6044   1.973   6.931   2.325
 1715SOL    HW2 6045   2.006   6.900   2.482
 1716SOL     OW 6046   5.206   0.710   3.841
 1716SOL    HW1 6047   5.198   0.805   3.871
 1716SOL    HW2 6048   5.302   0.688   3.825
 1717SOL     OW 6049   3.372   6.129   5.406
 1717SOL    HW1 6050   3.315   6.203   5.441
 1717SOL    HW2 6051   3.403   6.072   5.482
 1718SOL     OW 6052   1.638   2.983   1.705
 1718SOL    HW1 6053   1.584   2.997   1.623
 1718SOL    HW2 6054   1.732   3.015   1.689
 1719SOL     OW 6055   1.275   5.666   2.489
 1719SOL    HW1 6056   1.239   5.587   2.539
 1719SOL    HW2 6057   1.262   5.748   2.544
 1720SOL     OW 6058   0.497   3.114   5.925
 1720SOL    HW1 6059   0.556   3.082   5.999
 1720SOL    HW2 6060   0.464   3.206   5.946
 1721SOL     OW 6061   1.298   1.969   0.780
 1721SOL    HW1 6062   1.290   1.922   0.868
 1721SOL    HW2 6063   1.293   2.068   0.795
 1722SOL     OW 6064   2.274   2.609   3.421
 1722SOL    HW1 6065   2.246   2.538   3.356
 1722SOL    HW2 6066   2.272   2.572   3.514
 1723SOL     OW 6067   5.562   3.388   0.846
 1723SOL    HW1 6068   5.468   3.353   0.843
 1723SOL    HW2 6069   5.624   3.320   0.807
 1724SOL     OW 6070   6.513   2.243   1.625
 1724SOL    HW1 6071   6.568   2.291   1.694
 1724SOL    HW2 6072   6.425   2.289   1.616
 1725SOL     OW 6073   1.454   5.885   6.909
 1725SOL    HW1 6074   1.377   5.918   6.854
 1725SOL    HW2 6075   1.460   5.938   6.994
 1726SOL     OW 6076   5.616   4.421   2.929
 1726SOL    HW1 6077   5.531   4.391   2.971
 1726SOL    HW2 6078   5.602   4.435   2.831
 1727SOL     OW 6079   2.888   3.432   3.995
 1727SOL    HW1 6080   2.877   3.519   3.949
 1727SOL    HW2 6081   2.894   3.447   4.094
 1728SOL     OW 6082   5.210   2.100   4.043
 1728SOL    HW1 6083   5.309   2.107   4.059
 1728SOL    HW2 6084   5.190   2.129   3.950
 1729SOL     OW 6085   1.804   3.233   2.636
 1729SOL    HW1 6086   1.715   3.274   2.617
 1729SOL    HW2 6087   1.874   3.280   2.583
 1730SOL     OW 6088   2.437   4.925   4.988
 1730SOL    HW1 6089   2.510   4.970   5.040
 1730SOL    HW2 6090   2.349   4.966   5.014
 1731SOL     OW 6091   6.333   4.514   3.808
 1731SOL    HW1 6092   6.260   4.541   3.746
 1731SOL    HW2 6093   6.411   4.576   3.797
 1732SOL     OW 6094   2.264   3.992   5.658
 1732SOL    HW1 6095   2.355   4.029   5.639
 1732SOL    HW2 6096   2.272   3.897   5.690
 1733SOL     OW 6097   2.552   3.548   6.384
 1733SOL    HW1 6098   2.594   3.638   6.394
 1733SOL    HW2 6099   2.583   3.489   6.459
 1734SOL     OW 6100   6.970   3.104   1.537
 1734SOL    HW1 6101   0.022   3.142   1.476
 1734SOL    HW2 6102   6.881   3.103   1.491
 1735SOL     OW 6103   3.994   5.107   6.190
 1735SOL    HW1 6104   3.999   5.160   6.275
 1735SOL    HW2 6105   3.912   5.049   6.192
 1736SOL     OW 6106   5.173   3.040   0.734
 1736SOL    HW1 6107   5.085   2.993   0.743
 1736SOL    HW2 6108   5.199   3.045   0.637
 1737SOL     OW 6109   4.770   2.077   5.409
 1737SOL    HW1 6110   4.779   2.176   5.420
 1737SOL    HW2 6111   4.801   2.031   5.493
 1738SOL     OW 6112   1.551   3.422   4.028
 1738SOL    HW1 6113   1.592   3.512   4.045
 1738SOL    HW2 6114   1.512   3.421   3.936
 1739SOL     OW 6115   5.849   0.361   3.794
 1739SOL    HW1 6116   5.928   0.320   3.840
 1739SOL    HW2 6117   5.852   0.338   3.697
 1740SOL     OW 6118   6.298   3.306   4.544
 1740SOL    HW1 6119   6.206   3.288   4.578
 1740SOL    HW2 6120   6.366   3.263   4.603
 1741SOL     OW 6121   0.677   1.906   4.446
 1741SOL    HW1 6122   0.675   1.832   4.514
 1741SOL    HW2 6123   0.772   1.924   4.419
 1742SOL     OW 6124   5.950   6.553   6.176
 1742SOL    HW1 6125   5.976   6.632   6.231
 1742SOL    HW2 6126   5.901   6.487   6.234
 1743SOL     OW 6127   1.762   1.295   2.540
 1743SOL    HW1 6128   1.673   1.332   2.567
 1743SOL    HW2 6129   1.786   1.331   2.449
 1744SOL     OW 6130   3.661   1.818   4.586
 1744SOL    HW1 6131   3.629   1.724   4.577
 1744SOL    HW2 6132   3.591   1.880   4.549
 1745SOL     OW 6133   6.339   6.796   1.413
 1745SOL    HW1 6134   6.438   6.782   1.421
 1745SOL    HW2 6135   6.306   6.840   1.497
 1746SOL     OW 6136   2.225   4.217   4.032
 1746SOL    HW1 6137   2.241   4.158   3.953
 1746SOL    HW2 6138   2.201   4.160   4.111
 1747SOL     OW 6139   4.520   6.963   2.535
 1747SOL    HW1 6140   4.540   0.034   2.492
 1747SOL    HW2 6141   4.459   6.910   2.476
 1748SOL     OW 6142   6.853   3.181   5.055
 1748SOL    HW1 6143   6.948   3.154   5.065
 1748SOL    HW2 6144   6.840   3.228   4.968
 1749SOL     OW 6145   1.582   4.618   1.325
 1749SOL    HW1 6146   1.550   4.688   1.389
 1749SOL    HW2 6147   1.504   4.578   1.278
 1750SOL     OW 6148   3.425   6.894   5.790
 1750SOL    HW1 6149   3.421   6.948   5.874
 1750SOL    HW2 6150   3.360   6.818   5.795
 1751SOL     OW 6151   5.146   2.756   5.137
 1751SOL    HW1 6152   5.190   2.764   5.226
 1751SOL    HW2 6153   5.047   2.745   5.149
 1752SOL     OW 6154   0.034   0.436   2.190
 1752SOL    HW1 6155   7.012   0.384   2.265
 1752SOL    HW2 6156   0.055   0.529   2.220
 1753SOL     OW 6157   6.375   1.625   1.835
 1753SOL    HW1 6158   6.297   1.562   1.843
 1753SOL    HW2 6159   6.344   1.719   1.850
 1754SOL     OW 6160   2.895   5.503   4.047
 1754SOL    HW1 6161   2.949   5.587   4.040
 1754SOL    HW2 6162   2.925   5.438   3.978
 1755SOL     OW 6163   6.344   6.665   4.924
 1755SOL    HW1 6164   6.261   6.722   4.926
 1755SOL    HW2 6165   6.320   6.573   4.894
 1756SOL     OW 6166   4.633   6.614   6.308
 1756SOL    HW1 6167   4.661   6.692   6.252
 1756SOL    HW2 6168   4.546   6.578   6.274
 1757SOL     OW 6169   2.152   4.882   5.305
 1757SOL    HW1 6170   2.210   4.819   5.357
 1757SOL    HW2 6171   2.209   4.943   5.251
 1758SOL     OW 6172   2.151   6.077   4.386
 1758SOL    HW1 6173   2.223   6.099   4.453
 1758SOL    HW2 6174   2.104   5.993   4.414
 1759SOL     OW 6175   1.789   6.895   0.424
 1759SOL    HW1 6176   1.875   6.928   0.464
 1759SOL    HW2 6177   1.718   6.896   0.494
 1760SOL     OW 6178   6.994   0.882   4.768
 1760SOL    HW1 6179   6.903   0.857   4.799
 1760SOL    HW2 6180   0.043   0.816   4.801
 1761SOL     OW 6181   5.950   1.568   2.532
 1761SOL    HW1 6182   6.007   1.488   2.549
 1761SOL    HW2 6183   5.855   1.541   2.523
 1762SOL     OW 6184   0.432   1.940   6.158
 1762SOL    HW1 6185   0.521   1.909   6.122
 1762SOL    HW2 6186   0.364   1.936   6.085
 1763SOL     OW 6187   0.478   4.053   3.762
 1763SOL    HW1 6188   0.415   4.068   3.685
 1763SOL    HW2 6189   0.572   4.051   3.728
 1764SOL     OW 6190   0.907   5.490   2.927
 1764SOL    HW1 6191   0.906   5.493   3.027
 1764SOL    HW2 6192   1.001   5.492   2.894
 1765SOL     OW 6193   5.589   3.208   2.186
 1765SOL    HW1 6194   5.629   3.298   2.169
 1765SOL    HW2 6195   5.617   3.175   2.276
 1766SOL     OW 6196   4.271   4.722   3.875
 1766SOL    HW1 6197   4.340   4.681   3.935
 1766SOL    HW2 6198   4.281   4.684   3.783
 1767SOL     OW 6199   1.107   4.773   2.435
 1767SOL    HW1 6200   1.051   4.745   2.357
 1767SOL    HW2 6201   1.193   4.722   2.435
 1768SOL     OW 6202   5.224   6.463   2.410
 1768SOL    HW1 6203   5.317   6.433   2.386
 1768SOL    HW2 6204   5.160   6.388   2.393
 1769SOL     OW 6205   5.851   1.099   0.642
 1769SOL    HW1 6206   5.833   1.042   0.562
 1769SOL    HW2 6207   5.775   1.092   0.707
 1770SOL     OW 6208   1.945   5.295   0.340
 1770SOL    HW1 6209   1.920   5.357   0.265
 1770SOL    HW2 6210   2.036   5.318   0.373
 1771SOL     OW 6211   1.324   3.121   5.918
 1771SOL    HW1 6212   1.299   3.028   5.947
 1771SOL    HW2 6213   1.271   3.187   5.970
 1772SOL     OW 6214   2.170   4.477   3.093
 1772SOL    HW1 6215   2.194   4.381   3.106
 1772SOL    HW2 6216   2.245   4.535   3.126
 1773SOL     OW 6217   1.616   6.228   6.260
 1773SOL    HW1 6218   1.642   6.133   6.278
 1773SOL    HW2 6219   1.662   6.288   6.326
 1774SOL     OW 6220   4.992   5.536   0.973
 1774SOL    HW1 6221   5.087   5.565   0.981
 1774SOL    HW2 6222   4.988   5.437   0.962
 1775SOL     OW 6223   2.168   5.653   6.689
 1775SOL    HW1 6224   2.113   5.569   6.687
 1775SOL    HW2 6225   2.221   5.660   6.604
 1776SOL     OW 6226   4.682   2.435   5.487
 1776SOL    HW1 6227   4.653   2.425   5.391
 1776SOL    HW2 6228   4.717   2.527   5.501
 1777SOL     OW 6229   4.894   6.171   6.777
 1777SOL    HW1 6230   4.839   6.226   6.714
 1777SOL    HW2 6231   4.894   6.214   6.868
 1778SOL     OW 6232   5.447   6.803   4.167
 1778SOL    HW1 6233   5.420   6.893   4.200
 1778SOL    HW2 6234   5.372   6.762   4.116
 1779SOL     OW 6235   5.563   6.139   4.729
 1779SOL    HW1 6236   5.626   6.061   4.730
 1779SOL    HW2 6237   5.607   6.217   4.684
 1780SOL     OW 6238   2.413   5.531   5.014
 1780SOL    HW1 6239   2.425   5.438   4.978
 1780SOL    HW2 6240   2.354   5.583   4.953
 1781SOL     OW 6241   4.175   0.809   4.298
 1781SOL    HW1 6242   4.151   0.735   4.236
 1781SOL    HW2 6243   4.183   0.774   4.391
 1782SOL     OW 6244   6.994   1.610   2.733
 1782SOL    HW1 6245   0.025   1.605   2.645
 1782SOL    HW2 6246   6.954   1.701   2.744
 1783SOL     OW 6247   2.171   3.882   6.648
 1783SOL    HW1 6248   2.118   3.855   6.568
 1783SOL    HW2 6249   2.269   3.877   6.627
 1784SOL     OW 6250   2.622   0.056   1.183
 1784SOL    HW1 6251   2.557   0.116   1.229
 1784SOL    HW2 6252   2.667   7.014   1.250
 1785SOL     OW 6253   1.561   6.526   4.683
 1785SOL    HW1 6254   1.611   6.611   4.696
 1785SOL    HW2 6255   1.473   6.531   4.730
 1786SOL     OW 6256   0.887   6.651   0.605
 1786SOL    HW1 6257   0.862   6.630   0.510
 1786SOL    HW2 6258   0.876   6.749   0.621
 1787SOL     OW 6259   3.080   3.544   6.462
 1787SOL    HW1 6260   3.164   3.492   6.453
 1787SOL    HW2 6261   3.049   3.574   6.372
 1788SOL     OW 6262   4.851   4.096   1.235
 1788SOL    HW1 6263   4.802   4.009   1.224
 1788SOL    HW2 6264   4.789   4.163   1.277
 1789SOL     OW 6265   5.681   4.030   1.894
 1789SOL    HW1 6266   5.737   4.111   1.910
 1789SOL    HW2 6267   5.726   3.970   1.828
 1790SOL     OW 6268   2.496   2.050   4.517
 1790SOL    HW1 6269   2.440   2.048   4.600
 1790SOL    HW2 6270   2.473   2.132   4.463
 1791SOL     OW 6271   4.999   0.005   3.368
 1791SOL    HW1 6272   4.942   0.087   3.378
 1791SOL    HW2 6273   4.999   6.993   3.273
 1792SOL     OW 6274   0.429   1.867   5.856
 1792SOL    HW1 6275   0.482   1.825   5.782
 1792SOL    HW2 6276   0.331   1.851   5.841
 1793SOL     OW 6277   0.019   0.913   5.658
 1793SOL    HW1 6278   0.001   0.823   5.699
 1793SOL    HW2 6279   6.954   0.970   5.664
 1794SOL     OW 6280   1.004   0.189   6.229
 1794SOL    HW1 6281   0.956   0.103   6.209
 1794SOL    HW2 6282   1.099   0.183   6.197
 1795SOL     OW 6283   5.786   4.609   1.285
 1795SOL    HW1 6284   5.721   4.547   1.240
 1795SOL    HW2 6285   5.877   4.566   1.285
 1796SOL     OW 6286   0.389   0.427   6.517
 1796SOL    HW1 6287   0.471   0.433   6.462
 1796SOL    HW2 6288   0.350   0.519   6.529
 1797SOL     OW 6289   1.803   4.984   6.222
 1797SOL    HW1 6290   1.818   5.078   6.189
 1797SOL    HW2 6291   1.883   4.955   6.274
 1798SOL     OW 6292   2.625   3.710   5.373
 1798SOL    HW1 6293   2.534   3.742   5.348
 1798SOL    HW2 6294   2.657   3.759   5.454
 1799SOL     OW 6295   3.299   1.493   0.634
 1799SOL    HW1 6296   3.309   1.543   0.720
 1799SOL    HW2 6297   3.317   1.555   0.558
 1800SOL     OW 6298   5.994   3.172   5.370
 1800SOL    HW1 6299   5.902   3.162   5.333
 1800SOL    HW2 6300   6.046   3.238   5.315
 1801SOL     OW 6301   1.200   0.989   3.066
 1801SOL    HW1 6302   1.118   0.975   3.122
 1801SOL    HW2 6303   1.253   0.904   3.062
 1802SOL     OW 6304   6.924   4.690   3.759
 1802SOL    HW1 6305   6.894   4.625   3.829
 1802SOL    HW2 6306   6.845   4.720   3.705
 1803SOL     OW 6307   0.443   0.321   3.154
 1803SOL    HW1 6308   0.541   0.322   3.133
 1803SOL    HW2 6309   0.393   0.366   3.081
 1804SOL     OW 6310   2.156   3.149   5.898
 1804SOL    HW1 6311   2.205   3.219   5.951
 1804SOL    HW2 6312   2.180   3.158   5.801
 1805SOL     OW 6313   0.168   5.363   0.285
 1805SOL    HW1 6314   0.099   5.319   0.227
 1805SOL    HW2 6315   0.258   5.326   0.265
 1806SOL     OW 6316   0.341   2.133   1.529
 1806SOL    HW1 6317   0.355   2.198   1.455
 1806SOL    HW2 6318   0.244   2.131   1.555
 1807SOL     OW 6319   0.295   2.621   2.949
 1807SOL    HW1 6320   0.377   2.636   2.894
 1807SOL    HW2 6321   0.308   2.662   3.040
 1808SOL     OW 6322   4.945   2.172   5.917
 1808SOL    HW1 6323   4.888   2.194   5.837
 1808SOL    HW2 6324   5.041   2.185   5.893
 1809SOL     OW 6325   4.513   0.620   5.045
 1809SOL    HW1 6326   4.602   0.640   5.087
 1809SOL    HW2 6327   4.517   0.530   5.002
 1810SOL     OW 6328   0.689   0.443   4.103
 1810SOL    HW1 6329   0.680   0.543   4.101
 1810SOL    HW2 6330   0.783   0.419   4.127
 1811SOL     OW 6331   4.048   5.546   1.467
 1811SOL    HW1 6332   4.127   5.583   1.515
 1811SOL    HW2 6333   4.070   5.534   1.370
 1812SOL     OW 6334   4.692   6.133   6.199
 1812SOL    HW1 6335   4.638   6.098   6.276
 1812SOL    HW2 6336   4.703   6.232   6.209
 1813SOL     OW 6337   4.982   4.345   2.113
 1813SOL    HW1 6338   4.981   4.445   2.111
 1813SOL    HW2 6339   5.043   4.314   2.186
 1814SOL     OW 6340   6.530   6.033   0.379
 1814SOL    HW1 6341   6.509   6.019   0.475
 1814SOL    HW2 6342   6.629   6.025   0.365
 1815SOL     OW 6343   5.620   6.468   1.214
 1815SOL    HW1 6344   5.645   6.378   1.178
 1815SOL    HW2 6345   5.671   6.485   1.299
 1816SOL     OW 6346   3.741   4.833   5.436
 1816SOL    HW1 6347   3.810   4.864   5.502
 1816SOL    HW2 6348   3.783   4.771   5.370
 1817SOL     OW 6349   0.156   2.317   3.934
 1817SOL    HW1 6350   0.074   2.353   3.889
 1817SOL    HW2 6351   0.129   2.245   3.999
 1818SOL     OW 6352   2.627   1.064   0.068
 1818SOL    HW1 6353   2.692   1.021   0.005
 1818SOL    HW2 6354   2.538   1.075   0.023
 1819SOL     OW 6355   1.824   4.840   2.767
 1819SOL    HW1 6356   1.812   4.891   2.852
 1819SOL    HW2 6357   1.918   4.850   2.734
 1820SOL     OW 6358   3.288   6.912   5.115
 1820SOL    HW1 6359   3.346   6.981   5.157
 1820SOL    HW2 6360   3.192   6.935   5.130
 1821SOL     OW 6361   3.634   2.002   2.694
 1821SOL    HW1 6362   3.657   1.910   2.662
 1821SOL    HW2 6363   3.662   2.069   2.625
 1822SOL     OW 6364   6.676   3.368   2.815
 1822SOL    HW1 6365   6.690   3.316   2.899
 1822SOL    HW2 6366   6.629   3.454   2.836
 1823SOL     OW 6367   4.546   6.143   2.132
 1823SOL    HW1 6368   4.636   6.143   2.175
 1823SOL    HW2 6369   4.556   6.125   2.034
 1824SOL     OW 6370   4.296   3.104   1.740
 1824SOL    HW1 6371   4.289   3.203   1.728
 1824SOL    HW2 6372   4.378   3.082   1.793
 1825SOL     OW 6373   1.477   2.088   4.769
 1825SOL    HW1 6374   1.428   2.139   4.699
 1825SOL    HW2 6375   1.514   2.004   4.730
 1826SOL     OW 6376   3.603   1.903   1.718
 1826SOL    HW1 6377   3.678   1.904   1.784
 1826SOL    HW2 6378   3.564   1.995   1.711
 1827SOL     OW 6379   5.618   5.741   0.909
 1827SOL    HW1 6380   5.681   5.803   0.862
 1827SOL    HW2 6381   5.669   5.686   0.976
 1828SOL     OW 6382   1.525   3.622   5.402
 1828SOL    HW1 6383   1.441   3.663   5.366
 1828SOL    HW2 6384   1.600   3.688   5.396
 1829SOL     OW 6385   3.927   0.805   2.520
 1829SOL    HW1 6386   3.890   0.712   2.515
 1829SOL    HW2 6387   3.914   0.851   2.432
 1830SOL     OW 6388   5.563   0.477   5.146
 1830SOL    HW1 6389   5.641   0.521   5.100
 1830SOL    HW2 6390   5.535   0.532   5.224
 1831SOL     OW 6391   3.738   4.737   0.643
 1831SOL    HW1 6392   3.700   4.785   0.563
 1831SOL    HW2 6393   3.804   4.669   0.612
 1832SOL     OW 6394   2.472   2.771   0.348
 1832SOL    HW1 6395   2.571   2.762   0.355
 1832SOL    HW2 6396   2.450   2.840   0.279
 1833SOL     OW 6397   5.849   1.183   6.710
 1833SOL    HW1 6398   5.798   1.100   6.733
 1833SOL    HW2 6399   5.838   1.250   6.784
 1834SOL     OW 6400   0.462   2.839   5.430
 1834SOL    HW1 6401   0.530   2.852   5.503
 1834SOL    HW2 6402   0.476   2.749   5.389
 1835SOL     OW 6403   6.872   6.558   1.574
 1835SOL    HW1 6404   6.813   6.478   1.583
 1835SOL    HW2 6405   6.947   6.537   1.511
 1836SOL     OW 6406   4.994   2.653   2.561
 1836SOL    HW1 6407   5.085   2.695   2.556
 1836SOL    HW2 6408   4.993   2.570   2.506
 1837SOL     OW 6409   2.924   2.303   5.991
 1837SOL    HW1 6410   2.838   2.265   6.024
 1837SOL    HW2 6411   2.927   2.401   6.010
 1838SOL     OW 6412   5.442   1.082   0.617
 1838SOL    HW1 6413   5.396   1.158   0.571
 1838SOL    HW2 6414   5.374   1.014   0.645
 1839SOL     OW 6415   0.112   0.601   0.403
 1839SOL    HW1 6416   0.085   0.532   0.335
 1839SOL    HW2 6417   0.202   0.578   0.440
 1840SOL     OW 6418   4.140   6.326   3.498
 1840SOL    HW1 6419   4.121   6.289   3.408
 1840SOL    HW2 6420   4.101   6.418   3.505
 1841SOL     OW 6421   1.709   0.772   2.328
 1841SOL    HW1 6422   1.733   0.763   2.425
 1841SOL    HW2 6423   1.625   0.720   2.310
 1842SOL     OW 6424   1.136   5.631   0.856
 1842SOL    HW1 6425   1.090   5.675   0.933
 1842SOL    HW2 6426   1.103   5.672   0.770
 1843SOL     OW 6427   2.431   0.924   5.536
 1843SOL    HW1 6428   2.465   0.874   5.456
 1843SOL    HW2 6429   2.334   0.905   5.548
 1844SOL     OW 6430   5.968   2.663   6.246
 1844SOL    HW1 6431   6.034   2.612   6.301
 1844SOL    HW2 6432   5.893   2.602   6.219
 1845SOL     OW 6433   1.315   2.576   2.862
 1845SOL    HW1 6434   1.278   2.626   2.784
 1845SOL    HW2 6435   1.399   2.528   2.835
 1846SOL     OW 6436   3.144   0.971   1.466
 1846SOL    HW1 6437   3.163   0.874   1.472
 1846SOL    HW2 6438   3.091   0.999   1.546
 1847SOL     OW 6439   1.940   5.662   5.179
 1847SOL    HW1 6440   1.847   5.661   5.215
 1847SOL    HW2 6441   1.957   5.578   5.128
 1848SOL     OW 6442   3.084   6.383   3.230
 1848SOL    HW1 6443   3.111   6.292   3.200
 1848SOL    HW2 6444   3.128   6.452   3.173
 1849SOL     OW 6445   4.879   2.716   2.299
 1849SOL    HW1 6446   4.937   2.640   2.332
 1849SOL    HW2 6447   4.903   2.799   2.350
 1850SOL     OW 6448   4.368   1.547   0.973
 1850SOL    HW1 6449   4.311   1.579   1.048
 1850SOL    HW2 6450   4.326   1.572   0.886
 1851SOL     OW 6451   0.639   4.655   4.929
 1851SOL    HW1 6452   0.668   4.749   4.909
 1851SOL    HW2 6453   0.600   4.651   5.021
 1852SOL     OW 6454   0.496   0.266   2.646
 1852SOL    HW1 6455   0.449   0.193   2.694
 1852SOL    HW2 6456   0.586   0.280   2.687
 1853SOL     OW 6457   0.265   2.681   5.868
 1853SOL    HW1 6458   0.331   2.755   5.854
 1853SOL    HW2 6459   0.217   2.662   5.782
 1854SOL     OW 6460   0.775   6.988   3.333
 1854SOL    HW1 6461   0.850   6.995   3.267
 1854SOL    HW2 6462   0.810   7.008   3.425
 1855SOL     OW 6463   5.197   3.191   4.778
 1855SOL    HW1 6464   5.242   3.122   4.835
 1855SOL    HW2 6465   5.266   3.252   4.739
 1856SOL     OW 6466   3.790   2.899   0.883
 1856SOL    HW1 6467   3.848   2.819   0.893
 1856SOL    HW2 6468   3.712   2.892   0.946
 1857SOL     OW 6469   3.998   1.480   6.962
 1857SOL    HW1 6470   4.082   1.434   6.991
 1857SOL    HW2 6471   3.921   1.447   7.017
 1858SOL     OW 6472   5.172   2.525   4.371
 1858SOL    HW1 6473   5.109   2.546   4.445
 1858SOL    HW2 6474   5.136   2.450   4.317
 1859SOL     OW 6475   6.744   1.668   4.365
 1859SOL    HW1 6476   6.721   1.765   4.361
 1859SOL    HW2 6477   6.841   1.658   4.389
 1860SOL     OW 6478   2.018   1.217   5.745
 1860SOL    HW1 6479   2.084   1.288   5.721
 1860SOL    HW2 6480   1.925   1.253   5.733
 1861SOL     OW 6481   6.734   6.793   3.792
 1861SOL    HW1 6482   6.812   6.731   3.789
 1861SOL    HW2 6483   6.681   6.777   3.875
 1862SOL     OW 6484   2.907   5.482   5.691
 1862SOL    HW1 6485   2.927   5.439   5.779
 1862SOL    HW2 6486   2.980   5.547   5.669
 1863SOL     OW 6487   0.255   2.721   0.469
 1863SOL    HW1 6488   0.297   2.644   0.517
 1863SOL    HW2 6489   0.183   2.687   0.408
 1864SOL     OW 6490   4.067   5.614   2.362
 1864SOL    HW1 6491   4.123   5.547   2.411
 1864SOL    HW2 6492   4.054   5.695   2.420
 1865SOL     OW 6493   6.010   2.149   5.389
 1865SOL    HW1 6494   6.040   2.133   5.295
 1865SOL    HW2 6495   5.910   2.156   5.391
 1866SOL     OW 6496   0.794   4.975   3.575
 1866SOL    HW1 6497   0.720   4.911   3.556
 1866SOL    HW2 6498   0.873   4.953   3.518
 1867SOL     OW 6499   1.379   2.381   1.365
 1867SOL    HW1 6500   1.294   2.401   1.415
 1867SOL    HW2 6501   1.356   2.342   1.276
 1868SOL     OW 6502   5.822   3.207   0.042
 1868SOL    HW1 6503   5.853   3.289   7.011
 1868SOL    HW2 6504   5.836   3.218   0.140
 1869SOL     OW 6505   4.330   1.083   4.373
 1869SOL    HW1 6506   4.330   1.164   4.431
 1869SOL    HW2 6507   4.288   1.105   4.285
 1870SOL     OW 6508   6.330   6.303   5.017
 1870SOL    HW1 6509   6.358   6.331   4.925
 1870SOL    HW2 6510   6.325   6.203   5.022
 1871SOL     OW 6511   0.209   6.080   0.368
 1871SOL    HW1 6512   0.266   6.124   0.437
 1871SOL    HW2 6513   0.140   6.024   0.412
 1872SOL     OW 6514   2.889   2.718   1.662
 1872SOL    HW1 6515   2.885   2.678   1.571
 1872SOL    HW2 6516   2.888   2.646   1.731
 1873SOL     OW 6517   6.392   1.504   0.823
 1873SOL    HW1 6518   6.319   1.445   0.856
 1873SOL    HW2 6519   6.403   1.490   0.724
 1874SOL     OW 6520   0.549   5.036   0.296
 1874SOL    HW1 6521   0.461   5.058   0.254
 1874SOL    HW2 6522   0.607   5.117   0.296
 1875SOL     OW 6523   6.692   5.244   0.411
 1875SOL    HW1 6524   6.656   5.330   0.448
 1875SOL    HW2 6525   6.696   5.176   0.484
 1876SOL     OW 6526   0.092   5.430   1.078
 1876SOL    HW1 6527   0.110   5.461   0.985
 1876SOL    HW2 6528   0.145   5.348   1.097
 1877SOL     OW 6529   0.853   1.611   2.490
 1877SOL    HW1 6530   0.952   1.609   2.481
 1877SOL    HW2 6531   0.826   1.566   2.576
 1878SOL     OW 6532   5.787   3.663   3.871
 1878SOL    HW1 6533   5.687   3.669   3.860
 1878SOL    HW2 6534   5.820   3.743   3.920
 1879SOL     OW 6535   4.542   5.822   4.300
 1879SOL    HW1 6536   4.564   5.822   4.398
 1879SOL    HW2 6537   4.596   5.893   4.254
 1880SOL     OW 6538   7.010   2.230   4.393
 1880SOL    HW1 6539   0.031   2.321   4.403
 1880SOL    HW2 6540   6.939   2.216   4.462
 1881SOL     OW 6541   1.671   1.608   3.991
 1881SOL    HW1 6542   1.704   1.560   3.910
 1881SOL    HW2 6543   1.648   1.702   3.966
 1882SOL     OW 6544   1.380   5.445   0.524
 1882SOL    HW1 6545   1.430   5.451   0.438
 1882SOL    HW2 6546   1.291   5.490   0.515
 1883SOL     OW 6547   1.413   2.890   3.012
 1883SOL    HW1 6548   1.414   2.814   2.947
 1883SOL    HW2 6549   1.321   2.898   3.052
 1884SOL     OW 6550   4.090   0.911   0.036
 1884SOL    HW1 6551   4.094   0.847   6.976
 1884SOL    HW2 6552   4.085   1.005   0.002
 1885SOL     OW 6553   0.035   1.852   0.973
 1885SOL    HW1 6554   0.081   1.863   1.062
 1885SOL    HW2 6555   6.981   1.783   0.981
 1886SOL     OW 6556   3.216   2.463   5.685
 1886SOL    HW1 6557   3.126   2.448   5.726
 1886SOL    HW2 6558   3.234   2.391   5.618
 1887SOL     OW 6559   0.949   6.269   5.051
 1887SOL    HW1 6560   0.952   6.362   5.016
 1887SOL    HW2 6561   1.016   6.259   5.125
 1888SOL     OW 6562   1.679   2.084   5.243
 1888SOL    HW1 6563   1.601   2.022   5.248
 1888SOL    HW2 6564   1.734   2.075   5.326
 1889SOL     OW 6565   3.275   2.712   6.978
 1889SOL    HW1 6566   3.340   2.639   6.957
 1889SOL    HW2 6567   3.235   2.747   6.893
 1890SOL     OW 6568   6.488   5.727   6.915
 1890SOL    HW1 6569   6.393   5.760   6.914
 1890SOL    HW2 6570   6.494   5.643   6.970
 1891SOL     OW 6571   5.664   3.867   6.230
 1891SOL    HW1 6572   5.598   3.833   6.298
 1891SOL    HW2 6573   5.752   3.822   6.244
 1892SOL     OW 6574   4.066   6.783   1.862
 1892SOL    HW1 6575   4.098   6.785   1.768
 1892SOL    HW2 6576   3.966   6.774   1.864
 1893SOL     OW 6577   3.170   1.877   5.220
 1893SOL    HW1 6578   3.170   1.839   5.127
 1893SOL    HW2 6579   3.225   1.819   5.279
 1894SOL     OW 6580   4.532   3.739   0.953
 1894SOL    HW1 6581   4.496   3.692   0.873
 1894SOL    HW2 6582   4.467   3.733   1.028
 1895SOL     OW 6583   4.794   0.942   3.343
 1895SOL    HW1 6584   4.860   0.867   3.337
 1895SOL    HW2 6585   4.701   0.906   3.346
 1896SOL     OW 6586   5.966   2.107   5.833
 1896SOL    HW1 6587   6.041   2.168   5.807
 1896SOL    HW2 6588   6.001   2.014   5.840
 1897SOL     OW 6589   5.781   5.259   3.583
 1897SOL    HW1 6590   5.783   5.358   3.567
 1897SOL    HW2 6591   5.691   5.232   3.618
 1898SOL     OW 6592   5.689   6.501   6.638
 1898SOL    HW1 6593   5.665   6.598   6.644
 1898SOL    HW2 6594   5.776   6.485   6.684
 1899SOL     OW 6595   1.297   1.763   3.492
 1899SOL    HW1 6596   1.350   1.827   3.436
 1899SOL    HW2 6597   1.276   1.805   3.580
 1900SOL     OW 6598   2.464   5.930   0.986
 1900SOL    HW1 6599   2.546   5.939   1.043
 1900SOL    HW2 6600   2.490   5.933   0.890
 1901SOL     OW 6601   1.351   1.562   6.318
 1901SOL    HW1 6602   1.409   1.622   6.262
 1901SOL    HW2 6603   1.292   1.619   6.375
 1902SOL     OW 6604   1.774   2.452   5.470
 1902SOL    HW1 6605   1.688   2.405   5.450
 1902SOL    HW2 6606   1.845   2.384   5.490
 1903SOL     OW 6607   6.649   4.477   4.161
 1903SOL    HW1 6608   6.685   4.411   4.095
 1903SOL    HW2 6609   6.549   4.479   4.156
 1904SOL     OW 6610   0.553   0.404   4.666
 1904SOL    HW1 6611   0.571   0.498   4.637
 1904SOL    HW2 6612   0.637   0.363   4.702
 1905SOL     OW 6613   6.227   3.212   4.243
 1905SOL    HW1 6614   6.248   3.203   4.340
 1905SOL    HW2 6615   6.153   3.148   4.219
 1906SOL     OW 6616   2.612   0.241   0.289
 1906SOL    HW1 6617   2.639   0.307   0.219
 1906SOL    HW2 6618   2.517   0.215   0.275
 1907SOL     OW 6619   3.474   5.998   3.086
 1907SOL    HW1 6620   3.392   5.941   3.085
 1907SOL    HW2 6621   3.447   6.095   3.092
 1908SOL     OW 6622   4.956   1.072   6.901
 1908SOL    HW1 6623   5.018   0.995   6.888
 1908SOL    HW2 6624   4.947   1.122   6.815
 1909SOL     OW 6625   4.017   4.976   4.728
 1909SOL    HW1 6626   4.062   4.896   4.688
 1909SOL    HW2 6627   4.046   4.987   4.823
 1910SOL     OW 6628   4.904   2.412   4.770
 1910SOL    HW1 6629   4.890   2.490   4.831
 1910SOL    HW2 6630   4.831   2.346   4.783
 1911SOL     OW 6631   6.828   3.790   6.351
 1911SOL    HW1 6632   6.824   3.888   6.371
 1911SOL    HW2 6633   6.921   3.757   6.368
 1912SOL     OW 6634   3.141   6.121   3.159
 1912SOL    HW1 6635   3.075   6.063   3.207
 1912SOL    HW2 6636   3.149   6.091   3.064
 1913SOL     OW 6637   1.554   4.556   5.239
 1913SOL    HW1 6638   1.535   4.550   5.141
 1913SOL    HW2 6639   1.652   4.544   5.254
 1914SOL     OW 6640   4.612   1.418   5.236
 1914SOL    HW1 6641   4.594   1.391   5.141
 1914SOL    HW2 6642   4.678   1.493   5.237
 1915SOL     OW 6643   3.856   0.258   5.418
 1915SOL    HW1 6644   3.951   0.269   5.448
 1915SOL    HW2 6645   3.797   0.256   5.499
 1916SOL     OW 6646   4.101   6.633   1.381
 1916SOL    HW1 6647   4.095   6.625   1.282
 1916SOL    HW2 6648   4.091   6.729   1.408
 1917SOL     OW 6649   3.451   3.279   4.352
 1917SOL    HW1 6650   3.384   3.268   4.279
 1917SOL    HW2 6651   3.448   3.200   4.413
 1918SOL     OW 6652   5.971   6.620   4.166
 1918SOL    HW1 6653   5.979   6.550   4.238
 1918SOL    HW2 6654   5.874   6.634   4.145
 1919SOL     OW 6655   6.439   6.786   2.221
 1919SOL    HW1 6656   6.418   6.878   2.188
 1919SOL    HW2 6657   6.481   6.733   2.147
 1920SOL     OW 6658   6.648   5.981   4.163
 1920SOL    HW1 6659   6.568   6.019   4.116
 1920SOL    HW2 6660   6.706   5.934   4.096
 1921SOL     OW 6661   0.888   6.999   6.114
 1921SOL    HW1 6662   0.807   0.011   6.164
 1921SOL    HW2 6663   0.897   6.900   6.119
 1922SOL     OW 6664   3.440   4.329   0.953
 1922SOL    HW1 6665   3.470   4.397   1.020
 1922SOL    HW2 6666   3.382   4.261   0.997
 1923SOL     OW 6667   2.328   2.074   0.733
 1923SOL    HW1 6668   2.349   2.067   0.830
 1923SOL    HW2 6669   2.391   2.017   0.681
 1924SOL     OW 6670   1.015   3.942   2.169
 1924SOL    HW1 6671   1.098   3.915   2.119
 1924SOL    HW2 6672   1.026   3.918   2.266
 1925SOL     OW 6673   3.450   4.279   0.438
 1925SOL    HW1 6674   3.524   4.238   0.385
 1925SOL    HW2 6675   3.446   4.377   0.420
 1926SOL     OW 6676   0.607   0.244   3.424
 1926SOL    HW1 6677   0.631   0.177   3.494
 1926SOL    HW2 6678   0.509   0.243   3.409
 1927SOL     OW 6679   4.128   3.867   0.207
 1927SOL    HW1 6680   4.203   3.876   0.272
 1927SOL    HW2 6681   4.164   3.852   0.115
 1928SOL     OW 6682   6.488   4.880   5.398
 1928SOL    HW1 6683   6.520   4.897   5.491
 1928SOL    HW2 6684   6.413   4.943   5.376
 1929SOL     OW 6685   1.251   0.201   2.692
 1929SOL    HW1 6686   1.198   0.284   2.710
 1929SOL    HW2 6687   1.188   0.124   2.683
 1930SOL     OW 6688   6.412   4.571   6.873
 1930SOL    HW1 6689   6.408   4.600   6.777
 1930SOL    HW2 6690   6.353   4.629   6.928
 1931SOL     OW 6691   1.142   2.521   5.003
 1931SOL    HW1 6692   1.155   2.610   5.047
 1931SOL    HW2 6693   1.101   2.535   4.912
 1932SOL     OW 6694   5.924   3.263   2.374
 1932SOL    HW1 6695   5.970   3.327   2.313
 1932SOL    HW2 6696   5.955   3.278   2.468
 1933SOL     OW 6697   2.821   4.492   1.381
 1933SOL    HW1 6698   2.733   4.507   1.336
 1933SOL    HW2 6699   2.813   4.414   1.442
 1934SOL     OW 6700   0.505   5.983   4.249
 1934SOL    HW1 6701   0.528   5.951   4.341
 1934SOL    HW2 6702   0.413   6.023   4.250
 1935SOL     OW 6703   2.335   0.654   4.041
 1935SOL    HW1 6704   2.372   0.740   4.077
 1935SOL    HW2 6705   2.396   0.618   3.971
 1936SOL     OW 6706   6.536   5.887   5.888
 1936SOL    HW1 6707   6.439   5.887   5.909
 1936SOL    HW2 6708   6.549   5.870   5.790
 1937SOL     OW 6709   4.263   6.969   2.688
 1937SOL    HW1 6710   4.321   6.978   2.607
 1937SOL    HW2 6711   4.202   6.890   2.676
 1938SOL     OW 6712   4.858   0.450   3.973
 1938SOL    HW1 6713   4.952   0.436   3.942
 1938SOL    HW2 6714   4.837   0.548   3.973
 1939SOL     OW 6715   2.342   0.186   3.151
 1939SOL    HW1 6716   2.325   0.188   3.053
 1939SOL    HW2 6717   2.360   0.092   3.180
 1940SOL     OW 6718   6.964   4.958   6.734
 1940SOL    HW1 6719   6.870   4.967   6.703
 1940SOL    HW2 6720   7.005   4.877   6.693
 1941SOL     OW 6721   5.012   4.946   3.248
 1941SOL    HW1 6722   5.078   4.871   3.259
 1941SOL    HW2 6723   5.052   5.018   3.192
 1942SOL     OW 6724   6.054   5.552   3.112
 1942SOL    HW1 6725   6.116   5.616   3.065
 1942SOL    HW2 6726   5.967   5.597   3.131
 1943SOL     OW 6727   3.085   5.241   2.698
 1943SOL    HW1 6728   3.053   5.332   2.670
 1943SOL    HW2 6729   3.056   5.174   2.630
 1944SOL     OW 6730   6.947   0.855   1.947
 1944SOL    HW1 6731   6.875   0.819   1.888
 1944SOL    HW2 6732   0.018   0.820   1.915
 1945SOL     OW 6733   2.950   5.236   4.223
 1945SOL    HW1 6734   2.854   5.257   4.240
 1945SOL    HW2 6735   2.980   5.164   4.286
 1946SOL     OW 6736   1.777   0.304   6.938
 1946SOL    HW1 6737   1.702   0.371   6.941
 1946SOL    HW2 6738   1.764   0.236   7.010
 1947SOL     OW 6739   5.710   6.322   4.556
 1947SOL    HW1 6740   5.807   6.328   4.535
 1947SOL    HW2 6741   5.658   6.373   4.487
 1948SOL     OW 6742   6.111   4.170   5.690
 1948SOL    HW1 6743   6.065   4.086   5.718
 1948SOL    HW2 6744   6.077   4.199   5.600
 1949SOL     OW 6745   5.411   4.299   6.666
 1949SOL    HW1 6746   5.378   4.308   6.760
 1949SOL    HW2 6747   5.356   4.231   6.618
 1950SOL     OW 6748   3.240   3.503   0.619
 1950SOL    HW1 6749   3.329   3.539   0.646
 1950SOL    HW2 6750   3.182   3.492   0.699
 1951SOL     OW 6751   6.828   2.040   6.993
 1951SOL    HW1 6752   6.860   2.077   0.063
 1951SOL    HW2 6753   6.802   1.944   7.005
 1952SOL     OW 6754   3.629   1.652   5.720
 1952SOL    HW1 6755   3.565   1.700   5.780
 1952SOL    HW2 6756   3.662   1.570   5.765
 1953SOL     OW 6757   0.155   3.557   5.617
 1953SOL    HW1 6758   0.153   3.546   5.716
 1953SOL    HW2 6759   0.228   3.501   5.578
 1954SOL     OW 6760   3.127   2.093   3.934
 1954SOL    HW1 6761   3.070   2.131   4.007
 1954SOL    HW2 6762   3.093   2.003   3.908
 1955SOL     OW 6763   6.578   5.817   2.585
 1955SOL    HW1 6764   6.622   5.906   2.571
 1955SOL    HW2 6765   6.480   5.825   2.562
 1956SOL     OW 6766   5.757   5.875   2.530
 1956SOL    HW1 6767   5.792   5.802   2.588
 1956SOL    HW2 6768   5.665   5.851   2.498
 1957SOL     OW 6769   1.011   6.905   5.012
 1957SOL    HW1 6770   1.010   6.824   5.071
 1957SOL    HW2 6771   0.999   6.877   4.917
 1958SOL     OW 6772   5.564   3.807   5.985
 1958SOL    HW1 6773   5.476   3.763   6.005
 1958SOL    HW2 6774   5.613   3.822   6.071
 1959SOL     OW 6775   1.291   2.309   6.371
 1959SOL    HW1 6776   1.244   2.282   6.455
 1959SOL    HW2 6777   1.247   2.267   6.292
 1960SOL     OW 6778   5.827   6.253   1.360
 1960SOL    HW1 6779   5.870   6.213   1.441
 1960SOL    HW2 6780   5.835   6.353   1.364
 1961SOL     OW 6781   5.806   4.950   3.808
 1961SOL    HW1 6782   5.721   4.997   3.786
 1961SOL    HW2 6783   5.787   4.878   3.875
 1962SOL     OW 6784   6.789   6.419   2.839
 1962SOL    HW1 6785   6.702   6.370   2.848
 1962SOL    HW2 6786   6.780   6.509   2.884
 1963SOL     OW 6787   2.025   0.419   2.741
 1963SOL    HW1 6788   1.980   0.347   2.687
 1963SOL    HW2 6789   2.110   0.446   2.695
 1964SOL     OW 6790   5.833   3.309   2.848
 1964SOL    HW1 6791   5.909   3.281   2.907
 1964SOL    HW2 6792   5.810   3.404   2.866
 1965SOL     OW 6793   2.097   4.891   3.574
 1965SOL    HW1 6794   2.189   4.922   3.597
 1965SOL    HW2 6795   2.086   4.888   3.474
 1966SOL     OW 6796   6.263   5.703   5.825
 1966SOL    HW1 6797   6.232   5.786   5.779
 1966SOL    HW2 6798   6.255   5.715   5.924
 1967SOL     OW 6799   4.923   2.154   5.056
 1967SOL    HW1 6800   4.991   2.228   5.053
 1967SOL    HW2 6801   4.831   2.194   5.057
 1968SOL     OW 6802   3.250   5.448   6.346
 1968SOL    HW1 6803   3.217   5.372   6.291
 1968SOL    HW2 6804   3.224   5.535   6.303
 1969SOL     OW 6805   6.430   2.563   1.399
 1969SOL    HW1 6806   6.397   2.531   1.310
 1969SOL    HW2 6807   6.406   2.496   1.469
 1970SOL     OW 6808   1.573   0.032   3.402
 1970SOL    HW1 6809   1.503   0.102   3.416
 1970SOL    HW2 6810   1.541   6.962   3.439
 1971SOL     OW 6811   0.280   6.210   6.691
 1971SOL    HW1 6812   0.249   6.231   6.783
 1971SOL    HW2 6813   0.205   6.171   6.638
 1972SOL     OW 6814   0.814   5.054   3.861
 1972SOL    HW1 6815   0.822   5.035   3.763
 1972SOL    HW2 6816   0.806   4.967   3.911
 1973SOL     OW 6817   2.935   3.024   0.678
 1973SOL    HW1 6818   2.899   3.103   0.628
 1973SOL    HW2 6819   3.033   3.036   0.693
 1974SOL     OW 6820   5.721   0.357   4.256
 1974SOL    HW1 6821   5.640   0.384   4.308
 1974SOL    HW2 6822   5.699   0.357   4.158
 1975SOL     OW 6823   3.556   0.692   3.192
 1975SOL    HW1 6824   3.540   0.747   3.274
 1975SOL    HW2 6825   3.573   0.753   3.114
 1976SOL     OW 6826   0.178   5.020   6.937
 1976SOL    HW1 6827   0.188   4.921   6.928
 1976SOL    HW2 6828   0.124   5.055   6.860
 1977SOL     OW 6829   1.884   2.762   4.799
 1977SOL    HW1 6830   1.889   2.787   4.896
 1977SOL    HW2 6831   1.812   2.695   4.785
 1978SOL     OW 6832   6.749   1.471   4.747
 1978SOL    HW1 6833   6.799   1.542   4.698
 1978SOL    HW2 6834   6.801   1.385   4.744
 1979SOL     OW 6835   5.526   4.931   3.527
 1979SOL    HW1 6836   5.522   4.833   3.543
 1979SOL    HW2 6837   5.499   4.950   3.432
 1980SOL     OW 6838   4.258   0.349   1.422
 1980SOL    HW1 6839   4.228   0.420   1.485
 1980SOL    HW2 6840   4.188   0.334   1.352
 1981SOL     OW 6841   4.562   3.293   1.709
 1981SOL    HW1 6842   4.567   3.202   1.749
 1981SOL    HW2 6843   4.466   3.318   1.695
 1982SOL     OW 6844   5.401   6.372   4.993
 1982SOL    HW1 6845   5.369   6.406   4.905
 1982SOL    HW2 6846   5.476   6.307   4.977
 1983SOL     OW 6847   0.523   3.873   3.373
 1983SOL    HW1 6848   0.463   3.913   3.443
 1983SOL    HW2 6849   0.616   3.866   3.408
 1984SOL     OW 6850   4.270   0.460   5.720
 1984SOL    HW1 6851   4.281   0.558   5.700
 1984SOL    HW2 6852   4.173   0.436   5.721
 1985SOL     OW 6853   1.466   1.077   1.691
 1985SOL    HW1 6854   1.375   1.101   1.656
 1985SOL    HW2 6855   1.531   1.072   1.615
 1986SOL     OW 6856   1.320   1.380   5.867
 1986SOL    HW1 6857   1.264   1.396   5.948
 1986SOL    HW2 6858   1.375   1.298   5.880
 1987SOL     OW 6859   2.668   3.020   6.845
 1987SOL    HW1 6860   2.711   2.968   6.771
 1987SOL    HW2 6861   2.715   3.107   6.856
 1988SOL     OW 6862   4.187   3.479   1.023
 1988SOL    HW1 6863   4.128   3.541   0.971
 1988SOL    HW2 6864   4.189   3.508   1.119
 1989SOL     OW 6865   2.406   0.147   4.135
 1989SOL    HW1 6866   2.463   0.226   4.157
 1989SOL    HW2 6867   2.344   0.128   4.212
 1990SOL     OW 6868   2.634   0.862   1.977
 1990SOL    HW1 6869   2.679   0.948   1.954
 1990SOL    HW2 6870   2.702   0.795   2.006
 1991SOL     OW 6871   3.416   5.358   4.646
 1991SOL    HW1 6872   3.367   5.398   4.724
 1991SOL    HW2 6873   3.362   5.283   4.607
 1992SOL     OW 6874   1.954   6.662   5.250
 1992SOL    HW1 6875   2.027   6.706   5.197
 1992SOL    HW2 6876   1.867   6.708   5.231
 1993SOL     OW 6877   3.828   3.311   5.169
 1993SOL    HW1 6878   3.783   3.373   5.105
 1993SOL    HW2 6879   3.764   3.283   5.240
 1994SOL     OW 6880   6.343   2.357   2.335
 1994SOL    HW1 6881   6.441   2.376   2.337
 1994SOL    HW2 6882   6.296   2.431   2.287
 1995SOL     OW 6883   5.313   2.410   1.929
 1995SOL    HW1 6884   5.410   2.386   1.935
 1995SOL    HW2 6885   5.257   2.334   1.961
 1996SOL     OW 6886   3.153   4.223   0.470
 1996SOL    HW1 6887   3.203   4.234   0.556
 1996SOL    HW2 6888   3.139   4.313   0.428
 1997SOL     OW 6889   5.401   0.900   3.653
 1997SOL    HW1 6890   5.423   0.804   3.639
 1997SOL    HW2 6891   5.404   0.922   3.751
 1998SOL     OW 6892   3.076   4.781   5.219
 1998SOL    HW1 6893   3.150   4.817   5.162
 1998SOL    HW2 6894   3.019   4.719   5.164
 1999SOL     OW 6895   2.189   1.162   1.893
 1999SOL    HW1 6896   2.119   1.111   1.943
 1999SOL    HW2 6897   2.229   1.104   1.823
 2000SOL     OW 6898   3.989   2.004   5.008
 2000SOL    HW1 6899   3.994   2.070   5.082
 2000SOL    HW2 6900   3.990   2.052   4.920
 2001SOL     OW 6901   2.922   2.159   0.815
 2001SOL    HW1 6902   2.841   2.164   0.873
 2001SOL    HW2 6903   2.973   2.076   0.836
 2002SOL     OW 6904   1.948   5.067   5.006
 2002SOL    HW1 6905   1.932   4.999   5.078
 2002SOL    HW2 6906   1.896   5.041   4.924
 2003SOL     OW 6907   6.191   5.853   4.005
 2003SOL    HW1 6908   6.192   5.872   3.907
 2003SOL    HW2 6909   6.119   5.907   4.049
 2004SOL     OW 6910   2.903   0.832   5.812
 2004SOL    HW1 6911   2.983   0.775   5.793
 2004SOL    HW2 6912   2.830   0.811   5.748
 2005SOL     OW 6913   2.375   6.008   5.933
 2005SOL    HW1 6914   2.327   6.052   6.009
 2005SOL    HW2 6915   2.474   6.015   5.946
 2006SOL     OW 6916   3.887   5.059   3.976
 2006SOL    HW1 6917   3.965   4.999   3.956
 2006SOL    HW2 6918   3.839   5.026   4.058
 2007SOL     OW 6919   5.572   5.955   0.510
 2007SOL    HW1 6920   5.512   6.029   0.542
 2007SOL    HW2 6921   5.617   5.982   0.425
 2008SOL     OW 6922   0.563   5.830   4.031
 2008SOL    HW1 6923   0.497   5.756   4.016
 2008SOL    HW2 6924   0.536   5.881   4.113
 2009SOL     OW 6925   0.328   0.038   1.980
 2009SOL    HW1 6926   0.321   0.136   1.997
 2009SOL    HW2 6927   0.395   0.021   1.908
 2010SOL     OW 6928   1.608   0.531   0.448
 2010SOL    HW1 6929   1.557   0.563   0.368
 2010SOL    HW2 6930   1.597   0.597   0.522
 2011SOL     OW 6931   0.045   2.240   5.150
 2011SOL    HW1 6932   0.041   2.243   5.250
 2011SOL    HW2 6933   0.121   2.181   5.122
 2012SOL     OW 6934   1.173   3.719   1.130
 2012SOL    HW1 6935   1.127   3.682   1.211
 2012SOL    HW2 6936   1.269   3.739   1.153
 2013SOL     OW 6937   4.914   1.462   2.353
 2013SOL    HW1 6938   4.963   1.504   2.429
 2013SOL    HW2 6939   4.961   1.482   2.267
 2014SOL     OW 6940   2.009   5.410   2.245
 2014SOL    HW1 6941   2.000   5.486   2.181
 2014SOL    HW2 6942   1.953   5.428   2.327
 2015SOL     OW 6943   3.510   0.097   6.757
 2015SOL    HW1 6944   3.600   0.066   6.787
 2015SOL    HW2 6945   3.480   0.040   6.680
 2016SOL     OW 6946   0.220   5.280   4.620
 2016SOL    HW1 6947   0.153   5.242   4.556
 2016SOL    HW2 6948   0.299   5.219   4.626
 2017SOL     OW 6949   3.194   5.724   2.616
 2017SOL    HW1 6950   3.116   5.785   2.625
 2017SOL    HW2 6951   3.191   5.654   2.687
 2018SOL     OW 6952   1.022   5.585   5.555
 2018SOL    HW1 6953   1.019   5.653   5.629
 2018SOL    HW2 6954   0.981   5.500   5.587
 2019SOL     OW 6955   6.291   1.893   2.530
 2019SOL    HW1 6956   6.318   1.880   2.435
 2019SOL    HW2 6957   6.354   1.955   2.575
 2020SOL     OW 6958   2.647   6.102   3.152
 2020SOL    HW1 6959   2.739   6.133   3.127
 2020SOL    HW2 6960   2.579   6.150   3.096
 2021SOL     OW 6961   1.035   0.806   2.053
 2021SOL    HW1 6962   0.957   0.765   2.006
 2021SOL    HW2 6963   1.015   0.813   2.150
 2022SOL     OW 6964   2.107   3.827   1.636
 2022SOL    HW1 6965   2.018   3.801   1.597
 2022SOL    HW2 6966   2.100   3.831   1.736
 2023SOL     OW 6967   6.674   0.936   5.775
 2023SOL    HW1 6968   6.649   0.920   5.679
 2023SOL    HW2 6969   6.757   0.885   5.796
 2024SOL     OW 6970   5.897   0.919   3.848
 2024SOL    HW1 6971   5.865   0.825   3.838
 2024SOL    HW2 6972   5.830   0.981   3.806
 2025SOL     OW 6973   6.940   1.321   1.422
 2025SOL    HW1 6974   6.951   1.274   1.509
 2025SOL    HW2 6975   6.849   1.302   1.384
 2026SOL     OW 6976   1.655   1.503   5.321
 2026SOL    HW1 6977   1.633   1.436   5.392
 2026SOL    HW2 6978   1.694   1.456   5.241
 2027SOL     OW 6979   0.896   1.727   3.113
 2027SOL    HW1 6980   0.913   1.808   3.168
 2027SOL    HW2 6981   0.801   1.727   3.081
 2028SOL     OW 6982   4.004   2.989   6.973
 2028SOL    HW1 6983   4.000   3.009   0.053
 2028SOL    HW2 6984   3.922   2.939   6.946
 2029SOL     OW 6985   1.094   0.886   6.948
 2029SOL    HW1 6986   1.002   0.857   6.921
 2029SOL    HW2 6987   1.133   0.945   6.878
 2030SOL     OW 6988   1.741   1.018   3.368
 2030SOL    HW1 6989   1.779   1.077   3.296
 2030SOL    HW2 6990   1.785   0.928   3.363
 2031SOL     OW 6991   5.612   0.191   2.088
 2031SOL    HW1 6992   5.623   0.101   2.131
 2031SOL    HW2 6993   5.545   0.184   2.013
 2032SOL     OW 6994   5.152   6.760   1.519
 2032SOL    HW1 6995   5.060   6.761   1.559
 2032SOL    HW2 6996   5.147   6.718   1.428
 2033SOL     OW 6997   5.384   5.250   6.693
 2033SOL    HW1 6998   5.397   5.242   6.594
 2033SOL    HW2 6999   5.392   5.346   6.720
 2034SOL     OW 7000   2.140   0.073   2.712
 2034SOL    HW1 7001   2.088   0.025   2.782
 2034SOL    HW2 7002   2.082   0.090   2.632
 2035SOL     OW 7003   1.274   2.595   2.222
 2035SOL    HW1 7004   1.266   2.496   2.205
 2035SOL    HW2 7005   1.186   2.639   2.203
 2036SOL     OW 7006   2.011   4.427   0.772
 2036SOL    HW1 7007   1.973   4.500   0.716
 2036SOL    HW2 7008   2.103   4.404   0.738
 2037SOL     OW 7009   0.104   1.462   5.827
 2037SOL    HW1 7010   0.194   1.471   5.869
 2037SOL    HW2 7011   0.109   1.487   5.731
 2038SOL     OW 7012   0.693   0.712   3.975
 2038SOL    HW1 7013   0.621   0.764   4.022
 2038SOL    HW2 7014   0.654   0.665   3.896
 2039SOL     OW 7015   0.339   5.205   2.256
 2039SOL    HW1 7016   0.430   5.165   2.239
 2039SOL    HW2 7017   0.318   5.271   2.185
 2040SOL     OW 7018   4.110   3.293   4.394
 2040SOL    HW1 7019   4.081   3.201   4.419
 2040SOL    HW2 7020   4.145   3.293   4.301
 2041SOL     OW 7021   6.321   4.203   5.893
 2041SOL    HW1 7022   6.296   4.145   5.970
 2041SOL    HW2 7023   6.257   4.187   5.818
 2042SOL     OW 7024   4.444   5.470   6.813
 2042SOL    HW1 7025   4.467   5.431   6.902
 2042SOL    HW2 7026   4.486   5.415   6.741
 2043SOL     OW 7027   5.514   4.529   1.847
 2043SOL    HW1 7028   5.539   4.541   1.943
 2043SOL    HW2 7029   5.568   4.455   1.807
 2044SOL     OW 7030   6.392   7.006   2.080
 2044SOL    HW1 7031   6.376   0.049   2.158
 2044SOL    HW2 7032   6.449   0.035   2.013
 2045SOL     OW 7033   1.889   5.241   6.132
 2045SOL    HW1 7034   1.938   5.308   6.187
 2045SOL    HW2 7035   1.947   5.210   6.057
 2046SOL     OW 7036   6.574   7.013   4.951
 2046SOL    HW1 7037   6.599   0.053   4.872
 2046SOL    HW2 7038   6.618   6.924   4.942
 2047SOL     OW 7039   5.789   2.584   0.335
 2047SOL    HW1 7040   5.723   2.561   0.264
 2047SOL    HW2 7041   5.824   2.677   0.320
 2048SOL     OW 7042   4.851   0.164   5.689
 2048SOL    HW1 7043   4.876   0.068   5.678
 2048SOL    HW2 7044   4.829   0.182   5.785
 2049SOL     OW 7045   4.803   0.630   0.339
 2049SOL    HW1 7046   4.764   0.542   0.314
 2049SOL    HW2 7047   4.851   0.669   0.260
 2050SOL     OW 7048   5.612   2.434   3.850
 2050SOL    HW1 7049   5.526   2.390   3.876
 2050SOL    HW2 7050   5.597   2.493   3.771
 2051SOL     OW 7051   1.822   5.665   0.609
 2051SOL    HW1 7052   1.805   5.567   0.616
 2051SOL    HW2 7053   1.737   5.712   0.586
 2052SOL     OW 7054   1.117   2.727   0.818
 2052SOL    HW1 7055   1.069   2.650   0.861
 2052SOL    HW2 7056   1.059   2.768   0.748
 2053SOL     OW 7057   5.983   0.647   0.163
 2053SOL    HW1 7058   6.000   0.561   0.212
 2053SOL    HW2 7059   6.066   0.704   0.166
 2054SOL     OW 7060   5.912   2.497   0.793
 2054SOL    HW1 7061   5.960   2.544   0.868
 2054SOL    HW2 7062   5.884   2.564   0.724
 2055SOL     OW 7063   5.354   2.716   4.337
 2055SOL    HW1 7064   5.366   2.741   4.241
 2055SOL    HW2 7065   5.282   2.647   4.345
 2056SOL     OW 7066   2.343   0.719   3.284
 2056SOL    HW1 7067   2.308   0.625   3.273
 2056SOL    HW2 7068   2.276   0.772   3.336
 2057SOL     OW 7069   0.188   3.233   4.004
 2057SOL    HW1 7070   0.160   3.147   4.046
 2057SOL    HW2 7071   0.285   3.250   4.022
 2058SOL     OW 7072   6.906   2.261   2.394
 2058SOL    HW1 7073   6.958   2.188   2.351
 2058SOL    HW2 7074   6.886   2.237   2.489
 2059SOL     OW 7075   1.809   1.377   6.919
 2059SOL    HW1 7076   1.849   1.463   6.888
 2059SOL    HW2 7077   1.878   1.304   6.914
 2060SOL     OW 7078   0.500   5.128   2.543
 2060SOL    HW1 7079   0.425   5.128   2.608
 2060SOL    HW2 7080   0.587   5.142   2.591
 2061SOL     OW 7081   6.753   1.508   1.621
 2061SOL    HW1 7082   6.689   1.525   1.695
 2061SOL    HW2 7083   6.738   1.416   1.584
 2062SOL     OW 7084   4.724   0.281   3.117
 2062SOL    HW1 7085   4.674   0.222   3.179
 2062SOL    HW2 7086   4.660   0.331   3.058
 2063SOL     OW 7087   2.045   2.735   6.566
 2063SOL    HW1 7088   1.950   2.767   6.564
 2063SOL    HW2 7089   2.066   2.686   6.481
 2064SOL     OW 7090   1.178   2.653   0.222
 2064SOL    HW1 7091   1.088   2.610   0.231
 2064SOL    HW2 7092   1.248   2.582   0.215
 2065SOL     OW 7093   5.970   4.095   1.534
 2065SOL    HW1 7094   6.065   4.087   1.504
 2065SOL    HW2 7095   5.958   4.180   1.585
 2066SOL     OW 7096   0.990   0.019   4.207
 2066SOL    HW1 7097   0.996   0.080   4.128
 2066SOL    HW2 7098   0.954   6.948   4.177
 2067SOL     OW 7099   6.533   0.104   1.603
 2067SOL    HW1 7100   6.474   0.105   1.523
 2067SOL    HW2 7101   6.586   0.189   1.607
 2068SOL     OW 7102   1.759   1.743   5.288
 2068SOL    HW1 7103   1.727   1.649   5.292
 2068SOL    HW2 7104   1.681   1.804   5.270
 2069SOL     OW 7105   0.655   2.603   1.966
 2069SOL    HW1 7106   0.712   2.570   2.041
 2069SOL    HW2 7107   0.709   2.666   1.909
 2070SOL     OW 7108   1.390   1.040   2.569
 2070SOL    HW1 7109   1.436   1.088   2.644
 2070SOL    HW2 7110   1.416   1.082   2.482
 2071SOL     OW 7111   1.426   6.982   4.086
 2071SOL    HW1 7112   1.374   6.944   4.162
 2071SOL    HW2 7113   1.517   6.940   4.083
 2072SOL     OW 7114   4.898   5.644   1.797
 2072SOL    HW1 7115   4.960   5.700   1.742
 2072SOL    HW2 7116   4.910   5.548   1.772
 2073SOL     OW 7117   2.689   6.622   5.994
 2073SOL    HW1 7118   2.693   6.647   6.090
 2073SOL    HW2 7119   2.669   6.524   5.986
 2074SOL     OW 7120   5.909   1.515   1.942
 2074SOL    HW1 7121   5.920   1.580   2.017
 2074SOL    HW2 7122   5.994   1.509   1.890
 2075SOL     OW 7123   4.435   3.389   0.690
 2075SOL    HW1 7124   4.446   3.402   0.788
 2075SOL    HW2 7125   4.478   3.303   0.663
 2076SOL     OW 7126   5.438   6.769   1.134
 2076SOL    HW1 7127   5.374   6.819   1.075
 2076SOL    HW2 7128   5.397   6.681   1.160
 2077SOL     OW 7129   5.320   1.057   2.838
 2077SOL    HW1 7130   5.234   1.008   2.853
 2077SOL    HW2 7131   5.305   1.155   2.850
 2078SOL     OW 7132   3.315   4.771   5.908
 2078SOL    HW1 7133   3.380   4.719   5.853
 2078SOL    HW2 7134   3.283   4.714   5.984
 2079SOL     OW 7135   5.438   0.966   3.928
 2079SOL    HW1 7136   5.427   1.040   3.994
 2079SOL    HW2 7137   5.477   0.886   3.974
 2080SOL     OW 7138   2.633   2.489   4.466
 2080SOL    HW1 7139   2.668   2.442   4.547
 2080SOL    HW2 7140   2.559   2.550   4.492
 2081SOL     OW 7141   0.565   6.607   5.404
 2081SOL    HW1 7142   0.534   6.584   5.496
 2081SOL    HW2 7143   0.490   6.593   5.339
 2082SOL     OW 7144   5.613   0.976   1.266
 2082SOL    HW1 7145   5.685   0.960   1.333
 2082SOL    HW2 7146   5.525   0.947   1.305
 2083SOL     OW 7147   3.808   4.868   6.232
 2083SOL    HW1 7148   3.711   4.863   6.208
 2083SOL    HW2 7149   3.841   4.777   6.257
 2084SOL     OW 7150   0.063   2.915   3.203
 2084SOL    HW1 7151   0.078   2.959   3.292
 2084SOL    HW2 7152   0.036   2.820   3.217
 2085SOL     OW 7153   5.259   0.561   5.651
 2085SOL    HW1 7154   5.293   0.486   5.595
 2085SOL    HW2 7155   5.163   0.544   5.675
 2086SOL     OW 7156   2.611   4.914   0.621
 2086SOL    HW1 7157   2.691   4.864   0.654
 2086SOL    HW2 7158   2.535   4.901   0.685
 2087SOL     OW 7159   5.257   0.036   3.489
 2087SOL    HW1 7160   5.333   0.002   3.433
 2087SOL    HW2 7161   5.173   0.035   3.435
 2088SOL     OW 7162   3.533   0.299   0.886
 2088SOL    HW1 7163   3.474   0.239   0.833
 2088SOL    HW2 7164   3.507   0.295   0.983
 2089SOL     OW 7165   4.541   0.535   6.574
 2089SOL    HW1 7166   4.542   0.593   6.655
 2089SOL    HW2 7167   4.607   0.568   6.508
 2090SOL     OW 7168   3.536   3.650   4.827
 2090SOL    HW1 7169   3.442   3.684   4.822
 2090SOL    HW2 7170   3.593   3.701   4.762
 2091SOL     OW 7171   1.969   5.065   1.313
 2091SOL    HW1 7172   2.052   5.019   1.344
 2091SOL    HW2 7173   1.908   4.998   1.270
 2092SOL     OW 7174   6.707   6.438   0.930
 2092SOL    HW1 7175   6.770   6.458   1.005
 2092SOL    HW2 7176   6.712   6.511   0.861
 2093SOL     OW 7177   0.842   3.243   1.733
 2093SOL    HW1 7178   0.933   3.202   1.743
 2093SOL    HW2 7179   0.781   3.206   1.802
 2094SOL     OW 7180   5.720   0.204   2.353
 2094SOL    HW1 7181   5.739   0.142   2.428
 2094SOL    HW2 7182   5.731   0.156   2.266
 2095SOL     OW 7183   5.639   5.538   5.002
 2095SOL    HW1 7184   5.732   5.570   5.022
 2095SOL    HW2 7185   5.635   5.439   5.013
 2096SOL     OW 7186   4.758   4.055   2.371
 2096SOL    HW1 7187   4.765   4.063   2.272
 2096SOL    HW2 7188   4.663   4.037   2.396
 2097SOL     OW 7189   0.102   2.708   0.023
 2097SOL    HW1 7190   0.003   2.711   0.010
 2097SOL    HW2 7191   0.147   2.708   6.951
 2098SOL     OW 7192   4.501   0.139   4.050
 2098SOL    HW1 7193   4.410   0.099   4.058
 2098SOL    HW2 7194   4.533   0.129   3.955
 2099SOL     OW 7195   3.410   1.451   4.219
 2099SOL    HW1 7196   3.364   1.467   4.306
 2099SOL    HW2 7197   3.414   1.353   4.201
 2100SOL     OW 7198   4.728   4.112   6.411
 2100SOL    HW1 7199   4.688   4.023   6.388
 2100SOL    HW2 7200   4.719   4.127   6.510
 2101SOL     OW 7201   0.385   0.060   3.507
 2101SOL    HW1 7202   0.316   0.110   3.560
 2101SOL    HW2 7203   0.339   7.013   3.445
 2102SOL     OW 7204   0.078   5.140   3.331
 2102SOL    HW1 7205   0.089   5.129   3.233
 2102SOL    HW2 7206   0.168   5.152   3.373
 2103SOL     OW 7207   3.504   3.607   6.406
 2103SOL    HW1 7208   3.580   3.669   6.429
 2103SOL    HW2 7209   3.423   3.635   6.457
 2104SOL     OW 7210   1.626   3.368   5.440
 2104SOL    HW1 7211   1.580   3.448   5.401
 2104SOL    HW2 7212   1.724   3.384   5.443
 2105SOL     OW 7213   6.251   6.023   1.676
 2105SOL    HW1 7214   6.233   6.055   1.769
 2105SOL    HW2 7215   6.344   5.987   1.671
 2106SOL     OW 7216   4.770   5.256   6.931
 2106SOL    HW1 7217   4.706   5.183   6.957
 2106SOL    HW2 7218   4.723   5.344   6.934
 2107SOL     OW 7219   4.369   4.078   5.990
 2107SOL    HW1 7220   4.459   4.111   5.961
 2107SOL    HW2 7221   4.317   4.154   6.028
 2108SOL     OW 7222   5.757   4.948   5.805
 2108SOL    HW1 7223   5.760   5.010   5.726
 2108SOL    HW2 7224   5.707   4.865   5.780
 2109SOL     OW 7225   5.669   6.542   2.385
 2109SOL    HW1 7226   5.713   6.495   2.461
 2109SOL    HW2 7227   5.598   6.602   2.420
 2110SOL     OW 7228   2.808   4.304   6.313
 2110SOL    HW1 7229   2.749   4.290   6.393
 2110SOL    HW2 7230   2.756   4.351   6.241
 2111SOL     OW 7231   1.412   3.251   0.087
 2111SOL    HW1 7232   1.339   3.277   0.024
 2111SOL    HW2 7233   1.411   3.152   0.099
 2112SOL     OW 7234   4.688   2.915   1.403
 2112SOL    HW1 7235   4.687   2.888   1.499
 2112SOL    HW2 7236   4.731   2.844   1.348
 2113SOL     OW 7237   0.825   0.638   2.832
 2113SOL    HW1 7238   0.890   0.584   2.885
 2113SOL    HW2 7239   0.836   0.735   2.854
 2114SOL     OW 7240   2.236   3.771   0.165
 2114SOL    HW1 7241   2.157   3.733   0.118
 2114SOL    HW2 7242   2.282   3.698   0.216
 2115SOL     OW 7243   2.054   4.695   2.158
 2115SOL    HW1 7244   2.040   4.598   2.138
 2115SOL    HW2 7245   2.017   4.750   2.083
 2116SOL     OW 7246   0.637   4.522   3.435
 2116SOL    HW1 7247   0.685   4.543   3.520
 2116SOL    HW2 7248   0.560   4.586   3.424
 2117SOL     OW 7249   0.599   4.913   1.182
 2117SOL    HW1 7250   0.602   4.816   1.204
 2117SOL    HW2 7251   0.662   4.963   1.242
 2118SOL     OW 7252   0.243   3.881   2.365
 2118SOL    HW1 7253   0.274   3.917   2.278
 2118SOL    HW2 7254   0.305   3.810   2.397
 2119SOL     OW 7255   2.321   6.021   1.308
 2119SOL    HW1 7256   2.418   6.032   1.290
 2119SOL    HW2 7257   2.307   5.979   1.397
 2120SOL     OW 7258   6.718   4.921   1.965
 2120SOL    HW1 7259   6.715   4.922   2.065
 2120SOL    HW2 7260   6.800   4.970   1.934
 2121SOL     OW 7261   0.280   5.576   5.194
 2121SOL    HW1 7262   0.283   5.613   5.287
 2121SOL    HW2 7263   0.275   5.651   5.128
 2122SOL     OW 7264   4.581   4.424   4.839
 2122SOL    HW1 7265   4.600   4.502   4.780
 2122SOL    HW2 7266   4.502   4.444   4.896
 2123SOL     OW 7267   6.476   4.482   2.889
 2123SOL    HW1 7268   6.433   4.496   2.800
 2123SOL    HW2 7269   6.406   4.454   2.955
 2124SOL     OW 7270   2.264   1.766   0.904
 2124SOL    HW1 7271   2.329   1.743   0.832
 2124SOL    HW2 7272   2.197   1.692   0.914
 2125SOL     OW 7273   2.971   0.416   0.560
 2125SOL    HW1 7274   3.030   0.396   0.481
 2125SOL    HW2 7275   2.960   0.515   0.569
 2126SOL     OW 7276   2.759   0.529   6.834
 2126SOL    HW1 7277   2.841   0.491   6.793
 2126SOL    HW2 7278   2.680   0.506   6.777
 2127SOL     OW 7279   5.749   3.398   4.756
 2127SOL    HW1 7280   5.732   3.483   4.706
 2127SOL    HW2 7281   5.809   3.418   4.834
 2128SOL     OW 7282   0.290   4.792   4.086
 2128SOL    HW1 7283   0.282   4.781   3.987
 2128SOL    HW2 7284   0.236   4.722   4.132
 2129SOL     OW 7285   4.049   1.728   5.650
 2129SOL    HW1 7286   4.011   1.704   5.740
 2129SOL    HW2 7287   3.974   1.750   5.587
 2130SOL     OW 7288   4.296   6.565   2.380
 2130SOL    HW1 7289   4.384   6.520   2.363
 2130SOL    HW2 7290   4.236   6.551   2.301
 2131SOL     OW 7291   0.015   1.400   0.263
 2131SOL    HW1 7292   0.003   1.324   0.199
 2131SOL    HW2 7293   0.113   1.418   0.275
 2132SOL     OW 7294   1.774   3.123   0.366
 2132SOL    HW1 7295   1.688   3.073   0.352
 2132SOL    HW2 7296   1.850   3.059   0.364
 2133SOL     OW 7297   2.680   2.654   5.948
 2133SOL    HW1 7298   2.593   2.686   5.910
 2133SOL    HW2 7299   2.663   2.584   6.017
 2134SOL     OW 7300   0.870   0.697   0.440
 2134SOL    HW1 7301   0.772   0.687   0.424
 2134SOL    HW2 7302   0.917   0.716   0.353
 2135SOL     OW 7303   0.539   3.972   4.026
 2135SOL    HW1 7304   0.494   3.971   3.937
 2135SOL    HW2 7305   0.578   3.882   4.045
 2136SOL     OW 7306   2.405   5.741   1.720
 2136SOL    HW1 7307   2.501   5.766   1.721
 2136SOL    HW2 7308   2.361   5.774   1.804
 2137SOL     OW 7309   2.372   5.668   4.320
 2137SOL    HW1 7310   2.289   5.695   4.271
 2137SOL    HW2 7311   2.449   5.665   4.256
 2138SOL     OW 7312   5.284   1.509   2.441
 2138SOL    HW1 7313   5.374   1.533   2.477
 2138SOL    HW2 7314   5.253   1.424   2.482
 2139SOL     OW 7315   3.121   1.219   5.258
 2139SOL    HW1 7316   3.146   1.181   5.347
 2139SOL    HW2 7317   3.160   1.163   5.186
 2140SOL     OW 7318   2.160   1.406   5.298
 2140SOL    HW1 7319   2.219   1.330   5.272
 2140SOL    HW2 7320   2.215   1.489   5.309
 2141SOL     OW 7321   6.360   4.481   2.027
 2141SOL    HW1 7322   6.375   4.461   1.930
 2141SOL    HW2 7323   6.391   4.574   2.047
 2142SOL     OW 7324   1.986   1.640   3.416
 2142SOL    HW1 7325   1.934   1.586   3.349
 2142SOL    HW2 7326   1.940   1.637   3.504
 2143SOL     OW 7327   1.900   4.678   0.737
 2143SOL    HW1 7328   1.841   4.670   0.656
 2143SOL    HW2 7329   1.899   4.772   0.770
 2144SOL     OW 7330   6.391   6.204   4.553
 2144SOL    HW1 7331   6.345   6.134   4.607
 2144SOL    HW2 7332   6.487   6.179   4.541
 2145SOL     OW 7333   4.075   6.686   3.772
 2145SOL    HW1 7334   4.132   6.623   3.825
 2145SOL    HW2 7335   4.129   6.766   3.745
 2146SOL     OW 7336   2.309   2.779   0.907
 2146SOL    HW1 7337   2.341   2.733   0.990
 2146SOL    HW2 7338   2.237   2.725   0.864
 2147SOL     OW 7339   5.517   1.325   5.402
 2147SOL    HW1 7340   5.568   1.400   5.443
 2147SOL    HW2 7341   5.421   1.351   5.393
 2148SOL     OW 7342   0.296   3.111   6.997
 2148SOL    HW1 7343   0.197   3.122   7.005
 2148SOL    HW2 7344   0.341   3.159   0.055
 2149SOL     OW 7345   0.775   0.400   6.733
 2149SOL    HW1 7346   0.697   0.370   6.788
 2149SOL    HW2 7347   0.761   0.373   6.637
 2150SOL     OW 7348   2.213   3.229   1.491
 2150SOL    HW1 7349   2.270   3.154   1.458
 2150SOL    HW2 7350   2.157   3.264   1.416
 2151SOL     OW 7351   1.378   5.413   6.989
 2151SOL    HW1 7352   1.444   5.338   6.993
 2151SOL    HW2 7353   1.426   5.498   6.966
 2152SOL     OW 7354   4.003   6.088   3.401
 2152SOL    HW1 7355   3.961   6.020   3.341
 2152SOL    HW2 7356   3.944   6.104   3.480
 2153SOL     OW 7357   4.855   1.243   3.759
 2153SOL    HW1 7358   4.876   1.157   3.712
 2153SOL    HW2 7359   4.936   1.301   3.760
 2154SOL     OW 7360   3.045   6.918   2.808
 2154SOL    HW1 7361   3.128   6.965   2.781
 2154SOL    HW2 7362   3.042   6.908   2.907
 2155SOL     OW 7363   4.696   6.630   1.437
 2155SOL    HW1 7364   4.622   6.696   1.430
 2155SOL    HW2 7365   4.663   6.540   1.410
 2156SOL     OW 7366   5.610   1.741   3.993
 2156SOL    HW1 7367   5.696   1.784   3.964
 2156SOL    HW2 7368   5.534   1.782   3.944
 2157SOL     OW 7369   3.672   5.327   3.551
 2157SOL    HW1 7370   3.625   5.322   3.462
 2157SOL    HW2 7371   3.767   5.300   3.540
 2158SOL     OW 7372   3.255   0.700   0.136
 2158SOL    HW1 7373   3.206   0.613   0.125
 2158SOL    HW2 7374   3.199   0.763   0.189
 2159SOL     OW 7375   1.349   0.407   5.670
 2159SOL    HW1 7376   1.388   0.368   5.753
 2159SOL    HW2 7377   1.343   0.507   5.680
 2160SOL     OW 7378   5.705   6.394   0.553
 2160SOL    HW1 7379   5.792   6.346   0.539
 2160SOL    HW2 7380   5.654   6.350   0.627
 2161SOL     OW 7381   1.692   2.269   2.540
 2161SOL    HW1 7382   1.714   2.341   2.606
 2161SOL    HW2 7383   1.648   2.310   2.460
 2162SOL     OW 7384   1.500   7.010   2.426
 2162SOL    HW1 7385   1.422   0.055   2.421
 2162SOL    HW2 7386   1.574   0.035   2.478
 2163SOL     OW 7387   1.525   3.346   1.986
 2163SOL    HW1 7388   1.564   3.277   1.926
 2163SOL    HW2 7389   1.567   3.435   1.967
 2164SOL     OW 7390   1.714   2.722   2.753
 2164SOL    HW1 7391   1.759   2.798   2.706
 2164SOL    HW2 7392   1.765   2.637   2.736
 2165SOL     OW 7393   6.836   1.925   4.291
 2165SOL    HW1 7394   6.837   2.008   4.235
 2165SOL    HW2 7395   6.928   1.908   4.327
 2166SOL     OW 7396   0.098   4.010   3.367
 2166SOL    HW1 7397   0.000   3.993   3.380
 2166SOL    HW2 7398   0.130   3.955   3.290
 2167SOL     OW 7399   2.192   1.880   4.068
 2167SOL    HW1 7400   2.228   1.954   4.123
 2167SOL    HW2 7401   2.118   1.914   4.010
 2168SOL     OW 7402   1.797   1.504   3.221
 2168SOL    HW1 7403   1.894   1.509   3.197
 2168SOL    HW2 7404   1.753   1.430   3.170
 2169SOL     OW 7405   0.165   0.770   1.865
 2169SOL    HW1 7406   0.236   0.797   1.801
 2169SOL    HW2 7407   0.196   0.788   1.959
 2170SOL     OW 7408   1.028   4.372   5.595
 2170SOL    HW1 7409   1.007   4.443   5.527
 2170SOL    HW2 7410   1.064   4.415   5.678
 2171SOL     OW 7411   0.568   5.133   0.681
 2171SOL    HW1 7412   0.535   5.130   0.775
 2171SOL    HW2 7413   0.509   5.195   0.628
 2172SOL     OW 7414   0.955   1.669   5.066
 2172SOL    HW1 7415   0.946   1.748   5.006
 2172SOL    HW2 7416   0.874   1.663   5.125
 2173SOL     OW 7417   5.451   0.280   5.000
 2173SOL    HW1 7418   5.494   0.337   5.069
 2173SOL    HW2 7419   5.352   0.282   5.011
 2174SOL     OW 7420   0.276   6.470   5.419
 2174SOL    HW1 7421   0.332   6.389   5.433
 2174SOL    HW2 7422   0.297   6.538   5.490
 2175SOL     OW 7423   3.055   3.582   5.229
 2175SOL    HW1 7424   2.960   3.557   5.242
 2175SOL    HW2 7425   3.061   3.679   5.205
 2176SOL     OW 7426   5.472   2.078   1.449
 2176SOL    HW1 7427   5.572   2.077   1.444
 2176SOL    HW2 7428   5.438   2.169   1.425
 2177SOL     OW 7429   0.104   0.551   3.551
 2177SOL    HW1 7430   0.126   0.523   3.457
 2177SOL    HW2 7431   0.033   0.491   3.587
 2178SOL     OW 7432   0.718   2.125   2.526
 2178SOL    HW1 7433   0.631   2.112   2.573
 2178SOL    HW2 7434   0.787   2.062   2.562
 2179SOL     OW 7435   1.514   4.243   6.466
 2179SOL    HW1 7436   1.598   4.244   6.412
 2179SOL    HW2 7437   1.531   4.193   6.552
 2180SOL     OW 7438   1.014   5.773   1.940
 2180SOL    HW1 7439   1.048   5.679   1.941
 2180SOL    HW2 7440   0.964   5.789   1.855
 2181SOL     OW 7441   4.147   4.904   4.283
 2181SOL    HW1 7442   4.185   4.812   4.292
 2181SOL    HW2 7443   4.216   4.972   4.307
 2182SOL     OW 7444   0.204   5.587   2.584
 2182SOL    HW1 7445   0.114   5.550   2.607
 2182SOL    HW2 7446   0.267   5.512   2.565
 2183SOL     OW 7447   3.785   2.837   0.026
 2183SOL    HW1 7448   3.799   2.885   0.113
 2183SOL    HW2 7449   3.689   2.848   7.015
 2184SOL     OW 7450   6.327   0.687   0.083
 2184SOL    HW1 7451   6.317   0.783   0.110
 2184SOL    HW2 7452   6.424   0.667   0.071
 2185SOL     OW 7453   0.523   1.234   6.871
 2185SOL    HW1 7454   0.546   1.139   6.852
 2185SOL    HW2 7455   0.425   1.241   6.894
 2186SOL     OW 7456   6.734   5.422   5.041
 2186SOL    HW1 7457   6.732   5.397   5.137
 2186SOL    HW2 7458   6.812   5.483   5.024
 2187SOL     OW 7459   0.702   5.696   2.912
 2187SOL    HW1 7460   0.617   5.660   2.874
 2187SOL    HW2 7461   0.765   5.620   2.930
 2188SOL     OW 7462   2.139   0.248   0.668
 2188SOL    HW1 7463   2.154   0.322   0.734
 2188SOL    HW2 7464   2.068   0.275   0.603
 2189SOL     OW 7465   2.645   1.241   1.442
 2189SOL    HW1 7466   2.638   1.273   1.347
 2189SOL    HW2 7467   2.612   1.312   1.504
 2190SOL     OW 7468   6.315   4.262   2.221
 2190SOL    HW1 7469   6.321   4.313   2.135
 2190SOL    HW2 7470   6.397   4.205   2.231
 2191SOL     OW 7471   2.949   0.776   6.576
 2191SOL    HW1 7472   2.857   0.809   6.595
 2191SOL    HW2 7473   2.945   0.679   6.552
 2192SOL     OW 7474   4.286   0.871   1.567
 2192SOL    HW1 7475   4.321   0.837   1.480
 2192SOL    HW2 7476   4.186   0.877   1.562
 2193SOL     OW 7477   0.511   6.912   6.525
 2193SOL    HW1 7478   0.511   7.011   6.536
 2193SOL    HW2 7479   0.518   6.889   6.428
 2194SOL     OW 7480   1.049   4.338   6.144
 2194SOL    HW1 7481   1.024   4.427   6.106
 2194SOL    HW2 7482   1.031   4.338   6.243
 2195SOL     OW 7483   0.382   4.406   6.415
 2195SOL    HW1 7484   0.335   4.323   6.445
 2195SOL    HW2 7485   0.467   4.416   6.466
 2196SOL     OW 7486   2.773   6.167   5.847
 2196SOL    HW1 7487   2.831   6.144   5.925
 2196SOL    HW2 7488   2.830   6.198   5.771
 2197SOL     OW 7489   2.665   5.001   5.713
 2197SOL    HW1 7490   2.605   5.074   5.748
 2197SOL    HW2 7491   2.690   5.021   5.618
 2198SOL     OW 7492   0.470   0.728   6.298
 2198SOL    HW1 7493   0.429   0.730   6.389
 2198SOL    HW2 7494   0.524   0.645   6.288
 2199SOL     OW 7495   3.974   0.180   4.728
 2199SOL    HW1 7496   3.924   0.112   4.674
 2199SOL    HW2 7497   4.056   0.208   4.678
 2200SOL     OW 7498   2.819   1.306   4.397
 2200SOL    HW1 7499   2.833   1.265   4.487
 2200SOL    HW2 7500   2.738   1.363   4.398
 2201SOL     OW 7501   6.176   4.115   3.629
 2201SOL    HW1 7502   6.105   4.128   3.699
 2201SOL    HW2 7503   6.232   4.197   3.622
 2202SOL     OW 7504   4.094   5.615   2.109
 2202SOL    HW1 7505   4.187   5.631   2.073
 2202SOL    HW2 7506   4.092   5.637   2.206
 2203SOL     OW 7507   2.077   3.369   1.283
 2203SOL    HW1 7508   2.007   3.348   1.215
 2203SOL    HW2 7509   2.062   3.461   1.319
 2204SOL     OW 7510   4.559   2.949   1.145
 2204SOL    HW1 7511   4.503   3.033   1.145
 2204SOL    HW2 7512   4.622   2.952   1.222
 2205SOL     OW 7513   1.743   5.141   0.380
 2205SOL    HW1 7514   1.821   5.203   0.372
 2205SOL    HW2 7515   1.732   5.090   0.294
 2206SOL     OW 7516   2.512   2.796   6.348
 2206SOL    HW1 7517   2.432   2.849   6.319
 2206SOL    HW2 7518   2.587   2.858   6.370
 2207SOL     OW 7519   4.803   6.030   0.590
 2207SOL    HW1 7520   4.761   6.114   0.557
 2207SOL    HW2 7521   4.734   5.971   0.631
 2208SOL     OW 7522   0.810   5.745   4.135
 2208SOL    HW1 7523   0.720   5.772   4.101
 2208SOL    HW2 7524   0.881   5.774   4.071
 2209SOL     OW 7525   3.245   5.484   4.832
 2209SOL    HW1 7526   3.245   5.391   4.868
 2209SOL    HW2 7527   3.203   5.545   4.900
 2210SOL     OW 7528   5.228   6.230   1.262
 2210SOL    HW1 7529   5.283   6.185   1.333
 2210SOL    HW2 7530   5.156   6.168   1.232
 2211SOL     OW 7531   6.644   0.908   0.960
 2211SOL    HW1 7532   6.661   0.956   1.046
 2211SOL    HW2 7533   6.678   0.962   0.884
 2212SOL     OW 7534   2.492   6.326   6.732
 2212SOL    HW1 7535   2.587   6.356   6.720
 2212SOL    HW2 7536   2.436   6.403   6.762
 2213SOL     OW 7537   3.681   2.047   4.231
 2213SOL    HW1 7538   3.598   2.046   4.286
 2213SOL    HW2 7539   3.737   1.967   4.253
 2214SOL     OW 7540   4.235   3.189   6.047
 2214SOL    HW1 7541   4.281   3.242   5.976
 2214SOL    HW2 7542   4.148   3.233   6.071
 2215SOL     OW 7543   4.638   0.708   6.399
 2215SOL    HW1 7544   4.575   0.782   6.422
 2215SOL    HW2 7545   4.731   0.744   6.392
 2216SOL     OW 7546   0.602   6.649   6.203
 2216SOL    HW1 7547   0.565   6.598   6.125
 2216SOL    HW2 7548   0.609   6.590   6.283
 2217SOL     OW 7549   3.996   0.477   2.715
 2217SOL    HW1 7550   3.940   0.484   2.797
 2217SOL    HW2 7551   4.054   0.558   2.707
 2218SOL     OW 7552   0.447   5.369   5.543
 2218SOL    HW1 7553   0.474   5.366   5.639
 2218SOL    HW2 7554   0.347   5.367   5.536
 2219SOL     OW 7555   5.313   1.511   0.219
 2219SOL    HW1 7556   5.342   1.561   0.137
 2219SOL    HW2 7557   5.274   1.575   0.285
 2220SOL     OW 7558   0.930   6.478   5.583
 2220SOL    HW1 7559   0.861   6.465   5.654
 2220SOL    HW2 7560   0.955   6.389   5.544
 2221SOL     OW 7561   6.969   1.315   4.645
 2221SOL    HW1 7562   6.922   1.331   4.558
 2221SOL    HW2 7563   0.018   1.388   4.661
 2222SOL     OW 7564   4.901   6.177   1.385
 2222SOL    HW1 7565   4.826   6.134   1.335
 2222SOL    HW2 7566   4.941   6.110   1.448
 2223SOL     OW 7567   6.798   0.109   5.710
 2223SOL    HW1 7568   6.791   0.152   5.800
 2223SOL    HW2 7569   6.709   0.070   5.685
 2224SOL     OW 7570   5.635   3.863   0.955
 2224SOL    HW1 7571   5.643   3.766   0.929
 2224SOL    HW2 7572   5.541   3.893   0.940
 2225SOL     OW 7573   0.485   6.575   3.149
 2225SOL    HW1 7574   0.557   6.546   3.086
 2225SOL    HW2 7575   0.525   6.623   3.226
 2226SOL     OW 7576   2.396   4.862   0.788
 2226SOL    HW1 7577   2.342   4.786   0.750
 2226SOL    HW2 7578   2.411   4.847   0.885
 2227SOL     OW 7579   4.394   2.363   2.289
 2227SOL    HW1 7580   4.432   2.424   2.219
 2227SOL    HW2 7581   4.417   2.398   2.380
 2228SOL     OW 7582   4.820   4.709   0.042
 2228SOL    HW1 7583   4.850   4.619   0.013
 2228SOL    HW2 7584   4.887   4.778   0.014
 2229SOL     OW 7585   3.479   3.398   4.724
 2229SOL    HW1 7586   3.475   3.492   4.759
 2229SOL    HW2 7587   3.393   3.376   4.679
 2230SOL     OW 7588   5.344   6.602   0.497
 2230SOL    HW1 7589   5.427   6.567   0.453
 2230SOL    HW2 7590   5.368   6.675   0.561
 2231SOL     OW 7591   0.819   0.789   6.943
 2231SOL    HW1 7592   0.731   0.771   6.900
 2231SOL    HW2 7593   0.868   0.702   6.957
 2232SOL     OW 7594   1.880   0.339   5.546
 2232SOL    HW1 7595   1.923   0.316   5.633
 2232SOL    HW2 7596   1.889   0.437   5.529
 2233SOL     OW 7597   3.200   2.916   1.257
 2233SOL    HW1 7598   3.154   2.841   1.304
 2233SOL    HW2 7599   3.139   2.995   1.254
 2234SOL     OW 7600   3.961   1.695   0.738
 2234SOL    HW1 7601   3.948   1.608   0.690
 2234SOL    HW2 7602   3.872   1.739   0.751
 2235SOL     OW 7603   2.634   1.085   2.549
 2235SOL    HW1 7604   2.551   1.046   2.588
 2235SOL    HW2 7605   2.647   1.050   2.456
 2236SOL     OW 7606   2.052   4.342   5.360
 2236SOL    HW1 7607   1.955   4.359   5.343
 2236SOL    HW2 7608   2.090   4.285   5.287
 2237SOL     OW 7609   5.456   5.058   5.084
 2237SOL    HW1 7610   5.365   5.048   5.044
 2237SOL    HW2 7611   5.509   4.976   5.066
 2238SOL     OW 7612   5.178   4.312   2.296
 2238SOL    HW1 7613   5.136   4.249   2.361
 2238SOL    HW2 7614   5.237   4.262   2.234
 2239SOL     OW 7615   3.863   0.076   3.741
 2239SOL    HW1 7616   3.775   0.115   3.714
 2239SOL    HW2 7617   3.903   0.028   3.663
 2240SOL     OW 7618   4.928   5.683   2.978
 2240SOL    HW1 7619   4.955   5.766   2.930
 2240SOL    HW2 7620   4.948   5.603   2.921
 2241SOL     OW 7621   0.330   6.571   1.812
 2241SOL    HW1 7622   0.271   6.651   1.810
 2241SOL    HW2 7623   0.402   6.584   1.880
 2242SOL     OW 7624   4.968   3.309   3.073
 2242SOL    HW1 7625   4.946   3.397   3.114
 2242SOL    HW2 7626   4.903   3.240   3.104
 2243SOL     OW 7627   1.814   6.467   0.589
 2243SOL    HW1 7628   1.831   6.453   0.686
 2243SOL    HW2 7629   1.807   6.379   0.542
 2244SOL     OW 7630   2.378   0.240   0.555
 2244SOL    HW1 7631   2.286   0.246   0.593
 2244SOL    HW2 7632   2.444   0.239   0.630
 2245SOL     OW 7633   0.643   0.945   0.395
 2245SOL    HW1 7634   0.595   1.030   0.378
 2245SOL    HW2 7635   0.683   0.946   0.487
 2246SOL     OW 7636   2.313   0.793   5.143
 2246SOL    HW1 7637   2.244   0.813   5.212
 2246SOL    HW2 7638   2.276   0.727   5.078
 2247SOL     OW 7639   3.699   4.035   2.628
 2247SOL    HW1 7640   3.768   4.017   2.558
 2247SOL    HW2 7641   3.639   4.109   2.597
 2248SOL     OW 7642   5.560   4.069   5.123
 2248SOL    HW1 7643   5.486   4.134   5.107
 2248SOL    HW2 7644   5.643   4.100   5.078
 2249SOL     OW 7645   2.670   6.428   4.036
 2249SOL    HW1 7646   2.758   6.475   4.032
 2249SOL    HW2 7647   2.625   6.448   4.123
 2250SOL     OW 7648   4.088   3.925   6.152
 2250SOL    HW1 7649   4.082   3.918   6.053
 2250SOL    HW2 7650   4.050   4.013   6.181
 2251SOL     OW 7651   5.391   6.507   6.078
 2251SOL    HW1 7652   5.350   6.517   5.987
 2251SOL    HW2 7653   5.354   6.577   6.139
 2252SOL     OW 7654   5.160   1.594   2.798
 2252SOL    HW1 7655   5.095   1.604   2.873
 2252SOL    HW2 7656   5.211   1.679   2.788
 2253SOL     OW 7657   0.686   3.386   0.870
 2253SOL    HW1 7658   0.699   3.454   0.941
 2253SOL    HW2 7659   0.774   3.363   0.828
 2254SOL     OW 7660   3.978   3.824   2.660
 2254SOL    HW1 7661   4.025   3.833   2.748
 2254SOL    HW2 7662   3.975   3.728   2.634
 2255SOL     OW 7663   2.853   4.167   5.575
 2255SOL    HW1 7664   2.947   4.140   5.596
 2255SOL    HW2 7665   2.849   4.206   5.483
 2256SOL     OW 7666   5.208   5.936   2.006
 2256SOL    HW1 7667   5.214   5.851   1.954
 2256SOL    HW2 7668   5.116   5.975   1.997
 2257SOL     OW 7669   6.900   1.805   4.648
 2257SOL    HW1 7670   6.944   1.742   4.584
 2257SOL    HW2 7671   6.950   1.806   4.734
 2258SOL     OW 7672   1.985   6.595   4.584
 2258SOL    HW1 7673   1.967   6.575   4.680
 2258SOL    HW2 7674   1.901   6.585   4.531
 2259SOL     OW 7675   6.803   2.825   4.818
 2259SOL    HW1 7676   6.836   2.752   4.879
 2259SOL    HW2 7677   6.720   2.794   4.772
 2260SOL     OW 7678   1.302   4.235   1.581
 2260SOL    HW1 7679   1.352   4.183   1.511
 2260SOL    HW2 7680   1.277   4.174   1.656
 2261SOL     OW 7681   5.580   3.464   0.537
 2261SOL    HW1 7682   5.596   3.549   0.487
 2261SOL    HW2 7683   5.663   3.440   0.588
 2262SOL     OW 7684   6.688   0.382   3.982
 2262SOL    HW1 7685   6.749   0.440   4.038
 2262SOL    HW2 7686   6.716   0.286   3.991
 2263SOL     OW 7687   1.543   4.598   0.341
 2263SOL    HW1 7688   1.582   4.618   0.252
 2263SOL    HW2 7689   1.445   4.618   0.341
 2264SOL     OW 7690   2.024   6.690   6.371
 2264SOL    HW1 7691   1.989   6.646   6.288
 2264SOL    HW2 7692   2.001   6.787   6.368
 2265SOL     OW 7693   0.882   6.566   3.738
 2265SOL    HW1 7694   0.965   6.542   3.687
 2265SOL    HW2 7695   0.876   6.509   3.820
 2266SOL     OW 7696   5.009   1.532   6.513
 2266SOL    HW1 7697   5.047   1.441   6.526
 2266SOL    HW2 7698   5.082   1.600   6.524
 2267SOL     OW 7699   4.665   2.707   4.690
 2267SOL    HW1 7700   4.600   2.634   4.667
 2267SOL    HW2 7701   4.654   2.733   4.786
 2268SOL     OW 7702   6.660   4.344   6.228
 2268SOL    HW1 7703   6.701   4.275   6.168
 2268SOL    HW2 7704   6.606   4.300   6.299
 2269SOL     OW 7705   1.407   3.068   5.153
 2269SOL    HW1 7706   1.397   3.047   5.251
 2269SOL    HW2 7707   1.344   3.011   5.101
 2270SOL     OW 7708   4.294   2.737   6.154
 2270SOL    HW1 7709   4.363   2.670   6.182
 2270SOL    HW2 7710   4.325   2.785   6.072
 2271SOL     OW 7711   6.316   4.442   6.371
 2271SOL    HW1 7712   6.354   4.372   6.432
 2271SOL    HW2 7713   6.361   4.435   6.282
 2272SOL     OW 7714   6.151   1.304   6.170
 2272SOL    HW1 7715   6.175   1.257   6.255
 2272SOL    HW2 7716   6.204   1.388   6.163
 2273SOL     OW 7717   1.875   2.510   2.681
 2273SOL    HW1 7718   1.923   2.431   2.642
 2273SOL    HW2 7719   1.942   2.580   2.704
 2274SOL     OW 7720   0.368   1.132   0.186
 2274SOL    HW1 7721   0.463   1.163   0.176
 2274SOL    HW2 7722   0.367   1.038   0.219
 2275SOL     OW 7723   5.806   4.819   2.425
 2275SOL    HW1 7724   5.823   4.724   2.400
 2275SOL    HW2 7725   5.879   4.877   2.388
 2276SOL     OW 7726   1.474   1.243   1.370
 2276SOL    HW1 7727   1.464   1.314   1.300
 2276SOL    HW2 7728   1.570   1.233   1.394
 2277SOL     OW 7729   3.318   4.066   3.383
 2277SOL    HW1 7730   3.359   4.004   3.449
 2277SOL    HW2 7731   3.382   4.079   3.306
 2278SOL     OW 7732   0.784   2.774   3.591
 2278SOL    HW1 7733   0.748   2.820   3.510
 2278SOL    HW2 7734   0.759   2.826   3.672
 2279SOL     OW 7735   6.792   5.981   6.250
 2279SOL    HW1 7736   6.713   6.031   6.285
 2279SOL    HW2 7737   6.767   5.934   6.165
 2280SOL     OW 7738   4.934   0.893   5.590
 2280SOL    HW1 7739   4.947   0.849   5.679
 2280SOL    HW2 7740   4.879   0.976   5.601
 2281SOL     OW 7741   4.579   6.417   2.499
 2281SOL    HW1 7742   4.534   6.334   2.465
 2281SOL    HW2 7743   4.599   6.477   2.422
 2282SOL     OW 7744   4.583   5.267   5.717
 2282SOL    HW1 7745   4.679   5.282   5.738
 2282SOL    HW2 7746   4.571   5.175   5.678
 2283SOL     OW 7747   1.413   0.501   3.533
 2283SOL    HW1 7748   1.334   0.525   3.589
 2283SOL    HW2 7749   1.387   0.499   3.437
 2284SOL     OW 7750   0.793   3.419   6.395
 2284SOL    HW1 7751   0.816   3.373   6.481
 2284SOL    HW2 7752   0.703   3.389   6.365
 2285SOL     OW 7753   1.050   3.647   0.352
 2285SOL    HW1 7754   1.133   3.621   0.301
 2285SOL    HW2 7755   1.035   3.580   0.425
 2286SOL     OW 7756   5.102   6.641   3.158
 2286SOL    HW1 7757   5.155   6.594   3.086
 2286SOL    HW2 7758   5.103   6.739   3.141
 2287SOL     OW 7759   2.592   0.721   3.423
 2287SOL    HW1 7760   2.578   0.725   3.522
 2287SOL    HW2 7761   2.505   0.742   3.377
 2288SOL     OW 7762   0.530   5.206   3.575
 2288SOL    HW1 7763   0.562   5.200   3.670
 2288SOL    HW2 7764   0.525   5.302   3.547
 2289SOL     OW 7765   0.836   5.457   2.028
 2289SOL    HW1 7766   0.787   5.540   2.002
 2289SOL    HW2 7767   0.932   5.465   2.001
 2290SOL     OW 7768   1.235   4.868   1.280
 2290SOL    HW1 7769   1.154   4.812   1.259
 2290SOL    HW2 7770   1.207   4.963   1.295
 2291SOL     OW 7771   3.038   1.439   6.013
 2291SOL    HW1 7772   3.012   1.517   6.070
 2291SOL    HW2 7773   2.984   1.440   5.929
 2292SOL     OW 7774   1.202   0.919   4.769
 2292SOL    HW1 7775   1.243   0.851   4.709
 2292SOL    HW2 7776   1.149   0.873   4.840
 2293SOL     OW 7777   5.202   5.258   1.789
 2293SOL    HW1 7778   5.256   5.232   1.709
 2293SOL    HW2 7779   5.260   5.255   1.870
 2294SOL     OW 7780   3.944   6.577   6.885
 2294SOL    HW1 7781   3.976   6.614   6.973
 2294SOL    HW2 7782   3.995   6.494   6.863
 2295SOL     OW 7783   0.084   2.164   1.608
 2295SOL    HW1 7784   0.055   2.257   1.585
 2295SOL    HW2 7785   0.020   2.099   1.569
 2296SOL     OW 7786   3.364   0.978   0.562
 2296SOL    HW1 7787   3.413   0.895   0.534
 2296SOL    HW2 7788   3.320   1.020   0.482
 2297SOL     OW 7789   4.388   4.320   5.501
 2297SOL    HW1 7790   4.423   4.245   5.556
 2297SOL    HW2 7791   4.335   4.284   5.424
 2298SOL     OW 7792   3.614   1.977   1.440
 2298SOL    HW1 7793   3.516   1.997   1.431
 2298SOL    HW2 7794   3.637   1.965   1.536
 2299SOL     OW 7795   5.139   6.340   0.203
 2299SOL    HW1 7796   5.176   6.276   0.270
 2299SOL    HW2 7797   5.053   6.305   0.167
 2300SOL     OW 7798   1.892   5.640   1.368
 2300SOL    HW1 7799   1.964   5.600   1.425
 2300SOL    HW2 7800   1.933   5.703   1.302
 2301SOL     OW 7801   2.961   3.472   2.827
 2301SOL    HW1 7802   2.987   3.528   2.749
 2301SOL    HW2 7803   2.962   3.528   2.910
 2302SOL     OW 7804   3.880   6.091   2.448
 2302SOL    HW1 7805   3.861   6.142   2.364
 2302SOL    HW2 7806   3.819   6.012   2.453
 2303SOL     OW 7807   0.964   3.319   4.905
 2303SOL    HW1 7808   0.915   3.264   4.973
 2303SOL    HW2 7809   0.919   3.407   4.894
 2304SOL     OW 7810   2.592   0.389   3.148
 2304SOL    HW1 7811   2.566   0.294   3.158
 2304SOL    HW2 7812   2.532   0.447   3.203
 2305SOL     OW 7813   3.780   5.529   2.407
 2305SOL    HW1 7814   3.874   5.555   2.384
 2305SOL    HW2 7815   3.769   5.533   2.507
 2306SOL     OW 7816   2.319   4.762   2.149
 2306SOL    HW1 7817   2.221   4.744   2.140
 2306SOL    HW2 7818   2.369   4.698   2.090
 2307SOL     OW 7819   1.135   3.201   3.323
 2307SOL    HW1 7820   1.201   3.269   3.355
 2307SOL    HW2 7821   1.084   3.165   3.400
 2308SOL     OW 7822   0.745   0.823   6.585
 2308SOL    HW1 7823   0.826   0.864   6.627
 2308SOL    HW2 7824   0.734   0.859   6.492
 2309SOL     OW 7825   3.347   5.168   0.176
 2309SOL    HW1 7826   3.277   5.150   0.107
 2309SOL    HW2 7827   3.401   5.248   0.149
 2310SOL     OW 7828   5.941   0.412   1.832
 2310SOL    HW1 7829   5.952   0.313   1.834
 2310SOL    HW2 7830   5.872   0.439   1.899
 2311SOL     OW 7831   2.524   0.140   2.209
 2311SOL    HW1 7832   2.501   0.152   2.305
 2311SOL    HW2 7833   2.498   0.048   2.179
 2312SOL     OW 7834   3.971   0.087   2.969
 2312SOL    HW1 7835   3.885   0.036   2.977
 2312SOL    HW2 7836   3.967   0.144   2.887
 2313SOL     OW 7837   4.833   4.107   2.079
 2313SOL    HW1 7838   4.879   4.195   2.079
 2313SOL    HW2 7839   4.896   4.036   2.048
 2314SOL     OW 7840   5.900   0.591   3.921
 2314SOL    HW1 7841   5.858   0.520   3.864
 2314SOL    HW2 7842   5.995   0.604   3.893
 2315SOL     OW 7843   4.966   3.788   5.955
 2315SOL    HW1 7844   4.969   3.860   6.024
 2315SOL    HW2 7845   4.983   3.828   5.865
 2316SOL     OW 7846   2.705   0.886   6.209
 2316SOL    HW1 7847   2.692   0.974   6.165
 2316SOL    HW2 7848   2.798   0.879   6.245
 2317SOL     OW 7849   6.579   6.155   3.623
 2317SOL    HW1 7850   6.512   6.205   3.677
 2317SOL    HW2 7851   6.585   6.196   3.532
 2318SOL     OW 7852   2.115   3.772   4.649
 2318SOL    HW1 7853   2.153   3.818   4.569
 2318SOL    HW2 7854   2.134   3.825   4.731
 2319SOL     OW 7855   2.814   5.123   4.515
 2319SOL    HW1 7856   2.774   5.044   4.563
 2319SOL    HW2 7857   2.875   5.171   4.577
 2320SOL     OW 7858   1.267   2.927   5.357
 2320SOL    HW1 7859   1.313   2.840   5.374
 2320SOL    HW2 7860   1.238   2.967   5.444
 2321SOL     OW 7861   2.656   4.723   6.453
 2321SOL    HW1 7862   2.738   4.762   6.410
 2321SOL    HW2 7863   2.617   4.654   6.392
 2322SOL     OW 7864   2.117   3.628   2.219
 2322SOL    HW1 7865   2.027   3.585   2.228
 2322SOL    HW2 7866   2.166   3.586   2.143
 2323SOL     OW 7867   3.317   5.172   2.009
 2323SOL    HW1 7868   3.293   5.079   2.037
 2323SOL    HW2 7869   3.234   5.228   2.006
 2324SOL     OW 7870   6.599   6.046   1.911
 2324SOL    HW1 7871   6.673   6.093   1.863
 2324SOL    HW2 7872   6.622   5.949   1.921
 2325SOL     OW 7873   6.964   5.146   1.230
 2325SOL    HW1 7874   6.913   5.140   1.316
 2325SOL    HW2 7875   7.013   5.060   1.215
 2326SOL     OW 7876   1.689   6.239   6.795
 2326SOL    HW1 7877   1.683   6.245   6.894
 2326SOL    HW2 7878   1.770   6.188   6.769
 2327SOL     OW 7879   6.912   0.528   2.765
 2327SOL    HW1 7880   6.914   0.469   2.846
 2327SOL    HW2 7881   6.838   0.501   2.705
 2328SOL     OW 7882   1.394   1.949   2.211
 2328SOL    HW1 7883   1.437   2.026   2.257
 2328SOL    HW2 7884   1.445   1.865   2.231
 2329SOL     OW 7885   0.492   4.291   4.346
 2329SOL    HW1 7886   0.587   4.290   4.314
 2329SOL    HW2 7887   0.485   4.239   4.431
 2330SOL     OW 7888   0.076   3.145   0.612
 2330SOL    HW1 7889   0.164   3.141   0.566
 2330SOL    HW2 7890   0.057   3.240   0.639
 2331SOL     OW 7891   3.353   5.550   0.164
 2331SOL    HW1 7892   3.407   5.618   0.114
 2331SOL    HW2 7893   3.398   5.461   0.158
 2332SOL     OW 7894   5.879   0.316   5.716
 2332SOL    HW1 7895   5.809   0.302   5.646
 2332SOL    HW2 7896   5.850   0.388   5.779
 2333SOL     OW 7897   6.619   4.716   2.964
 2333SOL    HW1 7898   6.554   4.640   2.961
 2333SOL    HW2 7899   6.708   4.683   2.994
 2334SOL     OW 7900   1.401   1.014   6.506
 2334SOL    HW1 7901   1.417   0.918   6.530
 2334SOL    HW2 7902   1.400   1.024   6.407
 2335SOL     OW 7903   6.248   1.036   4.152
 2335SOL    HW1 7904   6.331   1.018   4.100
 2335SOL    HW2 7905   6.169   1.002   4.101
 2336SOL     OW 7906   3.030   1.688   3.715
 2336SOL    HW1 7907   3.090   1.635   3.775
 2336SOL    HW2 7908   2.988   1.627   3.647
 2337SOL     OW 7909   4.138   1.421   1.701
 2337SOL    HW1 7910   4.074   1.449   1.773
 2337SOL    HW2 7911   4.164   1.325   1.714
 2338SOL     OW 7912   1.112   4.076   4.079
 2338SOL    HW1 7913   1.175   4.104   4.151
 2338SOL    HW2 7914   1.083   3.981   4.095
 2339SOL     OW 7915   3.047   3.542   3.582
 2339SOL    HW1 7916   3.006   3.470   3.527
 2339SOL    HW2 7917   3.101   3.603   3.524
 2340SOL     OW 7918   0.479   4.777   6.733
 2340SOL    HW1 7919   0.529   4.696   6.704
 2340SOL    HW2 7920   0.403   4.793   6.670
 2341SOL     OW 7921   2.297   4.832   2.534
 2341SOL    HW1 7922   2.396   4.841   2.524
 2341SOL    HW2 7923   2.260   4.788   2.452
 2342SOL     OW 7924   2.132   6.800   4.371
 2342SOL    HW1 7925   2.129   6.737   4.294
 2342SOL    HW2 7926   2.077   6.763   4.447
 2343SOL     OW 7927   2.198   6.266   2.808
 2343SOL    HW1 7928   2.242   6.178   2.796
 2343SOL    HW2 7929   2.234   6.332   2.742
 2344SOL     OW 7930   6.896   5.380   0.100
 2344SOL    HW1 7931   6.821   5.434   0.137
 2344SOL    HW2 7932   6.906   5.400   0.002
 2345SOL     OW 7933   2.841   5.513   4.315
 2345SOL    HW1 7934   2.859   5.609   4.338
 2345SOL    HW2 7935   2.866   5.496   4.220
 2346SOL     OW 7936   3.977   3.072   5.696
 2346SOL    HW1 7937   3.929   3.112   5.774
 2346SOL    HW2 7938   4.044   3.138   5.661
 2347SOL     OW 7939   1.280   2.127   1.552
 2347SOL    HW1 7940   1.347   2.053   1.554
 2347SOL    HW2 7941   1.326   2.215   1.564
 2348SOL     OW 7942   1.920   6.091   3.616
 2348SOL    HW1 7943   1.900   6.072   3.520
 2348SOL    HW2 7944   1.982   6.169   3.623
 2349SOL     OW 7945   0.820   4.488   6.438
 2349SOL    HW1 7946   0.899   4.427   6.434
 2349SOL    HW2 7947   0.740   4.436   6.469
 2350SOL     OW 7948   5.865   4.282   6.176
 2350SOL    HW1 7949   5.925   4.362   6.165
 2350SOL    HW2 7950   5.779   4.310   6.218
 2351SOL     OW 7951   3.506   4.925   3.656
 2351SOL    HW1 7952   3.598   4.903   3.688
 2351SOL    HW2 7953   3.467   4.998   3.713
 2352SOL     OW 7954   6.581   3.059   3.554
 2352SOL    HW1 7955   6.490   3.100   3.554
 2352SOL    HW2 7956   6.580   2.975   3.608
 2353SOL     OW 7957   4.182   4.786   4.645
 2353SOL    HW1 7958   4.210   4.780   4.549
 2353SOL    HW2 7959   4.263   4.773   4.703
 2354SOL     OW 7960   2.360   2.102   4.739
 2354SOL    HW1 7961   2.386   2.199   4.732
 2354SOL    HW2 7962   2.261   2.093   4.729
 2355SOL     OW 7963   2.289   6.044   5.213
 2355SOL    HW1 7964   2.278   6.135   5.173
 2355SOL    HW2 7965   2.200   6.010   5.242
 2356SOL     OW 7966   1.044   3.186   6.781
 2356SOL    HW1 7967   0.963   3.141   6.819
 2356SOL    HW2 7968   1.017   3.265   6.726
 2357SOL     OW 7969   4.031   0.977   2.033
 2357SOL    HW1 7970   4.111   1.008   2.084
 2357SOL    HW2 7971   3.994   1.054   1.981
 2358SOL     OW 7972   2.787   5.088   5.480
 2358SOL    HW1 7973   2.818   5.023   5.411
 2358SOL    HW2 7974   2.711   5.142   5.443
 2359SOL     OW 7975   0.328   1.182   5.538
 2359SOL    HW1 7976   0.258   1.252   5.530
 2359SOL    HW2 7977   0.342   1.137   5.450
 2360SOL     OW 7978   6.084   3.831   0.457
 2360SOL    HW1 7979   6.142   3.788   0.388
 2360SOL    HW2 7980   6.027   3.761   0.501
 2361SOL     OW 7981   3.011   1.159   6.589
 2361SOL    HW1 7982   2.945   1.173   6.663
 2361SOL    HW2 7983   2.971   1.100   6.519
 2362SOL     OW 7984   3.102   6.170   3.738
 2362SOL    HW1 7985   3.166   6.095   3.718
 2362SOL    HW2 7986   3.044   6.186   3.658
 2363SOL     OW 7987   3.783   1.704   3.333
 2363SOL    HW1 7988   3.818   1.755   3.255
 2363SOL    HW2 7989   3.699   1.657   3.307
 2364SOL     OW 7990   1.793   2.606   2.378
 2364SOL    HW1 7991   1.885   2.632   2.349
 2364SOL    HW2 7992   1.796   2.570   2.471
 2365SOL     OW 7993   6.333   1.770   6.584
 2365SOL    HW1 7994   6.363   1.776   6.680
 2365SOL    HW2 7995   6.234   1.759   6.581
 2366SOL     OW 7996   2.878   5.149   0.104
 2366SOL    HW1 7997   2.845   5.188   0.190
 2366SOL    HW2 7998   2.959   5.093   0.123
 2367SOL     OW 7999   1.999   3.208   0.711
 2367SOL    HW1 8000   2.079   3.148   0.719
 2367SOL    HW2 8001   2.029   3.304   0.712
 2368SOL     OW 8002   5.585   6.643   4.811
 2368SOL    HW1 8003   5.509   6.584   4.786
 2368SOL    HW2 8004   5.572   6.677   4.904
 2369SOL     OW 8005   2.025   6.957   4.104
 2369SOL    HW1 8006   2.123   6.949   4.121
 2369SOL    HW2 8007   1.975   6.947   4.190
 2370SOL     OW 8008   5.348   3.101   0.445
 2370SOL    HW1 8009   5.296   3.058   0.371
 2370SOL    HW2 8010   5.437   3.055   0.454
 2371SOL     OW 8011   2.365   6.697   2.390
 2371SOL    HW1 8012   2.279   6.653   2.413
 2371SOL    HW2 8013   2.346   6.781   2.339
 2372SOL     OW 8014   6.416   2.732   2.182
 2372SOL    HW1 8015   6.334   2.687   2.147
 2372SOL    HW2 8016   6.453   2.794   2.113
 2373SOL     OW 8017   1.438   3.703   5.937
 2373SOL    HW1 8018   1.444   3.726   5.840
 2373SOL    HW2 8019   1.527   3.716   5.980
 2374SOL     OW 8020   6.894   2.649   5.212
 2374SOL    HW1 8021   6.943   2.582   5.157
 2374SOL    HW2 8022   6.911   2.741   5.175
 2375SOL     OW 8023   3.213   5.234   5.908
 2375SOL    HW1 8024   3.281   5.246   5.981
 2375SOL    HW2 8025   3.258   5.246   5.819
 2376SOL     OW 8026   6.196   3.645   3.907
 2376SOL    HW1 8027   6.145   3.609   3.828
 2376SOL    HW2 8028   6.216   3.570   3.970
 2377SOL     OW 8029   3.606   3.809   3.725
 2377SOL    HW1 8030   3.614   3.772   3.818
 2377SOL    HW2 8031   3.627   3.737   3.659
 2378SOL     OW 8032   4.974   2.142   0.504
 2378SOL    HW1 8033   5.022   2.206   0.563
 2378SOL    HW2 8034   4.875   2.150   0.518
 2379SOL     OW 8035   0.059   1.032   0.460
 2379SOL    HW1 8036   7.013   0.954   0.454
 2379SOL    HW2 8037   0.036   1.088   0.539
 2380SOL     OW 8038   6.891   2.422   0.181
 2380SOL    HW1 8039   6.944   2.434   0.097
 2380SOL    HW2 8040   6.808   2.370   0.160
 2381SOL     OW 8041   2.476   5.789   2.884
 2381SOL    HW1 8042   2.573   5.809   2.871
 2381SOL    HW2 8043   2.423   5.833   2.812
 2382SOL     OW 8044   1.713   3.949   4.386
 2382SOL    HW1 8045   1.777   3.962   4.462
 2382SOL    HW2 8046   1.764   3.928   4.303
 2383SOL     OW 8047   6.676   0.100   1.198
 2383SOL    HW1 8048   6.631   0.158   1.130
 2383SOL    HW2 8049   6.774   0.118   1.198
 2384SOL     OW 8050   5.308   1.826   2.813
 2384SOL    HW1 8051   5.267   1.859   2.898
 2384SOL    HW2 8052   5.379   1.889   2.782
 2385SOL     OW 8053   6.808   0.394   6.531
 2385SOL    HW1 8054   6.721   0.358   6.564
 2385SOL    HW2 8055   6.877   0.387   6.603
 2386SOL     OW 8056   5.206   6.134   4.069
 2386SOL    HW1 8057   5.204   6.134   4.169
 2386SOL    HW2 8058   5.294   6.171   4.038
 2387SOL     OW 8059   1.956   1.076   4.023
 2387SOL    HW1 8060   1.924   0.984   4.001
 2387SOL    HW2 8061   1.933   1.139   3.948
 2388SOL     OW 8062   6.963   2.460   3.804
 2388SOL    HW1 8063   6.961   2.493   3.710
 2388SOL    HW2 8064   6.914   2.525   3.863
 2389SOL     OW 8065   4.276   4.625   3.367
 2389SOL    HW1 8066   4.180   4.653   3.372
 2389SOL    HW2 8067   4.309   4.602   3.459
 2390SOL     OW 8068   3.673   3.104   3.034
 2390SOL    HW1 8069   3.767   3.104   3.070
 2390SOL    HW2 8070   3.636   3.196   3.038
 2391SOL     OW 8071   5.784   4.482   6.412
 2391SOL    HW1 8072   5.732   4.537   6.477
 2391SOL    HW2 8073   5.791   4.531   6.325
 2392SOL     OW 8074   3.133   6.860   6.052
 2392SOL    HW1 8075   3.180   6.799   5.987
 2392SOL    HW2 8076   3.090   6.935   6.001
 2393SOL     OW 8077   5.460   3.854   6.590
 2393SOL    HW1 8078   5.386   3.900   6.639
 2393SOL    HW2 8079   5.536   3.918   6.577
 2394SOL     OW 8080   0.435   3.752   4.328
 2394SOL    HW1 8081   0.338   3.733   4.313
 2394SOL    HW2 8082   0.490   3.690   4.273
 2395SOL     OW 8083   4.922   0.029   6.091
 2395SOL    HW1 8084   4.848   0.052   6.027
 2395SOL    HW2 8085   4.946   6.950   6.081
 2396SOL     OW 8086   3.629   4.983   1.252
 2396SOL    HW1 8087   3.713   5.035   1.263
 2396SOL    HW2 8088   3.552   5.034   1.291
 2397SOL     OW 8089   0.587   4.570   4.684
 2397SOL    HW1 8090   0.605   4.595   4.779
 2397SOL    HW2 8091   0.538   4.483   4.681
 2398SOL     OW 8092   4.835   3.795   6.687
 2398SOL    HW1 8093   4.740   3.803   6.717
 2398SOL    HW2 8094   4.863   3.699   6.694
 2399SOL     OW 8095   4.701   0.712   0.957
 2399SOL    HW1 8096   4.680   0.725   1.054
 2399SOL    HW2 8097   4.718   0.801   0.914
 2400SOL     OW 8098   2.894   3.401   1.032
 2400SOL    HW1 8099   2.890   3.427   1.128
 2400SOL    HW2 8100   2.830   3.457   0.979
 2401SOL     OW 8101   5.537   6.453   0.340
 2401SOL    HW1 8102   5.593   6.414   0.413
 2401SOL    HW2 8103   5.508   6.381   0.277
 2402SOL     OW 8104   0.856   0.240   4.425
 2402SOL    HW1 8105   0.949   0.220   4.457
 2402SOL    HW2 8106   0.791   0.212   4.496
 2403SOL     OW 8107   1.162   2.579   6.051
 2403SOL    HW1 8108   1.247   2.534   6.027
 2403SOL    HW2 8109   1.103   2.515   6.100
 2404SOL     OW 8110   2.337   0.975   1.296
 2404SOL    HW1 8111   2.282   1.056   1.318
 2404SOL    HW2 8112   2.400   0.997   1.221
 2405SOL     OW 8113   3.380   3.861   2.292
 2405SOL    HW1 8114   3.380   3.891   2.196
 2405SOL    HW2 8115   3.353   3.937   2.351
 2406SOL     OW 8116   3.450   1.254   1.281
 2406SOL    HW1 8117   3.547   1.248   1.260
 2406SOL    HW2 8118   3.423   1.349   1.293
 2407SOL     OW 8119   5.602   1.881   3.317
 2407SOL    HW1 8120   5.611   1.973   3.356
 2407SOL    HW2 8121   5.565   1.819   3.387
 2408SOL     OW 8122   4.600   4.357   2.222
 2408SOL    HW1 8123   4.532   4.362   2.149
 2408SOL    HW2 8124   4.691   4.349   2.182
 2409SOL     OW 8125   2.328   4.308   2.223
 2409SOL    HW1 8126   2.375   4.370   2.160
 2409SOL    HW2 8127   2.266   4.361   2.281
 2410SOL     OW 8128   3.530   3.101   4.543
 2410SOL    HW1 8129   3.543   3.035   4.617
 2410SOL    HW2 8130   3.550   3.193   4.576
 2411SOL     OW 8131   5.065   6.264   4.942
 2411SOL    HW1 8132   5.009   6.190   4.979
 2411SOL    HW2 8133   5.034   6.288   4.851
 2412SOL     OW 8134   5.311   4.581   1.553
 2412SOL    HW1 8135   5.305   4.496   1.605
 2412SOL    HW2 8136   5.400   4.624   1.568
 2413SOL     OW 8137   6.109   0.869   1.565
 2413SOL    HW1 8138   6.063   0.887   1.652
 2413SOL    HW2 8139   6.051   0.811   1.507
 2414SOL     OW 8140   4.915   4.320   3.719
 2414SOL    HW1 8141   4.857   4.386   3.672
 2414SOL    HW2 8142   5.006   4.319   3.677
 2415SOL     OW 8143   6.312   1.421   3.118
 2415SOL    HW1 8144   6.412   1.430   3.113
 2415SOL    HW2 8145   6.288   1.330   3.152
 2416SOL     OW 8146   5.407   2.142   5.455
 2416SOL    HW1 8147   5.428   2.142   5.553
 2416SOL    HW2 8148   5.388   2.048   5.426
 2417SOL     OW 8149   2.958   3.287   4.962
 2417SOL    HW1 8150   2.863   3.295   4.932
 2417SOL    HW2 8151   3.004   3.375   4.948
 2418SOL     OW 8152   3.463   3.160   3.923
 2418SOL    HW1 8153   3.526   3.114   3.986
 2418SOL    HW2 8154   3.394   3.209   3.976
 2419SOL     OW 8155   0.102   6.449   3.576
 2419SOL    HW1 8156   0.178   6.400   3.619
 2419SOL    HW2 8157   0.134   6.538   3.544
 2420SOL     OW 8158   3.271   0.561   2.112
 2420SOL    HW1 8159   3.259   0.549   2.013
 2420SOL    HW2 8160   3.256   0.474   2.158
 2421SOL     OW 8161   2.124   2.637   4.745
 2421SOL    HW1 8162   2.057   2.705   4.776
 2421SOL    HW2 8163   2.085   2.583   4.670
 2422SOL     OW 8164   5.039   1.503   0.707
 2422SOL    HW1 8165   5.031   1.603   0.718
 2422SOL    HW2 8166   5.105   1.468   0.773
 2423SOL     OW 8167   2.432   6.434   2.005
 2423SOL    HW1 8168   2.461   6.342   1.978
 2423SOL    HW2 8169   2.505   6.499   1.985
 2424SOL     OW 8170   6.465   0.856   0.455
 2424SOL    HW1 8171   6.528   0.783   0.480
 2424SOL    HW2 8172   6.380   0.846   0.505
 2425SOL     OW 8173   5.835   0.104   4.214
 2425SOL    HW1 8174   5.802   0.193   4.247
 2425SOL    HW2 8175   5.795   0.031   4.270
 2426SOL     OW 8176   1.919   4.996   5.259
 2426SOL    HW1 8177   2.007   4.962   5.292
 2426SOL    HW2 8178   1.924   5.095   5.246
 2427SOL     OW 8179   5.738   5.731   5.286
 2427SOL    HW1 8180   5.655   5.785   5.268
 2427SOL    HW2 8181   5.713   5.638   5.310
 2428SOL     OW 8182   0.871   0.806   1.606
 2428SOL    HW1 8183   0.795   0.837   1.549
 2428SOL    HW2 8184   0.902   0.716   1.574
 2429SOL     OW 8185   5.513   5.750   1.876
 2429SOL    HW1 8186   5.558   5.726   1.790
 2429SOL    HW2 8187   5.515   5.849   1.888
 2430SOL     OW 8188   5.978   0.982   2.613
 2430SOL    HW1 8189   5.970   1.047   2.689
 2430SOL    HW2 8190   5.899   0.922   2.612
 2431SOL     OW 8191   4.455   1.031   2.461
 2431SOL    HW1 8192   4.526   1.101   2.463
 2431SOL    HW2 8193   4.394   1.044   2.539
 2432SOL     OW 8194   4.229   6.453   2.131
 2432SOL    HW1 8195   4.183   6.500   2.056
 2432SOL    HW2 8196   4.328   6.462   2.120
 2433SOL     OW 8197   4.596   0.908   6.709
 2433SOL    HW1 8198   4.542   0.841   6.761
 2433SOL    HW2 8199   4.561   0.914   6.616
 2434SOL     OW 8200   3.981   0.708   5.637
 2434SOL    HW1 8201   4.031   0.676   5.557
 2434SOL    HW2 8202   3.984   0.637   5.708
 2435SOL     OW 8203   5.717   6.249   5.507
 2435SOL    HW1 8204   5.666   6.222   5.588
 2435SOL    HW2 8205   5.654   6.261   5.430
 2436SOL     OW 8206   2.010   6.040   0.213
 2436SOL    HW1 8207   2.057   6.009   0.130
 2436SOL    HW2 8208   1.911   6.034   0.199
 2437SOL     OW 8209   6.275   6.830   6.098
 2437SOL    HW1 8210   6.323   6.757   6.049
 2437SOL    HW2 8211   6.331   6.912   6.099
 2438SOL     OW 8212   2.672   2.491   0.454
 2438SOL    HW1 8213   2.740   2.494   0.527
 2438SOL    HW2 8214   2.662   2.397   0.421
 2439SOL     OW 8215   6.616   4.712   5.890
 2439SOL    HW1 8216   6.677   4.635   5.871
 2439SOL    HW2 8217   6.521   4.685   5.874
 2440SOL     OW 8218   5.306   5.301   5.820
 2440SOL    HW1 8219   5.393   5.252   5.823
 2440SOL    HW2 8220   5.322   5.394   5.788
 2441SOL     OW 8221   6.074   2.097   1.141
 2441SOL    HW1 8222   6.076   2.037   1.220
 2441SOL    HW2 8223   6.155   2.080   1.084
 2442SOL     OW 8224   0.694   4.000   4.989
 2442SOL    HW1 8225   0.720   3.935   5.061
 2442SOL    HW2 8226   0.773   4.020   4.931
 2443SOL     OW 8227   2.859   4.002   6.270
 2443SOL    HW1 8228   2.825   4.074   6.331
 2443SOL    HW2 8229   2.782   3.959   6.223
 2444SOL     OW 8230   2.086   4.157   5.777
 2444SOL    HW1 8231   2.162   4.104   5.740
 2444SOL    HW2 8232   2.083   4.147   5.876
 2445SOL     OW 8233   0.461   0.496   0.990
 2445SOL    HW1 8234   0.500   0.573   1.039
 2445SOL    HW2 8235   0.380   0.526   0.939
 2446SOL     OW 8236   6.093   4.406   4.832
 2446SOL    HW1 8237   6.009   4.355   4.810
 2446SOL    HW2 8238   6.115   4.393   4.929
 2447SOL     OW 8239   0.943   1.497   0.715
 2447SOL    HW1 8240   0.901   1.413   0.748
 2447SOL    HW2 8241   0.954   1.493   0.616
 2448SOL     OW 8242   1.206   6.979   4.609
 2448SOL    HW1 8243   1.137   6.950   4.674
 2448SOL    HW2 8244   1.171   0.039   4.556
 2449SOL     OW 8245   6.956   3.596   5.937
 2449SOL    HW1 8246   6.922   3.655   5.864
 2449SOL    HW2 8247   0.032   3.568   5.917
 2450SOL     OW 8248   2.466   4.520   2.748
 2450SOL    HW1 8249   2.428   4.427   2.747
 2450SOL    HW2 8250   2.393   4.586   2.735
 2451SOL     OW 8251   2.429   6.007   3.516
 2451SOL    HW1 8252   2.502   5.939   3.509
 2451SOL    HW2 8253   2.348   5.964   3.556
 2452SOL     OW 8254   1.168   2.800   3.881
 2452SOL    HW1 8255   1.208   2.889   3.899
 2452SOL    HW2 8256   1.117   2.804   3.794
 2453SOL     OW 8257   6.672   4.716   1.416
 2453SOL    HW1 8258   6.757   4.666   1.433
 2453SOL    HW2 8259   6.644   4.704   1.321
 2454SOL     OW 8260   3.157   1.097   1.864
 2454SOL    HW1 8261   3.094   1.044   1.808
 2454SOL    HW2 8262   3.110   1.178   1.900
 2455SOL     OW 8263   5.498   5.654   0.326
 2455SOL    HW1 8264   5.472   5.749   0.310
 2455SOL    HW2 8265   5.525   5.642   0.421
 2456SOL     OW 8266   5.126   5.729   1.620
 2456SOL    HW1 8267   5.177   5.674   1.554
 2456SOL    HW2 8268   5.145   5.696   1.713
 2457SOL     OW 8269   5.340   6.527   1.261
 2457SOL    HW1 8270   5.278   6.449   1.269
 2457SOL    HW2 8271   5.431   6.496   1.234
 2458SOL     OW 8272   0.837   5.546   3.193
 2458SOL    HW1 8273   0.865   5.638   3.223
 2458SOL    HW2 8274   0.740   5.548   3.170
 2459SOL     OW 8275   1.922   0.074   0.814
 2459SOL    HW1 8276   1.932   7.001   0.771
 2459SOL    HW2 8277   2.009   0.123   0.808
 2460SOL     OW 8278   3.198   5.777   1.564
 2460SOL    HW1 8279   3.293   5.747   1.562
 2460SOL    HW2 8280   3.143   5.712   1.616
 2461SOL     OW 8281   5.299   0.523   2.430
 2461SOL    HW1 8282   5.306   0.447   2.494
 2461SOL    HW2 8283   5.235   0.500   2.357
 2462SOL     OW 8284   1.946   5.222   6.467
 2462SOL    HW1 8285   1.877   5.229   6.395
 2462SOL    HW2 8286   1.940   5.132   6.510
 2463SOL     OW 8287   6.285   2.146   4.252
 2463SOL    HW1 8288   6.214   2.209   4.222
 2463SOL    HW2 8289   6.284   2.064   4.195
 2464SOL     OW 8290   1.487   3.216   1.259
 2464SOL    HW1 8291   1.413   3.243   1.198
 2464SOL    HW2 8292   1.549   3.153   1.211
 2465SOL     OW 8293   6.471   5.819   3.288
 2465SOL    HW1 8294   6.538   5.746   3.292
 2465SOL    HW2 8295   6.517   5.906   3.268
 2466SOL     OW 8296   3.692   1.745   2.601
 2466SOL    HW1 8297   3.698   1.678   2.675
 2466SOL    HW2 8298   3.663   1.699   2.517
 2467SOL     OW 8299   6.884   0.911   6.297
 2467SOL    HW1 8300   6.800   0.871   6.332
 2467SOL    HW2 8301   6.904   0.996   6.346
 2468SOL     OW 8302   0.040   5.169   0.943
 2468SOL    HW1 8303   0.053   5.147   1.039
 2468SOL    HW2 8304   6.961   5.189   0.926
 2469SOL     OW 8305   2.231   2.659   5.722
 2469SOL    HW1 8306   2.308   2.722   5.733
 2469SOL    HW2 8307   2.209   2.651   5.625
 2470SOL     OW 8308   5.244   3.018   0.182
 2470SOL    HW1 8309   5.204   2.933   0.217
 2470SOL    HW2 8310   5.291   3.001   0.096
 2471SOL     OW 8311   1.555   0.470   2.841
 2471SOL    HW1 8312   1.506   0.465   2.928
 2471SOL    HW2 8313   1.527   0.553   2.792
 2472SOL     OW 8314   6.163   1.618   3.301
 2472SOL    HW1 8315   6.074   1.657   3.278
 2472SOL    HW2 8316   6.195   1.560   3.226
 2473SOL     OW 8317   0.963   6.148   4.785
 2473SOL    HW1 8318   0.944   6.050   4.787
 2473SOL    HW2 8319   0.941   6.188   4.874
 2474SOL     OW 8320   6.460   4.797   4.959
 2474SOL    HW1 8321   6.522   4.843   4.896
 2474SOL    HW2 8322   6.513   4.741   5.023
 2475SOL     OW 8323   4.467   2.088   6.915
 2475SOL    HW1 8324   4.419   2.037   6.987
 2475SOL    HW2 8325   4.514   2.023   6.855
 2476SOL     OW 8326   0.990   1.681   4.192
 2476SOL    HW1 8327   0.921   1.646   4.129
 2476SOL    HW2 8328   1.069   1.712   4.140
 2477SOL     OW 8329   4.249   4.867   1.178
 2477SOL    HW1 8330   4.202   4.946   1.218
 2477SOL    HW2 8331   4.346   4.887   1.169
 2478SOL     OW 8332   6.704   6.848   3.403
 2478SOL    HW1 8333   6.682   6.910   3.478
 2478SOL    HW2 8334   6.636   6.860   3.330
 2479SOL     OW 8335   0.318   3.125   0.485
 2479SOL    HW1 8336   0.370   3.202   0.448
 2479SOL    HW2 8337   0.379   3.048   0.499
 2480SOL     OW 8338   0.441   3.514   1.198
 2480SOL    HW1 8339   0.431   3.601   1.150
 2480SOL    HW2 8340   0.472   3.531   1.292
 2481SOL     OW 8341   4.479   5.145   2.341
 2481SOL    HW1 8342   4.543   5.072   2.365
 2481SOL    HW2 8343   4.512   5.191   2.258
 2482SOL     OW 8344   5.283   2.079   4.695
 2482SOL    HW1 8345   5.202   2.136   4.677
 2482SOL    HW2 8346   5.294   2.067   4.794
 2483SOL     OW 8347   1.082   2.135   6.791
 2483SOL    HW1 8348   1.068   2.044   6.831
 2483SOL    HW2 8349   1.110   2.198   6.863
 2484SOL     OW 8350   3.119   2.228   6.181
 2484SOL    HW1 8351   3.079   2.277   6.103
 2484SOL    HW2 8352   3.123   2.289   6.260
 2485SOL     OW 8353   0.146   6.251   2.079
 2485SOL    HW1 8354   0.076   6.274   2.011
 2485SOL    HW2 8355   0.182   6.336   2.119
 2486SOL     OW 8356   1.133   5.470   3.271
 2486SOL    HW1 8357   1.039   5.500   3.254
 2486SOL    HW2 8358   1.194   5.548   3.260
 2487SOL     OW 8359   3.340   1.282   0.843
 2487SOL    HW1 8360   3.427   1.254   0.884
 2487SOL    HW2 8361   3.358   1.324   0.754
 2488SOL     OW 8362   3.073   6.322   6.720
 2488SOL    HW1 8363   3.108   6.269   6.642
 2488SOL    HW2 8364   3.137   6.314   6.796
 2489SOL     OW 8365   0.343   5.731   4.490
 2489SOL    HW1 8366   0.441   5.752   4.489
 2489SOL    HW2 8367   0.314   5.705   4.397
 2490SOL     OW 8368   4.955   3.265   1.597
 2490SOL    HW1 8369   5.029   3.307   1.649
 2490SOL    HW2 8370   4.918   3.187   1.648
 2491SOL     OW 8371   1.334   4.470   2.235
 2491SOL    HW1 8372   1.272   4.392   2.233
 2491SOL    HW2 8373   1.335   4.511   2.326
 2492SOL     OW 8374   4.224   3.025   6.527
 2492SOL    HW1 8375   4.220   3.026   6.427
 2492SOL    HW2 8376   4.255   3.114   6.560
 2493SOL     OW 8377   6.652   2.118   3.771
 2493SOL    HW1 8378   6.567   2.155   3.735
 2493SOL    HW2 8379   6.668   2.027   3.733
 2494SOL     OW 8380   5.225   3.472   1.675
 2494SOL    HW1 8381   5.156   3.462   1.746
 2494SOL    HW2 8382   5.314   3.442   1.710
 2495SOL     OW 8383   6.163   1.284   4.302
 2495SOL    HW1 8384   6.219   1.268   4.384
 2495SOL    HW2 8385   6.181   1.211   4.236
 2496SOL     OW 8386   0.805   6.335   0.219
 2496SOL    HW1 8387   0.785   6.429   0.244
 2496SOL    HW2 8388   0.743   6.273   0.267
 2497SOL     OW 8389   5.113   1.861   6.029
 2497SOL    HW1 8390   5.019   1.828   6.035
 2497SOL    HW2 8391   5.176   1.783   6.028
 2498SOL     OW 8392   1.616   3.979   4.779
 2498SOL    HW1 8393   1.548   3.986   4.706
 2498SOL    HW2 8394   1.673   3.898   4.765
 2499SOL     OW 8395   5.948   0.469   5.392
 2499SOL    HW1 8396   5.926   0.545   5.331
 2499SOL    HW2 8397   5.865   0.438   5.438
 2500SOL     OW 8398   4.772   2.868   6.316
 2500SOL    HW1 8399   4.803   2.877   6.410
 2500SOL    HW2 8400   4.675   2.842   6.315
 2501SOL     OW 8401   6.233   4.239   0.167
 2501SOL    HW1 8402   6.243   4.187   0.252
 2501SOL    HW2 8403   6.324   4.258   0.130
 2502SOL     OW 8404   1.829   6.763   2.781
 2502SOL    HW1 8405   1.786   6.853   2.771
 2502SOL    HW2 8406   1.828   6.737   2.878
 2503SOL     OW 8407   4.541   5.444   4.799
 2503SOL    HW1 8408   4.570   5.455   4.894
 2503SOL    HW2 8409   4.493   5.527   4.770
 2504SOL     OW 8410   1.994   4.454   3.950
 2504SOL    HW1 8411   2.040   4.402   3.877
 2504SOL    HW2 8412   2.062   4.486   4.016
 2505SOL     OW 8413   4.578   5.574   3.867
 2505SOL    HW1 8414   4.599   5.555   3.963
 2505SOL    HW2 8415   4.479   5.575   3.853
 2506SOL     OW 8416   0.162   2.028   6.777
 2506SOL    HW1 8417   0.122   1.964   6.843
 2506SOL    HW2 8418   0.199   1.977   6.700
 2507SOL     OW 8419   0.150   5.597   0.857
 2507SOL    HW1 8420   0.227   5.637   0.907
 2507SOL    HW2 8421   0.156   5.623   0.761
 2508SOL     OW 8422   2.358   2.655   2.352
 2508SOL    HW1 8423   2.331   2.641   2.448
 2508SOL    HW2 8424   2.327   2.745   2.322
 2509SOL     OW 8425   5.265   1.952   3.672
 2509SOL    HW1 8426   5.268   1.936   3.574
 2509SOL    HW2 8427   5.263   2.051   3.690
 2510SOL     OW 8428   3.590   5.755   1.037
 2510SOL    HW1 8429   3.678   5.733   0.994
 2510SOL    HW2 8430   3.577   5.698   1.118
 2511SOL     OW 8431   1.486   0.266   4.120
 2511SOL    HW1 8432   1.446   0.304   4.204
 2511SOL    HW2 8433   1.498   0.168   4.130
 2512SOL     OW 8434   4.676   2.834   4.465
 2512SOL    HW1 8435   4.673   2.932   4.480
 2512SOL    HW2 8436   4.662   2.786   4.551
 2513SOL     OW 8437   0.236   4.276   0.976
 2513SOL    HW1 8438   0.252   4.197   1.035
 2513SOL    HW2 8439   0.138   4.285   0.958
 2514SOL     OW 8440   0.970   1.441   3.625
 2514SOL    HW1 8441   0.940   1.443   3.530
 2514SOL    HW2 8442   0.902   1.486   3.683
 2515SOL     OW 8443   1.152   4.825   0.141
 2515SOL    HW1 8444   1.226   4.892   0.145
 2515SOL    HW2 8445   1.078   4.854   0.202
 2516SOL     OW 8446   4.807   6.491   3.845
 2516SOL    HW1 8447   4.859   6.553   3.786
 2516SOL    HW2 8448   4.865   6.462   3.922
 2517SOL     OW 8449   2.405   4.836   0.392
 2517SOL    HW1 8450   2.476   4.875   0.450
 2517SOL    HW2 8451   2.407   4.736   0.400
 2518SOL     OW 8452   2.239   2.238   6.240
 2518SOL    HW1 8453   2.311   2.255   6.307
 2518SOL    HW2 8454   2.160   2.295   6.260
 2519SOL     OW 8455   5.110   4.161   4.738
 2519SOL    HW1 8456   5.194   4.111   4.761
 2519SOL    HW2 8457   5.050   4.102   4.685
 2520SOL     OW 8458   1.926   4.823   1.937
 2520SOL    HW1 8459   1.828   4.804   1.943
 2520SOL    HW2 8460   1.957   4.813   1.842
 2521SOL     OW 8461   5.538   6.855   5.417
 2521SOL    HW1 8462   5.503   6.767   5.385
 2521SOL    HW2 8463   5.599   6.894   5.348
 2522SOL     OW 8464   1.256   3.099   4.724
 2522SOL    HW1 8465   1.298   3.041   4.654
 2522SOL    HW2 8466   1.263   3.054   4.813
 2523SOL     OW 8467   0.405   2.912   6.860
 2523SOL    HW1 8468   0.365   2.925   6.770
 2523SOL    HW2 8469   0.372   2.983   6.922
 2524SOL     OW 8470   1.337   6.464   4.992
 2524SOL    HW1 8471   1.300   6.404   4.921
 2524SOL    HW2 8472   1.287   6.551   4.992
 2525SOL     OW 8473   1.914   4.270   3.220
 2525SOL    HW1 8474   1.964   4.348   3.256
 2525SOL    HW2 8475   1.834   4.303   3.169
 2526SOL     OW 8476   6.912   1.763   5.338
 2526SOL    HW1 8477   6.853   1.682   5.345
 2526SOL    HW2 8478   6.879   1.822   5.265
 2527SOL     OW 8479   6.436   6.340   3.799
 2527SOL    HW1 8480   6.352   6.285   3.794
 2527SOL    HW2 8481   6.481   6.324   3.887
 2528SOL     OW 8482   6.277   5.692   0.394
 2528SOL    HW1 8483   6.278   5.755   0.316
 2528SOL    HW2 8484   6.199   5.631   0.387
 2529SOL     OW 8485   5.176   3.822   4.893
 2529SOL    HW1 8486   5.221   3.750   4.841
 2529SOL    HW2 8487   5.222   3.909   4.876
 2530SOL     OW 8488   0.785   6.945   4.426
 2530SOL    HW1 8489   0.844   7.000   4.366
 2530SOL    HW2 8490   0.778   6.990   4.515
 2531SOL     OW 8491   4.244   1.074   6.348
 2531SOL    HW1 8492   4.318   1.137   6.325
 2531SOL    HW2 8493   4.188   1.058   6.266
 2532SOL     OW 8494   1.676   4.472   6.024
 2532SOL    HW1 8495   1.672   4.509   5.932
 2532SOL    HW2 8496   1.637   4.538   6.089
 2533SOL     OW 8497   5.650   0.129   5.329
 2533SOL    HW1 8498   5.677   0.159   5.237
 2533SOL    HW2 8499   5.693   0.041   5.349
 2534SOL     OW 8500   0.063   1.744   4.111
 2534SOL    HW1 8501   0.094   1.826   4.062
 2534SOL    HW2 8502   0.027   1.770   4.201
 2535SOL     OW 8503   2.578   1.378   2.413
 2535SOL    HW1 8504   2.526   1.354   2.495
 2535SOL    HW2 8505   2.605   1.474   2.418
 2536SOL     OW 8506   6.435   0.490   3.923
 2536SOL    HW1 8507   6.525   0.449   3.938
 2536SOL    HW2 8508   6.445   0.577   3.875
 2537SOL     OW 8509   3.847   5.137   1.285
 2537SOL    HW1 8510   3.848   5.224   1.335
 2537SOL    HW2 8511   3.912   5.142   1.209
 2538SOL     OW 8512   1.821   4.498   5.286
 2538SOL    HW1 8513   1.876   4.564   5.234
 2538SOL    HW2 8514   1.822   4.524   5.383
 2539SOL     OW 8515   2.666   0.361   5.704
 2539SOL    HW1 8516   2.604   0.432   5.737
 2539SOL    HW2 8517   2.752   0.365   5.754
 2540SOL     OW 8518   5.866   1.734   2.110
 2540SOL    HW1 8519   5.861   1.832   2.088
 2540SOL    HW2 8520   5.890   1.723   2.206
 2541SOL     OW 8521   1.135   6.546   5.418
 2541SOL    HW1 8522   1.200   6.497   5.476
 2541SOL    HW2 8523   1.044   6.541   5.458
 2542SOL     OW 8524   3.351   1.745   4.525
 2542SOL    HW1 8525   3.368   1.647   4.509
 2542SOL    HW2 8526   3.252   1.762   4.526
 2543SOL     OW 8527   0.218   2.271   4.681
 2543SOL    HW1 8528   0.278   2.329   4.736
 2543SOL    HW2 8529   0.206   2.311   4.590
 2544SOL     OW 8530   6.362   5.681   2.273
 2544SOL    HW1 8531   6.407   5.593   2.287
 2544SOL    HW2 8532   6.274   5.667   2.228
 2545SOL     OW 8533   6.289   2.026   1.013
 2545SOL    HW1 8534   6.278   1.931   0.984
 2545SOL    HW2 8535   6.383   2.042   1.042
 2546SOL     OW 8536   6.516   4.203   2.747
 2546SOL    HW1 8537   6.614   4.223   2.755
 2546SOL    HW2 8538   6.468   4.282   2.710
 2547SOL     OW 8539   5.955   3.241   0.937
 2547SOL    HW1 8540   5.874   3.210   0.886
 2547SOL    HW2 8541   6.034   3.188   0.909
 2548SOL     OW 8542   0.054   6.696   5.481
 2548SOL    HW1 8543   0.049   6.796   5.485
 2548SOL    HW2 8544   0.014   6.657   5.564
 2549SOL     OW 8545   2.691   2.692   6.942
 2549SOL    HW1 8546   2.790   2.701   6.940
 2549SOL    HW2 8547   2.664   2.625   7.011
 2550SOL     OW 8548   3.799   6.128   6.435
 2550SOL    HW1 8549   3.785   6.049   6.376
 2550SOL    HW2 8550   3.772   6.211   6.386
 2551SOL     OW 8551   3.254   5.729   0.434
 2551SOL    HW1 8552   3.227   5.672   0.512
 2551SOL    HW2 8553   3.180   5.730   0.367
 2552SOL     OW 8554   2.286   5.978   1.587
 2552SOL    HW1 8555   2.341   5.904   1.626
 2552SOL    HW2 8556   2.189   5.957   1.598
 2553SOL     OW 8557   4.366   1.291   6.656
 2553SOL    HW1 8558   4.417   1.341   6.726
 2553SOL    HW2 8559   4.417   1.293   6.570
 2554SOL     OW 8560   1.626   5.762   1.391
 2554SOL    HW1 8561   1.721   5.733   1.394
 2554SOL    HW2 8562   1.616   5.835   1.323
 2555SOL     OW 8563   5.288   6.901   5.004
 2555SOL    HW1 8564   5.284   6.821   5.063
 2555SOL    HW2 8565   5.379   6.941   5.009
 2556SOL     OW 8566   3.822   0.520   0.268
 2556SOL    HW1 8567   3.876   0.599   0.296
 2556SOL    HW2 8568   3.754   0.499   0.337
 2557SOL     OW 8569   2.922   0.264   6.161
 2557SOL    HW1 8570   2.992   0.287   6.229
 2557SOL    HW2 8571   2.836   0.307   6.187
 2558SOL     OW 8572   5.317   3.395   0.468
 2558SOL    HW1 8573   5.316   3.295   0.466
 2558SOL    HW2 8574   5.406   3.427   0.502
 2559SOL     OW 8575   0.849   4.612   4.597
 2559SOL    HW1 8576   0.862   4.688   4.532
 2559SOL    HW2 8577   0.751   4.593   4.607
 2560SOL     OW 8578   4.772   2.000   3.820
 2560SOL    HW1 8579   4.756   1.904   3.796
 2560SOL    HW2 8580   4.854   2.032   3.772
 2561SOL     OW 8581   3.775   0.419   5.039
 2561SOL    HW1 8582   3.830   0.467   5.106
 2561SOL    HW2 8583   3.790   0.458   4.948
 2562SOL     OW 8584   2.976   6.495   3.661
 2562SOL    HW1 8585   2.914   6.555   3.712
 2562SOL    HW2 8586   2.925   6.414   3.630
 2563SOL     OW 8587   3.594   2.112   6.476
 2563SOL    HW1 8588   3.609   2.019   6.443
 2563SOL    HW2 8589   3.676   2.167   6.460
 2564SOL     OW 8590   1.647   1.746   0.000
 2564SOL    HW1 8591   1.708   1.688   6.963
 2564SOL    HW2 8592   1.691   1.835   0.016
 2565SOL     OW 8593   0.563   1.352   0.724
 2565SOL    HW1 8594   0.651   1.339   0.771
 2565SOL    HW2 8595   0.564   1.441   0.677
 2566SOL     OW 8596   2.497   0.693   0.556
 2566SOL    HW1 8597   2.541   0.621   0.502
 2566SOL    HW2 8598   2.422   0.732   0.504
 2567SOL     OW 8599   2.121   0.870   0.137
 2567SOL    HW1 8600   2.041   0.811   0.152
 2567SOL    HW2 8601   2.200   0.831   0.184
 2568SOL     OW 8602   3.116   6.169   0.405
 2568SOL    HW1 8603   3.125   6.257   0.452
 2568SOL    HW2 8604   3.098   6.097   0.473
 2569SOL     OW 8605   1.941   0.389   1.010
 2569SOL    HW1 8606   2.021   0.417   0.957
 2569SOL    HW2 8607   1.969   0.366   1.103
 2570SOL     OW 8608   6.764   6.612   5.631
 2570SOL    HW1 8609   6.716   6.547   5.689
 2570SOL    HW2 8610   6.698   6.673   5.587
 2571SOL     OW 8611   3.597   2.964   3.703
 2571SOL    HW1 8612   3.636   2.962   3.795
 2571SOL    HW2 8613   3.502   2.932   3.706
 2572SOL     OW 8614   1.959   5.616   1.724
 2572SOL    HW1 8615   2.032   5.595   1.659
 2572SOL    HW2 8616   1.912   5.532   1.750
 2573SOL     OW 8617   6.770   2.527   4.931
 2573SOL    HW1 8618   6.683   2.535   4.883
 2573SOL    HW2 8619   6.832   2.468   4.879
 2574SOL     OW 8620   0.623   3.948   2.258
 2574SOL    HW1 8621   0.693   4.019   2.249
 2574SOL    HW2 8622   0.614   3.922   2.354
 2575SOL     OW 8623   5.672   3.700   0.408
 2575SOL    HW1 8624   5.594   3.735   0.356
 2575SOL    HW2 8625   5.689   3.758   0.487
 2576SOL     OW 8626   2.182   6.689   3.789
 2576SOL    HW1 8627   2.219   6.743   3.713
 2576SOL    HW2 8628   2.227   6.600   3.793
 2577SOL     OW 8629   2.836   6.041   1.649
 2577SOL    HW1 8630   2.855   6.051   1.746
 2577SOL    HW2 8631   2.922   6.038   1.597
 2578SOL     OW 8632   5.073   1.905   4.189
 2578SOL    HW1 8633   5.119   1.976   4.136
 2578SOL    HW2 8634   5.063   1.822   4.134
 2579SOL     OW 8635   6.707   1.557   6.036
 2579SOL    HW1 8636   6.720   1.561   5.937
 2579SOL    HW2 8637   6.676   1.646   6.070
 2580SOL     OW 8638   1.209   2.590   6.386
 2580SOL    HW1 8639   1.276   2.515   6.386
 2580SOL    HW2 8640   1.127   2.562   6.336
 2581SOL     OW 8641   6.577   6.646   4.027
 2581SOL    HW1 8642   6.535   6.722   4.076
 2581SOL    HW2 8643   6.510   6.573   4.015
 2582SOL     OW 8644   0.491   5.551   2.764
 2582SOL    HW1 8645   0.424   5.480   2.785
 2582SOL    HW2 8646   0.449   5.619   2.705
 2583SOL     OW 8647   1.982   0.691   0.365
 2583SOL    HW1 8648   1.987   0.775   0.419
 2583SOL    HW2 8649   2.035   0.619   0.410
 2584SOL     OW 8650   5.138   6.812   1.908
 2584SOL    HW1 8651   5.172   6.792   2.000
 2584SOL    HW2 8652   5.203   6.779   1.840
 2585SOL     OW 8653   3.799   1.298   1.667
 2585SOL    HW1 8654   3.739   1.224   1.637
 2585SOL    HW2 8655   3.774   1.382   1.619
 2586SOL     OW 8656   6.711   2.688   4.462
 2586SOL    HW1 8657   6.791   2.639   4.428
 2586SOL    HW2 8658   6.633   2.626   4.470
 2587SOL     OW 8659   5.715   6.207   2.790
 2587SOL    HW1 8660   5.668   6.293   2.811
 2587SOL    HW2 8661   5.664   6.132   2.832
 2588SOL     OW 8662   5.446   0.656   1.674
 2588SOL    HW1 8663   5.387   0.673   1.753
 2588SOL    HW2 8664   5.400   0.593   1.611
 2589SOL     OW 8665   6.250   6.688   1.131
 2589SOL    HW1 8666   6.154   6.662   1.126
 2589SOL    HW2 8667   6.273   6.711   1.226
 2590SOL     OW 8668   4.053   6.313   2.312
 2590SOL    HW1 8669   4.124   6.345   2.250
 2590SOL    HW2 8670   4.082   6.329   2.407
 2591SOL     OW 8671   5.727   0.483   1.634
 2591SOL    HW1 8672   5.802   0.490   1.700
 2591SOL    HW2 8673   5.707   0.573   1.595
 2592SOL     OW 8674   3.568   5.605   1.265
 2592SOL    HW1 8675   3.492   5.632   1.325
 2592SOL    HW2 8676   3.654   5.620   1.312
 2593SOL     OW 8677   3.214   6.411   2.525
 2593SOL    HW1 8678   3.171   6.501   2.519
 2593SOL    HW2 8679   3.292   6.416   2.588
 2594SOL     OW 8680   1.153   5.961   6.315
 2594SOL    HW1 8681   1.212   6.020   6.370
 2594SOL    HW2 8682   1.063   5.952   6.359
 2595SOL     OW 8683   6.370   3.762   4.192
 2595SOL    HW1 8684   6.317   3.815   4.126
 2595SOL    HW2 8685   6.404   3.679   4.149
 2596SOL     OW 8686   3.902   2.119   2.155
 2596SOL    HW1 8687   3.811   2.137   2.118
 2596SOL    HW2 8688   3.964   2.094   2.082
 2597SOL     OW 8689   2.133   2.943   6.757
 2597SOL    HW1 8690   2.081   3.017   6.715
 2597SOL    HW2 8691   2.129   2.862   6.698
 2598SOL     OW 8692   6.375   2.928   3.039
 2598SOL    HW1 8693   6.360   3.022   3.067
 2598SOL    HW2 8694   6.395   2.925   2.941
 2599SOL     OW 8695   4.584   4.683   6.833
 2599SOL    HW1 8696   4.641   4.687   6.915
 2599SOL    HW2 8697   4.499   4.635   6.853
 2600SOL     OW 8698   6.477   3.774   3.240
 2600SOL    HW1 8699   6.556   3.726   3.201
 2600SOL    HW2 8700   6.489   3.783   3.339
 2601SOL     OW 8701   3.744   2.710   5.644
 2601SOL    HW1 8702   3.734   2.703   5.545
 2601SOL    HW2 8703   3.839   2.726   5.667
 2602SOL     OW 8704   6.191   6.057   4.742
 2602SOL    HW1 8705   6.231   5.969   4.716
 2602SOL    HW2 8706   6.096   6.044   4.769
 2603SOL     OW 8707   2.996   2.801   0.324
 2603SOL    HW1 8708   3.056   2.807   0.404
 2603SOL    HW2 8709   3.013   2.879   0.264
 2604SOL     OW 8710   6.076   1.146   1.875
 2604SOL    HW1 8711   6.018   1.176   1.951
 2604SOL    HW2 8712   6.035   1.067   1.830
 2605SOL     OW 8713   4.603   4.856   4.226
 2605SOL    HW1 8714   4.564   4.937   4.183
 2605SOL    HW2 8715   4.530   4.795   4.255
 2606SOL     OW 8716   0.021   4.585   1.878
 2606SOL    HW1 8717   7.016   4.491   1.904
 2606SOL    HW2 8718   6.973   4.648   1.921
 2607SOL     OW 8719   0.730   1.468   4.468
 2607SOL    HW1 8720   0.813   1.465   4.413
 2607SOL    HW2 8721   0.686   1.379   4.467
 2608SOL     OW 8722   5.384   0.732   0.474
 2608SOL    HW1 8723   5.316   0.714   0.403
 2608SOL    HW2 8724   5.402   0.830   0.479
 2609SOL     OW 8725   0.377   2.039   4.138
 2609SOL    HW1 8726   0.406   2.066   4.229
 2609SOL    HW2 8727   0.436   2.082   4.070
 2610SOL     OW 8728   6.138   5.607   4.656
 2610SOL    HW1 8729   6.211   5.562   4.605
 2610SOL    HW2 8730   6.066   5.638   4.594
 2611SOL     OW 8731   3.786   6.330   1.302
 2611SOL    HW1 8732   3.778   6.394   1.226
 2611SOL    HW2 8733   3.697   6.317   1.346
 2612SOL     OW 8734   6.356   6.477   4.071
 2612SOL    HW1 8735   6.325   6.422   4.149
 2612SOL    HW2 8736   6.282   6.538   4.042
 2613SOL     OW 8737   3.927   0.440   1.777
 2613SOL    HW1 8738   3.894   0.502   1.705
 2613SOL    HW2 8739   3.898   0.347   1.756
 2614SOL     OW 8740   6.806   6.248   6.667
 2614SOL    HW1 8741   6.802   6.264   6.568
 2614SOL    HW2 8742   6.719   6.209   6.698
 2615SOL     OW 8743   5.908   5.132   2.129
 2615SOL    HW1 8744   5.903   5.211   2.191
 2615SOL    HW2 8745   5.940   5.053   2.180
 2616SOL     OW 8746   3.541   2.937   2.660
 2616SOL    HW1 8747   3.510   2.890   2.742
 2616SOL    HW2 8748   3.505   2.890   2.579
 2617SOL     OW 8749   3.837   0.586   1.548
 2617SOL    HW1 8750   3.770   0.658   1.528
 2617SOL    HW2 8751   3.902   0.579   1.472
 2618SOL     OW 8752   0.955   0.589   1.251
 2618SOL    HW1 8753   0.968   0.526   1.174
 2618SOL    HW2 8754   0.939   0.681   1.216
 2619SOL     OW 8755   4.616   1.822   1.703
 2619SOL    HW1 8756   4.534   1.880   1.706
 2619SOL    HW2 8757   4.597   1.740   1.649
 2620SOL     OW 8758   1.612   4.148   4.001
 2620SOL    HW1 8759   1.606   4.167   4.099
 2620SOL    HW2 8760   1.702   4.176   3.967
 2621SOL     OW 8761   1.018   4.802   3.850
 2621SOL    HW1 8762   0.958   4.800   3.770
 2621SOL    HW2 8763   1.011   4.715   3.899
 2622SOL     OW 8764   2.924   3.346   6.245
 2622SOL    HW1 8765   2.913   3.344   6.344
 2622SOL    HW2 8766   2.843   3.388   6.203
 2623SOL     OW 8767   3.141   0.784   5.475
 2623SOL    HW1 8768   3.189   0.704   5.440
 2623SOL    HW2 8769   3.047   0.784   5.440
 2624SOL     OW 8770   6.680   2.141   4.076
 2624SOL    HW1 8771   6.631   2.184   3.999
 2624SOL    HW2 8772   6.637   2.053   4.097
 2625SOL     OW 8773   4.057   0.890   5.294
 2625SOL    HW1 8774   4.055   0.945   5.378
 2625SOL    HW2 8775   3.964   0.875   5.262
 2626SOL     OW 8776   2.133   6.593   2.483
 2626SOL    HW1 8777   2.054   6.533   2.467
 2626SOL    HW2 8778   2.101   6.679   2.522
 2627SOL     OW 8779   0.068   6.852   4.232
 2627SOL    HW1 8780   6.997   6.858   4.278
 2627SOL    HW2 8781   0.141   6.848   4.300
 2628SOL     OW 8782   4.242   5.566   5.928
 2628SOL    HW1 8783   4.187   5.494   5.886
 2628SOL    HW2 8784   4.271   5.538   6.020
 2629SOL     OW 8785   3.609   4.000   1.220
 2629SOL    HW1 8786   3.630   3.908   1.186
 2629SOL    HW2 8787   3.523   3.997   1.272
 2630SOL     OW 8788   2.556   2.476   2.330
 2630SOL    HW1 8789   2.555   2.424   2.245
 2630SOL    HW2 8790   2.506   2.562   2.317
 2631SOL     OW 8791   4.729   6.176   4.390
 2631SOL    HW1 8792   4.631   6.197   4.392
 2631SOL    HW2 8793   4.780   6.261   4.377
 2632SOL     OW 8794   5.034   1.873   0.492
 2632SOL    HW1 8795   5.026   1.972   0.496
 2632SOL    HW2 8796   4.947   1.832   0.519
 2633SOL     OW 8797   6.180   2.334   6.556
 2633SOL    HW1 8798   6.275   2.364   6.566
 2633SOL    HW2 8799   6.174   2.236   6.574
 2634SOL     OW 8800   2.484   5.093   1.265
 2634SOL    HW1 8801   2.434   5.175   1.293
 2634SOL    HW2 8802   2.494   5.093   1.165
 2635SOL     OW 8803   5.009   4.420   4.292
 2635SOL    HW1 8804   5.026   4.324   4.314
 2635SOL    HW2 8805   5.010   4.433   4.193
 2636SOL     OW 8806   5.981   0.554   4.979
 2636SOL    HW1 8807   5.962   0.564   5.077
 2636SOL    HW2 8808   6.068   0.597   4.957
 2637SOL     OW 8809   5.154   6.528   2.666
 2637SOL    HW1 8810   5.071   6.583   2.662
 2637SOL    HW2 8811   5.188   6.511   2.573
 2638SOL     OW 8812   5.667   6.237   0.793
 2638SOL    HW1 8813   5.756   6.192   0.797
 2638SOL    HW2 8814   5.673   6.329   0.831
 2639SOL     OW 8815   6.335   6.194   0.606
 2639SOL    HW1 8816   6.431   6.173   0.624
 2639SOL    HW2 8817   6.311   6.282   0.647
 2640SOL     OW 8818   6.885   6.696   5.973
 2640SOL    HW1 8819   6.922   6.716   5.883
 2640SOL    HW2 8820   6.839   6.607   5.971
 2641SOL     OW 8821   5.647   5.060   0.464
 2641SOL    HW1 8822   5.560   5.051   0.416
 2641SOL    HW2 8823   5.707   5.123   0.414
 2642SOL     OW 8824   5.840   6.791   3.902
 2642SOL    HW1 8825   5.799   6.817   3.814
 2642SOL    HW2 8826   5.902   6.863   3.932
 2643SOL     OW 8827   0.762   0.360   2.129
 2643SOL    HW1 8828   0.670   0.351   2.167
 2643SOL    HW2 8829   0.756   0.369   2.029
 2644SOL     OW 8830   0.406   4.684   6.087
 2644SOL    HW1 8831   0.400   4.783   6.083
 2644SOL    HW2 8832   0.347   4.649   6.159
 2645SOL     OW 8833   5.564   5.835   5.617
 2645SOL    HW1 8834   5.655   5.872   5.598
 2645SOL    HW2 8835   5.552   5.749   5.569
 2646SOL     OW 8836   6.379   6.608   0.379
 2646SOL    HW1 8837   6.353   6.528   0.325
 2646SOL    HW2 8838   6.296   6.654   0.412
 2647SOL     OW 8839   4.003   1.412   0.936
 2647SOL    HW1 8840   3.921   1.362   0.964
 2647SOL    HW2 8841   4.084   1.362   0.967
 2648SOL     OW 8842   4.697   0.516   2.420
 2648SOL    HW1 8843   4.792   0.486   2.425
 2648SOL    HW2 8844   4.644   0.470   2.491
 2649SOL     OW 8845   3.263   1.625   5.993
 2649SOL    HW1 8846   3.185   1.567   5.971
 2649SOL    HW2 8847   3.347   1.582   5.962
 2650SOL     OW 8848   0.409   5.892   2.170
 2650SOL    HW1 8849   0.507   5.913   2.177
 2650SOL    HW2 8850   0.398   5.798   2.135
 2651SOL     OW 8851   6.693   0.754   3.396
 2651SOL    HW1 8852   6.734   0.724   3.482
 2651SOL    HW2 8853   6.765   0.784   3.333
 2652SOL     OW 8854   2.843   3.532   2.578
 2652SOL    HW1 8855   2.856   3.493   2.487
 2652SOL    HW2 8856   2.821   3.459   2.642
 2653SOL     OW 8857   6.579   6.746   6.724
 2653SOL    HW1 8858   6.676   6.757   6.704
 2653SOL    HW2 8859   6.531   6.832   6.704
 2654SOL     OW 8860   5.543   2.884   5.982
 2654SOL    HW1 8861   5.608   2.957   6.004
 2654SOL    HW2 8862   5.586   2.821   5.917
 2655SOL     OW 8863   4.927   6.411   5.175
 2655SOL    HW1 8864   4.980   6.338   5.217
 2655SOL    HW2 8865   4.979   6.452   5.100
 2656SOL     OW 8866   5.836   3.325   3.953
 2656SOL    HW1 8867   5.767   3.363   4.016
 2656SOL    HW2 8868   5.895   3.398   3.921
 2657SOL     OW 8869   2.214   3.449   6.643
 2657SOL    HW1 8870   2.120   3.425   6.616
 2657SOL    HW2 8871   2.231   3.545   6.622
 2658SOL     OW 8872   6.081   4.090   6.270
 2658SOL    HW1 8873   6.047   4.002   6.304
 2658SOL    HW2 8874   6.010   4.159   6.281
 2659SOL     OW 8875   6.821   3.018   3.966
 2659SOL    HW1 8876   6.780   2.981   4.050
 2659SOL    HW2 8877   6.877   2.948   3.923
 2660SOL     OW 8878   6.960   2.630   3.217
 2660SOL    HW1 8879   6.910   2.661   3.137
 2660SOL    HW2 8880   6.919   2.546   3.253
 2661SOL     OW 8881   4.399   6.138   0.682
 2661SOL    HW1 8882   4.475   6.100   0.735
 2661SOL    HW2 8883   4.345   6.199   0.740
 2662SOL     OW 8884   3.275   6.832   3.827
 2662SOL    HW1 8885   3.334   6.904   3.791
 2662SOL    HW2 8886   3.257   6.849   3.924
 2663SOL     OW 8887   1.437   4.293   2.583
 2663SOL    HW1 8888   1.363   4.260   2.525
 2663SOL    HW2 8889   1.403   4.308   2.676
 2664SOL     OW 8890   4.123   3.710   2.053
 2664SOL    HW1 8891   4.067   3.683   2.131
 2664SOL    HW2 8892   4.202   3.761   2.085
 2665SOL     OW 8893   3.756   1.162   4.549
 2665SOL    HW1 8894   3.795   1.220   4.620
 2665SOL    HW2 8895   3.753   1.067   4.582
 2666SOL     OW 8896   5.275   5.595   1.436
 2666SOL    HW1 8897   5.349   5.633   1.492
 2666SOL    HW2 8898   5.308   5.582   1.342
 2667SOL     OW 8899   1.691   5.320   3.875
 2667SOL    HW1 8900   1.753   5.242   3.879
 2667SOL    HW2 8901   1.629   5.310   3.798
 2668SOL     OW 8902   0.431   2.884   5.798
 2668SOL    HW1 8903   0.378   2.923   5.722
 2668SOL    HW2 8904   0.456   2.957   5.862
 2669SOL     OW 8905   4.212   4.791   5.034
 2669SOL    HW1 8906   4.268   4.822   5.111
 2669SOL    HW2 8907   4.247   4.703   5.002
 2670SOL     OW 8908   1.662   1.131   6.633
 2670SOL    HW1 8909   1.726   1.156   6.560
 2670SOL    HW2 8910   1.577   1.097   6.593
 2671SOL     OW 8911   1.934   3.355   5.913
 2671SOL    HW1 8912   2.029   3.384   5.899
 2671SOL    HW2 8913   1.929   3.255   5.907
 2672SOL     OW 8914   1.427   5.315   1.099
 2672SOL    HW1 8915   1.471   5.405   1.101
 2672SOL    HW2 8916   1.329   5.326   1.084
 2673SOL     OW 8917   3.930   2.133   2.740
 2673SOL    HW1 8918   3.939   2.140   2.839
 2673SOL    HW2 8919   3.898   2.220   2.703
 2674SOL     OW 8920   5.063   5.227   5.546
 2674SOL    HW1 8921   5.126   5.293   5.506
 2674SOL    HW2 8922   5.106   5.183   5.625
 2675SOL     OW 8923   0.261   5.063   5.350
 2675SOL    HW1 8924   0.356   5.095   5.341
 2675SOL    HW2 8925   0.244   5.033   5.443
 2676SOL     OW 8926   4.353   0.955   1.835
 2676SOL    HW1 8927   4.366   0.870   1.887
 2676SOL    HW2 8928   4.347   0.934   1.738
 2677SOL     OW 8929   2.500   5.123   1.944
 2677SOL    HW1 8930   2.486   5.046   1.882
 2677SOL    HW2 8931   2.509   5.089   2.038
 2678SOL     OW 8932   0.315   4.987   5.623
 2678SOL    HW1 8933   0.308   4.896   5.663
 2678SOL    HW2 8934   0.402   5.029   5.650
 2679SOL     OW 8935   3.064   4.361   1.001
 2679SOL    HW1 8936   3.005   4.330   1.076
 2679SOL    HW2 8937   3.159   4.343   1.024
 2680SOL     OW 8938   1.128   2.168   1.869
 2680SOL    HW1 8939   1.109   2.148   1.773
 2680SOL    HW2 8940   1.129   2.267   1.882
 2681SOL     OW 8941   1.556   2.492   3.026
 2681SOL    HW1 8942   1.654   2.496   3.008
 2681SOL    HW2 8943   1.526   2.577   3.067
 2682SOL     OW 8944   5.619   2.422   2.977
 2682SOL    HW1 8945   5.709   2.463   2.990
 2682SOL    HW2 8946   5.573   2.467   2.900
 2683SOL     OW 8947   1.098   6.272   1.458
 2683SOL    HW1 8948   1.154   6.207   1.408
 2683SOL    HW2 8949   1.131   6.278   1.553
 2684SOL     OW 8950   2.534   6.564   2.724
 2684SOL    HW1 8951   2.622   6.598   2.691
 2684SOL    HW2 8952   2.512   6.608   2.811
 2685SOL     OW 8953   5.466   5.610   5.450
 2685SOL    HW1 8954   5.529   5.545   5.408
 2685SOL    HW2 8955   5.392   5.631   5.387
 2686SOL     OW 8956   2.210   2.777   4.358
 2686SOL    HW1 8957   2.186   2.840   4.432
 2686SOL    HW2 8958   2.220   2.829   4.273
 2687SOL     OW 8959   4.400   5.696   2.551
 2687SOL    HW1 8960   4.450   5.608   2.547
 2687SOL    HW2 8961   4.306   5.682   2.521
 2688SOL     OW 8962   3.619   4.369   6.145
 2688SOL    HW1 8963   3.691   4.322   6.093
 2688SOL    HW2 8964   3.579   4.306   6.211
 2689SOL     OW 8965   6.965   3.651   3.968
 2689SOL    HW1 8966   6.901   3.668   3.893
 2689SOL    HW2 8967   0.025   3.598   3.934
 2690SOL     OW 8968   3.963   3.801   3.637
 2690SOL    HW1 8969   3.962   3.869   3.710
 2690SOL    HW2 8970   3.969   3.709   3.676
 2691SOL     OW 8971   1.810   6.146   1.857
 2691SOL    HW1 8972   1.856   6.219   1.807
 2691SOL    HW2 8973   1.755   6.092   1.794
 2692SOL     OW 8974   0.197   6.655   3.854
 2692SOL    HW1 8975   0.147   6.728   3.899
 2692SOL    HW2 8976   0.245   6.599   3.922
 2693SOL     OW 8977   1.765   4.125   2.970
 2693SOL    HW1 8978   1.835   4.097   3.036
 2693SOL    HW2 8979   1.737   4.219   2.990
 2694SOL     OW 8980   1.725   6.705   3.060
 2694SOL    HW1 8981   1.779   6.654   3.127
 2694SOL    HW2 8982   1.697   6.793   3.099
 2695SOL     OW 8983   4.318   2.067   3.427
 2695SOL    HW1 8984   4.383   1.991   3.418
 2695SOL    HW2 8985   4.237   2.035   3.477
 2696SOL     OW 8986   3.963   3.752   5.553
 2696SOL    HW1 8987   3.952   3.847   5.584
 2696SOL    HW2 8988   4.017   3.702   5.620
 2697SOL     OW 8989   2.567   1.558   4.237
 2697SOL    HW1 8990   2.542   1.651   4.264
 2697SOL    HW2 8991   2.491   1.496   4.257
 2698SOL     OW 8992   2.393   3.602   0.651
 2698SOL    HW1 8993   2.383   3.566   0.743
 2698SOL    HW2 8994   2.488   3.627   0.635
 2699SOL     OW 8995   3.566   5.908   1.812
 2699SOL    HW1 8996   3.648   5.884   1.864
 2699SOL    HW2 8997   3.593   5.963   1.733
 2700SOL     OW 8998   2.018   3.519   2.542
 2700SOL    HW1 8999   2.071   3.452   2.592
 2700SOL    HW2 9000   2.020   3.607   2.591
 2701SOL     OW 9001   3.965   6.878   6.761
 2701SOL    HW1 9002   3.946   6.890   6.664
 2701SOL    HW2 9003   3.963   6.780   6.784
 2702SOL     OW 9004   6.874   0.205   3.822
 2702SOL    HW1 9005   6.908   0.112   3.805
 2702SOL    HW2 9006   6.774   0.204   3.823
 2703SOL     OW 9007   1.724   1.892   2.545
 2703SOL    HW1 9008   1.666   1.852   2.473
 2703SOL    HW2 9009   1.775   1.969   2.507
 2704SOL     OW 9010   2.242   4.809   1.330
 2704SOL    HW1 9011   2.221   4.896   1.374
 2704SOL    HW2 9012   2.161   4.750   1.333
 2705SOL     OW 9013   6.583   5.237   3.421
 2705SOL    HW1 9014   6.582   5.336   3.413
 2705SOL    HW2 9015   6.526   5.197   3.348
 2706SOL     OW 9016   6.942   1.157   1.948
 2706SOL    HW1 9017   6.961   1.059   1.948
 2706SOL    HW2 9018   6.853   1.174   1.990
 2707SOL     OW 9019   2.198   1.407   5.950
 2707SOL    HW1 9020   2.180   1.311   5.971
 2707SOL    HW2 9021   2.261   1.413   5.873
 2708SOL     OW 9022   1.833   2.564   1.528
 2708SOL    HW1 9023   1.748   2.527   1.490
 2708SOL    HW2 9024   1.911   2.521   1.482
 2709SOL     OW 9025   4.635   6.275   0.498
 2709SOL    HW1 9026   4.548   6.228   0.484
 2709SOL    HW2 9027   4.617   6.373   0.514
 2710SOL     OW 9028   6.563   3.929   2.966
 2710SOL    HW1 9029   6.562   4.016   3.016
 2710SOL    HW2 9030   6.536   3.946   2.871
 2711SOL     OW 9031   1.250   0.619   2.245
 2711SOL    HW1 9032   1.279   0.715   2.241
 2711SOL    HW2 9033   1.219   0.590   2.155
 2712SOL     OW 9034   2.917   3.959   0.140
 2712SOL    HW1 9035   2.828   3.980   0.100
 2712SOL    HW2 9036   2.960   4.043   0.174
 2713SOL     OW 9037   2.225   3.156   5.273
 2713SOL    HW1 9038   2.309   3.125   5.230
 2713SOL    HW2 9039   2.170   3.077   5.300
 2714SOL     OW 9040   4.964   6.917   5.717
 2714SOL    HW1 9041   5.030   6.870   5.776
 2714SOL    HW2 9042   4.973   6.883   5.624
 2715SOL     OW 9043   5.949   1.404   6.578
 2715SOL    HW1 9044   5.917   1.309   6.578
 2715SOL    HW2 9045   5.872   1.464   6.556
 2716SOL     OW 9046   0.161   6.676   2.434
 2716SOL    HW1 9047   0.094   6.748   2.419
 2716SOL    HW2 9048   0.230   6.680   2.361
 2717SOL     OW 9049   0.812   0.825   2.563
 2717SOL    HW1 9050   0.718   0.841   2.591
 2717SOL    HW2 9051   0.872   0.830   2.642
 2718SOL     OW 9052   2.024   4.889   3.832
 2718SOL    HW1 9053   2.055   4.905   3.738
 2718SOL    HW2 9054   1.968   4.806   3.836
 2719SOL     OW 9055   4.092   5.263   1.779
 2719SOL    HW1 9056   4.102   5.164   1.789
 2719SOL    HW2 9057   4.109   5.307   1.868
 2720SOL     OW 9058   1.524   6.325   3.657
 2720SOL    HW1 9059   1.566   6.396   3.600
 2720SOL    HW2 9060   1.463   6.367   3.724
 2721SOL     OW 9061   3.950   6.986   4.004
 2721SOL    HW1 9062   3.936   6.888   3.989
 2721SOL    HW2 9063   3.895   0.020   3.939
 2722SOL     OW 9064   1.218   5.969   2.266
 2722SOL    HW1 9065   1.197   6.036   2.195
 2722SOL    HW2 9066   1.303   5.993   2.312
 2723SOL     OW 9067   1.629   1.509   5.932
 2723SOL    HW1 9068   1.568   1.493   5.856
 2723SOL    HW2 9069   1.689   1.587   5.911
 2724SOL     OW 9070   3.869   5.497   6.536
 2724SOL    HW1 9071   3.914   5.575   6.492
 2724SOL    HW2 9072   3.900   5.488   6.630
 2725SOL     OW 9073   3.270   4.873   3.906
 2725SOL    HW1 9074   3.318   4.809   3.847
 2725SOL    HW2 9075   3.330   4.950   3.928
 2726SOL     OW 9076   4.489   5.330   2.141
 2726SOL    HW1 9077   4.564   5.396   2.144
 2726SOL    HW2 9078   4.493   5.280   2.054
 2727SOL     OW 9079   1.858   5.523   2.458
 2727SOL    HW1 9080   1.842   5.452   2.526
 2727SOL    HW2 9081   1.884   5.608   2.504
 2728SOL     OW 9082   3.178   6.710   5.809
 2728SOL    HW1 9083   3.099   6.684   5.865
 2728SOL    HW2 9084   3.146   6.738   5.719
 2729SOL     OW 9085   5.531   5.218   2.782
 2729SOL    HW1 9086   5.579   5.303   2.760
 2729SOL    HW2 9087   5.593   5.140   2.770
 2730SOL     OW 9088   1.713   6.108   1.311
 2730SOL    HW1 9089   1.657   6.036   1.271
 2730SOL    HW2 9090   1.805   6.073   1.328
 2731SOL     OW 9091   3.171   4.016   1.592
 2731SOL    HW1 9092   3.265   4.004   1.622
 2731SOL    HW2 9093   3.120   4.066   1.662
 2732SOL     OW 9094   5.939   2.030   2.248
 2732SOL    HW1 9095   5.956   1.951   2.308
 2732SOL    HW2 9096   5.972   2.009   2.155
 2733SOL     OW 9097   1.420   6.664   6.308
 2733SOL    HW1 9098   1.509   6.667   6.354
 2733SOL    HW2 9099   1.384   6.756   6.298
 2734SOL     OW 9100   2.043   5.460   3.966
 2734SOL    HW1 9101   2.137   5.493   3.963
 2734SOL    HW2 9102   2.014   5.434   3.874
 2735SOL     OW 9103   1.638   4.985   2.437
 2735SOL    HW1 9104   1.569   4.993   2.366
 2735SOL    HW2 9105   1.709   5.054   2.421
 2736SOL     OW 9106   4.265   0.558   5.215
 2736SOL    HW1 9107   4.312   0.633   5.170
 2736SOL    HW2 9108   4.281   0.473   5.165
 2737SOL     OW 9109   4.629   3.595   6.514
 2737SOL    HW1 9110   4.681   3.601   6.600
 2737SOL    HW2 9111   4.684   3.633   6.440
 2738SOL     OW 9112   5.560   5.150   4.346
 2738SOL    HW1 9113   5.604   5.236   4.372
 2738SOL    HW2 9114   5.605   5.112   4.266
 2739SOL     OW 9115   6.071   3.113   0.541
 2739SOL    HW1 9116   6.095   3.056   0.463
 2739SOL    HW2 9117   6.079   3.059   0.625
 2740SOL     OW 9118   5.623   2.164   3.354
 2740SOL    HW1 9119   5.560   2.200   3.285
 2740SOL    HW2 9120   5.714   2.152   3.313
 2741SOL     OW 9121   0.266   2.356   6.411
 2741SOL    HW1 9122   0.260   2.335   6.314
 2741SOL    HW2 9123   0.358   2.388   6.434
 2742SOL     OW 9124   1.905   6.515   6.569
 2742SOL    HW1 9125   1.829   6.471   6.521
 2742SOL    HW2 9126   1.954   6.575   6.506
 2743SOL     OW 9127   5.274   4.977   0.932
 2743SOL    HW1 9128   5.314   5.061   0.968
 2743SOL    HW2 9129   5.347   4.910   0.916
 2744SOL     OW 9130   4.077   1.379   6.256
 2744SOL    HW1 9131   4.058   1.358   6.352
 2744SOL    HW2 9132   4.080   1.294   6.203
 2745SOL     OW 9133   2.490   6.238   0.630
 2745SOL    HW1 9134   2.391   6.230   0.623
 2745SOL    HW2 9135   2.532   6.149   0.611
 2746SOL     OW 9136   1.759   2.285   6.153
 2746SOL    HW1 9137   1.776   2.342   6.234
 2746SOL    HW2 9138   1.724   2.196   6.182
 2747SOL     OW 9139   3.967   6.021   4.440
 2747SOL    HW1 9140   3.870   5.999   4.452
 2747SOL    HW2 9141   4.009   5.956   4.377
 2748SOL     OW 9142   3.696   1.190   3.748
 2748SOL    HW1 9143   3.633   1.267   3.760
 2748SOL    HW2 9144   3.667   1.135   3.670
 2749SOL     OW 9145   4.602   5.361   3.694
 2749SOL    HW1 9146   4.519   5.304   3.693
 2749SOL    HW2 9147   4.584   5.445   3.745
 2750SOL     OW 9148   0.642   5.767   2.431
 2750SOL    HW1 9149   0.700   5.777   2.512
 2750SOL    HW2 9150   0.616   5.858   2.397
 2751SOL     OW 9151   1.597   0.048   6.293
 2751SOL    HW1 9152   1.592   0.112   6.370
 2751SOL    HW2 9153   1.519   7.003   6.298
 2752SOL     OW 9154   6.101   6.226   5.680
 2752SOL    HW1 9155   6.061   6.225   5.588
 2752SOL    HW2 9156   6.031   6.252   5.747
 2753SOL     OW 9157   2.458   5.355   5.523
 2753SOL    HW1 9158   2.501   5.428   5.470
 2753SOL    HW2 9159   2.489   5.266   5.488
 2754SOL     OW 9160   1.198   6.962   3.908
 2754SOL    HW1 9161   1.277   6.984   3.966
 2754SOL    HW2 9162   1.170   6.868   3.925
 2755SOL     OW 9163   3.223   6.054   1.999
 2755SOL    HW1 9164   3.226   6.018   1.905
 2755SOL    HW2 9165   3.142   6.019   2.046
 2756SOL     OW 9166   0.695   3.070   6.110
 2756SOL    HW1 9167   0.670   3.155   6.158
 2756SOL    HW2 9168   0.793   3.070   6.090
 2757SOL     OW 9169   4.321   3.225   6.721
 2757SOL    HW1 9170   4.415   3.229   6.756
 2757SOL    HW2 9171   4.304   3.303   6.661
 2758SOL     OW 9172   6.658   5.923   2.292
 2758SOL    HW1 9173   6.685   5.829   2.316
 2758SOL    HW2 9174   6.568   5.943   2.330
 2759SOL     OW 9175   2.990   3.803   5.922
 2759SOL    HW1 9176   3.032   3.795   6.013
 2759SOL    HW2 9177   3.061   3.801   5.852
 2760SOL     OW 9178   5.303   6.216   2.894
 2760SOL    HW1 9179   5.207   6.221   2.865
 2760SOL    HW2 9180   5.362   6.236   2.816
 2761SOL     OW 9181   1.238   2.730   3.519
 2761SOL    HW1 9182   1.258   2.791   3.442
 2761SOL    HW2 9183   1.323   2.696   3.558
 2762SOL     OW 9184   2.388   2.490   0.414
 2762SOL    HW1 9185   2.376   2.581   0.376
 2762SOL    HW2 9186   2.468   2.488   0.473
 2763SOL     OW 9187   6.030   1.835   4.545
 2763SOL    HW1 9188   6.110   1.894   4.537
 2763SOL    HW2 9189   5.949   1.890   4.562
 2764SOL     OW 9190   0.800   3.713   2.445
 2764SOL    HW1 9191   0.885   3.669   2.416
 2764SOL    HW2 9192   0.822   3.797   2.496
 2765SOL     OW 9193   6.784   6.741   6.956
 2765SOL    HW1 9194   6.870   6.785   6.983
 2765SOL    HW2 9195   6.801   6.645   6.934
 2766SOL     OW 9196   5.082   0.852   6.499
 2766SOL    HW1 9197   5.016   0.857   6.573
 2766SOL    HW2 9198   5.143   0.773   6.514
 2767SOL     OW 9199   6.285   5.607   6.492
 2767SOL    HW1 9200   6.213   5.616   6.423
 2767SOL    HW2 9201   6.364   5.561   6.452
 2768SOL     OW 9202   4.057   0.076   1.229
 2768SOL    HW1 9203   4.071   0.022   1.146
 2768SOL    HW2 9204   4.055   0.173   1.205
 2769SOL     OW 9205   0.527   4.660   5.820
 2769SOL    HW1 9206   0.454   4.594   5.800
 2769SOL    HW2 9207   0.612   4.611   5.838
 2770SOL     OW 9208   3.340   6.475   0.524
 2770SOL    HW1 9209   3.354   6.564   0.569
 2770SOL    HW2 9210   3.425   6.423   0.526
 2771SOL     OW 9211   4.402   6.847   4.963
 2771SOL    HW1 9212   4.487   6.797   4.983
 2771SOL    HW2 9213   4.391   6.855   4.864
 2772SOL     OW 9214   4.608   0.083   3.280
 2772SOL    HW1 9215   4.532   0.088   3.344
 2772SOL    HW2 9216   4.691   0.119   3.323
 2773SOL     OW 9217   5.749   2.848   5.145
 2773SOL    HW1 9218   5.672   2.785   5.155
 2773SOL    HW2 9219   5.717   2.942   5.149
 2774SOL     OW 9220   6.248   2.000   4.472
 2774SOL    HW1 9221   6.263   2.053   4.388
 2774SOL    HW2 9222   6.319   2.023   4.539
 2775SOL     OW 9223   0.336   3.689   3.988
 2775SOL    HW1 9224   0.404   3.664   4.057
 2775SOL    HW2 9225   0.284   3.768   4.021
 2776SOL     OW 9226   5.070   4.335   6.172
 2776SOL    HW1 9227   4.977   4.369   6.155
 2776SOL    HW2 9228   5.103   4.286   6.091
 2777SOL     OW 9229   2.815   2.085   6.334
 2777SOL    HW1 9230   2.834   1.991   6.363
 2777SOL    HW2 9231   2.860   2.149   6.395
 2778SOL     OW 9232   3.039   0.075   5.899
 2778SOL    HW1 9233   3.002   0.164   5.923
 2778SOL    HW2 9234   2.994   0.040   5.817
 2779SOL     OW 9235   5.220   0.521   1.544
 2779SOL    HW1 9236   5.220   0.554   1.450
 2779SOL    HW2 9237   5.126   0.498   1.572
 2780SOL     OW 9238   6.824   2.286   4.746
 2780SOL    HW1 9239   6.775   2.238   4.673
 2780SOL    HW2 9240   6.781   2.263   4.834
 2781SOL     OW 9241   5.774   1.526   3.387
 2781SOL    HW1 9242   5.774   1.509   3.485
 2781SOL    HW2 9243   5.839   1.465   3.342
 2782SOL     OW 9244   5.090   0.236   5.911
 2782SOL    HW1 9245   5.188   0.216   5.907
 2782SOL    HW2 9246   5.044   0.167   5.966
 2783SOL     OW 9247   5.847   4.491   1.816
 2783SOL    HW1 9248   5.803   4.436   1.746
 2783SOL    HW2 9249   5.822   4.587   1.805
 2784SOL     OW 9250   1.033   2.060   1.614
 2784SOL    HW1 9251   1.127   2.087   1.593
 2784SOL    HW2 9252   1.007   1.981   1.558
 2785SOL     OW 9253   6.085   2.870   1.510
 2785SOL    HW1 9254   5.987   2.886   1.523
 2785SOL    HW2 9255   6.114   2.908   1.422
 2786SOL     OW 9256   6.881   6.116   6.978
 2786SOL    HW1 9257   6.968   6.095   0.005
 2786SOL    HW2 9258   6.875   6.066   6.891
 2787SOL     OW 9259   6.502   5.459   6.661
 2787SOL    HW1 9260   6.413   5.476   6.703
 2787SOL    HW2 9261   6.570   5.440   6.731
 2788SOL     OW 9262   2.967   6.069   6.031
 2788SOL    HW1 9263   2.971   6.165   6.057
 2788SOL    HW2 9264   2.962   6.012   6.114
 2789SOL     OW 9265   1.064   2.068   5.260
 2789SOL    HW1 9266   1.155   2.037   5.231
 2789SOL    HW2 9267   1.003   2.071   5.180
 2790SOL     OW 9268   1.243   5.610   2.187
 2790SOL    HW1 9269   1.258   5.663   2.271
 2790SOL    HW2 9270   1.154   5.635   2.148
 2791SOL     OW 9271   0.477   4.065   3.141
 2791SOL    HW1 9272   0.456   3.977   3.097
 2791SOL    HW2 9273   0.451   4.139   3.079
 2792SOL     OW 9274   3.377   1.095   6.195
 2792SOL    HW1 9275   3.436   1.175   6.207
 2792SOL    HW2 9276   3.434   1.013   6.193
 2793SOL     OW 9277   3.569   3.753   0.478
 2793SOL    HW1 9278   3.608   3.682   0.419
 2793SOL    HW2 9279   3.471   3.764   0.457
 2794SOL     OW 9280   0.923   2.548   0.240
 2794SOL    HW1 9281   0.843   2.531   0.297
 2794SOL    HW2 9282   0.893   2.568   0.146
 2795SOL     OW 9283   0.948   5.489   1.434
 2795SOL    HW1 9284   0.957   5.410   1.495
 2795SOL    HW2 9285   1.036   5.537   1.429
 2796SOL     OW 9286   2.028   5.494   6.226
 2796SOL    HW1 9287   2.120   5.497   6.266
 2796SOL    HW2 9288   1.969   5.560   6.272
 2797SOL     OW 9289   5.091   6.019   3.386
 2797SOL    HW1 9290   5.019   6.033   3.319
 2797SOL    HW2 9291   5.087   6.091   3.456
 2798SOL     OW 9292   4.603   0.625   1.708
 2798SOL    HW1 9293   4.635   0.679   1.786
 2798SOL    HW2 9294   4.554   0.544   1.741
 2799SOL     OW 9295   3.746   6.100   5.144
 2799SOL    HW1 9296   3.811   6.122   5.071
 2799SOL    HW2 9297   3.751   6.002   5.165
 2800SOL     OW 9298   5.820   0.080   6.538
 2800SOL    HW1 9299   5.816   0.180   6.539
 2800SOL    HW2 9300   5.803   0.047   6.445
 2801SOL     OW 9301   0.772   4.868   4.808
 2801SOL    HW1 9302   0.870   4.862   4.788
 2801SOL    HW2 9303   0.722   4.887   4.724
 2802SOL     OW 9304   1.703   5.293   5.241
 2802SOL    HW1 9305   1.797   5.264   5.263
 2802SOL    HW2 9306   1.682   5.376   5.293
 2803SOL     OW 9307   3.543   2.121   5.879
 2803SOL    HW1 9308   3.472   2.056   5.850
 2803SOL    HW2 9309   3.522   2.154   5.972
 2804SOL     OW 9310   0.353   2.563   4.028
 2804SOL    HW1 9311   0.267   2.529   4.066
 2804SOL    HW2 9312   0.334   2.636   3.962
 2805SOL     OW 9313   3.662   3.216   0.969
 2805SOL    HW1 9314   3.756   3.242   0.948
 2805SOL    HW2 9315   3.628   3.270   1.045
 2806SOL     OW 9316   0.482   4.289   6.188
 2806SOL    HW1 9317   0.475   4.329   6.279
 2806SOL    HW2 9318   0.503   4.361   6.122
 2807SOL     OW 9319   3.909   0.353   3.844
 2807SOL    HW1 9320   3.986   0.341   3.907
 2807SOL    HW2 9321   3.881   0.263   3.809
 2808SOL     OW 9322   0.192   5.387   5.598
 2808SOL    HW1 9323   0.176   5.307   5.540
 2808SOL    HW2 9324   0.113   5.448   5.592
 2809SOL     OW 9325   0.033   5.419   1.791
 2809SOL    HW1 9326   0.130   5.433   1.772
 2809SOL    HW2 9327   0.009   5.463   1.877
 2810SOL     OW 9328   2.479   6.679   2.988
 2810SOL    HW1 9329   2.547   6.752   2.991
 2810SOL    HW2 9330   2.396   6.709   3.035
 2811SOL     OW 9331   1.210   1.298   1.312
 2811SOL    HW1 9332   1.278   1.248   1.365
 2811SOL    HW2 9333   1.188   1.246   1.229
 2812SOL     OW 9334   0.631   1.803   0.815
 2812SOL    HW1 9335   0.710   1.772   0.867
 2812SOL    HW2 9336   0.624   1.902   0.820
 2813SOL     OW 9337   0.951   2.820   1.136
 2813SOL    HW1 9338   0.951   2.750   1.065
 2813SOL    HW2 9339   1.032   2.878   1.127
 2814SOL     OW 9340   2.486   4.554   0.411
 2814SOL    HW1 9341   2.528   4.479   0.462
 2814SOL    HW2 9342   2.418   4.518   0.348
 2815SOL     OW 9343   0.674   5.172   4.880
 2815SOL    HW1 9344   0.677   5.086   4.930
 2815SOL    HW2 9345   0.679   5.248   4.944
 2816SOL     OW 9346   1.026   6.225   5.549
 2816SOL    HW1 9347   1.047   6.145   5.493
 2816SOL    HW2 9348   1.102   6.242   5.612
 2817SOL     OW 9349   4.354   0.659   2.420
 2817SOL    HW1 9350   4.427   0.593   2.411
 2817SOL    HW2 9351   4.346   0.713   2.336
 2818SOL     OW 9352   1.767   0.316   0.386
 2818SOL    HW1 9353   1.735   0.253   0.456
 2818SOL    HW2 9354   1.710   0.398   0.386
 2819SOL     OW 9355   0.753   0.388   0.222
 2819SOL    HW1 9356   0.810   0.358   0.299
 2819SOL    HW2 9357   0.805   0.378   0.137
 2820SOL     OW 9358   1.696   2.629   0.052
 2820SOL    HW1 9359   1.696   2.715   0.001
 2820SOL    HW2 9360   1.757   2.638   0.131
 2821SOL     OW 9361   3.178   3.248   6.178
 2821SOL    HW1 9362   3.231   3.299   6.246
 2821SOL    HW2 9363   3.084   3.281   6.176
 2822SOL     OW 9364   4.453   2.438   0.599
 2822SOL    HW1 9365   4.378   2.499   0.575
 2822SOL    HW2 9366   4.531   2.492   0.633
 2823SOL     OW 9367   5.008   2.278   1.835
 2823SOL    HW1 9368   5.062   2.278   1.920
 2823SOL    HW2 9369   5.064   2.242   1.760
 2824SOL     OW 9370   1.264   3.584   4.663
 2824SOL    HW1 9371   1.254   3.591   4.563
 2824SOL    HW2 9372   1.244   3.491   4.692
 2825SOL     OW 9373   5.318   2.044   6.005
 2825SOL    HW1 9374   5.275   2.111   5.945
 2825SOL    HW2 9375   5.255   1.968   6.021
 2826SOL     OW 9376   2.505   2.474   6.641
 2826SOL    HW1 9377   2.593   2.521   6.644
 2826SOL    HW2 9378   2.511   2.390   6.694
 2827SOL     OW 9379   5.996   1.035   6.532
 2827SOL    HW1 9380   6.089   1.073   6.530
 2827SOL    HW2 9381   5.952   1.062   6.618
 2828SOL     OW 9382   1.951   3.889   0.961
 2828SOL    HW1 9383   1.936   3.982   0.926
 2828SOL    HW2 9384   1.881   3.829   0.923
 2829SOL     OW 9385   2.965   3.825   2.263
 2829SOL    HW1 9386   2.970   3.778   2.351
 2829SOL    HW2 9387   3.020   3.908   2.266
 2830SOL     OW 9388   3.334   5.646   5.294
 2830SOL    HW1 9389   3.254   5.618   5.241
 2830SOL    HW2 9390   3.340   5.746   5.295
 2831SOL     OW 9391   5.741   1.797   1.851
 2831SOL    HW1 9392   5.750   1.871   1.918
 2831SOL    HW2 9393   5.775   1.712   1.891
 2832SOL     OW 9394   0.805   3.926   1.984
 2832SOL    HW1 9395   0.841   3.958   1.897
 2832SOL    HW2 9396   0.876   3.934   2.054
 2833SOL     OW 9397   1.885   2.737   1.983
 2833SOL    HW1 9398   1.934   2.666   2.033
 2833SOL    HW2 9399   1.937   2.761   1.900
 2834SOL     OW 9400   3.333   5.910   5.244
 2834SOL    HW1 9401   3.319   5.973   5.320
 2834SOL    HW2 9402   3.391   5.953   5.175
 2835SOL     OW 9403   6.928   0.779   0.484
 2835SOL    HW1 9404   6.983   0.697   0.466
 2835SOL    HW2 9405   6.891   0.775   0.576
 2836SOL     OW 9406   3.705   5.939   2.214
 2836SOL    HW1 9407   3.615   5.929   2.171
 2836SOL    HW2 9408   3.700   5.909   2.309
 2837SOL     OW 9409   5.242   4.352   1.716
 2837SOL    HW1 9410   5.322   4.292   1.712
 2837SOL    HW2 9411   5.185   4.338   1.635
 2838SOL     OW 9412   5.840   4.797   6.371
 2838SOL    HW1 9413   5.755   4.813   6.421
 2838SOL    HW2 9414   5.876   4.707   6.393
 2839SOL     OW 9415   6.411   3.159   4.765
 2839SOL    HW1 9416   6.461   3.244   4.781
 2839SOL    HW2 9417   6.472   3.081   4.782
 2840SOL     OW 9418   6.968   6.398   3.964
 2840SOL    HW1 9419   7.002   6.304   3.960
 2840SOL    HW2 9420   6.983   6.435   4.055
 2841SOL     OW 9421   6.046   4.055   2.359
 2841SOL    HW1 9422   5.949   4.064   2.380
 2841SOL    HW2 9423   6.100   4.097   2.431
 2842SOL     OW 9424   1.369   0.182   3.528
 2842SOL    HW1 9425   1.309   0.253   3.564
 2842SOL    HW2 9426   1.441   0.162   3.594
 2843SOL     OW 9427   2.097   2.589   3.771
 2843SOL    HW1 9428   2.128   2.497   3.792
 2843SOL    HW2 9429   2.043   2.624   3.848
 2844SOL     OW 9430   5.107   3.891   6.964
 2844SOL    HW1 9431   5.104   3.948   0.029
 2844SOL    HW2 9432   5.073   3.943   6.886
 2845SOL     OW 9433   3.219   1.801   2.990
 2845SOL    HW1 9434   3.246   1.897   2.985
 2845SOL    HW2 9435   3.149   1.790   3.061
 2846SOL     OW 9436   6.309   0.090   6.943
 2846SOL    HW1 9437   6.409   0.082   6.947
 2846SOL    HW2 9438   6.267   0.005   6.975
 2847SOL     OW 9439   4.664   4.405   1.785
 2847SOL    HW1 9440   4.619   4.351   1.856
 2847SOL    HW2 9441   4.679   4.348   1.705
 2848SOL     OW 9442   0.447   4.130   5.422
 2848SOL    HW1 9443   0.517   4.122   5.493
 2848SOL    HW2 9444   0.490   4.131   5.332
 2849SOL     OW 9445   4.686   0.308   1.694
 2849SOL    HW1 9446   4.760   0.251   1.659
 2849SOL    HW2 9447   4.714   0.349   1.781
 2850SOL     OW 9448   2.010   0.529   1.995
 2850SOL    HW1 9449   2.086   0.592   1.978
 2850SOL    HW2 9450   1.959   0.559   2.076
 2851SOL     OW 9451   3.655   2.951   1.624
 2851SOL    HW1 9452   3.564   2.930   1.659
 2851SOL    HW2 9453   3.724   2.921   1.689
 2852SOL     OW 9454   6.433   4.633   6.588
 2852SOL    HW1 9455   6.521   4.645   6.542
 2852SOL    HW2 9456   6.360   4.633   6.520
 2853SOL     OW 9457   6.926   4.347   5.682
 2853SOL    HW1 9458   6.889   4.259   5.713
 2853SOL    HW2 9459   6.960   4.337   5.588
 2854SOL     OW 9460   4.113   0.581   5.437
 2854SOL    HW1 9461   4.177   0.606   5.365
 2854SOL    HW2 9462   4.020   0.580   5.401
 2855SOL     OW 9463   2.264   2.136   5.355
 2855SOL    HW1 9464   2.266   2.230   5.390
 2855SOL    HW2 9465   2.170   2.101   5.360
 2856SOL     OW 9466   1.019   4.916   4.133
 2856SOL    HW1 9467   1.008   5.007   4.172
 2856SOL    HW2 9468   1.009   4.922   4.033
 2857SOL     OW 9469   6.764   4.505   1.020
 2857SOL    HW1 9470   6.760   4.413   0.981
 2857SOL    HW2 9471   6.732   4.502   1.115
 2858SOL     OW 9472   4.751   4.753   2.410
 2858SOL    HW1 9473   4.690   4.708   2.344
 2858SOL    HW2 9474   4.846   4.734   2.385
 2859SOL     OW 9475   5.226   4.833   0.680
 2859SOL    HW1 9476   5.187   4.907   0.735
 2859SOL    HW2 9477   5.230   4.749   0.734
 2860SOL     OW 9478   0.887   0.056   2.244
 2860SOL    HW1 9479   0.838   0.121   2.186
 2860SOL    HW2 9480   0.823   0.013   2.308
 2861SOL     OW 9481   4.641   4.971   5.774
 2861SOL    HW1 9482   4.669   4.911   5.698
 2861SOL    HW2 9483   4.552   4.942   5.808
 2862SOL     OW 9484   4.146   2.668   0.275
 2862SOL    HW1 9485   4.070   2.607   0.300
 2862SOL    HW2 9486   4.154   2.672   0.175
 2863SOL     OW 9487   6.156   0.750   5.199
 2863SOL    HW1 9488   6.118   0.834   5.238
 2863SOL    HW2 9489   6.177   0.765   5.102
 2864SOL     OW 9490   3.762   4.834   0.191
 2864SOL    HW1 9491   3.702   4.817   0.113
 2864SOL    HW2 9492   3.856   4.842   0.160
 2865SOL     OW 9493   5.583   5.162   4.746
 2865SOL    HW1 9494   5.486   5.172   4.768
 2865SOL    HW2 9495   5.628   5.250   4.757
 2866SOL     OW 9496   4.455   4.317   0.741
 2866SOL    HW1 9497   4.520   4.272   0.680
 2866SOL    HW2 9498   4.389   4.250   0.776
 2867SOL     OW 9499   5.220   6.274   1.802
 2867SOL    HW1 9500   5.256   6.254   1.893
 2867SOL    HW2 9501   5.148   6.209   1.779
 2868SOL     OW 9502   1.269   0.693   5.209
 2868SOL    HW1 9503   1.213   0.612   5.229
 2868SOL    HW2 9504   1.350   0.665   5.158
 2869SOL     OW 9505   6.312   5.437   4.513
 2869SOL    HW1 9506   6.384   5.390   4.565
 2869SOL    HW2 9507   6.226   5.386   4.522
 2870SOL     OW 9508   6.845   2.239   2.043
 2870SOL    HW1 9509   6.887   2.199   1.962
 2870SOL    HW2 9510   6.910   2.238   2.118
 2871SOL     OW 9511   5.449   1.914   2.463
 2871SOL    HW1 9512   5.508   1.840   2.431
 2871SOL    HW2 9513   5.482   1.949   2.550
 2872SOL     OW 9514   2.915   2.200   2.434
 2872SOL    HW1 9515   2.949   2.212   2.341
 2872SOL    HW2 9516   2.882   2.287   2.469
 2873SOL     OW 9517   0.915   6.973   0.981
 2873SOL    HW1 9518   0.959   6.918   1.052
 2873SOL    HW2 9519   0.853   6.915   0.928
 2874SOL     OW 9520   2.888   1.206   3.093
 2874SOL    HW1 9521   2.821   1.243   3.157
 2874SOL    HW2 9522   2.863   1.112   3.070
 2875SOL     OW 9523   2.042   6.819   2.622
 2875SOL    HW1 9524   2.097   6.881   2.677
 2875SOL    HW2 9525   1.963   6.789   2.675
 2876SOL     OW 9526   1.506   0.375   2.251
 2876SOL    HW1 9527   1.424   0.321   2.231
 2876SOL    HW2 9528   1.544   0.410   2.166
 2877SOL     OW 9529   1.459   2.498   6.738
 2877SOL    HW1 9530   1.525   2.573   6.728
 2877SOL    HW2 9531   1.458   2.468   6.833
 2878SOL     OW 9532   3.936   3.006   4.068
 2878SOL    HW1 9533   4.019   2.952   4.053
 2878SOL    HW2 9534   3.910   2.999   4.165
 2879SOL     OW 9535   4.588   4.081   0.325
 2879SOL    HW1 9536   4.502   4.036   0.299
 2879SOL    HW2 9537   4.653   4.074   0.250
 2880SOL     OW 9538   2.317   1.010   3.515
 2880SOL    HW1 9539   2.296   1.101   3.550
 2880SOL    HW2 9540   2.264   0.942   3.566
 2881SOL     OW 9541   4.519   5.809   7.007
 2881SOL    HW1 9542   4.579   5.730   6.998
 2881SOL    HW2 9543   4.568   5.891   6.976
 2882SOL     OW 9544   4.838   6.182   0.248
 2882SOL    HW1 9545   4.813   6.118   0.320
 2882SOL    HW2 9546   4.838   6.275   0.285
 2883SOL     OW 9547   5.821   5.805   4.012
 2883SOL    HW1 9548   5.731   5.761   4.018
 2883SOL    HW2 9549   5.857   5.795   3.919
 2884SOL     OW 9550   6.526   5.223   4.326
 2884SOL    HW1 9551   6.593   5.288   4.292
 2884SOL    HW2 9552   6.552   5.131   4.297
 2885SOL     OW 9553   1.168   2.263   3.492
 2885SOL    HW1 9554   1.227   2.242   3.569
 2885SOL    HW2 9555   1.223   2.266   3.408
 2886SOL     OW 9556   2.358   4.428   5.782
 2886SOL    HW1 9557   2.287   4.393   5.721
 2886SOL    HW2 9558   2.437   4.456   5.729
 2887SOL     OW 9559   0.408   5.962   3.023
 2887SOL    HW1 9560   0.337   5.933   3.088
 2887SOL    HW2 9561   0.370   5.965   2.931
 2888SOL     OW 9562   6.006   6.799   6.909
 2888SOL    HW1 9563   6.037   6.730   6.844
 2888SOL    HW2 9564   5.929   6.849   6.869
 2889SOL     OW 9565   3.449   6.485   2.346
 2889SOL    HW1 9566   3.482   6.563   2.400
 2889SOL    HW2 9567   3.414   6.415   2.408
 2890SOL     OW 9568   1.147   1.542   1.659
 2890SOL    HW1 9569   1.166   1.639   1.676
 2890SOL    HW2 9570   1.231   1.489   1.675
 2891SOL     OW 9571   0.517   2.644   4.447
 2891SOL    HW1 9572   0.551   2.687   4.364
 2891SOL    HW2 9573   0.545   2.548   4.449
 2892SOL     OW 9574   6.129   4.095   2.615
 2892SOL    HW1 9575   6.119   4.127   2.709
 2892SOL    HW2 9576   6.133   3.995   2.614
 2893SOL     OW 9577   6.490   5.572   4.898
 2893SOL    HW1 9578   6.409   5.520   4.872
 2893SOL    HW2 9579   6.569   5.512   4.903
 2894SOL     OW 9580   2.112   6.053   2.275
 2894SOL    HW1 9581   2.150   6.134   2.320
 2894SOL    HW2 9582   2.056   6.002   2.340
 2895SOL     OW 9583   4.338   6.814   6.464
 2895SOL    HW1 9584   4.324   6.897   6.411
 2895SOL    HW2 9585   4.327   6.734   6.404
 2896SOL     OW 9586   5.888   6.240   4.931
 2896SOL    HW1 9587   5.824   6.235   5.008
 2896SOL    HW2 9588   5.894   6.151   4.886
 2897SOL     OW 9589   3.917   4.801   3.187
 2897SOL    HW1 9590   3.951   4.891   3.214
 2897SOL    HW2 9591   3.910   4.796   3.087
 2898SOL     OW 9592   5.235   2.769   2.473
 2898SOL    HW1 9593   5.331   2.797   2.470
 2898SOL    HW2 9594   5.203   2.748   2.381
 2899SOL     OW 9595   6.901   4.060   0.929
 2899SOL    HW1 9596   6.845   4.143   0.918
 2899SOL    HW2 9597   6.863   4.005   1.004
 2900SOL     OW 9598   2.331   2.811   6.084
 2900SOL    HW1 9599   2.365   2.802   5.990
 2900SOL    HW2 9600   2.375   2.743   6.142
 2901SOL     OW 9601   1.124   4.183   3.397
 2901SOL    HW1 9602   1.038   4.147   3.362
 2901SOL    HW2 9603   1.175   4.109   3.441
 2902SOL     OW 9604   6.963   6.041   3.595
 2902SOL    HW1 9605   0.039   6.035   3.629
 2902SOL    HW2 9606   6.952   6.125   3.542
 2903SOL     OW 9607   4.722   4.913   0.365
 2903SOL    HW1 9608   4.712   5.001   0.319
 2903SOL    HW2 9609   4.649   4.902   0.433
 2904SOL     OW 9610   2.587   4.113   5.393
 2904SOL    HW1 9611   2.674   4.132   5.348
 2904SOL    HW2 9612   2.536   4.045   5.339
 2905SOL     OW 9613   1.116   6.011   1.601
 2905SOL    HW1 9614   1.025   6.047   1.622
 2905SOL    HW2 9615   1.112   5.958   1.516
 2906SOL     OW 9616   6.647   6.261   4.048
 2906SOL    HW1 9617   6.567   6.202   4.049
 2906SOL    HW2 9618   6.688   6.261   3.957
 2907SOL     OW 9619   0.771   0.927   4.200
 2907SOL    HW1 9620   0.675   0.944   4.177
 2907SOL    HW2 9621   0.828   1.001   4.163
 2908SOL     OW 9622   4.085   6.573   2.861
 2908SOL    HW1 9623   4.178   6.610   2.867
 2908SOL    HW2 9624   4.087   6.475   2.883
 2909SOL     OW 9625   0.462   6.562   1.585
 2909SOL    HW1 9626   0.482   6.470   1.549
 2909SOL    HW2 9627   0.440   6.555   1.682
 2910SOL     OW 9628   6.930   0.817   4.084
 2910SOL    HW1 9629   7.013   0.802   4.030
 2910SOL    HW2 9630   6.922   0.913   4.107
 2911SOL     OW 9631   0.048   4.741   5.320
 2911SOL    HW1 9632   0.077   4.735   5.416
 2911SOL    HW2 9633   0.086   4.665   5.268
 2912SOL     OW 9634   0.670   1.199   1.671
 2912SOL    HW1 9635   0.689   1.274   1.608
 2912SOL    HW2 9636   0.748   1.137   1.676
 2913SOL     OW 9637   2.868   0.012   1.506
 2913SOL    HW1 9638   2.863   0.111   1.491
 2913SOL    HW2 9639   2.779   6.989   1.486
 2914SOL     OW 9640   4.241   5.138   0.993
 2914SOL    HW1 9641   4.328   5.184   1.010
 2914SOL    HW2 9642   4.247   5.085   0.908
 2915SOL     OW 9643   2.156   0.519   2.431
 2915SOL    HW1 9644   2.118   0.603   2.468
 2915SOL    HW2 9645   2.191   0.462   2.505
 2916SOL     OW 9646   1.495   6.635   0.308
 2916SOL    HW1 9647   1.441   6.717   0.329
 2916SOL    HW2 9648   1.587   6.646   0.346
 2917SOL     OW 9649   2.639   6.115   3.760
 2917SOL    HW1 9650   2.639   6.213   3.736
 2917SOL    HW2 9651   2.565   6.097   3.824
 2918SOL     OW 9652   4.900   2.493   1.703
 2918SOL    HW1 9653   4.962   2.428   1.747
 2918SOL    HW2 9654   4.900   2.579   1.754
 2919SOL     OW 9655   1.015   5.641   4.916
 2919SOL    HW1 9656   1.076   5.644   4.837
 2919SOL    HW2 9657   1.018   5.728   4.965
 2920SOL     OW 9658   1.263   2.680   2.597
 2920SOL    HW1 9659   1.282   2.681   2.499
 2920SOL    HW2 9660   1.314   2.753   2.642
 2921SOL     OW 9661   1.150   6.572   3.644
 2921SOL    HW1 9662   1.180   6.664   3.618
 2921SOL    HW2 9663   1.162   6.560   3.743
 2922SOL     OW 9664   3.472   6.623   3.583
 2922SOL    HW1 9665   3.479   6.675   3.668
 2922SOL    HW2 9666   3.394   6.560   3.590
 2923SOL     OW 9667   6.374   6.037   5.078
 2923SOL    HW1 9668   6.409   5.995   4.994
 2923SOL    HW2 9669   6.392   5.976   5.156
 2924SOL     OW 9670   6.012   1.956   4.840
 2924SOL    HW1 9671   5.942   1.997   4.781
 2924SOL    HW2 9672   6.055   2.027   4.896
 2925SOL     OW 9673   4.889   6.302   5.932
 2925SOL    HW1 9674   4.955   6.339   5.998
 2925SOL    HW2 9675   4.826   6.374   5.903
 2926SOL     OW 9676   6.744   3.175   4.257
 2926SOL    HW1 9677   6.653   3.166   4.215
 2926SOL    HW2 9678   6.745   3.126   4.344
 2927SOL     OW 9679   0.748   2.036   1.885
 2927SOL    HW1 9680   0.835   1.986   1.897
 2927SOL    HW2 9681   0.728   2.088   1.968
 2928SOL     OW 9682   6.720   2.992   0.177
 2928SOL    HW1 9683   6.767   3.079   0.189
 2928SOL    HW2 9684   6.732   2.936   0.259
 2929SOL     OW 9685   2.427   2.271   4.329
 2929SOL    HW1 9686   2.348   2.312   4.374
 2929SOL    HW2 9687   2.475   2.341   4.277
 2930SOL     OW 9688   0.139   4.102   4.338
 2930SOL    HW1 9689   0.137   4.202   4.347
 2930SOL    HW2 9690   0.200   4.077   4.263
 2931SOL     OW 9691   4.871   3.736   5.574
 2931SOL    HW1 9692   4.877   3.797   5.496
 2931SOL    HW2 9693   4.950   3.749   5.633
 2932SOL     OW 9694   6.360   5.342   0.656
 2932SOL    HW1 9695   6.301   5.422   0.654
 2932SOL    HW2 9696   6.416   5.344   0.739
 2933SOL     OW 9697   1.169   0.434   0.232
 2933SOL    HW1 9698   1.233   0.460   0.304
 2933SOL    HW2 9699   1.168   0.505   0.162
 2934SOL     OW 9700   3.666   4.641   0.359
 2934SOL    HW1 9701   3.694   4.723   0.310
 2934SOL    HW2 9702   3.566   4.641   0.371
 2935SOL     OW 9703   0.257   2.082   6.490
 2935SOL    HW1 9704   0.270   2.008   6.425
 2935SOL    HW2 9705   0.237   2.167   6.442
 2936SOL     OW 9706   4.806   6.197   0.848
 2936SOL    HW1 9707   4.856   6.256   0.911
 2936SOL    HW2 9708   4.854   6.192   0.761
 2937SOL     OW 9709   5.185   4.552   2.719
 2937SOL    HW1 9710   5.208   4.599   2.634
 2937SOL    HW2 9711   5.103   4.594   2.759
 2938SOL     OW 9712   6.995   5.525   6.472
 2938SOL    HW1 9713   6.937   5.571   6.405
 2938SOL    HW2 9714   0.071   5.561   6.467
 2939SOL     OW 9715   0.111   6.432   1.677
 2939SOL    HW1 9716   0.200   6.466   1.708
 2939SOL    HW2 9717   0.087   6.476   1.590
 2940SOL     OW 9718   4.000   6.590   3.528
 2940SOL    HW1 9719   3.904   6.566   3.545
 2940SOL    HW2 9720   4.029   6.660   3.593
 2941SOL     OW 9721   2.000   4.437   3.631
 2941SOL    HW1 9722   2.042   4.520   3.667
 2941SOL    HW2 9723   1.904   4.456   3.608
 2942SOL     OW 9724   3.658   1.527   1.056
 2942SOL    HW1 9725   3.745   1.573   1.039
 2942SOL    HW2 9726   3.583   1.591   1.043
 2943SOL     OW 9727   5.839   3.829   2.924
 2943SOL    HW1 9728   5.868   3.841   2.829
 2943SOL    HW2 9729   5.894   3.757   2.966
 2944SOL     OW 9730   2.189   6.294   2.410
 2944SOL    HW1 9731   2.195   6.367   2.340
 2944SOL    HW2 9732   2.115   6.316   2.474
 2945SOL     OW 9733   5.105   4.195   1.207
 2945SOL    HW1 9734   5.113   4.215   1.109
 2945SOL    HW2 9735   5.009   4.183   1.231
 2946SOL     OW 9736   3.986   3.680   5.303
 2946SOL    HW1 9737   3.893   3.691   5.270
 2946SOL    HW2 9738   3.988   3.688   5.402
 2947SOL     OW 9739   6.321   6.819   0.750
 2947SOL    HW1 9740   6.338   6.726   0.781
 2947SOL    HW2 9741   6.226   6.827   0.719
 2948SOL     OW 9742   6.819   3.812   1.917
 2948SOL    HW1 9743   6.871   3.785   1.998
 2948SOL    HW2 9744   6.786   3.905   1.928
 2949SOL     OW 9745   1.171   6.611   0.678
 2949SOL    HW1 9746   1.181   6.702   0.719
 2949SOL    HW2 9747   1.078   6.600   0.644
 2950SOL     OW 9748   5.954   5.050   3.349
 2950SOL    HW1 9749   6.051   5.039   3.373
 2950SOL    HW2 9750   5.913   5.120   3.407
 2951SOL     OW 9751   6.640   1.426   1.924
 2951SOL    HW1 9752   6.668   1.353   1.861
 2951SOL    HW2 9753   6.554   1.401   1.967
 2952SOL     OW 9754   6.477   1.820   4.852
 2952SOL    HW1 9755   6.382   1.789   4.842
 2952SOL    HW2 9756   6.502   1.822   4.949
 2953SOL     OW 9757   1.169   5.343   4.205
 2953SOL    HW1 9758   1.077   5.311   4.228
 2953SOL    HW2 9759   1.185   5.331   4.107
 2954SOL     OW 9760   0.026   4.568   5.953
 2954SOL    HW1 9761   6.948   4.557   5.924
 2954SOL    HW2 9762   0.070   4.478   5.958
 2955SOL     OW 9763   1.750   3.910   6.141
 2955SOL    HW1 9764   1.727   3.815   6.159
 2955SOL    HW2 9765   1.697   3.943   6.062
 2956SOL     OW 9766   5.595   5.115   3.722
 2956SOL    HW1 9767   5.533   5.193   3.716
 2956SOL    HW2 9768   5.577   5.052   3.647
 2957SOL     OW 9769   2.137   5.023   0.837
 2957SOL    HW1 9770   2.185   5.028   0.925
 2957SOL    HW2 9771   2.186   4.960   0.776
 2958SOL     OW 9772   1.513   5.545   2.701
 2958SOL    HW1 9773   1.561   5.615   2.648
 2958SOL    HW2 9774   1.560   5.457   2.690
 2959SOL     OW 9775   6.738   3.637   2.712
 2959SOL    HW1 9776   6.785   3.722   2.688
 2959SOL    HW2 9777   6.678   3.653   2.791
 2960SOL     OW 9778   5.535   0.197   0.632
 2960SOL    HW1 9779   5.514   0.231   0.540
 2960SOL    HW2 9780   5.489   0.254   0.700
 2961SOL     OW 9781   5.664   3.518   2.157
 2961SOL    HW1 9782   5.636   3.566   2.240
 2961SOL    HW2 9783   5.636   3.570   2.077
 2962SOL     OW 9784   6.835   0.296   3.377
 2962SOL    HW1 9785   6.771   0.308   3.301
 2962SOL    HW2 9786   6.864   0.201   3.382
 2963SOL     OW 9787   1.959   1.039   5.326
 2963SOL    HW1 9788   1.890   0.967   5.325
 2963SOL    HW2 9789   1.929   1.115   5.384
 2964SOL     OW 9790   1.132   1.384   6.716
 2964SOL    HW1 9791   1.115   1.328   6.635
 2964SOL    HW2 9792   1.049   1.434   6.740
 2965SOL     OW 9793   6.967   6.648   5.220
 2965SOL    HW1 9794   7.000   6.672   5.311
 2965SOL    HW2 9795   6.867   6.641   5.221
 2966SOL     OW 9796   3.192   5.606   2.343
 2966SOL    HW1 9797   3.183   5.695   2.299
 2966SOL    HW2 9798   3.164   5.613   2.439
 2967SOL     OW 9799   5.257   0.453   4.499
 2967SOL    HW1 9800   5.209   0.535   4.469
 2967SOL    HW2 9801   5.195   0.374   4.495
 2968SOL     OW 9802   1.838   3.744   1.547
 2968SOL    HW1 9803   1.875   3.665   1.498
 2968SOL    HW2 9804   1.748   3.722   1.583
 2969SOL     OW 9805   5.091   3.349   5.218
 2969SOL    HW1 9806   5.080   3.318   5.313
 2969SOL    HW2 9807   5.062   3.444   5.210
 2970SOL     OW 9808   2.815   1.688   4.632
 2970SOL    HW1 9809   2.765   1.602   4.634
 2970SOL    HW2 9810   2.865   1.700   4.718
 2971SOL     OW 9811   5.403   2.873   6.202
 2971SOL    HW1 9812   5.465   2.871   6.123
 2971SOL    HW2 9813   5.323   2.928   6.180
 2972SOL     OW 9814   6.022   5.574   0.350
 2972SOL    HW1 9815   5.977   5.515   0.417
 2972SOL    HW2 9816   6.037   5.522   0.265
 2973SOL     OW 9817   4.296   1.037   3.376
 2973SOL    HW1 9818   4.261   1.066   3.288
 2973SOL    HW2 9819   4.360   1.105   3.412
 2974SOL     OW 9820   4.571   6.815   2.196
 2974SOL    HW1 9821   4.481   6.826   2.239
 2974SOL    HW2 9822   4.584   6.886   2.127
 2975SOL     OW 9823   4.745   4.254   4.154
 2975SOL    HW1 9824   4.696   4.229   4.237
 2975SOL    HW2 9825   4.808   4.181   4.129
 2976SOL     OW 9826   4.432   1.318   2.348
 2976SOL    HW1 9827   4.402   1.402   2.302
 2976SOL    HW2 9828   4.388   1.239   2.305
 2977SOL     OW 9829   1.406   0.833   1.434
 2977SOL    HW1 9830   1.318   0.801   1.397
 2977SOL    HW2 9831   1.413   0.807   1.530
 2978SOL     OW 9832   4.503   5.174   6.732
 2978SOL    HW1 9833   4.517   5.226   6.647
 2978SOL    HW2 9834   4.581   5.113   6.746
 2979SOL     OW 9835   3.134   0.869   4.014
 2979SOL    HW1 9836   3.162   0.801   3.946
 2979SOL    HW2 9837   3.209   0.883   4.079
 2980SOL     OW 9838   3.731   3.662   5.216
 2980SOL    HW1 9839   3.633   3.684   5.217
 2980SOL    HW2 9840   3.754   3.617   5.130
 2981SOL     OW 9841   1.877   1.336   1.572
 2981SOL    HW1 9842   1.896   1.401   1.646
 2981SOL    HW2 9843   1.926   1.250   1.589
 2982SOL     OW 9844   1.395   0.267   1.001
 2982SOL    HW1 9845   1.481   0.300   1.041
 2982SOL    HW2 9846   1.388   0.299   0.907
 2983SOL     OW 9847   6.401   3.515   5.580
 2983SOL    HW1 9848   6.443   3.602   5.608
 2983SOL    HW2 9849   6.348   3.478   5.656
 2984SOL     OW 9850   0.615   5.361   1.480
 2984SOL    HW1 9851   0.625   5.370   1.381
 2984SOL    HW2 9852   0.540   5.419   1.512
 2985SOL     OW 9853   0.105   6.815   5.752
 2985SOL    HW1 9854   0.136   6.910   5.764
 2985SOL    HW2 9855   0.148   6.776   5.670
 2986SOL     OW 9856   3.341   3.635   2.148
 2986SOL    HW1 9857   3.400   3.559   2.176
 2986SOL    HW2 9858   3.341   3.704   2.220
 2987SOL     OW 9859   1.867   6.418   5.206
 2987SOL    HW1 9860   1.915   6.498   5.240
 2987SOL    HW2 9861   1.802   6.444   5.135
 2988SOL     OW 9862   0.113   1.334   6.359
 2988SOL    HW1 9863   0.164   1.395   6.298
 2988SOL    HW2 9864   0.173   1.260   6.388
 2989SOL     OW 9865   4.939   3.196   4.467
 2989SOL    HW1 9866   5.003   3.265   4.433
 2989SOL    HW2 9867   4.929   3.205   4.566
 2990SOL     OW 9868   5.581   1.509   4.324
 2990SOL    HW1 9869   5.499   1.454   4.309
 2990SOL    HW2 9870   5.643   1.459   4.384
 2991SOL     OW 9871   0.814   4.166   0.887
 2991SOL    HW1 9872   0.826   4.265   0.899
 2991SOL    HW2 9873   0.835   4.141   0.793
 2992SOL     OW 9874   0.055   3.908   5.718
 2992SOL    HW1 9875   0.128   3.872   5.660
 2992SOL    HW2 9876   6.994   3.846   5.714
 2993SOL     OW 9877   2.245   3.261   1.064
 2993SOL    HW1 9878   2.226   3.320   1.143
 2993SOL    HW2 9879   2.320   3.299   1.011
 2994SOL     OW 9880   3.732   5.735   6.018
 2994SOL    HW1 9881   3.705   5.680   6.098
 2994SOL    HW2 9882   3.790   5.810   6.048
 2995SOL     OW 9883   4.990   1.138   0.603
 2995SOL    HW1 9884   4.925   1.214   0.603
 2995SOL    HW2 9885   4.971   1.078   0.525
 2996SOL     OW 9886   6.887   0.536   4.401
 2996SOL    HW1 9887   6.815   0.604   4.416
 2996SOL    HW2 9888   6.961   0.552   4.467
 2997SOL     OW 9889   5.116   6.237   4.364
 2997SOL    HW1 9890   5.200   6.277   4.400
 2997SOL    HW2 9891   5.041   6.303   4.375
 2998SOL     OW 9892   2.508   1.466   2.887
 2998SOL    HW1 9893   2.603   1.439   2.867
 2998SOL    HW2 9894   2.505   1.565   2.902
 2999SOL     OW 9895   3.138   3.721   0.861
 2999SOL    HW1 9896   3.150   3.635   0.911
 2999SOL    HW2 9897   3.226   3.752   0.825
 3000SOL     OW 9898   3.105   4.151   5.051
 3000SOL    HW1 9899   3.115   4.209   5.132
 3000SOL    HW2 9900   3.009   4.148   5.024
 3001SOL     OW 9901   5.637   0.854   5.664
 3001SOL    HW1 9902   5.641   0.869   5.763
 3001SOL    HW2 9903   5.627   0.756   5.646
 3002SOL     OW 9904   1.622   2.162   1.908
 3002SOL    HW1 9905   1.658   2.209   1.989
 3002SOL    HW2 9906   1.536   2.116   1.932
 3003SOL     OW 9907   1.837   6.395   0.225
 3003SOL    HW1 9908   1.913   6.390   0.160
 3003SOL    HW2 9909   1.796   6.486   0.221
 3004SOL     OW 9910   2.511   6.371   3.788
 3004SOL    HW1 9911   2.414   6.391   3.796
 3004SOL    HW2 9912   2.561   6.419   3.860
 3005SOL     OW 9913   0.996   1.922   6.982
 3005SOL    HW1 9914   1.052   1.902   0.045
 3005SOL    HW2 9915   0.933   1.997   7.002
 3006SOL     OW 9916   4.760   1.590   5.870
 3006SOL    HW1 9917   4.679   1.639   5.904
 3006SOL    HW2 9918   4.749   1.492   5.887
 3007SOL     OW 9919   5.083   5.530   0.103
 3007SOL    HW1 9920   5.058   5.531   0.007
 3007SOL    HW2 9921   5.183   5.525   0.112
 3008SOL     OW 9922   5.282   3.387   5.731
 3008SOL    HW1 9923   5.311   3.300   5.772
 3008SOL    HW2 9924   5.192   3.411   5.766
 3009SOL     OW 9925   0.459   3.406   1.850
 3009SOL    HW1 9926   0.470   3.321   1.799
 3009SOL    HW2 9927   0.362   3.421   1.869
 3010SOL     OW 9928   4.203   5.681   0.509
 3010SOL    HW1 9929   4.124   5.641   0.463
 3010SOL    HW2 9930   4.179   5.773   0.540
 3011SOL     OW 9931   6.622   0.564   1.315
 3011SOL    HW1 9932   6.589   0.621   1.239
 3011SOL    HW2 9933   6.685   0.494   1.279
 3012SOL     OW 9934   1.999   2.332   5.305
 3012SOL    HW1 9935   2.036   2.310   5.215
 3012SOL    HW2 9936   2.045   2.412   5.342
 3013SOL     OW 9937   1.173   4.539   5.255
 3013SOL    HW1 9938   1.188   4.473   5.181
 3013SOL    HW2 9939   1.223   4.623   5.236
 3014SOL     OW 9940   5.268   6.707   6.208
 3014SOL    HW1 9941   5.287   6.743   6.300
 3014SOL    HW2 9942   5.232   6.780   6.151
 3015SOL     OW 9943   1.238   1.064   6.707
 3015SOL    HW1 9944   1.294   1.097   6.783
 3015SOL    HW2 9945   1.295   1.054   6.625
 3016SOL     OW 9946   1.942   5.858   4.070
 3016SOL    HW1 9947   1.850   5.838   4.038
 3016SOL    HW2 9948   1.974   5.943   4.028
 3017SOL     OW 9949   1.115   4.848   0.434
 3017SOL    HW1 9950   1.067   4.936   0.426
 3017SOL    HW2 9951   1.157   4.841   0.524
 3018SOL     OW 9952   3.634   6.968   1.067
 3018SOL    HW1 9953   3.652   0.010   1.145
 3018SOL    HW2 9954   3.542   6.929   1.075
 3019SOL     OW 9955   2.009   0.929   6.006
 3019SOL    HW1 9956   2.059   1.006   6.046
 3019SOL    HW2 9957   2.000   0.856   6.074
 3020SOL     OW 9958   6.512   3.769   6.827
 3020SOL    HW1 9959   6.544   3.726   6.743
 3020SOL    HW2 9960   6.460   3.852   6.805
 3021SOL     OW 9961   4.334   0.318   5.066
 3021SOL    HW1 9962   4.315   0.323   4.968
 3021SOL    HW2 9963   4.312   0.227   5.100
 3022SOL     OW 9964   3.619   5.888   3.344
 3022SOL    HW1 9965   3.621   5.968   3.404
 3022SOL    HW2 9966   3.526   5.873   3.310
 3023SOL     OW 9967   4.859   5.833   4.314
 3023SOL    HW1 9968   4.853   5.741   4.275
 3023SOL    HW2 9969   4.793   5.893   4.268
 3024SOL     OW 9970   0.600   6.703   0.478
 3024SOL    HW1 9971   0.503   6.705   0.454
 3024SOL    HW2 9972   0.639   6.615   0.454
 3025SOL     OW 9973   4.047   5.280   0.489
 3025SOL    HW1 9974   4.134   5.297   0.536
 3025SOL    HW2 9975   3.972   5.294   0.554
 3026SOL     OW 9976   6.823   0.708   2.372
 3026SOL    HW1 9977   6.741   0.671   2.329
 3026SOL    HW2 9978   6.904   0.681   2.319
 3027SOL     OW 9979   4.411   0.808   0.610
 3027SOL    HW1 9980   4.388   0.864   0.689
 3027SOL    HW2 9981   4.446   0.719   0.641
 3028SOL     OW 9982   3.144   3.055   5.635
 3028SOL    HW1 9983   3.195   2.969   5.636
 3028SOL    HW2 9984   3.062   3.045   5.692
 3029SOL     OW 9985   0.272   3.213   4.301
 3029SOL    HW1 9986   0.316   3.136   4.347
 3029SOL    HW2 9987   0.175   3.193   4.288
 3030SOL     OW 9988   2.114   2.979   0.018
 3030SOL    HW1 9989   2.123   3.076   0.042
 3030SOL    HW2 9990   2.129   2.968   6.937
 3031SOL     OW 9991   0.948   6.023   0.576
 3031SOL    HW1 9992   0.901   5.957   0.518
 3031SOL    HW2 9993   0.994   6.091   0.518
 3032SOL     OW 9994   2.620   0.577   2.791
 3032SOL    HW1 9995   2.704   0.540   2.832
 3032SOL    HW2 9996   2.541   0.539   2.838
 3033SOL     OW 9997   0.379   1.418   5.007
 3033SOL    HW1 9998   0.461   1.445   4.955
 3033SOL    HW2 9999   0.342   1.498   5.054
 3034SOL     OW10000   6.285   4.709   3.178
 3034SOL    HW110001   6.192   4.720   3.214
 3034SOL    HW210002   6.350   4.711   3.254
 3035SOL     OW10003   0.553   2.872   0.673
 3035SOL    HW110004   0.552   2.861   0.573
 3035SOL    HW210005   0.616   2.944   0.698
 3036SOL     OW10006   3.256   2.262   5.488
 3036SOL    HW110007   3.249   2.283   5.390
 3036SOL    HW210008   3.311   2.179   5.501
 3037SOL     OW10009   0.754   5.891   0.017
 3037SOL    HW110010   0.723   5.953   6.963
 3037SOL    HW210011   0.794   5.943   0.092
 3038SOL     OW10012   6.074   4.574   6.392
 3038SOL    HW110013   6.171   4.557   6.374
 3038SOL    HW210014   6.037   4.501   6.449
 3039SOL     OW10015   6.781   3.440   6.425
 3039SOL    HW110016   6.782   3.342   6.445
 3039SOL    HW210017   6.834   3.458   6.343
 3040SOL     OW10018   5.388   4.600   5.939
 3040SOL    HW110019   5.348   4.631   6.026
 3040SOL    HW210020   5.454   4.528   5.956
 3041SOL     OW10021   1.504   4.712   5.738
 3041SOL    HW110022   1.423   4.762   5.709
 3041SOL    HW210023   1.495   4.615   5.713
 3042SOL     OW10024   6.925   5.128   3.884
 3042SOL    HW110025   6.967   5.206   3.837
 3042SOL    HW210026   6.953   5.043   3.839
 3043SOL     OW10027   2.752   5.153   0.609
 3043SOL    HW110028   2.778   5.162   0.705
 3043SOL    HW210029   2.709   5.064   0.594
 3044SOL     OW10030   3.872   3.770   4.361
 3044SOL    HW110031   3.832   3.733   4.277
 3044SOL    HW210032   3.950   3.713   4.388
 3045SOL     OW10033   4.021   1.870   2.344
 3045SOL    HW110034   4.073   1.954   2.329
 3045SOL    HW210035   4.012   1.855   2.443
 3046SOL     OW10036   5.297   6.331   1.004
 3046SOL    HW110037   5.336   6.257   0.949
 3046SOL    HW210038   5.284   6.300   1.098
 3047SOL     OW10039   5.950   1.476   4.981
 3047SOL    HW110040   5.927   1.402   4.917
 3047SOL    HW210041   5.920   1.450   5.073
 3048SOL     OW10042   3.722   4.574   0.887
 3048SOL    HW110043   3.708   4.632   0.967
 3048SOL    HW210044   3.686   4.620   0.805
 3049SOL     OW10045   1.058   1.427   2.821
 3049SOL    HW110046   1.087   1.429   2.916
 3049SOL    HW210047   0.958   1.434   2.816
 3050SOL     OW10048   3.577   2.078   0.480
 3050SOL    HW110049   3.503   2.038   0.534
 3050SOL    HW210050   3.633   2.005   0.442
 3051SOL     OW10051   2.289   5.093   5.556
 3051SOL    HW110052   2.341   5.012   5.582
 3051SOL    HW210053   2.193   5.080   5.582
 3052SOL     OW10054   0.039   6.919   2.370
 3052SOL    HW110055   6.980   6.856   2.356
 3052SOL    HW210056   0.101   6.915   2.292
 3053SOL     OW10057   1.310   4.092   0.546
 3053SOL    HW110058   1.350   4.163   0.603
 3053SOL    HW210059   1.277   4.017   0.604
 3054SOL     OW10060   5.385   0.773   2.490
 3054SOL    HW110061   5.353   0.681   2.466
 3054SOL    HW210062   5.464   0.796   2.434
 3055SOL     OW10063   5.926   6.322   6.434
 3055SOL    HW110064   5.855   6.356   6.373
 3055SOL    HW210065   5.954   6.231   6.404
 3056SOL     OW10066   5.020   1.207   5.855
 3056SOL    HW110067   4.951   1.261   5.903
 3056SOL    HW210068   4.977   1.157   5.780
 3057SOL     OW10069   5.080   3.929   2.741
 3057SOL    HW110070   5.007   3.922   2.673
 3057SOL    HW210071   5.166   3.952   2.696
 3058SOL     OW10072   6.968   4.212   6.297
 3058SOL    HW110073   0.049   4.219   6.279
 3058SOL    HW210074   6.931   4.303   6.318
 3059SOL     OW10075   1.618   1.712   3.277
 3059SOL    HW110076   1.624   1.716   3.377
 3059SOL    HW210077   1.682   1.642   3.243
 3060SOL     OW10078   5.830   5.049   4.794
 3060SOL    HW110079   5.865   5.066   4.702
 3060SOL    HW210080   5.734   5.076   4.799
 3061SOL     OW10081   5.848   6.678   4.744
 3061SOL    HW110082   5.750   6.662   4.750
 3061SOL    HW210083   5.896   6.615   4.805
 3062SOL     OW10084   4.036   4.388   1.081
 3062SOL    HW110085   4.074   4.474   1.114
 3062SOL    HW210086   3.946   4.374   1.123
 3063SOL     OW10087   0.877   4.656   2.604
 3063SOL    HW110088   0.789   4.704   2.606
 3063SOL    HW210089   0.943   4.711   2.553
 3064SOL     OW10090   4.717   1.992   6.380
 3064SOL    HW110091   4.641   2.051   6.410
 3064SOL    HW210092   4.740   2.014   6.285
 3065SOL     OW10093   6.010   1.519   0.231
 3065SOL    HW110094   5.947   1.582   0.275
 3065SOL    HW210095   6.039   1.449   0.296
 3066SOL     OW10096   5.035   6.770   4.928
 3066SOL    HW110097   5.108   6.838   4.929
 3066SOL    HW210098   5.068   6.684   4.966
 3067SOL     OW10099   1.288   2.558   5.597
 3067SOL    HW110100   1.302   2.642   5.649
 3067SOL    HW210101   1.329   2.567   5.507
 3068SOL     OW10102   0.241   0.527   0.811
 3068SOL    HW110103   0.236   0.478   0.725
 3068SOL    HW210104   0.236   0.626   0.794
 3069SOL     OW10105   5.513   6.798   3.012
 3069SOL    HW110106   5.522   6.809   3.111
 3069SOL    HW210107   5.512   6.888   2.969
 3070SOL     OW10108   2.292   0.882   0.513
 3070SOL    HW110109   2.204   0.884   0.560
 3070SOL    HW210110   2.343   0.965   0.535
 3071SOL     OW10111   5.730   4.569   5.447
 3071SOL    HW110112   5.813   4.556   5.500
 3071SOL    HW210113   5.727   4.664   5.414
 3072SOL     OW10114   1.951   6.695   6.108
 3072SOL    HW110115   1.980   6.645   6.027
 3072SOL    HW210116   1.939   6.792   6.085
 3073SOL     OW10117   0.099   4.818   1.758
 3073SOL    HW110118   0.109   4.736   1.814
 3073SOL    HW210119   0.057   4.793   1.671
 3074SOL     OW10120   3.170   2.830   1.592
 3074SOL    HW110121   3.104   2.770   1.547
 3074SOL    HW210122   3.148   2.925   1.572
 3075SOL     OW10123   3.718   5.429   2.007
 3075SOL    HW110124   3.815   5.415   2.028
 3075SOL    HW210125   3.670   5.456   2.091
 3076SOL     OW10126   0.761   0.476   4.931
 3076SOL    HW110127   0.702   0.550   4.901
 3076SOL    HW210128   0.842   0.513   4.975
 3077SOL     OW10129   0.156   4.163   2.490
 3077SOL    HW110130   0.254   4.163   2.471
 3077SOL    HW210131   0.130   4.076   2.533
 3078SOL     OW10132   0.198   3.381   1.998
 3078SOL    HW110133   0.235   3.434   2.075
 3078SOL    HW210134   0.100   3.398   1.991
 3079SOL     OW10135   1.906   4.032   5.376
 3079SOL    HW110136   1.873   4.071   5.462
 3079SOL    HW210137   2.002   4.058   5.363
 3080SOL     OW10138   3.622   4.332   0.661
 3080SOL    HW110139   3.613   4.236   0.636
 3080SOL    HW210140   3.599   4.389   0.582
 3081SOL     OW10141   1.168   3.461   0.813
 3081SOL    HW110142   1.267   3.475   0.820
 3081SOL    HW210143   1.146   3.365   0.831
 3082SOL     OW10144   4.418   5.459   4.494
 3082SOL    HW110145   4.392   5.554   4.513
 3082SOL    HW210146   4.413   5.443   4.395
 3083SOL     OW10147   3.915   6.023   1.592
 3083SOL    HW110148   3.932   6.116   1.560
 3083SOL    HW210149   4.001   5.973   1.599
 3084SOL     OW10150   6.917   4.289   4.703
 3084SOL    HW110151   7.013   4.304   4.680
 3084SOL    HW210152   6.910   4.255   4.797
 3085SOL     OW10153   5.876   5.225   0.363
 3085SOL    HW110154   5.855   5.320   0.387
 3085SOL    HW210155   5.937   5.222   0.285
 3086SOL     OW10156   6.083   6.826   6.308
 3086SOL    HW110157   6.138   6.879   6.373
 3086SOL    HW210158   6.126   6.830   6.218
 3087SOL     OW10159   3.219   0.022   2.013
 3087SOL    HW110160   3.287   7.014   2.082
 3087SOL    HW210161   3.128   7.012   2.045
 3088SOL     OW10162   2.003   2.991   5.673
 3088SOL    HW110163   2.018   3.024   5.766
 3088SOL    HW210164   2.055   3.048   5.609
 3089SOL     OW10165   4.519   5.501   5.824
 3089SOL    HW110166   4.440   5.518   5.882
 3089SOL    HW210167   4.529   5.403   5.808
 3090SOL     OW10168   0.343   3.030   2.380
 3090SOL    HW110169   0.246   3.024   2.355
 3090SOL    HW210170   0.399   3.032   2.297
 3091SOL     OW10171   0.839   2.629   1.539
 3091SOL    HW110172   0.819   2.725   1.522
 3091SOL    HW210173   0.839   2.611   1.637
 3092SOL     OW10174   6.131   1.366   2.598
 3092SOL    HW110175   6.217   1.329   2.562
 3092SOL    HW210176   6.101   1.311   2.675
 3093SOL     OW10177   5.900   5.784   0.460
 3093SOL    HW110178   5.923   5.704   0.406
 3093SOL    HW210179   5.826   5.762   0.523
 3094SOL     OW10180   2.225   1.919   6.379
 3094SOL    HW110181   2.256   1.984   6.309
 3094SOL    HW210182   2.133   1.887   6.355
 3095SOL     OW10183   1.870   3.634   5.345
 3095SOL    HW110184   1.832   3.722   5.377
 3095SOL    HW210185   1.819   3.604   5.264
 3096SOL     OW10186   0.586   3.481   3.897
 3096SOL    HW110187   0.550   3.538   3.824
 3096SOL    HW210188   0.671   3.437   3.866
 3097SOL     OW10189   5.913   2.519   5.172
 3097SOL    HW110190   5.887   2.454   5.101
 3097SOL    HW210191   5.830   2.557   5.214
 3098SOL     OW10192   1.759   3.108   2.871
 3098SOL    HW110193   1.663   3.083   2.883
 3098SOL    HW210194   1.771   3.150   2.782
 3099SOL     OW10195   0.626   6.085   4.823
 3099SOL    HW110196   0.545   6.102   4.879
 3099SOL    HW210197   0.687   6.022   4.871
 3100SOL     OW10198   5.777   5.112   1.589
 3100SOL    HW110199   5.682   5.113   1.620
 3100SOL    HW210200   5.785   5.056   1.506
 3101SOL     OW10201   4.290   0.025   5.609
 3101SOL    HW110202   4.221   0.035   5.537
 3101SOL    HW210203   4.335   0.113   5.624
 3102SOL     OW10204   6.974   4.802   1.506
 3102SOL    HW110205   7.005   4.760   1.420
 3102SOL    HW210206   6.963   4.901   1.492
 3103SOL     OW10207   3.150   1.559   1.765
 3103SOL    HW110208   3.186   1.638   1.815
 3103SOL    HW210209   3.213   1.482   1.775
 3104SOL     OW10210   4.773   1.619   5.216
 3104SOL    HW110211   4.731   1.670   5.292
 3104SOL    HW210212   4.772   1.676   5.134
 3105SOL     OW10213   5.921   3.617   0.520
 3105SOL    HW110214   5.829   3.631   0.485
 3105SOL    HW210215   5.917   3.579   0.613
 3106SOL     OW10216   6.003   0.982   6.090
 3106SOL    HW110217   6.008   0.935   6.178
 3106SOL    HW210218   6.079   1.046   6.082
 3107SOL     OW10219   3.414   1.987   5.559
 3107SOL    HW110220   3.349   1.949   5.625
 3107SOL    HW210221   3.448   1.914   5.500
 3108SOL     OW10222   2.293   4.117   3.802
 3108SOL    HW110223   2.379   4.069   3.786
 3108SOL    HW210224   2.295   4.207   3.758
 3109SOL     OW10225   6.834   6.139   4.313
 3109SOL    HW110226   6.845   6.233   4.282
 3109SOL    HW210227   6.764   6.094   4.257
 3110SOL     OW10228   1.014   4.524   2.809
 3110SOL    HW110229   0.979   4.523   2.903
 3110SOL    HW210230   0.947   4.569   2.750
 3111SOL     OW10231   5.911   4.793   3.621
 3111SOL    HW110232   5.888   4.857   3.694
 3111SOL    HW210233   5.852   4.811   3.542
 3112SOL     OW10234   3.712   1.486   6.051
 3112SOL    HW110235   3.700   1.446   5.960
 3112SOL    HW210236   3.725   1.585   6.042
 3113SOL     OW10237   2.023   6.279   3.247
 3113SOL    HW110238   2.048   6.195   3.295
 3113SOL    HW210239   2.058   6.275   3.153
 3114SOL     OW10240   4.803   1.109   5.596
 3114SOL    HW110241   4.704   1.126   5.601
 3114SOL    HW210242   4.837   1.136   5.506
 3115SOL     OW10243   4.511   5.691   5.259
 3115SOL    HW110244   4.537   5.785   5.278
 3115SOL    HW210245   4.424   5.670   5.303
 3116SOL     OW10246   0.256   0.863   0.253
 3116SOL    HW110247   0.200   0.780   0.259
 3116SOL    HW210248   0.300   0.880   0.341
 3117SOL     OW10249   4.935   0.748   6.284
 3117SOL    HW110250   4.989   0.760   6.367
 3117SOL    HW210251   4.975   0.675   6.228
 3118SOL     OW10252   1.076   1.037   3.430
 3118SOL    HW110253   1.001   1.055   3.366
 3118SOL    HW210254   1.139   1.115   3.428
 3119SOL     OW10255   4.376   5.239   4.888
 3119SOL    HW110256   4.437   5.312   4.859
 3119SOL    HW210257   4.282   5.273   4.891
 3120SOL     OW10258   2.015   5.763   5.625
 3120SOL    HW110259   2.066   5.739   5.543
 3120SOL    HW210260   1.926   5.717   5.623
 3121SOL     OW10261   3.891   1.847   4.443
 3121SOL    HW110262   3.859   1.829   4.350
 3121SOL    HW210263   3.821   1.820   4.509
 3122SOL     OW10264   4.798   5.063   4.234
 3122SOL    HW110265   4.768   5.155   4.212
 3122SOL    HW210266   4.720   5.009   4.265
 3123SOL     OW10267   2.204   1.217   3.661
 3123SOL    HW110268   2.205   1.317   3.664
 3123SOL    HW210269   2.216   1.181   3.753
 3124SOL     OW10270   4.741   0.118   4.238
 3124SOL    HW110271   4.690   0.111   4.152
 3124SOL    HW210272   4.769   0.213   4.252
 3125SOL     OW10273   1.468   1.039   4.829
 3125SOL    HW110274   1.427   1.130   4.829
 3125SOL    HW210275   1.414   0.977   4.886
 3126SOL     OW10276   5.658   5.484   5.319
 3126SOL    HW110277   5.735   5.465   5.380
 3126SOL    HW210278   5.642   5.404   5.261
 3127SOL     OW10279   0.390   1.194   5.202
 3127SOL    HW110280   0.426   1.275   5.156
 3127SOL    HW210281   0.292   1.205   5.217
 3128SOL     OW10282   4.194   0.393   0.454
 3128SOL    HW110283   4.117   0.349   0.408
 3128SOL    HW210284   4.177   0.491   0.461
 3129SOL     OW10285   4.558   3.618   0.323
 3129SOL    HW110286   4.510   3.530   0.327
 3129SOL    HW210287   4.584   3.645   0.416
 3130SOL     OW10288   0.190   4.620   2.223
 3130SOL    HW110289   0.112   4.559   2.238
 3130SOL    HW210290   0.156   4.708   2.188
 3131SOL     OW10291   6.070   4.383   2.751
 3131SOL    HW110292   6.137   4.322   2.792
 3131SOL    HW210293   6.117   4.447   2.690
 3132SOL     OW10294   4.371   4.569   6.924
 3132SOL    HW110295   4.285   4.601   6.883
 3132SOL    HW210296   4.364   4.471   6.943
 3133SOL     OW10297   3.862   0.021   4.518
 3133SOL    HW110298   3.865   6.940   4.533
 3133SOL    HW210299   3.904   0.043   4.430
 3134SOL     OW10300   5.054   4.721   2.362
 3134SOL    HW110301   5.028   4.808   2.321
 3134SOL    HW210302   5.056   4.650   2.292
 3135SOL     OW10303   4.580   5.706   6.700
 3135SOL    HW110304   4.670   5.699   6.744
 3135SOL    HW210305   4.516   5.645   6.748
 3136SOL     OW10306   6.640   1.669   3.083
 3136SOL    HW110307   6.690   1.659   3.169
 3136SOL    HW210308   6.575   1.745   3.090
 3137SOL     OW10309   6.039   6.634   6.698
 3137SOL    HW110310   5.986   6.681   6.628
 3137SOL    HW210311   6.129   6.611   6.662
 3138SOL     OW10312   5.950   6.052   4.097
 3138SOL    HW110313   5.938   6.071   4.194
 3138SOL    HW210314   5.900   5.968   4.073
 3139SOL     OW10315   2.533   4.822   1.378
 3139SOL    HW110316   2.449   4.785   1.417
 3139SOL    HW210317   2.514   4.907   1.330
 3140SOL     OW10318   6.412   6.779   6.446
 3140SOL    HW110319   6.371   6.800   6.357
 3140SOL    HW210320   6.395   6.854   6.510
 3141SOL     OW10321   7.009   1.988   6.084
 3141SOL    HW110322   0.018   2.081   6.057
 3141SOL    HW210323   0.054   1.922   6.042
 3142SOL     OW10324   4.404   0.680   3.561
 3142SOL    HW110325   4.417   0.722   3.651
 3142SOL    HW210326   4.310   0.647   3.553
 3143SOL     OW10327   6.327   1.073   0.598
 3143SOL    HW110328   6.294   0.986   0.633
 3143SOL    HW210329   6.411   1.059   0.546
 3144SOL     OW10330   3.912   3.856   0.566
 3144SOL    HW110331   3.938   3.876   0.472
 3144SOL    HW210332   3.866   3.767   0.570
 3145SOL     OW10333   0.151   6.464   0.524
 3145SOL    HW110334   0.080   6.472   0.593
 3145SOL    HW210335   0.206   6.382   0.541
 3146SOL     OW10336   0.261   0.423   5.092
 3146SOL    HW110337   0.354   0.438   5.126
 3146SOL    HW210338   0.207   0.375   5.162
 3147SOL     OW10339   3.841   5.292   0.704
 3147SOL    HW110340   3.781   5.362   0.665
 3147SOL    HW210341   3.812   5.270   0.797
 3148SOL     OW10342   0.161   5.508   2.227
 3148SOL    HW110343   0.107   5.460   2.158
 3148SOL    HW210344   0.155   5.459   2.314
 3149SOL     OW10345   3.067   1.835   6.757
 3149SOL    HW110346   3.134   1.910   6.750
 3149SOL    HW210347   2.988   1.867   6.809
 3150SOL     OW10348   6.591   5.728   5.190
 3150SOL    HW110349   6.560   5.726   5.094
 3150SOL    HW210350   6.564   5.642   5.234
 3151SOL     OW10351   6.907   0.716   5.773
 3151SOL    HW110352   6.916   0.703   5.871
 3151SOL    HW210353   6.884   0.629   5.730
 3152SOL     OW10354   1.380   3.458   6.102
 3152SOL    HW110355   1.284   3.476   6.125
 3152SOL    HW210356   1.423   3.542   6.068
 3153SOL     OW10357   6.371   4.754   0.692
 3153SOL    HW110358   6.403   4.810   0.616
 3153SOL    HW210359   6.449   4.720   0.744
 3154SOL     OW10360   4.449   1.133   0.003
 3154SOL    HW110361   4.493   1.058   6.971
 3154SOL    HW210362   4.358   1.106   0.032
 3155SOL     OW10363   1.535   5.044   0.760
 3155SOL    HW110364   1.493   5.078   0.844
 3155SOL    HW210365   1.501   5.097   0.682
 3156SOL     OW10366   3.576   4.161   1.844
 3156SOL    HW110367   3.576   4.248   1.796
 3156SOL    HW210368   3.670   4.138   1.871
 3157SOL     OW10369   0.453   1.357   5.687
 3157SOL    HW110370   0.529   1.376   5.625
 3157SOL    HW210371   0.385   1.301   5.640
 3158SOL     OW10372   1.741   1.251   5.794
 3158SOL    HW110373   1.688   1.331   5.767
 3158SOL    HW210374   1.783   1.267   5.883
 3159SOL     OW10375   5.800   0.184   0.291
 3159SOL    HW110376   5.785   0.086   0.281
 3159SOL    HW210377   5.717   0.228   0.325
 3160SOL     OW10378   1.815   6.902   6.376
 3160SOL    HW110379   1.835   6.941   6.466
 3160SOL    HW210380   1.758   6.966   6.324
 3161SOL     OW10381   2.316   2.324   2.267
 3161SOL    HW110382   2.325   2.388   2.190
 3161SOL    HW210383   2.386   2.345   2.335
 3162SOL     OW10384   2.417   5.334   0.901
 3162SOL    HW110385   2.336   5.329   0.841
 3162SOL    HW210386   2.476   5.409   0.871
 3163SOL     OW10387   4.223   4.319   6.942
 3163SOL    HW110388   4.148   4.253   6.936
 3163SOL    HW210389   4.260   4.319   0.017
 3164SOL     OW10390   2.712   6.446   2.943
 3164SOL    HW110391   2.793   6.466   2.889
 3164SOL    HW210392   2.632   6.491   2.903
 3165SOL     OW10393   0.647   6.620   6.855
 3165SOL    HW110394   0.720   6.556   6.881
 3165SOL    HW210395   0.672   6.713   6.883
 3166SOL     OW10396   5.041   0.650   4.485
 3166SOL    HW110397   5.003   0.577   4.541
 3166SOL    HW210398   5.037   0.736   4.537
 3167SOL     OW10399   5.732   3.077   0.778
 3167SOL    HW110400   5.653   3.025   0.812
 3167SOL    HW210401   5.805   3.013   0.753
 3168SOL     OW10402   5.272   2.116   0.447
 3168SOL    HW110403   5.296   2.075   0.535
 3168SOL    HW210404   5.179   2.151   0.450
 3169SOL     OW10405   1.962   4.452   2.201
 3169SOL    HW110406   1.958   4.454   2.301
 3169SOL    HW210407   1.901   4.381   2.167
 3170SOL     OW10408   2.625   4.615   3.479
 3170SOL    HW110409   2.593   4.702   3.440
 3170SOL    HW210410   2.578   4.540   3.434
 3171SOL     OW10411   5.084   2.430   3.948
 3171SOL    HW110412   5.025   2.349   3.944
 3171SOL    HW210413   5.029   2.513   3.938
 3172SOL     OW10414   6.317   4.693   1.731
 3172SOL    HW110415   6.377   4.758   1.684
 3172SOL    HW210416   6.229   4.737   1.750
 3173SOL     OW10417   4.344   2.516   1.091
 3173SOL    HW110418   4.423   2.470   1.132
 3173SOL    HW210419   4.271   2.450   1.077
 3174SOL     OW10420   2.875   3.663   6.287
 3174SOL    HW110421   2.826   3.615   6.214
 3174SOL    HW210422   2.940   3.727   6.246
 3175SOL     OW10423   5.498   0.743   4.079
 3175SOL    HW110424   5.569   0.768   4.144
 3175SOL    HW210425   5.495   0.643   4.070
 3176SOL     OW10426   1.054   4.843   5.091
 3176SOL    HW110427   1.030   4.752   5.058
 3176SOL    HW210428   1.114   4.887   5.024
 3177SOL     OW10429   5.290   3.904   3.663
 3177SOL    HW110430   5.375   3.860   3.692
 3177SOL    HW210431   5.245   3.847   3.594
 3178SOL     OW10432   6.887   0.765   1.499
 3178SOL    HW110433   6.920   0.678   1.463
 3178SOL    HW210434   6.833   0.749   1.581
 3179SOL     OW10435   0.981   1.754   2.111
 3179SOL    HW110436   0.884   1.748   2.135
 3179SOL    HW210437   1.007   1.850   2.102
 3180SOL     OW10438   6.798   6.028   0.322
 3180SOL    HW110439   6.873   6.025   0.387
 3180SOL    HW210440   6.799   6.116   0.274
 3181SOL     OW10441   1.727   6.923   4.530
 3181SOL    HW110442   1.771   6.860   4.594
 3181SOL    HW210443   1.632   6.894   4.516
 3182SOL     OW10444   2.466   1.479   0.561
 3182SOL    HW110445   2.439   1.408   0.625
 3182SOL    HW210446   2.513   1.552   0.611
 3183SOL     OW10447   4.246   3.871   1.150
 3183SOL    HW110448   4.300   3.800   1.196
 3183SOL    HW210449   4.179   3.908   1.214
 3184SOL     OW10450   0.850   2.418   5.174
 3184SOL    HW110451   0.872   2.366   5.257
 3184SOL    HW210452   0.934   2.443   5.126
 3185SOL     OW10453   0.555   5.415   5.788
 3185SOL    HW110454   0.603   5.329   5.804
 3185SOL    HW210455   0.622   5.490   5.784
 3186SOL     OW10456   0.529   1.639   6.573
 3186SOL    HW110457   0.453   1.658   6.511
 3186SOL    HW210458   0.514   1.684   6.661
 3187SOL     OW10459   4.155   5.994   2.350
 3187SOL    HW110460   4.155   5.923   2.421
 3187SOL    HW210461   4.072   6.049   2.359
 3188SOL     OW10462   2.187   5.112   5.938
 3188SOL    HW110463   2.119   5.153   5.878
 3188SOL    HW210464   2.212   5.022   5.905
 3189SOL     OW10465   3.292   1.984   5.852
 3189SOL    HW110466   3.312   1.950   5.943
 3189SOL    HW210467   3.197   2.017   5.849
 3190SOL     OW10468   5.699   5.877   4.931
 3190SOL    HW110469   5.605   5.849   4.952
 3190SOL    HW210470   5.760   5.798   4.941
 3191SOL     OW10471   4.276   5.652   1.579
 3191SOL    HW110472   4.353   5.601   1.540
 3191SOL    HW210473   4.269   5.632   1.677
 3192SOL     OW10474   5.599   2.195   2.598
 3192SOL    HW110475   5.675   2.194   2.663
 3192SOL    HW210476   5.535   2.268   2.621
 3193SOL     OW10477   3.531   0.062   5.237
 3193SOL    HW110478   3.475   0.061   5.320
 3193SOL    HW210479   3.624   0.032   5.259
 3194SOL     OW10480   1.536   0.639   6.252
 3194SOL    HW110481   1.569   0.733   6.254
 3194SOL    HW210482   1.614   0.576   6.254
 3195SOL     OW10483   0.101   2.038   1.220
 3195SOL    HW110484   0.173   2.107   1.226
 3195SOL    HW210485   0.093   1.990   1.307
 3196SOL     OW10486   6.149   0.340   4.294
 3196SOL    HW110487   6.208   0.346   4.213
 3196SOL    HW210488   6.182   0.267   4.354
 3197SOL     OW10489   1.743   0.843   6.523
 3197SOL    HW110490   1.779   0.850   6.616
 3197SOL    HW210491   1.775   0.921   6.469
 3198SOL     OW10492   5.477   2.971   2.961
 3198SOL    HW110493   5.523   3.043   3.014
 3198SOL    HW210494   5.418   3.013   2.892
 3199SOL     OW10495   5.658   4.344   3.319
 3199SOL    HW110496   5.573   4.301   3.287
 3199SOL    HW210497   5.670   4.431   3.272
 3200SOL     OW10498   5.598   3.015   3.904
 3200SOL    HW110499   5.605   3.108   3.867
 3200SOL    HW210500   5.596   3.019   4.003
 3201SOL     OW10501   5.856   4.371   2.569
 3201SOL    HW110502   5.775   4.410   2.613
 3201SOL    HW210503   5.938   4.403   2.615
 3202SOL     OW10504   1.788   4.035   6.858
 3202SOL    HW110505   1.822   4.013   6.949
 3202SOL    HW210506   1.770   3.950   6.807
 3203SOL     OW10507   3.422   0.162   1.447
 3203SOL    HW110508   3.329   0.187   1.472
 3203SOL    HW210509   3.475   0.144   1.529
 3204SOL     OW10510   2.692   1.610   3.118
 3204SOL    HW110511   2.718   1.518   3.149
 3204SOL    HW210512   2.595   1.611   3.093
 3205SOL     OW10513   5.343   3.550   5.507
 3205SOL    HW110514   5.336   3.494   5.590
 3205SOL    HW210515   5.253   3.559   5.465
 3206SOL     OW10516   3.061   3.173   1.255
 3206SOL    HW110517   3.089   3.265   1.282
 3206SOL    HW210518   3.037   3.172   1.158
 3207SOL     OW10519   1.755   5.644   5.606
 3207SOL    HW110520   1.673   5.621   5.553
 3207SOL    HW210521   1.747   5.606   5.698
 3208SOL     OW10522   6.244   5.154   6.329
 3208SOL    HW110523   6.316   5.147   6.398
 3208SOL    HW210524   6.196   5.241   6.340
 3209SOL     OW10525   4.894   5.879   6.782
 3209SOL    HW110526   4.852   5.866   6.871
 3209SOL    HW210527   4.891   5.976   6.757
 3210SOL     OW10528   6.244   5.243   1.485
 3210SOL    HW110529   6.150   5.273   1.497
 3210SOL    HW210530   6.247   5.167   1.419
 3211SOL     OW10531   0.954   5.190   6.501
 3211SOL    HW110532   0.939   5.285   6.531
 3211SOL    HW210533   1.039   5.185   6.449
 3212SOL     OW10534   2.297   0.459   3.156
 3212SOL    HW110535   2.206   0.470   3.116
 3212SOL    HW210536   2.317   0.362   3.166
 3213SOL     OW10537   1.329   0.356   6.336
 3213SOL    HW110538   1.378   0.439   6.312
 3213SOL    HW210539   1.380   0.308   6.408
 3214SOL     OW10540   3.303   0.919   2.786
 3214SOL    HW110541   3.234   0.962   2.728
 3214SOL    HW210542   3.264   0.836   2.827
 3215SOL     OW10543   1.813   2.861   0.965
 3215SOL    HW110544   1.855   2.802   1.035
 3215SOL    HW210545   1.882   2.884   0.897
 3216SOL     OW10546   5.812   4.335   0.414
 3216SOL    HW110547   5.740   4.350   0.481
 3216SOL    HW210548   5.805   4.242   0.378
 3217SOL     OW10549   0.649   6.064   2.418
 3217SOL    HW110550   0.705   6.081   2.499
 3217SOL    HW210551   0.558   6.103   2.432
 3218SOL     OW10552   5.765   0.842   3.059
 3218SOL    HW110553   5.784   0.786   2.978
 3218SOL    HW210554   5.832   0.916   3.065
 3219SOL     OW10555   5.853   0.980   5.556
 3219SOL    HW110556   5.885   1.044   5.625
 3219SOL    HW210557   5.779   0.924   5.593
 3220SOL     OW10558   6.920   4.407   6.662
 3220SOL    HW110559   6.869   4.469   6.722
 3220SOL    HW210560   6.990   4.359   6.715
 3221SOL     OW10561   3.576   0.687   1.476
 3221SOL    HW110562   3.533   0.702   1.565
 3221SOL    HW210563   3.576   0.589   1.455
 3222SOL     OW10564   3.355   1.575   3.117
 3222SOL    HW110565   3.289   1.527   3.060
 3222SOL    HW210566   3.425   1.616   3.059
 3223SOL     OW10567   1.296   6.463   0.973
 3223SOL    HW110568   1.203   6.501   0.978
 3223SOL    HW210569   1.350   6.516   0.908
 3224SOL     OW10570   3.976   1.972   4.039
 3224SOL    HW110571   3.971   2.045   4.107
 3224SOL    HW210572   3.938   2.003   3.952
 3225SOL     OW10573   4.071   0.635   3.789
 3225SOL    HW110574   4.102   0.545   3.758
 3225SOL    HW210575   4.150   0.688   3.822
 3226SOL     OW10576   0.157   0.166   1.346
 3226SOL    HW110577   0.225   0.235   1.371
 3226SOL    HW210578   0.105   0.139   1.427
 3227SOL     OW10579   5.039   3.614   5.143
 3227SOL    HW110580   5.095   3.670   5.081
 3227SOL    HW210581   4.944   3.613   5.110
 3228SOL     OW10582   2.389   3.847   0.477
 3228SOL    HW110583   2.311   3.856   0.539
 3228SOL    HW210584   2.474   3.842   0.529
 3229SOL     OW10585   1.563   1.633   0.870
 3229SOL    HW110586   1.571   1.711   0.932
 3229SOL    HW210587   1.493   1.570   0.904
 3230SOL     OW10588   2.292   5.947   5.660
 3230SOL    HW110589   2.274   5.854   5.628
 3230SOL    HW210590   2.308   5.946   5.759
 3231SOL     OW10591   2.422   1.850   2.101
 3231SOL    HW110592   2.336   1.895   2.125
 3231SOL    HW210593   2.482   1.916   2.056
 3232SOL     OW10594   3.938   5.462   3.992
 3232SOL    HW110595   3.925   5.371   3.952
 3232SOL    HW210596   3.909   5.531   3.926
 3233SOL     OW10597   0.373   2.064   0.427
 3233SOL    HW110598   0.316   2.138   0.462
 3233SOL    HW210599   0.380   2.072   0.327
 3234SOL     OW10600   2.311   2.960   0.506
 3234SOL    HW110601   2.230   2.946   0.448
 3234SOL    HW210602   2.379   2.890   0.487
 3235SOL     OW10603   1.049   0.182   2.440
 3235SOL    HW110604   1.110   0.262   2.439
 3235SOL    HW210605   0.983   0.190   2.365
 3236SOL     OW10606   3.439   2.643   0.206
 3236SOL    HW110607   3.395   2.658   0.118
 3236SOL    HW210608   3.477   2.551   0.209
 3237SOL     OW10609   5.887   1.261   4.800
 3237SOL    HW110610   5.831   1.180   4.783
 3237SOL    HW210611   5.983   1.235   4.806
 3238SOL     OW10612   6.772   5.344   1.253
 3238SOL    HW110613   6.767   5.409   1.329
 3238SOL    HW210614   6.861   5.300   1.254
 3239SOL     OW10615   6.585   6.832   4.490
 3239SOL    HW110616   6.488   6.809   4.487
 3239SOL    HW210617   6.615   6.837   4.586
 3240SOL     OW10618   0.540   0.987   6.764
 3240SOL    HW110619   0.622   0.938   6.735
 3240SOL    HW210620   0.461   0.953   6.714
 3241SOL     OW10621   6.027   1.847   5.870
 3241SOL    HW110622   6.022   1.820   5.774
 3241SOL    HW210623   6.113   1.813   5.910
 3242SOL     OW10624   5.461   4.465   5.022
 3242SOL    HW110625   5.456   4.530   5.098
 3242SOL    HW210626   5.550   4.474   4.977
 3243SOL     OW10627   5.371   5.167   5.318
 3243SOL    HW110628   5.320   5.248   5.288
 3243SOL    HW210629   5.398   5.113   5.238
 3244SOL     OW10630   5.089   6.919   6.908
 3244SOL    HW110631   5.014   6.863   6.871
 3244SOL    HW210632   5.158   6.859   6.948
 3245SOL     OW10633   3.972   1.065   4.978
 3245SOL    HW110634   4.027   1.117   5.043
 3245SOL    HW210635   3.994   1.093   4.885
 3246SOL     OW10636   6.587   0.488   3.038
 3246SOL    HW110637   6.676   0.532   3.040
 3246SOL    HW210638   6.574   0.436   3.123
 3247SOL     OW10639   0.491   4.377   2.807
 3247SOL    HW110640   0.560   4.432   2.854
 3247SOL    HW210641   0.443   4.435   2.741
 3248SOL     OW10642   5.260   2.236   3.742
 3248SOL    HW110643   5.302   2.286   3.818
 3248SOL    HW210644   5.264   2.292   3.660
 3249SOL     OW10645   3.053   3.829   4.024
 3249SOL    HW110646   3.009   3.778   3.949
 3249SOL    HW210647   3.142   3.788   4.044
 3250SOL     OW10648   4.983   5.287   2.231
 3250SOL    HW110649   4.941   5.239   2.154
 3250SOL    HW210650   5.075   5.252   2.245
 3251SOL     OW10651   2.493   1.234   3.111
 3251SOL    HW110652   2.448   1.198   3.029
 3251SOL    HW210653   2.426   1.247   3.184
 3252SOL     OW10654   2.228   1.543   3.391
 3252SOL    HW110655   2.287   1.572   3.465
 3252SOL    HW210656   2.134   1.572   3.409
 3253SOL     OW10657   6.617   3.275   0.320
 3253SOL    HW110658   6.672   3.275   0.237
 3253SOL    HW210659   6.567   3.188   0.327
 3254SOL     OW10660   6.159   0.384   1.102
 3254SOL    HW110661   6.185   0.288   1.088
 3254SOL    HW210662   6.157   0.404   1.200
 3255SOL     OW10663   4.996   5.490   1.428
 3255SOL    HW110664   5.086   5.534   1.433
 3255SOL    HW210665   4.945   5.527   1.350
 3256SOL     OW10666   5.008   1.570   1.183
 3256SOL    HW110667   4.993   1.482   1.138
 3256SOL    HW210668   5.065   1.557   1.264
 3257SOL     OW10669   2.741   2.173   3.008
 3257SOL    HW110670   2.746   2.253   3.068
 3257SOL    HW210671   2.830   2.128   3.005
 3258SOL     OW10672   2.076   6.030   3.317
 3258SOL    HW110673   2.174   6.024   3.297
 3258SOL    HW210674   2.043   5.941   3.349
 3259SOL     OW10675   4.669   4.436   3.593
 3259SOL    HW110676   4.627   4.477   3.512
 3259SOL    HW210677   4.604   4.439   3.669
 3260SOL     OW10678   1.329   4.623   2.487
 3260SOL    HW110679   1.409   4.677   2.510
 3260SOL    HW210680   1.289   4.584   2.571
 3261SOL     OW10681   5.220   6.911   4.010
 3261SOL    HW110682   5.270   6.978   3.955
 3261SOL    HW210683   5.141   6.955   4.053
 3262SOL     OW10684   3.097   2.036   2.542
 3262SOL    HW110685   3.019   2.085   2.502
 3262SOL    HW210686   3.088   1.939   2.524
 3263SOL     OW10687   0.678   1.366   2.362
 3263SOL    HW110688   0.734   1.440   2.400
 3263SOL    HW210689   0.599   1.404   2.314
 3264SOL     OW10690   1.657   5.796   0.888
 3264SOL    HW110691   1.570   5.764   0.852
 3264SOL    HW210692   1.651   5.895   0.905
 3265SOL     OW10693   5.605   4.862   6.185
 3265SOL    HW110694   5.640   4.917   6.109
 3265SOL    HW210695   5.643   4.770   6.179
 3266SOL     OW10696   3.220   5.105   6.428
 3266SOL    HW110697   3.211   5.163   6.509
 3266SOL    HW210698   3.158   5.137   6.357
 3267SOL     OW10699   4.393   6.906   0.886
 3267SOL    HW110700   4.388   7.006   0.880
 3267SOL    HW210701   4.485   6.879   0.914
 3268SOL     OW10702   6.734   5.260   1.901
 3268SOL    HW110703   6.779   5.177   1.934
 3268SOL    HW210704   6.759   5.276   1.806
 3269SOL     OW10705   1.732   4.718   2.246
 3269SOL    HW110706   1.751   4.681   2.155
 3269SOL    HW210707   1.815   4.759   2.283
 3270SOL     OW10708   0.658   2.573   5.097
 3270SOL    HW110709   0.734   2.519   5.131
 3270SOL    HW210710   0.683   2.670   5.096
 3271SOL     OW10711   0.222   3.446   2.922
 3271SOL    HW110712   0.236   3.410   2.829
 3271SOL    HW210713   0.137   3.408   2.960
 3272SOL     OW10714   4.186   6.376   0.669
 3272SOL    HW110715   4.098   6.418   0.695
 3272SOL    HW210716   4.193   6.371   0.570
 3273SOL     OW10717   4.694   2.558   6.673
 3273SOL    HW110718   4.624   2.591   6.736
 3273SOL    HW210719   4.756   2.497   6.721
 3274SOL     OW10720   5.579   0.492   0.361
 3274SOL    HW110721   5.522   0.414   0.389
 3274SOL    HW210722   5.551   0.522   0.270
 3275SOL     OW10723   4.913   0.175   1.198
 3275SOL    HW110724   4.921   0.098   1.261
 3275SOL    HW210725   4.875   0.254   1.246
 3276SOL     OW10726   4.968   6.868   0.288
 3276SOL    HW110727   5.064   6.848   0.308
 3276SOL    HW210728   4.929   6.924   0.360
 3277SOL     OW10729   4.004   1.742   1.817
 3277SOL    HW110730   4.085   1.724   1.873
 3277SOL    HW210731   3.922   1.715   1.868
 3278SOL     OW10732   6.769   0.193   0.018
 3278SOL    HW110733   6.864   0.161   0.016
 3278SOL    HW210734   6.707   0.115   0.021
 3279SOL     OW10735   3.672   0.092   1.285
 3279SOL    HW110736   3.583   0.099   1.330
 3279SOL    HW210737   3.745   0.101   1.353
 3280SOL     OW10738   5.707   3.775   4.259
 3280SOL    HW110739   5.755   3.785   4.346
 3280SOL    HW210740   5.608   3.785   4.275
 3281SOL     OW10741   5.985   3.513   1.419
 3281SOL    HW110742   6.044   3.453   1.364
 3281SOL    HW210743   5.995   3.490   1.515
 3282SOL     OW10744   0.383   4.842   4.349
 3282SOL    HW110745   0.315   4.910   4.377
 3282SOL    HW210746   0.386   4.837   4.249
 3283SOL     OW10747   3.748   1.859   0.450
 3283SOL    HW110748   3.740   1.811   0.363
 3283SOL    HW210749   3.838   1.842   0.490
 3284SOL     OW10750   1.569   5.842   4.562
 3284SOL    HW110751   1.480   5.798   4.553
 3284SOL    HW210752   1.616   5.840   4.473
 3285SOL     OW10753   4.696   1.647   4.537
 3285SOL    HW110754   4.674   1.725   4.596
 3285SOL    HW210755   4.777   1.669   4.482
 3286SOL     OW10756   2.949   1.433   1.043
 3286SOL    HW110757   2.881   1.382   1.096
 3286SOL    HW210758   3.038   1.390   1.055
 3287SOL     OW10759   1.915   0.178   6.446
 3287SOL    HW110760   1.895   0.266   6.403
 3287SOL    HW210761   1.900   0.184   6.545
 3288SOL     OW10762   2.084   6.741   1.421
 3288SOL    HW110763   2.065   6.653   1.377
 3288SOL    HW210764   2.141   6.726   1.502
 3289SOL     OW10765   3.956   1.523   6.704
 3289SOL    HW110766   3.973   1.498   6.799
 3289SOL    HW210767   4.021   1.476   6.645
 3290SOL     OW10768   6.913   5.067   0.562
 3290SOL    HW110769   6.891   5.160   0.593
 3290SOL    HW210770   6.993   5.070   0.502
 3291SOL     OW10771   4.863   6.516   5.435
 3291SOL    HW110772   4.884   6.451   5.508
 3291SOL    HW210773   4.873   6.472   5.346
 3292SOL     OW10774   6.706   2.199   1.420
 3292SOL    HW110775   6.783   2.259   1.398
 3292SOL    HW210776   6.650   2.243   1.491
 3293SOL     OW10777   5.809   5.069   3.119
 3293SOL    HW110778   5.863   5.081   3.203
 3293SOL    HW210779   5.756   5.152   3.102
 3294SOL     OW10780   5.216   2.151   4.966
 3294SOL    HW110781   5.250   2.126   5.056
 3294SOL    HW210782   5.247   2.243   4.942
 3295SOL     OW10783   1.369   3.197   2.449
 3295SOL    HW110784   1.362   3.192   2.350
 3295SOL    HW210785   1.292   3.149   2.491
 3296SOL     OW10786   1.377   0.177   5.853
 3296SOL    HW110787   1.351   0.082   5.869
 3296SOL    HW210788   1.441   0.181   5.776
 3297SOL     OW10789   3.107   1.443   4.874
 3297SOL    HW110790   3.081   1.431   4.778
 3297SOL    HW210791   3.195   1.399   4.891
 3298SOL     OW10792   5.721   4.295   5.807
 3298SOL    HW110793   5.761   4.228   5.870
 3298SOL    HW210794   5.721   4.257   5.714
 3299SOL     OW10795   2.922   4.820   4.488
 3299SOL    HW110796   2.884   4.780   4.405
 3299SOL    HW210797   2.864   4.797   4.566
 3300SOL     OW10798   1.801   0.110   3.976
 3300SOL    HW110799   1.750   0.041   4.027
 3300SOL    HW210800   1.887   0.071   3.944
 3301SOL     OW10801   2.005   1.459   2.761
 3301SOL    HW110802   2.092   1.502   2.785
 3301SOL    HW210803   1.994   1.457   2.662
 3302SOL     OW10804   2.471   5.010   6.276
 3302SOL    HW110805   2.492   4.980   6.369
 3302SOL    HW210806   2.555   5.033   6.228
 3303SOL     OW10807   3.559   3.092   0.362
 3303SOL    HW110808   3.502   3.115   0.283
 3303SOL    HW210809   3.581   2.995   0.360
 3304SOL     OW10810   2.825   5.089   6.448
 3304SOL    HW110811   2.885   5.149   6.499
 3304SOL    HW210812   2.869   5.000   6.435
 3305SOL     OW10813   3.455   1.717   1.013
 3305SOL    HW110814   3.512   1.777   0.956
 3305SOL    HW210815   3.465   1.742   1.109
 3306SOL     OW10816   1.826   0.540   6.744
 3306SOL    HW110817   1.873   0.462   6.787
 3306SOL    HW210818   1.866   0.625   6.777
 3307SOL     OW10819   1.877   6.833   4.786
 3307SOL    HW110820   1.905   6.740   4.810
 3307SOL    HW210821   1.792   6.856   4.833
 3308SOL     OW10822   3.703   4.250   1.139
 3308SOL    HW110823   3.658   4.171   1.180
 3308SOL    HW210824   3.753   4.300   1.209
 3309SOL     OW10825   6.006   3.567   3.739
 3309SOL    HW110826   5.920   3.611   3.764
 3309SOL    HW210827   6.026   3.586   3.643
 3310SOL     OW10828   6.274   5.442   5.825
 3310SOL    HW110829   6.270   5.541   5.809
 3310SOL    HW210830   6.265   5.424   5.923
 3311SOL     OW10831   3.399   3.396   0.369
 3311SOL    HW110832   3.487   3.385   0.414
 3311SOL    HW210833   3.330   3.422   0.436
 3312SOL     OW10834   4.492   2.597   5.810
 3312SOL    HW110835   4.446   2.624   5.725
 3312SOL    HW210836   4.462   2.656   5.885
 3313SOL     OW10837   0.956   1.227   3.013
 3313SOL    HW110838   1.040   1.173   3.013
 3313SOL    HW210839   0.898   1.199   2.936
 3314SOL     OW10840   2.639   5.454   2.600
 3314SOL    HW110841   2.616   5.493   2.511
 3314SOL    HW210842   2.705   5.514   2.647
 3315SOL     OW10843   0.206   5.253   5.135
 3315SOL    HW110844   0.287   5.292   5.091
 3315SOL    HW210845   0.232   5.211   5.221
 3316SOL     OW10846   3.264   1.874   6.106
 3316SOL    HW110847   3.200   1.896   6.179
 3316SOL    HW210848   3.269   1.775   6.094
 3317SOL     OW10849   4.947   2.566   3.250
 3317SOL    HW110850   4.915   2.650   3.292
 3317SOL    HW210851   4.982   2.585   3.158
 3318SOL     OW10852   3.049   2.353   0.355
 3318SOL    HW110853   3.018   2.369   0.449
 3318SOL    HW210854   3.071   2.256   0.343
 3319SOL     OW10855   6.991   6.242   3.401
 3319SOL    HW110856   0.027   6.303   3.460
 3319SOL    HW210857   0.029   6.216   3.322
 3320SOL     OW10858   6.433   0.188   1.372
 3320SOL    HW110859   6.367   0.146   1.310
 3320SOL    HW210860   6.524   0.186   1.331
 3321SOL     OW10861   4.877   1.300   0.042
 3321SOL    HW110862   4.890   1.235   6.985
 3321SOL    HW210863   4.780   1.324   0.050
 3322SOL     OW10864   6.565   3.798   1.000
 3322SOL    HW110865   6.651   3.843   1.026
 3322SOL    HW210866   6.546   3.724   1.065
 3323SOL     OW10867   1.372   2.044   1.926
 3323SOL    HW110868   1.281   2.079   1.902
 3323SOL    HW210869   1.372   2.013   2.021
 3324SOL     OW10870   5.136   5.665   5.712
 3324SOL    HW110871   5.222   5.615   5.719
 3324SOL    HW210872   5.154   5.764   5.712
 3325SOL     OW10873   1.850   3.529   6.742
 3325SOL    HW110874   1.767   3.479   6.765
 3325SOL    HW210875   1.873   3.515   6.646
 3326SOL     OW10876   4.837   0.767   2.785
 3326SOL    HW110877   4.810   0.802   2.696
 3326SOL    HW210878   4.764   0.783   2.851
 3327SOL     OW10879   1.556   5.551   1.024
 3327SOL    HW110880   1.515   5.579   0.937
 3327SOL    HW210881   1.656   5.551   1.014
 3328SOL     OW10882   4.889   2.230   0.120
 3328SOL    HW110883   4.858   2.193   0.208
 3328SOL    HW210884   4.813   2.232   0.055
 3329SOL     OW10885   5.992   5.351   5.731
 3329SOL    HW110886   6.045   5.336   5.814
 3329SOL    HW210887   5.906   5.301   5.736
 3330SOL     OW10888   6.569   3.602   2.477
 3330SOL    HW110889   6.633   3.594   2.554
 3330SOL    HW210890   6.541   3.511   2.447
 3331SOL     OW10891   2.218   2.592   1.178
 3331SOL    HW110892   2.283   2.669   1.179
 3331SOL    HW210893   2.259   2.515   1.226
 3332SOL     OW10894   6.112   4.670   0.718
 3332SOL    HW110895   6.211   4.683   0.714
 3332SOL    HW210896   6.070   4.746   0.767
 3333SOL     OW10897   4.295   4.633   5.985
 3333SOL    HW110898   4.279   4.556   6.047
 3333SOL    HW210899   4.327   4.599   5.897
 3334SOL     OW10900   2.563   4.263   1.706
 3334SOL    HW110901   2.522   4.280   1.616
 3334SOL    HW210902   2.493   4.232   1.770
 3335SOL     OW10903   5.102   4.527   5.073
 3335SOL    HW110904   5.068   4.566   5.158
 3335SOL    HW210905   5.097   4.428   5.077
 3336SOL     OW10906   3.409   5.000   6.043
 3336SOL    HW110907   3.388   4.929   5.976
 3336SOL    HW210908   3.419   5.088   5.997
 3337SOL     OW10909   3.343   2.095   0.935
 3337SOL    HW110910   3.364   2.183   0.893
 3337SOL    HW210911   3.257   2.100   0.984
 3338SOL     OW10912   6.989   4.663   1.034
 3338SOL    HW110913   0.007   4.699   0.947
 3338SOL    HW210914   6.918   4.595   1.016
 3339SOL     OW10915   6.953   5.844   6.562
 3339SOL    HW110916   6.872   5.786   6.553
 3339SOL    HW210917   0.017   5.792   6.539
 3340SOL     OW10918   3.373   6.501   1.528
 3340SOL    HW110919   3.340   6.459   1.613
 3340SOL    HW210920   3.372   6.600   1.538
 3341SOL     OW10921   0.524   0.865   2.666
 3341SOL    HW110922   0.494   0.916   2.586
 3341SOL    HW210923   0.445   0.823   2.711
 3342SOL     OW10924   2.175   6.429   4.421
 3342SOL    HW110925   2.265   6.424   4.465
 3342SOL    HW210926   2.108   6.464   4.486
 3343SOL     OW10927   5.275   2.777   0.762
 3343SOL    HW110928   5.222   2.862   0.764
 3343SOL    HW210929   5.217   2.703   0.727
 3344SOL     OW10930   6.708   3.462   5.885
 3344SOL    HW110931   6.702   3.416   5.796
 3344SOL    HW210932   6.803   3.485   5.905
 3345SOL     OW10933   3.111   3.290   5.786
 3345SOL    HW110934   3.142   3.214   5.730
 3345SOL    HW210935   3.181   3.312   5.854
 3346SOL     OW10936   0.887   0.408   1.867
 3346SOL    HW110937   0.980   0.396   1.832
 3346SOL    HW210938   0.822   0.364   1.805
 3347SOL     OW10939   5.910   3.974   5.331
 3347SOL    HW110940   5.811   3.969   5.343
 3347SOL    HW210941   5.949   3.882   5.329
 3348SOL     OW10942   3.887   3.003   4.331
 3348SOL    HW110943   3.927   3.054   4.408
 3348SOL    HW210944   3.817   2.941   4.365
 3349SOL     OW10945   6.052   3.779   4.880
 3349SOL    HW110946   6.094   3.714   4.943
 3349SOL    HW210947   5.960   3.800   4.912
 3350SOL     OW10948   1.293   1.445   0.911
 3350SOL    HW110949   1.283   1.347   0.894
 3350SOL    HW210950   1.249   1.496   0.837
 3351SOL     OW10951   5.316   1.613   1.546
 3351SOL    HW110952   5.329   1.684   1.477
 3351SOL    HW210953   5.386   1.621   1.616
 3352SOL     OW10954   0.289   3.748   1.364
 3352SOL    HW110955   0.292   3.800   1.278
 3352SOL    HW210956   0.362   3.781   1.425
 3353SOL     OW10957   2.318   0.139   5.849
 3353SOL    HW110958   2.277   0.070   5.791
 3353SOL    HW210959   2.374   0.095   5.919
 3354SOL     OW10960   0.995   2.560   2.966
 3354SOL    HW110961   0.948   2.644   2.940
 3354SOL    HW210962   1.094   2.574   2.962
 3355SOL     OW10963   6.698   1.283   2.739
 3355SOL    HW110964   6.614   1.333   2.758
 3355SOL    HW210965   6.679   1.207   2.678
 3356SOL     OW10966   2.627   3.369   0.200
 3356SOL    HW110967   2.676   3.291   0.237
 3356SOL    HW210968   2.652   3.452   0.250
 3357SOL     OW10969   2.709   5.281   1.896
 3357SOL    HW110970   2.698   5.375   1.930
 3357SOL    HW210971   2.638   5.223   1.935
 3358SOL     OW10972   4.991   4.960   2.304
 3358SOL    HW110973   4.914   5.005   2.260
 3358SOL    HW210974   5.053   5.028   2.342
 3359SOL     OW10975   2.365   1.462   2.662
 3359SOL    HW110976   2.405   1.462   2.754
 3359SOL    HW210977   2.314   1.377   2.648
 3360SOL     OW10978   1.243   0.595   0.001
 3360SOL    HW110979   1.226   0.554   6.929
 3360SOL    HW210980   1.298   0.678   7.008
 3361SOL     OW10981   5.955   6.615   2.812
 3361SOL    HW110982   6.034   6.667   2.845
 3361SOL    HW210983   5.878   6.677   2.800
 3362SOL     OW10984   1.714   1.030   5.638
 3362SOL    HW110985   1.753   1.120   5.656
 3362SOL    HW210986   1.615   1.033   5.652
 3363SOL     OW10987   0.375   1.371   6.607
 3363SOL    HW110988   0.344   1.279   6.581
 3363SOL    HW210989   0.429   1.365   6.691
 3364SOL     OW10990   1.837   4.594   6.297
 3364SOL    HW110991   1.815   4.649   6.217
 3364SOL    HW210992   1.924   4.546   6.281
 3365SOL     OW10993   6.281   1.920   5.243
 3365SOL    HW110994   6.278   1.905   5.342
 3365SOL    HW210995   6.198   1.882   5.202
 3366SOL     OW10996   5.345   1.030   5.806
 3366SOL    HW110997   5.424   0.977   5.837
 3366SOL    HW210998   5.297   0.980   5.734
 3367SOL     OW10999   1.061   1.217   1.826
 3367SOL    HW111000   1.000   1.143   1.800
 3367SOL    HW211001   1.013   1.305   1.816
 3368SOL     OW11002   6.526   6.153   5.903
 3368SOL    HW111003   6.541   6.054   5.907
 3368SOL    HW211004   6.457   6.174   5.833
 3369SOL     OW11005   4.170   0.483   6.764
 3369SOL    HW111006   4.089   0.473   6.705
 3369SOL    HW211007   4.208   0.393   6.784
 3370SOL     OW11008   5.865   6.874   5.709
 3370SOL    HW111009   5.920   6.825   5.778
 3370SOL    HW211010   5.823   6.954   5.752
 3371SOL     OW11011   0.600   5.495   1.749
 3371SOL    HW111012   0.630   5.400   1.754
 3371SOL    HW211013   0.649   5.549   1.818
 3372SOL     OW11014   0.754   1.079   2.868
 3372SOL    HW111015   0.778   0.995   2.819
 3372SOL    HW211016   0.712   1.144   2.804
 3373SOL     OW11017   6.471   2.138   5.157
 3373SOL    HW111018   6.417   2.062   5.192
 3373SOL    HW211019   6.508   2.192   5.234
 3374SOL     OW11020   3.002   5.133   5.689
 3374SOL    HW111021   3.027   5.220   5.729
 3374SOL    HW211022   2.927   5.146   5.623
 3375SOL     OW11023   4.293   4.782   5.287
 3375SOL    HW111024   4.207   4.733   5.300
 3375SOL    HW211025   4.343   4.787   5.374
 3376SOL     OW11026   3.209   3.820   1.949
 3376SOL    HW111027   3.279   3.791   2.013
 3376SOL    HW211028   3.195   3.748   1.880
 3377SOL     OW11029   1.473   6.170   5.402
 3377SOL    HW111030   1.468   6.194   5.305
 3377SOL    HW211031   1.517   6.245   5.452
 3378SOL     OW11032   6.556   2.046   1.163
 3378SOL    HW111033   6.603   2.013   1.081
 3378SOL    HW211034   6.622   2.094   1.222
 3379SOL     OW11035   0.538   4.549   5.515
 3379SOL    HW111036   0.575   4.636   5.548
 3379SOL    HW211037   0.438   4.551   5.521
 3380SOL     OW11038   6.889   4.031   6.489
 3380SOL    HW111039   6.964   4.029   6.555
 3380SOL    HW211040   6.910   4.097   6.417
 3381SOL     OW11041   3.329   2.168   0.245
 3381SOL    HW111042   3.341   2.224   0.327
 3381SOL    HW211043   3.412   2.116   0.227
 3382SOL     OW11044   6.920   1.399   1.105
 3382SOL    HW111045   6.904   1.441   1.016
 3382SOL    HW211046   6.835   1.399   1.158
 3383SOL     OW11047   5.987   4.923   2.937
 3383SOL    HW111048   5.948   4.890   2.851
 3383SOL    HW211049   5.930   4.995   2.975
 3384SOL     OW11050   3.723   3.344   4.277
 3384SOL    HW111051   3.750   3.348   4.373
 3384SOL    HW211052   3.635   3.296   4.270
 3385SOL     OW11053   6.215   3.774   3.145
 3385SOL    HW111054   6.226   3.821   3.057
 3385SOL    HW211055   6.300   3.778   3.196
 3386SOL     OW11056   5.918   4.486   5.601
 3386SOL    HW111057   5.951   4.450   5.688
 3386SOL    HW211058   5.926   4.416   5.530
 3387SOL     OW11059   2.372   2.158   3.150
 3387SOL    HW111060   2.424   2.211   3.216
 3387SOL    HW211061   2.319   2.219   3.091
 3388SOL     OW11062   5.753   2.281   1.661
 3388SOL    HW111063   5.677   2.347   1.661
 3388SOL    HW211064   5.831   2.321   1.710
 3389SOL     OW11065   5.845   4.238   3.459
 3389SOL    HW111066   5.774   4.267   3.395
 3389SOL    HW211067   5.828   4.280   3.548
 3390SOL     OW11068   4.877   2.659   5.507
 3390SOL    HW111069   4.811   2.727   5.474
 3390SOL    HW211070   4.912   2.687   5.596
 3391SOL     OW11071   4.021   2.176   4.783
 3391SOL    HW111072   4.102   2.203   4.731
 3391SOL    HW211073   3.948   2.149   4.720
 3392SOL     OW11074   3.810   0.537   4.017
 3392SOL    HW111075   3.870   0.606   4.059
 3392SOL    HW211076   3.858   0.494   3.941
 3393SOL     OW11077   6.703   6.882   0.263
 3393SOL    HW111078   6.687   6.815   0.335
 3393SOL    HW211079   6.754   6.960   0.301
 3394SOL     OW11080   6.441   2.868   1.107
 3394SOL    HW111081   6.414   2.789   1.052
 3394SOL    HW211082   6.529   2.850   1.151
 3395SOL     OW11083   1.254   3.596   5.257
 3395SOL    HW111084   1.195   3.596   5.337
 3395SOL    HW211085   1.267   3.502   5.225
 3396SOL     OW11086   0.166   4.156   3.762
 3396SOL    HW111087   0.247   4.199   3.802
 3396SOL    HW211088   0.085   4.208   3.788
 3397SOL     OW11089   3.547   6.568   6.206
 3397SOL    HW111090   3.624   6.608   6.254
 3397SOL    HW211091   3.464   6.577   6.262
 3398SOL     OW11092   1.420   6.683   4.108
 3398SOL    HW111093   1.419   6.638   4.197
 3398SOL    HW211094   1.330   6.723   4.090
 3399SOL     OW11095   5.494   4.761   3.855
 3399SOL    HW111096   5.421   4.714   3.905
 3399SOL    HW211097   5.497   4.727   3.761
 3400SOL     OW11098   5.082   2.385   0.223
 3400SOL    HW111099   5.177   2.365   0.245
 3400SOL    HW211100   5.040   2.305   0.179
 3401SOL     OW11101   5.980   4.091   0.446
 3401SOL    HW111102   5.998   3.993   0.453
 3401SOL    HW211103   6.047   4.141   0.501
 3402SOL     OW11104   5.944   5.709   1.254
 3402SOL    HW111105   5.907   5.775   1.188
 3402SOL    HW211106   6.043   5.705   1.244
 3403SOL     OW11107   3.650   0.441   5.333
 3403SOL    HW111108   3.681   0.518   5.276
 3403SOL    HW211109   3.724   0.374   5.340
 3404SOL     OW11110   4.682   0.932   0.788
 3404SOL    HW111111   4.589   0.931   0.824
 3404SOL    HW211112   4.688   0.868   0.712
 3405SOL     OW11113   6.598   3.687   6.591
 3405SOL    HW111114   6.631   3.780   6.574
 3405SOL    HW211115   6.656   3.622   6.541
 3406SOL     OW11116   1.851   3.917   2.808
 3406SOL    HW111117   1.832   3.940   2.712
 3406SOL    HW211118   1.810   3.986   2.868
 3407SOL     OW11119   0.935   5.663   2.423
 3407SOL    HW111120   0.970   5.726   2.353
 3407SOL    HW211121   0.863   5.606   2.383
 3408SOL     OW11122   5.306   3.839   2.523
 3408SOL    HW111123   5.281   3.758   2.471
 3408SOL    HW211124   5.348   3.812   2.609
 3409SOL     OW11125   3.533   0.471   5.996
 3409SOL    HW111126   3.467   0.471   5.921
 3409SOL    HW211127   3.569   0.378   6.009
 3410SOL     OW11128   6.705   6.912   0.618
 3410SOL    HW111129   6.637   6.841   0.599
 3410SOL    HW211130   6.687   6.952   0.708
 3411SOL     OW11131   5.015   1.918   3.146
 3411SOL    HW111132   5.008   1.960   3.236
 3411SOL    HW211133   4.942   1.953   3.087
 3412SOL     OW11134   3.762   4.463   0.036
 3412SOL    HW111135   3.683   4.520   0.013
 3412SOL    HW211136   3.815   4.508   0.109
 3413SOL     OW11137   3.358   1.570   3.458
 3413SOL    HW111138   3.378   1.653   3.405
 3413SOL    HW211139   3.290   1.515   3.410
 3414SOL     OW11140   2.948   2.398   5.298
 3414SOL    HW111141   2.931   2.489   5.261
 3414SOL    HW211142   3.046   2.376   5.289
 3415SOL     OW11143   0.525   4.613   3.760
 3415SOL    HW111144   0.427   4.601   3.775
 3415SOL    HW211145   0.568   4.523   3.750
 3416SOL     OW11146   0.960   5.460   5.126
 3416SOL    HW111147   0.997   5.526   5.061
 3416SOL    HW211148   0.976   5.367   5.092
 3417SOL     OW11149   6.754   6.899   2.484
 3417SOL    HW111150   6.792   6.806   2.486
 3417SOL    HW211151   6.752   6.936   2.577
 3418SOL     OW11152   3.162   1.466   5.577
 3418SOL    HW111153   3.108   1.537   5.622
 3418SOL    HW211154   3.101   1.399   5.534
 3419SOL     OW11155   4.167   4.629   6.753
 3419SOL    HW111156   4.118   4.545   6.733
 3419SOL    HW211157   4.104   4.707   6.750
 3420SOL     OW11158   4.163   2.267   3.781
 3420SOL    HW111159   4.101   2.215   3.723
 3420SOL    HW211160   4.147   2.245   3.877
 3421SOL     OW11161   0.070   5.833   5.611
 3421SOL    HW111162   6.994   5.867   5.615
 3421SOL    HW211163   0.135   5.909   5.620
 3422SOL     OW11164   3.265   1.040   1.234
 3422SOL    HW111165   3.227   1.024   1.325
 3422SOL    HW211166   3.345   1.100   1.240
 3423SOL     OW11167   2.432   0.644   0.824
 3423SOL    HW111168   2.440   0.662   0.726
 3423SOL    HW211169   2.385   0.721   0.868
 3424SOL     OW11170   4.494   0.611   2.724
 3424SOL    HW111171   4.472   0.703   2.756
 3424SOL    HW211172   4.409   0.563   2.701
 3425SOL     OW11173   4.931   4.388   1.850
 3425SOL    HW111174   4.959   4.380   1.946
 3425SOL    HW211175   4.834   4.410   1.844
 3426SOL     OW11176   3.984   3.471   0.508
 3426SOL    HW111177   3.999   3.522   0.424
 3426SOL    HW211178   4.070   3.461   0.558
 3427SOL     OW11179   0.320   1.012   0.485
 3427SOL    HW111180   0.224   1.020   0.458
 3427SOL    HW211181   0.350   1.098   0.526
 3428SOL     OW11182   4.448   4.676   2.288
 3428SOL    HW111183   4.433   4.625   2.204
 3428SOL    HW211184   4.406   4.767   2.280
 3429SOL     OW11185   1.516   3.285   0.881
 3429SOL    HW111186   1.439   3.223   0.895
 3429SOL    HW211187   1.597   3.233   0.855
 3430SOL     OW11188   1.390   0.170   0.343
 3430SOL    HW111189   1.407   0.136   0.251
 3430SOL    HW211190   1.377   0.269   0.340
 3431SOL     OW11191   0.955   5.618   0.625
 3431SOL    HW111192   0.899   5.536   0.636
 3431SOL    HW211193   0.921   5.689   0.686
 3432SOL     OW11194   3.253   1.275   5.992
 3432SOL    HW111195   3.188   1.342   6.028
 3432SOL    HW211196   3.294   1.224   6.068
 3433SOL     OW11197   3.410   0.445   4.926
 3433SOL    HW111198   3.312   0.463   4.914
 3433SOL    HW211199   3.424   0.348   4.941
 3434SOL     OW11200   4.706   2.739   2.030
 3434SOL    HW111201   4.691   2.834   2.005
 3434SOL    HW211202   4.655   2.717   2.112
 3435SOL     OW11203   6.854   1.968   2.290
 3435SOL    HW111204   6.847   1.897   2.361
 3435SOL    HW211205   6.948   1.999   2.284
 3436SOL     OW11206   4.303   6.617   4.505
 3436SOL    HW111207   4.274   6.546   4.570
 3436SOL    HW211208   4.367   6.578   4.440
 3437SOL     OW11209   4.146   0.089   5.037
 3437SOL    HW111210   4.048   0.108   5.032
 3437SOL    HW211211   4.160   7.010   5.062
 3438SOL     OW11212   0.917   2.542   6.602
 3438SOL    HW111213   0.896   2.447   6.621
 3438SOL    HW211214   0.940   2.589   6.688
 3439SOL     OW11215   2.673   6.468   4.354
 3439SOL    HW111216   2.670   6.369   4.348
 3439SOL    HW211217   2.598   6.507   4.300
 3440SOL     OW11218   4.727   3.433   0.982
 3440SOL    HW111219   4.629   3.429   0.998
 3440SOL    HW211220   4.768   3.345   1.005
 3441SOL     OW11221   2.896   0.068   3.590
 3441SOL    HW111222   2.936   0.148   3.636
 3441SOL    HW211223   2.855   0.008   3.659
 3442SOL     OW11224   1.907   5.120   3.558
 3442SOL    HW111225   1.902   5.134   3.657
 3442SOL    HW211226   1.992   5.072   3.535
 3443SOL     OW11227   6.071   1.773   3.006
 3443SOL    HW111228   6.052   1.746   2.912
 3443SOL    HW211229   6.001   1.734   3.066
 3444SOL     OW11230   4.879   5.375   0.189
 3444SOL    HW111231   4.956   5.427   0.152
 3444SOL    HW211232   4.800   5.435   0.199
 3445SOL     OW11233   6.726   4.748   4.139
 3445SOL    HW111234   6.673   4.664   4.151
 3445SOL    HW211235   6.824   4.726   4.137
 3446SOL     OW11236   3.994   0.210   2.720
 3446SOL    HW111237   4.068   0.181   2.661
 3446SOL    HW211238   3.993   0.310   2.725
 3447SOL     OW11239   5.425   6.289   0.152
 3447SOL    HW111240   5.492   6.265   0.083
 3447SOL    HW211241   5.333   6.277   0.115
 3448SOL     OW11242   3.613   1.091   1.652
 3448SOL    HW111243   3.619   1.029   1.730
 3448SOL    HW211244   3.519   1.120   1.639
 3449SOL     OW11245   6.591   0.125   2.538
 3449SOL    HW111246   6.616   0.088   2.627
 3449SOL    HW211247   6.640   0.074   2.466
 3450SOL     OW11248   0.580   1.897   1.702
 3450SOL    HW111249   0.641   1.947   1.764
 3450SOL    HW211250   0.490   1.890   1.744
 3451SOL     OW11251   1.230   5.890   3.848
 3451SOL    HW111252   1.294   5.877   3.924
 3451SOL    HW211253   1.277   5.878   3.761
 3452SOL     OW11254   6.086   1.246   0.589
 3452SOL    HW111255   6.169   1.190   0.587
 3452SOL    HW211256   6.005   1.187   0.591
 3453SOL     OW11257   5.644   5.558   4.646
 3453SOL    HW111258   5.545   5.566   4.659
 3453SOL    HW211259   5.680   5.645   4.612
 3454SOL     OW11260   1.166   1.198   0.794
 3454SOL    HW111261   1.239   1.148   0.748
 3454SOL    HW211262   1.091   1.214   0.730
 3455SOL     OW11263   1.458   2.698   4.539
 3455SOL    HW111264   1.529   2.690   4.470
 3455SOL    HW211265   1.468   2.623   4.606
 3456SOL     OW11266   5.644   6.810   1.577
 3456SOL    HW111267   5.738   6.805   1.610
 3456SOL    HW211268   5.644   6.820   1.477
 3457SOL     OW11269   2.545   5.020   3.568
 3457SOL    HW111270   2.625   4.992   3.622
 3457SOL    HW211271   2.569   5.099   3.512
 3458SOL     OW11272   5.785   6.966   0.900
 3458SOL    HW111273   5.785   0.046   0.880
 3458SOL    HW211274   5.818   6.951   0.994
 3459SOL     OW11275   0.185   4.869   3.376
 3459SOL    HW111276   0.220   4.939   3.438
 3459SOL    HW211277   0.085   4.869   3.379
 3460SOL     OW11278   4.151   2.704   7.003
 3460SOL    HW111279   4.112   2.612   6.991
 3460SOL    HW211280   4.122   2.762   6.926
 3461SOL     OW11281   3.799   5.756   4.118
 3461SOL    HW111282   3.762   5.673   4.160
 3461SOL    HW211283   3.811   5.740   4.020
 3462SOL     OW11284   4.880   3.627   2.631
 3462SOL    HW111285   4.894   3.658   2.725
 3462SOL    HW211286   4.900   3.701   2.568
 3463SOL     OW11287   2.194   2.785   1.672
 3463SOL    HW111288   2.272   2.847   1.673
 3463SOL    HW211289   2.110   2.838   1.680
 3464SOL     OW11290   5.130   2.983   6.210
 3464SOL    HW111291   5.047   2.936   6.180
 3464SOL    HW211292   5.118   3.016   6.304
 3465SOL     OW11293   2.124   3.728   1.908
 3465SOL    HW111294   2.162   3.648   1.955
 3465SOL    HW211295   2.069   3.781   1.972
 3466SOL     OW11296   5.365   4.733   5.293
 3466SOL    HW111297   5.394   4.637   5.297
 3466SOL    HW211298   5.362   4.763   5.198
 3467SOL     OW11299   2.679   2.366   0.936
 3467SOL    HW111300   2.741   2.389   0.861
 3467SOL    HW211301   2.712   2.283   0.981
 3468SOL     OW11302   4.576   1.523   1.567
 3468SOL    HW111303   4.645   1.451   1.581
 3468SOL    HW211304   4.507   1.491   1.502
 3469SOL     OW11305   4.463   6.760   6.016
 3469SOL    HW111306   4.428   6.672   5.986
 3469SOL    HW211307   4.456   6.826   5.941
 3470SOL     OW11308   6.899   2.570   1.997
 3470SOL    HW111309   6.808   2.552   2.032
 3470SOL    HW211310   6.944   2.483   1.975
 3471SOL     OW11311   4.675   4.306   3.139
 3471SOL    HW111312   4.656   4.380   3.203
 3471SOL    HW211313   4.678   4.342   3.046
 3472SOL     OW11314   4.563   2.222   3.315
 3472SOL    HW111315   4.489   2.241   3.379
 3472SOL    HW211316   4.640   2.180   3.364
 3473SOL     OW11317   6.830   4.027   3.481
 3473SOL    HW111318   6.833   3.969   3.562
 3473SOL    HW211319   6.735   4.037   3.450
 3474SOL     OW11320   6.391   5.105   4.699
 3474SOL    HW111321   6.454   5.041   4.743
 3474SOL    HW211322   6.330   5.055   4.638
 3475SOL     OW11323   0.115   4.615   4.243
 3475SOL    HW111324   0.051   4.674   4.292
 3475SOL    HW211325   0.146   4.541   4.303
 3476SOL     OW11326   1.369   1.578   3.294
 3476SOL    HW111327   1.325   1.609   3.379
 3476SOL    HW211328   1.458   1.623   3.285
 3477SOL     OW11329   0.552   3.854   1.438
 3477SOL    HW111330   0.543   3.927   1.370
 3477SOL    HW211331   0.562   3.895   1.529
 3478SOL     OW11332   2.363   7.006   0.027
 3478SOL    HW111333   2.377   6.938   0.098
 3478SOL    HW211334   2.281   6.983   6.992
 3479SOL     OW11335   0.789   3.348   3.514
 3479SOL    HW111336   0.702   3.339   3.562
 3479SOL    HW211337   0.850   3.274   3.541
 3480SOL     OW11338   1.076   5.854   0.006
 3480SOL    HW111339   1.075   5.944   6.981
 3480SOL    HW211340   1.060   5.862   0.104
 3481SOL     OW11341   6.119   0.479   6.551
 3481SOL    HW111342   6.171   0.562   6.533
 3481SOL    HW211343   6.139   0.447   6.644
 3482SOL     OW11344   5.765   3.495   4.334
 3482SOL    HW111345   5.728   3.506   4.426
 3482SOL    HW211346   5.760   3.582   4.284
 3483SOL     OW11347   4.556   2.146   3.898
 3483SOL    HW111348   4.633   2.095   3.860
 3483SOL    HW211349   4.499   2.084   3.951
 3484SOL     OW11350   1.926   3.556   6.406
 3484SOL    HW111351   1.826   3.557   6.394
 3484SOL    HW211352   1.970   3.556   6.316
 3485SOL     OW11353   0.163   1.725   5.409
 3485SOL    HW111354   0.215   1.810   5.415
 3485SOL    HW211355   0.066   1.746   5.395
 3486SOL     OW11356   2.293   0.403   4.838
 3486SOL    HW111357   2.333   0.312   4.828
 3486SOL    HW211358   2.295   0.451   4.750
 3487SOL     OW11359   6.062   1.726   6.571
 3487SOL    HW111360   6.065   1.700   6.667
 3487SOL    HW211361   5.984   1.682   6.527
 3488SOL     OW11362   5.922   0.414   4.431
 3488SOL    HW111363   6.006   0.387   4.383
 3488SOL    HW211364   5.843   0.381   4.380
 3489SOL     OW11365   3.243   0.316   0.638
 3489SOL    HW111366   3.164   0.254   0.630
 3489SOL    HW211367   3.219   0.405   0.599
 3490SOL     OW11368   4.157   4.684   0.638
 3490SOL    HW111369   4.120   4.776   0.628
 3490SOL    HW211370   4.236   4.673   0.577
 3491SOL     OW11371   5.128   4.044   0.159
 3491SOL    HW111372   5.197   4.059   0.229
 3491SOL    HW211373   5.059   3.980   0.193
 3492SOL     OW11374   5.777   4.110   2.487
 3492SOL    HW111375   5.697   4.083   2.541
 3492SOL    HW211376   5.805   4.203   2.513
 3493SOL     OW11377   6.182   3.692   4.395
 3493SOL    HW111378   6.138   3.605   4.372
 3493SOL    HW211379   6.255   3.711   4.329
 3494SOL     OW11380   3.341   1.835   2.505
 3494SOL    HW111381   3.367   1.921   2.550
 3494SOL    HW211382   3.406   1.817   2.431
 3495SOL     OW11383   1.215   3.580   2.133
 3495SOL    HW111384   1.277   3.538   2.199
 3495SOL    HW211385   1.173   3.508   2.077
 3496SOL     OW11386   6.633   5.052   0.630
 3496SOL    HW111387   6.602   5.044   0.725
 3496SOL    HW211388   6.725   5.015   0.621
 3497SOL     OW11389   4.293   0.389   2.702
 3497SOL    HW111390   4.296   0.333   2.784
 3497SOL    HW211391   4.200   0.419   2.685
 3498SOL     OW11392   2.219   1.876   1.649
 3498SOL    HW111393   2.285   1.802   1.658
 3498SOL    HW211394   2.264   1.964   1.669
 3499SOL     OW11395   5.902   5.400   5.474
 3499SOL    HW111396   5.972   5.426   5.407
 3499SOL    HW211397   5.943   5.390   5.564
 3500SOL     OW11398   1.256   1.500   3.734
 3500SOL    HW111399   1.176   1.550   3.770
 3500SOL    HW211400   1.332   1.564   3.723
 3501SOL     OW11401   2.142   7.013   6.265
 3501SOL    HW111402   2.043   7.002   6.254
 3501SOL    HW211403   2.170   0.083   6.225
 3502SOL     OW11404   5.582   3.207   1.654
 3502SOL    HW111405   5.540   3.222   1.564
 3502SOL    HW211406   5.565   3.113   1.683
 3503SOL     OW11407   6.573   6.118   6.372
 3503SOL    HW111408   6.488   6.095   6.324
 3503SOL    HW211409   6.566   6.212   6.406
 3504SOL     OW11410   1.229   1.241   2.081
 3504SOL    HW111411   1.232   1.300   2.161
 3504SOL    HW211412   1.168   1.282   2.012
 3505SOL     OW11413   5.525   5.172   5.555
 3505SOL    HW111414   5.486   5.089   5.595
 3505SOL    HW211415   5.483   5.189   5.466
 3506SOL     OW11416   5.282   4.606   4.600
 3506SOL    HW111417   5.381   4.602   4.586
 3506SOL    HW211418   5.237   4.621   4.511
 3507SOL     OW11419   2.206   0.495   0.379
 3507SOL    HW111420   2.141   0.469   0.450
 3507SOL    HW211421   2.267   0.417   0.361
 3508SOL     OW11422   3.242   2.565   5.325
 3508SOL    HW111423   3.241   2.482   5.269
 3508SOL    HW211424   3.149   2.601   5.333
 3509SOL     OW11425   4.545   5.924   0.280
 3509SOL    HW111426   4.528   5.899   0.185
 3509SOL    HW211427   4.503   6.012   0.300
 3510SOL     OW11428   1.883   0.684   0.979
 3510SOL    HW111429   1.950   0.745   1.022
 3510SOL    HW211430   1.921   0.592   0.973
 3511SOL     OW11431   2.176   4.541   1.757
 3511SOL    HW111432   2.192   4.448   1.791
 3511SOL    HW211433   2.080   4.565   1.770
 3512SOL     OW11434   0.930   4.131   0.167
 3512SOL    HW111435   0.902   4.093   0.256
 3512SOL    HW211436   1.017   4.178   0.177
 3513SOL     OW11437   6.314   2.201   0.582
 3513SOL    HW111438   6.411   2.220   0.568
 3513SOL    HW211439   6.289   2.225   0.675
 3514SOL     OW11440   5.376   0.670   2.813
 3514SOL    HW111441   5.283   0.699   2.835
 3514SOL    HW211442   5.403   0.705   2.724
 3515SOL     OW11443   5.653   5.813   4.501
 3515SOL    HW111444   5.569   5.849   4.539
 3515SOL    HW211445   5.642   5.799   4.402
 3516SOL     OW11446   5.385   0.223   1.191
 3516SOL    HW111447   5.396   0.252   1.096
 3516SOL    HW211448   5.450   0.273   1.249
 3517SOL     OW11449   6.803   1.410   0.462
 3517SOL    HW111450   6.733   1.447   0.402
 3517SOL    HW211451   6.890   1.406   0.413
 3518SOL     OW11452   6.218   1.781   4.782
 3518SOL    HW111453   6.176   1.718   4.716
 3518SOL    HW211454   6.153   1.855   4.803
 3519SOL     OW11455   3.238   1.053   0.274
 3519SOL    HW111456   3.289   1.118   0.218
 3519SOL    HW211457   3.152   1.031   0.229
 3520SOL     OW11458   2.888   5.474   5.425
 3520SOL    HW111459   2.909   5.569   5.400
 3520SOL    HW211460   2.873   5.468   5.524
 3521SOL     OW11461   3.241   3.160   7.017
 3521SOL    HW111462   3.300   3.180   0.078
 3521SOL    HW211463   3.240   3.239   6.956
 3522SOL     OW11464   6.600   5.657   6.479
 3522SOL    HW111465   6.582   5.585   6.545
 3522SOL    HW211466   6.590   5.746   6.523
 3523SOL     OW11467   1.702   4.912   5.543
 3523SOL    HW111468   1.631   4.853   5.505
 3523SOL    HW211469   1.691   4.917   5.643
 3524SOL     OW11470   5.986   2.126   3.481
 3524SOL    HW111471   6.003   2.093   3.388
 3524SOL    HW211472   6.067   2.110   3.537
 3525SOL     OW11473   6.397   4.786   4.280
 3525SOL    HW111474   6.329   4.805   4.210
 3525SOL    HW211475   6.475   4.848   4.270
 3526SOL     OW11476   1.245   6.062   3.428
 3526SOL    HW111477   1.246   6.118   3.511
 3526SOL    HW211478   1.339   6.049   3.396
 3527SOL     OW11479   6.133   2.446   5.896
 3527SOL    HW111480   6.233   2.450   5.889
 3527SOL    HW211481   6.108   2.385   5.970
 3528SOL     OW11482   2.618   6.500   5.411
 3528SOL    HW111483   2.670   6.568   5.462
 3528SOL    HW211484   2.640   6.506   5.314
 3529SOL     OW11485   5.001   5.837   0.155
 3529SOL    HW111486   4.957   5.860   0.243
 3529SOL    HW211487   5.051   5.751   0.165
 3530SOL     OW11488   0.041   5.769   2.248
 3530SOL    HW111489   0.071   5.675   2.260
 3530SOL    HW211490   0.022   5.787   2.152
 3531SOL     OW11491   4.638   1.777   1.995
 3531SOL    HW111492   4.625   1.797   1.897
 3531SOL    HW211493   4.614   1.858   2.048
 3532SOL     OW11494   2.020   1.014   2.042
 3532SOL    HW111495   1.955   1.028   2.117
 3532SOL    HW211496   1.994   0.933   1.990
 3533SOL     OW11497   6.607   1.663   2.681
 3533SOL    HW111498   6.697   1.652   2.722
 3533SOL    HW211499   6.555   1.731   2.732
 3534SOL     OW11500   0.334   2.154   2.453
 3534SOL    HW111501   0.397   2.232   2.455
 3534SOL    HW211502   0.268   2.162   2.528
 3535SOL     OW11503   2.880   4.987   5.234
 3535SOL    HW111504   2.929   4.902   5.255
 3535SOL    HW211505   2.879   5.002   5.136
 3536SOL     OW11506   3.419   1.850   3.400
 3536SOL    HW111507   3.431   1.934   3.452
 3536SOL    HW211508   3.455   1.863   3.308
 3537SOL     OW11509   1.206   5.797   3.031
 3537SOL    HW111510   1.187   5.785   3.129
 3537SOL    HW211511   1.226   5.709   2.990
 3538SOL     OW11512   3.151   5.520   5.144
 3538SOL    HW111513   3.078   5.554   5.084
 3538SOL    HW211514   3.184   5.432   5.109
 3539SOL     OW11515   3.260   4.132   4.527
 3539SOL    HW111516   3.285   4.185   4.446
 3539SOL    HW211517   3.281   4.036   4.511
 3540SOL     OW11518   1.902   1.776   4.162
 3540SOL    HW111519   1.878   1.773   4.065
 3540SOL    HW211520   1.998   1.802   4.171
 3541SOL     OW11521   3.283   3.248   5.164
 3541SOL    HW111522   3.350   3.186   5.124
 3541SOL    HW211523   3.285   3.336   5.115
 3542SOL     OW11524   1.596   4.688   2.859
 3542SOL    HW111525   1.682   4.719   2.818
 3542SOL    HW211526   1.609   4.676   2.958
 3543SOL     OW11527   5.431   2.377   4.255
 3543SOL    HW111528   5.356   2.420   4.306
 3543SOL    HW211529   5.490   2.447   4.217
 3544SOL     OW11530   2.121   4.012   6.873
 3544SOL    HW111531   2.124   3.990   6.776
 3544SOL    HW211532   2.029   4.044   6.896
 3545SOL     OW11533   4.338   5.416   6.128
 3545SOL    HW111534   4.301   5.390   6.217
 3545SOL    HW211535   4.370   5.334   6.080
 3546SOL     OW11536   0.348   5.619   3.353
 3546SOL    HW111537   0.296   5.694   3.394
 3546SOL    HW211538   0.445   5.645   3.349
 3547SOL     OW11539   3.886   5.260   3.799
 3547SOL    HW111540   3.886   5.219   3.708
 3547SOL    HW211541   3.897   5.188   3.868
 3548SOL     OW11542   4.812   2.261   5.684
 3548SOL    HW111543   4.792   2.354   5.653
 3548SOL    HW211544   4.727   2.214   5.706
 3549SOL     OW11545   6.455   4.728   3.400
 3549SOL    HW111546   6.443   4.635   3.435
 3549SOL    HW211547   6.442   4.793   3.475
 3550SOL     OW11548   4.994   2.080   3.381
 3550SOL    HW111549   5.062   2.029   3.434
 3550SOL    HW211550   5.000   2.177   3.406
 3551SOL     OW11551   3.520   6.050   2.565
 3551SOL    HW111552   3.483   6.013   2.479
 3551SOL    HW211553   3.472   6.008   2.642
 3552SOL     OW11554   5.038   5.899   2.872
 3552SOL    HW111555   4.990   5.984   2.894
 3552SOL    HW211556   5.132   5.905   2.904
 3553SOL     OW11557   5.391   2.447   2.375
 3553SOL    HW111558   5.360   2.536   2.409
 3553SOL    HW211559   5.328   2.376   2.408
 3554SOL     OW11560   4.429   3.964   6.576
 3554SOL    HW111561   4.379   4.032   6.523
 3554SOL    HW211562   4.488   4.010   6.642
 3555SOL     OW11563   0.853   3.683   2.967
 3555SOL    HW111564   0.943   3.709   3.002
 3555SOL    HW211565   0.799   3.644   3.042
 3556SOL     OW11566   2.978   0.264   5.244
 3556SOL    HW111567   3.036   0.321   5.302
 3556SOL    HW211568   2.908   0.321   5.201
 3557SOL     OW11569   1.698   0.150   4.679
 3557SOL    HW111570   1.771   0.216   4.664
 3557SOL    HW211571   1.710   0.073   4.616
 3558SOL     OW11572   0.154   6.046   1.835
 3558SOL    HW111573   0.243   6.001   1.824
 3558SOL    HW211574   0.142   6.114   1.763
 3559SOL     OW11575   0.613   0.640   4.565
 3559SOL    HW111576   0.682   0.650   4.493
 3559SOL    HW211577   0.590   0.730   4.601
 3560SOL     OW11578   0.965   5.808   1.000
 3560SOL    HW111579   0.926   5.870   1.068
 3560SOL    HW211580   0.921   5.824   0.912
 3561SOL     OW11581   4.933   4.149   5.562
 3561SOL    HW111582   4.866   4.103   5.620
 3561SOL    HW211583   4.970   4.083   5.496
 3562SOL     OW11584   5.571   0.108   3.775
 3562SOL    HW111585   5.642   0.127   3.707
 3562SOL    HW211586   5.602   0.136   3.865
 3563SOL     OW11587   5.156   1.116   1.087
 3563SOL    HW111588   5.157   1.026   1.043
 3563SOL    HW211589   5.188   1.108   1.181
 3564SOL     OW11590   0.453   4.309   4.683
 3564SOL    HW111591   0.428   4.218   4.648
 3564SOL    HW211592   0.535   4.301   4.739
 3565SOL     OW11593   2.584   0.743   4.424
 3565SOL    HW111594   2.648   0.669   4.403
 3565SOL    HW211595   2.575   0.753   4.523
 3566SOL     OW11596   6.887   3.227   5.954
 3566SOL    HW111597   6.870   3.177   6.039
 3566SOL    HW211598   6.802   3.266   5.921
 3567SOL     OW11599   0.479   3.289   1.022
 3567SOL    HW111600   0.486   3.359   1.093
 3567SOL    HW211601   0.565   3.285   0.971
 3568SOL     OW11602   4.500   4.473   2.734
 3568SOL    HW111603   4.412   4.508   2.765
 3568SOL    HW211604   4.507   4.484   2.635
 3569SOL     OW11605   2.966   3.612   4.462
 3569SOL    HW111606   3.056   3.652   4.445
 3569SOL    HW211607   2.934   3.567   4.378
 3570SOL     OW11608   6.537   1.858   5.654
 3570SOL    HW111609   6.545   1.900   5.744
 3570SOL    HW211610   6.629   1.839   5.618
 3571SOL     OW11611   1.724   6.835   5.199
 3571SOL    HW111612   1.658   6.838   5.123
 3571SOL    HW211613   1.764   6.925   5.212
 3572SOL     OW11614   5.233   4.309   1.433
 3572SOL    HW111615   5.320   4.261   1.428
 3572SOL    HW211616   5.171   4.275   1.363
 3573SOL     OW11617   6.424   4.017   1.858
 3573SOL    HW111618   6.522   4.039   1.853
 3573SOL    HW211619   6.371   4.101   1.854
 3574SOL     OW11620   2.576   3.060   5.916
 3574SOL    HW111621   2.600   3.108   5.831
 3574SOL    HW211622   2.553   3.126   5.987
 3575SOL     OW11623   4.892   6.531   0.652
 3575SOL    HW111624   4.919   6.436   0.639
 3575SOL    HW211625   4.963   6.580   0.702
 3576SOL     OW11626   0.454   3.263   0.187
 3576SOL    HW111627   0.417   3.311   0.267
 3576SOL    HW211628   0.486   3.329   0.120
 3577SOL     OW11629   2.151   2.607   5.452
 3577SOL    HW111630   2.068   2.662   5.463
 3577SOL    HW211631   2.199   2.636   5.369
 3578SOL     OW11632   3.162   2.822   6.740
 3578SOL    HW111633   3.196   2.785   6.654
 3578SOL    HW211634   3.194   2.916   6.752
 3579SOL     OW11635   0.099   3.606   2.675
 3579SOL    HW111636   0.068   3.596   2.770
 3579SOL    HW211637   0.176   3.544   2.659
 3580SOL     OW11638   0.325   3.824   1.693
 3580SOL    HW111639   0.397   3.768   1.734
 3580SOL    HW211640   0.237   3.778   1.704
 3581SOL     OW11641   0.513   0.144   2.388
 3581SOL    HW111642   0.525   0.216   2.457
 3581SOL    HW211643   0.585   0.076   2.398
 3582SOL     OW11644   3.511   3.675   5.881
 3582SOL    HW111645   3.528   3.642   5.788
 3582SOL    HW211646   3.477   3.769   5.876
 3583SOL     OW11647   0.278   4.592   1.457
 3583SOL    HW111648   0.215   4.588   1.379
 3583SOL    HW211649   0.237   4.544   1.535
 3584SOL     OW11650   5.291   4.750   5.037
 3584SOL    HW111651   5.219   4.683   5.020
 3584SOL    HW211652   5.363   4.741   4.968
 3585SOL     OW11653   2.674   1.885   4.232
 3585SOL    HW111654   2.597   1.873   4.295
 3585SOL    HW211655   2.757   1.906   4.284
 3586SOL     OW11656   6.514   3.122   3.826
 3586SOL    HW111657   6.527   3.027   3.856
 3586SOL    HW211658   6.566   3.138   3.742
 3587SOL     OW11659   3.759   6.698   6.572
 3587SOL    HW111660   3.767   6.798   6.579
 3587SOL    HW211661   3.678   6.668   6.621
 3588SOL     OW11662   6.767   4.566   4.426
 3588SOL    HW111663   6.747   4.537   4.333
 3588SOL    HW211664   6.751   4.491   4.490
 3589SOL     OW11665   0.289   6.958   6.320
 3589SOL    HW111666   0.217   6.965   6.251
 3589SOL    HW211667   0.298   0.028   6.367
 3590SOL     OW11668   0.247   4.587   0.874
 3590SOL    HW111669   0.235   4.543   0.785
 3590SOL    HW211670   0.220   4.524   0.946
 3591SOL     OW11671   5.430   2.239   6.495
 3591SOL    HW111672   5.459   2.158   6.444
 3591SOL    HW211673   5.348   2.278   6.452
 3592SOL     OW11674   1.614   7.014   1.744
 3592SOL    HW111675   1.621   0.037   1.653
 3592SOL    HW211676   1.658   6.924   1.744
 3593SOL     OW11677   5.445   3.214   5.878
 3593SOL    HW111678   5.501   3.215   5.961
 3593SOL    HW211679   5.408   3.123   5.863
 3594SOL     OW11680   4.005   5.200   4.267
 3594SOL    HW111681   4.064   5.178   4.190
 3594SOL    HW211682   4.052   5.179   4.353
 3595SOL     OW11683   5.602   5.890   6.185
 3595SOL    HW111684   5.698   5.861   6.180
 3595SOL    HW211685   5.567   5.907   6.093
 3596SOL     OW11686   3.511   1.129   3.364
 3596SOL    HW111687   3.526   1.153   3.268
 3596SOL    HW211688   3.538   1.206   3.421
 3597SOL     OW11689   2.299   3.384   5.384
 3597SOL    HW111690   2.277   3.294   5.346
 3597SOL    HW211691   2.264   3.455   5.322
 3598SOL     OW11692   1.765   5.430   4.545
 3598SOL    HW111693   1.786   5.474   4.457
 3598SOL    HW211694   1.672   5.455   4.572
 3599SOL     OW11695   5.032   1.611   5.335
 3599SOL    HW111696   4.971   1.547   5.381
 3599SOL    HW211697   4.977   1.682   5.290
 3600SOL     OW11698   3.455   3.274   0.747
 3600SOL    HW111699   3.389   3.298   0.818
 3600SOL    HW211700   3.513   3.199   0.779
 3601SOL     OW11701   4.928   0.889   5.113
 3601SOL    HW111702   4.983   0.927   5.188
 3601SOL    HW211703   4.987   0.869   5.035
 3602SOL     OW11704   2.490   2.215   1.139
 3602SOL    HW111705   2.561   2.186   1.203
 3602SOL    HW211706   2.516   2.189   1.046
 3603SOL     OW11707   3.187   1.122   5.756
 3603SOL    HW111708   3.229   1.180   5.825
 3603SOL    HW211709   3.094   1.155   5.737
 3604SOL     OW11710   6.620   0.298   3.659
 3604SOL    HW111711   6.545   0.339   3.608
 3604SOL    HW211712   6.690   0.368   3.676
 3605SOL     OW11713   1.038   5.832   3.627
 3605SOL    HW111714   1.001   5.925   3.630
 3605SOL    HW211715   1.136   5.836   3.605
 3606SOL     OW11716   2.419   6.726   1.359
 3606SOL    HW111717   2.391   6.753   1.452
 3606SOL    HW211718   2.392   6.798   1.295
 3607SOL     OW11719   4.968   2.458   2.819
 3607SOL    HW111720   4.871   2.460   2.845
 3607SOL    HW211721   4.979   2.502   2.730
 3608SOL     OW11722   3.498   2.089   4.669
 3608SOL    HW111723   3.474   2.113   4.763
 3608SOL    HW211724   3.598   2.094   4.659
 3609SOL     OW11725   2.367   6.703   4.476
 3609SOL    HW111726   2.375   6.605   4.458
 3609SOL    HW211727   2.289   6.740   4.425
 3610SOL     OW11728   2.268   6.492   4.777
 3610SOL    HW111729   2.186   6.438   4.800
 3610SOL    HW211730   2.240   6.580   4.738
 3611SOL     OW11731   5.424   4.592   3.330
 3611SOL    HW111732   5.499   4.605   3.266
 3611SOL    HW211733   5.394   4.497   3.329
 3612SOL     OW11734   5.640   1.518   6.787
 3612SOL    HW111735   5.730   1.476   6.794
 3612SOL    HW211736   5.648   1.618   6.796
 3613SOL     OW11737   3.178   5.095   0.714
 3613SOL    HW111738   3.202   5.162   0.784
 3613SOL    HW211739   3.261   5.066   0.666
 3614SOL     OW11740   3.802   4.151   6.225
 3614SOL    HW111741   3.899   4.177   6.224
 3614SOL    HW211742   3.781   4.096   6.144
 3615SOL     OW11743   6.052   2.596   5.531
 3615SOL    HW111744   6.092   2.675   5.577
 3615SOL    HW211745   6.113   2.566   5.457
 3616SOL     OW11746   1.518   1.809   6.639
 3616SOL    HW111747   1.449   1.815   6.567
 3616SOL    HW211748   1.559   1.718   6.640
 3617SOL     OW11749   3.724   6.334   6.282
 3617SOL    HW111750   3.716   6.424   6.324
 3617SOL    HW211751   3.733   6.343   6.183
 3618SOL     OW11752   1.714   3.739   4.696
 3618SOL    HW111753   1.760   3.678   4.762
 3618SOL    HW211754   1.774   3.754   4.618
 3619SOL     OW11755   6.160   3.033   1.304
 3619SOL    HW111756   6.217   3.023   1.222
 3619SOL    HW211757   6.065   3.046   1.278
 3620SOL     OW11758   6.057   6.659   5.190
 3620SOL    HW111759   6.084   6.564   5.182
 3620SOL    HW211760   6.133   6.713   5.226
 3621SOL     OW11761   3.048   3.119   3.639
 3621SOL    HW111762   3.002   3.192   3.590
 3621SOL    HW211763   3.081   3.050   3.574
 3622SOL     OW11764   1.025   0.022   0.142
 3622SOL    HW111765   1.076   6.999   0.066
 3622SOL    HW211766   0.945   6.983   0.163
 3623SOL     OW11767   0.904   4.754   6.048
 3623SOL    HW111768   0.804   4.753   6.046
 3623SOL    HW211769   0.935   4.742   6.142
 3624SOL     OW11770   3.166   0.805   2.512
 3624SOL    HW111771   3.137   0.717   2.549
 3624SOL    HW211772   3.161   0.875   2.584
 3625SOL     OW11773   0.201   2.275   0.495
 3625SOL    HW111774   0.148   2.319   0.568
 3625SOL    HW211775   0.140   2.253   0.419
 3626SOL     OW11776   0.990   2.159   5.021
 3626SOL    HW111777   0.919   2.226   5.039
 3626SOL    HW211778   1.062   2.201   4.966
 3627SOL     OW11779   4.005   2.428   1.543
 3627SOL    HW111780   4.046   2.442   1.453
 3627SOL    HW211781   4.014   2.332   1.569
 3628SOL     OW11782   6.871   1.918   2.001
 3628SOL    HW111783   6.772   1.903   1.998
 3628SOL    HW211784   6.903   1.909   2.096
 3629SOL     OW11785   1.519   1.528   4.453
 3629SOL    HW111786   1.587   1.592   4.418
 3629SOL    HW211787   1.514   1.448   4.393
 3630SOL     OW11788   6.694   2.352   3.573
 3630SOL    HW111789   6.721   2.322   3.664
 3630SOL    HW211790   6.594   2.356   3.567
 3631SOL     OW11791   1.557   6.628   2.063
 3631SOL    HW111792   1.652   6.626   2.031
 3631SOL    HW211793   1.556   6.629   2.163
 3632SOL     OW11794   4.930   3.697   1.314
 3632SOL    HW111795   4.862   3.670   1.382
 3632SOL    HW211796   5.017   3.715   1.360
 3633SOL     OW11797   3.780   3.161   6.054
 3633SOL    HW111798   3.694   3.185   6.009
 3633SOL    HW211799   3.798   3.063   6.040
 3634SOL     OW11800   3.208   5.240   6.662
 3634SOL    HW111801   3.270   5.299   6.714
 3634SOL    HW211802   3.120   5.234   6.709
 3635SOL     OW11803   2.881   0.267   1.420
 3635SOL    HW111804   2.908   0.327   1.345
 3635SOL    HW211805   2.782   0.254   1.419
 3636SOL     OW11806   1.278   4.725   6.832
 3636SOL    HW111807   1.237   4.641   6.866
 3636SOL    HW211808   1.354   4.703   6.772
 3637SOL     OW11809   6.862   2.872   6.565
 3637SOL    HW111810   6.931   2.915   6.623
 3637SOL    HW211811   6.806   2.809   6.619
 3638SOL     OW11812   5.607   4.454   2.669
 3638SOL    HW111813   5.573   4.540   2.632
 3638SOL    HW211814   5.599   4.382   2.600
 3639SOL     OW11815   3.380   3.886   4.574
 3639SOL    HW111816   3.442   3.826   4.524
 3639SOL    HW211817   3.356   3.844   4.662
 3640SOL     OW11818   5.598   1.934   0.712
 3640SOL    HW111819   5.499   1.943   0.718
 3640SOL    HW211820   5.621   1.857   0.652
 3641SOL     OW11821   6.361   3.766   2.460
 3641SOL    HW111822   6.432   3.696   2.464
 3641SOL    HW211823   6.293   3.742   2.391
 3642SOL     OW11824   6.446   2.829   6.433
 3642SOL    HW111825   6.436   2.903   6.499
 3642SOL    HW211826   6.356   2.787   6.417
 3643SOL     OW11827   3.826   5.296   5.233
 3643SOL    HW111828   3.878   5.364   5.181
 3643SOL    HW211829   3.876   5.209   5.234
 3644SOL     OW11830   2.821   0.804   2.210
 3644SOL    HW111831   2.878   0.843   2.283
 3644SOL    HW211832   2.757   0.738   2.249
 3645SOL     OW11833   1.859   4.231   3.973
 3645SOL    HW111834   1.858   4.196   3.880
 3645SOL    HW211835   1.894   4.324   3.974
 3646SOL     OW11836   2.258   4.248   4.874
 3646SOL    HW111837   2.251   4.217   4.779
 3646SOL    HW211838   2.260   4.169   4.935
 3647SOL     OW11839   3.349   0.075   0.289
 3647SOL    HW111840   3.365   0.169   0.258
 3647SOL    HW211841   3.250   0.058   0.295
 3648SOL     OW11842   4.330   5.575   3.580
 3648SOL    HW111843   4.311   5.564   3.482
 3648SOL    HW211844   4.391   5.653   3.593
 3649SOL     OW11845   5.882   2.651   0.008
 3649SOL    HW111846   5.814   2.578   7.013
 3649SOL    HW211847   5.856   2.708   0.085
 3650SOL     OW11848   5.654   5.332   0.002
 3650SOL    HW111849   5.687   5.419   0.038
 3650SOL    HW211850   5.554   5.333   7.015
 3651SOL     OW11851   0.799   2.599   5.854
 3651SOL    HW111852   0.888   2.626   5.816
 3651SOL    HW211853   0.794   2.627   5.950
 3652SOL     OW11854   4.662   1.537   2.424
 3652SOL    HW111855   4.753   1.540   2.383
 3652SOL    HW211856   4.616   1.453   2.397
 3653SOL     OW11857   0.672   1.644   1.237
 3653SOL    HW111858   0.591   1.588   1.217
 3653SOL    HW211859   0.664   1.680   1.330
 3654SOL     OW11860   5.409   0.273   0.917
 3654SOL    HW111861   5.341   0.247   0.848
 3654SOL    HW211862   5.456   0.356   0.887
 3655SOL     OW11863   1.765   2.494   4.186
 3655SOL    HW111864   1.678   2.534   4.216
 3655SOL    HW211865   1.837   2.563   4.192
 3656SOL     OW11866   6.928   6.688   1.842
 3656SOL    HW111867   6.879   6.644   1.767
 3656SOL    HW211868   0.006   6.704   1.816
 3657SOL     OW11869   4.867   6.099   5.003
 3657SOL    HW111870   4.822   6.027   5.056
 3657SOL    HW211871   4.801   6.141   4.941
 3658SOL     OW11872   1.453   4.738   6.133
 3658SOL    HW111873   1.424   4.749   6.228
 3658SOL    HW211874   1.547   4.772   6.122
 3659SOL     OW11875   6.605   1.374   6.228
 3659SOL    HW111876   6.668   1.387   6.305
 3659SOL    HW211877   6.621   1.446   6.160
 3660SOL     OW11878   5.453   5.303   6.096
 3660SOL    HW111879   5.477   5.241   6.022
 3660SOL    HW211880   5.357   5.329   6.088
 3661SOL     OW11881   0.049   2.105   4.870
 3661SOL    HW111882   6.974   2.138   4.888
 3661SOL    HW211883   0.080   2.139   4.781
 3662SOL     OW11884   2.926   1.171   5.674
 3662SOL    HW111885   2.855   1.112   5.634
 3662SOL    HW211886   2.934   1.254   5.619
 3663SOL     OW11887   2.378   2.275   6.479
 3663SOL    HW111888   2.395   2.372   6.497
 3663SOL    HW211889   2.281   2.255   6.494
 3664SOL     OW11890   4.105   1.066   2.310
 3664SOL    HW111891   4.060   1.154   2.296
 3664SOL    HW211892   4.068   1.022   2.391
 3665SOL     OW11893   0.844   6.075   6.085
 3665SOL    HW111894   0.943   6.069   6.073
 3665SOL    HW211895   0.819   6.165   6.120
 3666SOL     OW11896   2.198   2.408   4.888
 3666SOL    HW111897   2.270   2.442   4.827
 3666SOL    HW211898   2.153   2.485   4.933
 3667SOL     OW11899   1.720   0.660   2.593
 3667SOL    HW111900   1.653   0.615   2.534
 3667SOL    HW211901   1.763   0.593   2.653
 3668SOL     OW11902   0.324   0.904   1.688
 3668SOL    HW111903   0.230   0.894   1.656
 3668SOL    HW211904   0.361   0.991   1.656
 3669SOL     OW11905   0.105   1.097   3.964
 3669SOL    HW111906   0.119   1.178   3.906
 3669SOL    HW211907   0.074   1.126   4.054
 3670SOL     OW11908   3.178   5.476   1.876
 3670SOL    HW111909   3.237   5.407   1.832
 3670SOL    HW211910   3.122   5.432   1.946
 3671SOL     OW11911   6.629   0.037   3.585
 3671SOL    HW111912   6.663   0.129   3.564
 3671SOL    HW211913   6.644   0.017   3.681
 3672SOL     OW11914   4.127   6.741   2.633
 3672SOL    HW111915   4.075   6.693   2.703
 3672SOL    HW211916   4.146   6.679   2.557
 3673SOL     OW11917   4.354   5.911   1.088
 3673SOL    HW111918   4.275   5.941   1.142
 3673SOL    HW211919   4.410   5.990   1.064
 3674SOL     OW11920   1.234   5.003   6.151
 3674SOL    HW111921   1.205   4.913   6.118
 3674SOL    HW211922   1.332   5.014   6.138
 3675SOL     OW11923   0.966   1.138   3.959
 3675SOL    HW111924   0.969   1.166   3.863
 3675SOL    HW211925   0.892   1.186   4.006
 3676SOL     OW11926   3.943   1.553   3.875
 3676SOL    HW111927   3.955   1.458   3.903
 3676SOL    HW211928   3.909   1.555   3.781
 3677SOL     OW11929   2.232   0.279   4.365
 3677SOL    HW111930   2.280   0.340   4.429
 3677SOL    HW211931   2.205   0.331   4.284
 3678SOL     OW11932   1.206   0.671   3.683
 3678SOL    HW111933   1.120   0.621   3.689
 3678SOL    HW211934   1.211   0.719   3.595
 3679SOL     OW11935   4.729   0.794   2.539
 3679SOL    HW111936   4.637   0.830   2.555
 3679SOL    HW211937   4.723   0.709   2.487
 3680SOL     OW11938   4.022   1.603   4.505
 3680SOL    HW111939   4.101   1.600   4.445
 3680SOL    HW211940   3.972   1.688   4.491
 3681SOL     OW11941   1.873   6.115   4.633
 3681SOL    HW111942   1.933   6.169   4.693
 3681SOL    HW211943   1.923   6.035   4.600
 3682SOL     OW11944   5.588   1.666   1.414
 3682SOL    HW111945   5.520   1.739   1.416
 3682SOL    HW211946   5.670   1.695   1.464
 3683SOL     OW11947   5.669   1.338   5.752
 3683SOL    HW111948   5.642   1.382   5.666
 3683SOL    HW211949   5.592   1.343   5.817
 3684SOL     OW11950   2.379   6.625   5.604
 3684SOL    HW111951   2.378   6.706   5.546
 3684SOL    HW211952   2.383   6.652   5.700
 3685SOL     OW11953   2.049   6.528   5.480
 3685SOL    HW111954   2.146   6.523   5.456
 3685SOL    HW211955   2.003   6.591   5.418
 3686SOL     OW11956   1.096   4.226   3.846
 3686SOL    HW111957   1.194   4.246   3.838
 3686SOL    HW211958   1.081   4.169   3.927
 3687SOL     OW11959   5.608   5.417   4.383
 3687SOL    HW111960   5.619   5.459   4.473
 3687SOL    HW211961   5.523   5.450   4.341
 3688SOL     OW11962   5.915   2.887   0.711
 3688SOL    HW111963   5.858   2.809   0.686
 3688SOL    HW211964   6.010   2.859   0.717
 3689SOL     OW11965   1.863   6.432   5.660
 3689SOL    HW111966   1.941   6.442   5.598
 3689SOL    HW211967   1.825   6.522   5.680
 3690SOL     OW11968   5.221   5.123   1.353
 3690SOL    HW111969   5.139   5.070   1.332
 3690SOL    HW211970   5.272   5.078   1.427
 3691SOL     OW11971   1.953   2.388   0.445
 3691SOL    HW111972   2.023   2.398   0.515
 3691SOL    HW211973   1.887   2.318   0.473
 3692SOL     OW11974   0.671   3.352   6.078
 3692SOL    HW111975   0.721   3.333   5.994
 3692SOL    HW211976   0.613   3.433   6.064
 3693SOL     OW11977   6.851   1.352   2.259
 3693SOL    HW111978   6.901   1.327   2.342
 3693SOL    HW211979   6.877   1.445   2.232
 3694SOL     OW11980   6.534   0.859   1.843
 3694SOL    HW111981   6.618   0.808   1.859
 3694SOL    HW211982   6.504   0.902   1.928
 3695SOL     OW11983   6.272   3.184   2.326
 3695SOL    HW111984   6.288   3.202   2.229
 3695SOL    HW211985   6.360   3.174   2.372
 3696SOL     OW11986   4.126   0.926   4.568
 3696SOL    HW111987   4.193   0.959   4.502
 3696SOL    HW211988   4.053   0.877   4.520
 3697SOL     OW11989   0.094   6.190   3.155
 3697SOL    HW111990   0.181   6.238   3.141
 3697SOL    HW211991   0.043   6.189   3.069
 3698SOL     OW11992   1.798   0.560   2.884
 3698SOL    HW111993   1.708   0.519   2.868
 3698SOL    HW211994   1.869   0.498   2.848
 3699SOL     OW11995   2.470   2.521   3.708
 3699SOL    HW111996   2.444   2.617   3.715
 3699SOL    HW211997   2.524   2.495   3.787
 3700SOL     OW11998   1.256   4.606   4.287
 3700SOL    HW111999   1.163   4.574   4.266
 3700SOL    HW212000   1.291   4.556   4.367
 3701SOL     OW12001   1.949   1.079   2.551
 3701SOL    HW112002   1.902   1.166   2.570
 3701SOL    HW212003   1.898   1.004   2.594
 3702SOL     OW12004   5.198   4.300   3.669
 3702SOL    HW112005   5.267   4.341   3.730
 3702SOL    HW212006   5.219   4.203   3.657
 3703SOL     OW12007   1.252   1.379   4.236
 3703SOL    HW112008   1.202   1.357   4.152
 3703SOL    HW212009   1.190   1.425   4.300
 3704SOL     OW12010   6.541   2.184   0.768
 3704SOL    HW112011   6.457   2.182   0.822
 3704SOL    HW212012   6.558   2.277   0.737
 3705SOL     OW12013   5.137   4.842   2.920
 3705SOL    HW112014   5.140   4.743   2.932
 3705SOL    HW212015   5.218   4.883   2.963
 3706SOL     OW12016   0.573   3.607   0.349
 3706SOL    HW112017   0.619   3.571   0.268
 3706SOL    HW212018   0.588   3.544   0.426
 3707SOL     OW12019   1.246   5.150   3.674
 3707SOL    HW112020   1.235   5.055   3.645
 3707SOL    HW212021   1.193   5.210   3.614
 3708SOL     OW12022   3.399   6.620   0.901
 3708SOL    HW112023   3.491   6.616   0.940
 3708SOL    HW212024   3.332   6.634   0.973
 3709SOL     OW12025   1.524   1.527   2.338
 3709SOL    HW112026   1.424   1.533   2.338
 3709SOL    HW212027   1.557   1.538   2.432
 3710SOL     OW12028   6.833   4.788   5.668
 3710SOL    HW112029   6.792   4.863   5.616
 3710SOL    HW212030   6.843   4.815   5.764
 3711SOL     OW12031   1.748   5.839   4.339
 3711SOL    HW112032   1.768   5.888   4.255
 3711SOL    HW212033   1.719   5.746   4.318
 3712SOL     OW12034   2.147   4.942   4.725
 3712SOL    HW112035   2.116   4.917   4.633
 3712SOL    HW212036   2.110   4.877   4.791
 3713SOL     OW12037   5.703   6.910   4.354
 3713SOL    HW112038   5.766   6.832   4.353
 3713SOL    HW212039   5.631   6.894   4.421
 3714SOL     OW12040   0.703   4.522   1.011
 3714SOL    HW112041   0.610   4.492   1.035
 3714SOL    HW212042   0.699   4.615   0.974
 3715SOL     OW12043   5.769   5.507   3.485
 3715SOL    HW112044   5.830   5.481   3.410
 3715SOL    HW212045   5.773   5.606   3.499
 3716SOL     OW12046   4.954   5.727   3.922
 3716SOL    HW112047   4.927   5.824   3.922
 3716SOL    HW212048   5.034   5.716   3.863
 3717SOL     OW12049   4.349   1.246   1.003
 3717SOL    HW112050   4.357   1.346   1.002
 3717SOL    HW212051   4.436   1.206   1.030
 3718SOL     OW12052   6.993   0.242   5.579
 3718SOL    HW112053   6.969   0.329   5.536
 3718SOL    HW212054   6.912   0.201   5.621
 3719SOL     OW12055   3.683   4.203   6.458
 3719SOL    HW112056   3.714   4.157   6.541
 3719SOL    HW212057   3.736   4.171   6.380
 3720SOL     OW12058   0.282   2.926   1.265
 3720SOL    HW112059   0.298   2.872   1.182
 3720SOL    HW212060   0.302   2.870   1.345
 3721SOL     OW12061   6.230   5.196   6.053
 3721SOL    HW112062   6.242   5.161   6.146
 3721SOL    HW212063   6.146   5.250   6.048
 3722SOL     OW12064   4.669   6.430   3.446
 3722SOL    HW112065   4.664   6.482   3.361
 3722SOL    HW212066   4.754   6.377   3.447
 3723SOL     OW12067   4.846   3.792   7.010
 3723SOL    HW112068   4.939   3.811   6.979
 3723SOL    HW212069   4.836   3.694   0.012
 3724SOL     OW12070   1.444   4.816   4.974
 3724SOL    HW112071   1.521   4.879   4.967
 3724SOL    HW212072   1.475   4.723   4.951
 3725SOL     OW12073   0.812   5.631   6.998
 3725SOL    HW112074   0.729   5.576   6.995
 3725SOL    HW212075   0.787   5.727   7.012
 3726SOL     OW12076   6.235   3.828   4.669
 3726SOL    HW112077   6.182   3.790   4.744
 3726SOL    HW212078   6.227   3.769   4.589
 3727SOL     OW12079   6.342   3.856   3.764
 3727SOL    HW112080   6.269   3.923   3.750
 3727SOL    HW212081   6.304   3.775   3.809
 3728SOL     OW12082   3.297   2.890   0.252
 3728SOL    HW112083   3.247   2.870   0.168
 3728SOL    HW212084   3.328   2.805   0.294
 3729SOL     OW12085   0.523   0.328   5.513
 3729SOL    HW112086   0.476   0.266   5.449
 3729SOL    HW212087   0.585   0.276   5.571
 3730SOL     OW12088   3.502   5.997   4.420
 3730SOL    HW112089   3.423   5.957   4.466
 3730SOL    HW212090   3.547   6.063   4.480
 3731SOL     OW12091   0.415   2.181   6.811
 3731SOL    HW112092   0.420   2.227   6.900
 3731SOL    HW212093   0.322   2.149   6.796
 3732SOL     OW12094   3.087   2.145   6.555
 3732SOL    HW112095   3.177   2.170   6.592
 3732SOL    HW212096   3.026   2.225   6.560
 3733SOL     OW12097   1.853   1.428   3.584
 3733SOL    HW112098   1.766   1.477   3.586
 3733SOL    HW212099   1.875   1.402   3.490
 3734SOL     OW12100   4.418   6.782   0.650
 3734SOL    HW112101   4.385   6.781   0.744
 3734SOL    HW212102   4.518   6.788   0.649
 3735SOL     OW12103   4.350   6.842   2.382
 3735SOL    HW112104   4.264   6.892   2.377
 3735SOL    HW212105   4.331   6.744   2.388
 3736SOL     OW12106   6.717   1.241   1.267
 3736SOL    HW112107   6.620   1.264   1.263
 3736SOL    HW212108   6.728   1.142   1.275
 3737SOL     OW12109   0.003   2.863   2.935
 3737SOL    HW112110   0.041   2.892   3.023
 3737SOL    HW212111   6.943   2.802   2.950
 3738SOL     OW12112   6.904   6.809   1.198
 3738SOL    HW112113   6.923   6.841   1.291
 3738SOL    HW212114   6.809   6.831   1.174
 3739SOL     OW12115   3.055   3.780   0.516
 3739SOL    HW112116   3.092   3.740   0.600
 3739SOL    HW212117   3.041   3.878   0.529
 3740SOL     OW12118   5.127   5.212   6.365
 3740SOL    HW112119   5.103   5.188   6.271
 3740SOL    HW212120   5.075   5.293   6.393
 3741SOL     OW12121   5.137   3.608   7.004
 3741SOL    HW112122   5.187   3.578   0.067
 3741SOL    HW212123   5.145   3.707   6.995
 3742SOL     OW12124   3.993   5.528   0.041
 3742SOL    HW112125   4.088   5.550   0.018
 3742SOL    HW212126   3.991   5.444   0.095
 3743SOL     OW12127   4.309   3.368   1.684
 3743SOL    HW112128   4.271   3.384   1.593
 3743SOL    HW212129   4.248   3.408   1.753
 3744SOL     OW12130   0.659   0.017   2.054
 3744SOL    HW112131   0.631   7.010   1.961
 3744SOL    HW212132   0.617   0.104   2.080
 3745SOL     OW12133   5.090   3.692   2.192
 3745SOL    HW112134   5.042   3.759   2.135
 3745SOL    HW212135   5.157   3.642   2.138
 3746SOL     OW12136   6.400   0.443   4.602
 3746SOL    HW112137   6.309   0.426   4.641
 3746SOL    HW212138   6.395   0.522   4.540
 3747SOL     OW12139   3.152   6.436   5.760
 3747SOL    HW112140   3.066   6.471   5.722
 3747SOL    HW212141   3.215   6.512   5.775
 3748SOL     OW12142   5.553   1.489   2.873
 3748SOL    HW112143   5.627   1.432   2.909
 3748SOL    HW212144   5.511   1.541   2.947
 3749SOL     OW12145   6.989   6.674   2.698
 3749SOL    HW112146   0.034   6.596   2.691
 3749SOL    HW212147   0.025   6.759   2.704
 3750SOL     OW12148   5.501   4.050   0.583
 3750SOL    HW112149   5.564   3.973   0.582
 3750SOL    HW212150   5.525   4.112   0.657
 3751SOL     OW12151   2.099   3.818   2.415
 3751SOL    HW112152   2.107   3.735   2.360
 3751SOL    HW212153   2.117   3.898   2.357
 3752SOL     OW12154   0.675   6.258   6.798
 3752SOL    HW112155   0.630   6.170   6.785
 3752SOL    HW212156   0.640   6.324   6.732
 3753SOL     OW12157   6.479   6.438   4.424
 3753SOL    HW112158   6.494   6.498   4.345
 3753SOL    HW212159   6.411   6.368   4.399
 3754SOL     OW12160   6.705   6.153   1.281
 3754SOL    HW112161   6.804   6.161   1.294
 3754SOL    HW212162   6.675   6.222   1.216
 3755SOL     OW12163   5.429   4.150   3.278
 3755SOL    HW112164   5.473   4.075   3.327
 3755SOL    HW212165   5.380   4.114   3.198
 3756SOL     OW12166   3.072   0.554   6.792
 3756SOL    HW112167   3.171   0.566   6.780
 3756SOL    HW212168   3.030   0.535   6.704
 3757SOL     OW12169   2.921   5.291   6.656
 3757SOL    HW112170   2.850   5.255   6.716
 3757SOL    HW212171   2.909   5.390   6.646
 3758SOL     OW12172   2.324   1.380   4.354
 3758SOL    HW112173   2.318   1.425   4.443
 3758SOL    HW212174   2.250   1.414   4.295
 3759SOL     OW12175   4.947   4.738   6.202
 3759SOL    HW112176   5.026   4.720   6.143
 3759SOL    HW212177   4.935   4.837   6.213
 3760SOL     OW12178   1.382   2.513   4.744
 3760SOL    HW112179   1.407   2.508   4.841
 3760SOL    HW212180   1.305   2.575   4.732
 3761SOL     OW12181   0.261   6.145   4.221
 3761SOL    HW112182   0.218   6.138   4.132
 3761SOL    HW212183   0.193   6.130   4.293
 3762SOL     OW12184   0.453   4.074   0.661
 3762SOL    HW112185   0.418   4.154   0.710
 3762SOL    HW212186   0.386   3.999   0.667
 3763SOL     OW12187   6.893   3.350   6.686
 3763SOL    HW112188   6.875   3.376   6.592
 3763SOL    HW212189   6.945   3.423   6.732
 3764SOL     OW12190   2.572   6.650   3.591
 3764SOL    HW112191   2.473   6.661   3.601
 3764SOL    HW212192   2.600   6.682   3.501
 3765SOL     OW12193   5.944   0.776   4.682
 3765SOL    HW112194   5.992   0.689   4.686
 3765SOL    HW212195   5.887   0.778   4.600
 3766SOL     OW12196   1.386   0.705   4.695
 3766SOL    HW112197   1.363   0.739   4.604
 3766SOL    HW212198   1.478   0.736   4.720
 3767SOL     OW12199   1.643   5.150   1.117
 3767SOL    HW112200   1.695   5.191   1.042
 3767SOL    HW212201   1.549   5.183   1.114
 3768SOL     OW12202   4.779   6.672   0.268
 3768SOL    HW112203   4.687   6.709   0.276
 3768SOL    HW212204   4.845   6.747   0.271
 3769SOL     OW12205   4.609   6.564   5.512
 3769SOL    HW112206   4.688   6.578   5.452
 3769SOL    HW212207   4.599   6.642   5.574
 3770SOL     OW12208   1.880   1.686   6.834
 3770SOL    HW112209   1.918   1.625   6.765
 3770SOL    HW212210   1.947   1.756   6.857
 3771SOL     OW12211   5.352   2.567   6.008
 3771SOL    HW112212   5.259   2.554   5.974
 3771SOL    HW212213   5.401   2.480   6.008
 3772SOL     OW12214   5.602   1.090   1.787
 3772SOL    HW112215   5.569   1.132   1.702
 3772SOL    HW212216   5.613   1.161   1.857
 3773SOL     OW12217   6.654   2.596   6.450
 3773SOL    HW112218   6.691   2.670   6.393
 3773SOL    HW212219   6.622   2.634   6.536
 3774SOL     OW12220   0.254   0.766   1.267
 3774SOL    HW112221   0.165   0.781   1.225
 3774SOL    HW212222   0.294   0.853   1.295
 3775SOL     OW12223   5.650   4.032   3.886
 3775SOL    HW112224   5.638   4.099   3.813
 3775SOL    HW212225   5.582   3.959   3.877
 3776SOL     OW12226   2.410   3.556   1.062
 3776SOL    HW112227   2.401   3.651   1.033
 3776SOL    HW212228   2.325   3.507   1.044
 3777SOL     OW12229   2.286   4.286   4.374
 3777SOL    HW112230   2.346   4.326   4.444
 3777SOL    HW212231   2.320   4.310   4.284
 3778SOL     OW12232   2.973   5.821   1.928
 3778SOL    HW112233   3.072   5.815   1.945
 3778SOL    HW212234   2.945   5.746   1.869
 3779SOL     OW12235   2.716   5.131   6.215
 3779SOL    HW112236   2.795   5.107   6.157
 3779SOL    HW212237   2.741   5.121   6.311
 3780SOL     OW12238   3.113   6.301   5.424
 3780SOL    HW112239   3.112   6.256   5.334
 3780SOL    HW212240   3.145   6.395   5.415
 3781SOL     OW12241   2.901   5.961   4.699
 3781SOL    HW112242   2.974   5.901   4.732
 3781SOL    HW212243   2.937   6.021   4.628
 3782SOL     OW12244   2.056   1.415   3.886
 3782SOL    HW112245   1.999   1.341   3.853
 3782SOL    HW212246   2.062   1.487   3.816
 3783SOL     OW12247   5.265   6.277   5.406
 3783SOL    HW112248   5.198   6.229   5.349
 3783SOL    HW212249   5.305   6.213   5.471
 3784SOL     OW12250   5.130   1.218   3.178
 3784SOL    HW112251   5.123   1.295   3.115
 3784SOL    HW212252   5.225   1.187   3.181
 3785SOL     OW12253   2.239   1.676   1.286
 3785SOL    HW112254   2.310   1.703   1.351
 3785SOL    HW212255   2.204   1.757   1.239
 3786SOL     OW12256   3.309   4.983   2.953
 3786SOL    HW112257   3.380   4.939   3.008
 3786SOL    HW212258   3.241   4.914   2.926
 3787SOL     OW12259   3.949   1.273   3.697
 3787SOL    HW112260   3.866   1.237   3.741
 3787SOL    HW212261   3.922   1.335   3.622
 3788SOL     OW12262   5.701   3.104   2.419
 3788SOL    HW112263   5.786   3.140   2.381
 3788SOL    HW212264   5.680   3.150   2.505
 3789SOL     OW12265   1.715   5.294   3.410
 3789SOL    HW112266   1.762   5.226   3.465
 3789SOL    HW212267   1.704   5.260   3.317
 3790SOL     OW12268   2.082   3.171   3.672
 3790SOL    HW112269   2.098   3.259   3.716
 3790SOL    HW212270   2.107   3.097   3.735
 3791SOL     OW12271   4.509   6.853   1.398
 3791SOL    HW112272   4.538   6.866   1.493
 3791SOL    HW212273   4.433   6.915   1.378
 3792SOL     OW12274   6.290   6.774   5.534
 3792SOL    HW112275   6.198   6.733   5.536
 3792SOL    HW212276   6.324   6.782   5.628
 3793SOL     OW12277   2.015   1.011   2.958
 3793SOL    HW112278   2.065   1.048   3.036
 3793SOL    HW212279   1.955   1.081   2.920
 3794SOL     OW12280   4.489   5.894   1.846
 3794SOL    HW112281   4.436   5.978   1.841
 3794SOL    HW212282   4.491   5.850   1.756
 3795SOL     OW12283   5.471   6.842   6.415
 3795SOL    HW112284   5.550   6.799   6.373
 3795SOL    HW212285   5.502   6.916   6.475
 3796SOL     OW12286   1.682   2.719   1.696
 3796SOL    HW112287   1.670   2.817   1.682
 3796SOL    HW212288   1.747   2.684   1.629
 3797SOL     OW12289   0.467   4.906   3.102
 3797SOL    HW112290   0.409   4.927   3.024
 3797SOL    HW212291   0.478   4.807   3.109
 3798SOL     OW12292   1.852   5.164   2.459
 3798SOL    HW112293   1.940   5.117   2.459
 3798SOL    HW212294   1.844   5.221   2.541
 3799SOL     OW12295   1.930   0.618   5.424
 3799SOL    HW112296   2.024   0.603   5.455
 3799SOL    HW212297   1.892   0.698   5.471
 3800SOL     OW12298   4.746   2.516   4.337
 3800SOL    HW112299   4.721   2.605   4.301
 3800SOL    HW212300   4.673   2.450   4.318
 3801SOL     OW12301   0.286   6.633   6.169
 3801SOL    HW112302   0.204   6.691   6.169
 3801SOL    HW212303   0.362   6.682   6.211
 3802SOL     OW12304   1.113   1.452   5.361
 3802SOL    HW112305   1.198   1.401   5.379
 3802SOL    HW212306   1.096   1.454   5.262
 3803SOL     OW12307   3.381   1.221   1.782
 3803SOL    HW112308   3.401   1.280   1.860
 3803SOL    HW212309   3.307   1.157   1.806
 3804SOL     OW12310   5.125   2.289   4.249
 3804SOL    HW112311   5.151   2.237   4.168
 3804SOL    HW212312   5.132   2.231   4.330
 3805SOL     OW12313   2.828   4.321   1.616
 3805SOL    HW112314   2.876   4.358   1.696
 3805SOL    HW212315   2.733   4.304   1.639
 3806SOL     OW12316   2.576   1.937   0.204
 3806SOL    HW112317   2.533   2.015   0.250
 3806SOL    HW212318   2.530   1.853   0.231
 3807SOL     OW12319   1.420   6.607   3.332
 3807SOL    HW112320   1.423   6.685   3.269
 3807SOL    HW212321   1.368   6.633   3.413
 3808SOL     OW12322   3.296   0.262   1.888
 3808SOL    HW112323   3.318   0.201   1.812
 3808SOL    HW212324   3.348   0.234   1.969
 3809SOL     OW12325   5.456   1.367   6.628
 3809SOL    HW112326   5.519   1.404   6.696
 3809SOL    HW212327   5.465   1.267   6.624
 3810SOL     OW12328   3.361   2.932   5.064
 3810SOL    HW112329   3.268   2.951   5.033
 3810SOL    HW212330   3.358   2.872   5.143
 3811SOL     OW12331   0.657   5.341   5.137
 3811SOL    HW112332   0.666   5.372   5.232
 3811SOL    HW212333   0.565   5.362   5.104
 3812SOL     OW12334   5.717   1.827   5.237
 3812SOL    HW112335   5.650   1.753   5.230
 3812SOL    HW212336   5.750   1.834   5.331
 3813SOL     OW12337   3.218   5.378   0.408
 3813SOL    HW112338   3.249   5.427   0.489
 3813SOL    HW212339   3.297   5.349   0.354
 3814SOL     OW12340   0.216   6.091   2.289
 3814SOL    HW112341   0.235   5.997   2.260
 3814SOL    HW212342   0.169   6.140   2.215
 3815SOL     OW12343   5.205   2.145   1.650
 3815SOL    HW112344   5.297   2.169   1.620
 3815SOL    HW212345   5.193   2.046   1.644
 3816SOL     OW12346   1.348   0.346   1.410
 3816SOL    HW112347   1.333   0.248   1.423
 3816SOL    HW212348   1.412   0.379   1.479
 3817SOL     OW12349   5.209   2.191   5.269
 3817SOL    HW112350   5.294   2.185   5.322
 3817SOL    HW212351   5.146   2.120   5.300
 3818SOL     OW12352   4.576   5.499   1.829
 3818SOL    HW112353   4.530   5.411   1.832
 3818SOL    HW212354   4.607   5.524   1.921
 3819SOL     OW12355   5.247   4.816   0.394
 3819SOL    HW112356   5.239   4.844   0.490
 3819SOL    HW212357   5.183   4.870   0.339
 3820SOL     OW12358   4.970   6.345   4.705
 3820SOL    HW112359   4.896   6.385   4.759
 3820SOL    HW212360   4.938   6.259   4.664
 3821SOL     OW12361   1.396   3.859   2.167
 3821SOL    HW112362   1.365   3.860   2.262
 3821SOL    HW212363   1.337   3.799   2.113
 3822SOL     OW12364   2.754   5.883   1.371
 3822SOL    HW112365   2.772   5.925   1.460
 3822SOL    HW212366   2.825   5.911   1.306
 3823SOL     OW12367   3.375   2.819   5.595
 3823SOL    HW112368   3.435   2.741   5.576
 3823SOL    HW212369   3.290   2.787   5.635
 3824SOL     OW12370   6.955   2.263   5.972
 3824SOL    HW112371   0.015   2.321   5.945
 3824SOL    HW212372   6.907   2.305   6.049
 3825SOL     OW12373   6.826   6.780   6.634
 3825SOL    HW112374   6.879   6.695   6.629
 3825SOL    HW212375   6.882   6.851   6.677
 3826SOL     OW12376   6.692   2.967   1.639
 3826SOL    HW112377   6.640   2.909   1.702
 3826SOL    HW212378   6.771   3.006   1.687
 3827SOL     OW12379   4.027   3.129   1.076
 3827SOL    HW112380   3.953   3.070   1.108
 3827SOL    HW212381   4.102   3.126   1.142
 3828SOL     OW12382   4.539   1.377   3.051
 3828SOL    HW112383   4.584   1.386   2.962
 3828SOL    HW212384   4.600   1.412   3.122
 3829SOL     OW12385   2.278   4.962   4.344
 3829SOL    HW112386   2.332   4.881   4.366
 3829SOL    HW212387   2.267   4.969   4.245
 3830SOL     OW12388   2.892   0.781   5.359
 3830SOL    HW112389   2.837   0.711   5.313
 3830SOL    HW212390   2.877   0.869   5.315
 3831SOL     OW12391   4.021   1.475   1.981
 3831SOL    HW112392   4.064   1.510   2.064
 3831SOL    HW212393   3.926   1.506   1.978
 3832SOL     OW12394   6.685   0.586   2.126
 3832SOL    HW112395   6.658   0.681   2.142
 3832SOL    HW212396   6.715   0.576   2.031
 3833SOL     OW12397   1.611   4.727   0.083
 3833SOL    HW112398   1.545   4.779   0.030
 3833SOL    HW212399   1.622   4.636   0.043
 3834SOL     OW12400   2.857   2.026   6.872
 3834SOL    HW112401   2.838   2.050   6.967
 3834SOL    HW212402   2.773   2.035   6.818
 3835SOL     OW12403   3.619   5.069   5.312
 3835SOL    HW112404   3.677   5.013   5.371
 3835SOL    HW212405   3.637   5.046   5.216
 3836SOL     OW12406   0.896   4.108   6.127
 3836SOL    HW112407   0.911   4.051   6.046
 3836SOL    HW212408   0.961   4.185   6.125
 3837SOL     OW12409   3.380   2.835   0.705
 3837SOL    HW112410   3.351   2.866   0.795
 3837SOL    HW212411   3.467   2.877   0.681
 3838SOL     OW12412   6.116   2.938   5.215
 3838SOL    HW112413   6.112   3.033   5.247
 3838SOL    HW212414   6.060   2.929   5.133
 3839SOL     OW12415   6.039   6.772   5.901
 3839SOL    HW112416   6.110   6.819   5.954
 3839SOL    HW212417   6.061   6.674   5.897
 3840SOL     OW12418   1.619   1.142   4.094
 3840SOL    HW112419   1.717   1.120   4.096
 3840SOL    HW212420   1.566   1.057   4.092
 3841SOL     OW12421   0.518   3.767   4.849
 3841SOL    HW112422   0.596   3.827   4.863
 3841SOL    HW212423   0.519   3.732   4.755
 3842SOL     OW12424   0.889   4.778   6.780
 3842SOL    HW112425   0.955   4.703   6.778
 3842SOL    HW212426   0.798   4.742   6.799
 3843SOL     OW12427   5.684   2.883   1.051
 3843SOL    HW112428   5.676   2.801   0.994
 3843SOL    HW212429   5.593   2.919   1.071
 3844SOL     OW12430   2.206   4.655   6.372
 3844SOL    HW112431   2.296   4.619   6.396
 3844SOL    HW212432   2.155   4.586   6.320
 3845SOL     OW12433   3.476   4.152   3.983
 3845SOL    HW112434   3.439   4.116   3.898
 3845SOL    HW212435   3.513   4.244   3.968
 3846SOL     OW12436   0.420   4.918   4.796
 3846SOL    HW112437   0.321   4.921   4.805
 3846SOL    HW212438   0.454   4.828   4.824
 3847SOL     OW12439   0.780   0.220   0.595
 3847SOL    HW112440   0.707   0.255   0.536
 3847SOL    HW212441   0.839   0.295   0.625
 3848SOL     OW12442   2.831   5.302   1.070
 3848SOL    HW112443   2.820   5.398   1.046
 3848SOL    HW212444   2.785   5.283   1.156
 3849SOL     OW12445   1.057   2.306   5.715
 3849SOL    HW112446   1.111   2.278   5.794
 3849SOL    HW212447   1.082   2.250   5.636
 3850SOL     OW12448   2.730   3.956   1.672
 3850SOL    HW112449   2.792   3.878   1.668
 3850SOL    HW212450   2.767   4.031   1.617
 3851SOL     OW12451   2.280   2.475   2.054
 3851SOL    HW112452   2.246   2.567   2.039
 3851SOL    HW212453   2.363   2.461   2.001
 3852SOL     OW12454   3.754   0.889   4.673
 3852SOL    HW112455   3.753   0.960   4.743
 3852SOL    HW212456   3.724   0.802   4.713
 3853SOL     OW12457   1.392   2.995   1.883
 3853SOL    HW112458   1.464   2.961   1.823
 3853SOL    HW212459   1.306   2.948   1.862
 3854SOL     OW12460   1.359   3.393   4.257
 3854SOL    HW112461   1.425   3.373   4.186
 3854SOL    HW212462   1.279   3.333   4.247
 3855SOL     OW12463   6.740   2.274   5.577
 3855SOL    HW112464   6.746   2.364   5.533
 3855SOL    HW212465   6.669   2.220   5.533
 3856SOL     OW12466   0.753   6.444   5.804
 3856SOL    HW112467   0.705   6.450   5.891
 3856SOL    HW212468   0.781   6.349   5.787
 3857SOL     OW12469   0.569   6.883   5.442
 3857SOL    HW112470   0.610   6.965   5.402
 3857SOL    HW212471   0.600   6.802   5.392
 3858SOL     OW12472   2.474   5.582   6.925
 3858SOL    HW112473   2.508   5.515   6.991
 3858SOL    HW212474   2.446   5.535   6.841
 3859SOL     OW12475   0.131   2.309   2.105
 3859SOL    HW112476   0.229   2.296   2.121
 3859SOL    HW212477   0.102   2.254   2.027
 3860SOL     OW12478   2.277   6.437   5.336
 3860SOL    HW112479   2.282   6.526   5.290
 3860SOL    HW212480   2.207   6.381   5.291
 3861SOL     OW12481   4.241   4.410   0.609
 3861SOL    HW112482   4.329   4.364   0.624
 3861SOL    HW212483   4.228   4.480   0.679
 3862SOL     OW12484   1.149   6.020   6.063
 3862SOL    HW112485   1.226   5.962   6.036
 3862SOL    HW212486   1.144   6.024   6.163
 3863SOL     OW12487   3.402   3.099   1.196
 3863SOL    HW112488   3.421   3.100   1.294
 3863SOL    HW212489   3.324   3.040   1.177
 3864SOL     OW12490   3.805   2.109   0.105
 3864SOL    HW112491   3.815   2.179   0.034
 3864SOL    HW212492   3.802   2.018   0.063
 3865SOL     OW12493   4.931   0.128   2.737
 3865SOL    HW112494   4.837   0.160   2.738
 3865SOL    HW212495   4.932   0.029   2.725
 3866SOL     OW12496   4.182   6.452   6.490
 3866SOL    HW112497   4.192   6.418   6.584
 3866SOL    HW212498   4.235   6.536   6.479
 3867SOL     OW12499   1.738   2.952   3.743
 3867SOL    HW112500   1.655   2.956   3.686
 3867SOL    HW212501   1.818   2.940   3.684
 3868SOL     OW12502   1.722   5.784   2.536
 3868SOL    HW112503   1.630   5.779   2.498
 3868SOL    HW212504   1.731   5.867   2.590
 3869SOL     OW12505   1.317   2.326   3.283
 3869SOL    HW112506   1.311   2.302   3.186
 3869SOL    HW212507   1.368   2.412   3.293
 3870SOL     OW12508   3.047   5.127   0.410
 3870SOL    HW112509   3.134   5.164   0.377
 3870SOL    HW212510   3.021   5.175   0.494
 3871SOL     OW12511   2.391   0.983   3.830
 3871SOL    HW112512   2.477   1.024   3.861
 3871SOL    HW212513   2.315   1.046   3.847
 3872SOL     OW12514   4.142   3.441   0.198
 3872SOL    HW112515   4.221   3.452   0.138
 3872SOL    HW212516   4.172   3.427   0.292
 3873SOL     OW12517   5.199   4.916   2.093
 3873SOL    HW112518   5.162   4.898   2.002
 3873SOL    HW212519   5.128   4.958   2.150
 3874SOL     OW12520   4.241   6.582   6.238
 3874SOL    HW112521   4.294   6.566   6.155
 3874SOL    HW212522   4.184   6.502   6.257
 3875SOL     OW12523   2.287   4.409   0.622
 3875SOL    HW112524   2.387   4.408   0.627
 3875SOL    HW212525   2.254   4.316   0.610
 3876SOL     OW12526   4.944   3.856   2.474
 3876SOL    HW112527   5.006   3.841   2.397
 3876SOL    HW212528   4.897   3.944   2.462
 3877SOL     OW12529   5.271   1.258   2.129
 3877SOL    HW112530   5.285   1.316   2.049
 3877SOL    HW212531   5.227   1.311   2.202
 3878SOL     OW12532   3.132   5.865   5.059
 3878SOL    HW112533   3.214   5.847   5.006
 3878SOL    HW212534   3.145   5.832   5.153
 3879SOL     OW12535   3.722   6.126   0.893
 3879SOL    HW112536   3.735   6.160   0.800
 3879SOL    HW212537   3.796   6.160   0.952
 3880SOL     OW12538   5.344   2.690   4.083
 3880SOL    HW112539   5.416   2.621   4.096
 3880SOL    HW212540   5.308   2.684   3.990
 3881SOL     OW12541   0.973   4.609   0.773
 3881SOL    HW112542   0.962   4.687   0.834
 3881SOL    HW212543   0.971   4.640   0.678
 3882SOL     OW12544   0.324   0.240   6.282
 3882SOL    HW112545   0.373   0.239   6.195
 3882SOL    HW212546   0.358   0.315   6.339
 3883SOL     OW12547   3.196   0.899   5.941
 3883SOL    HW112548   3.203   0.966   5.866
 3883SOL    HW212549   3.274   0.909   6.002
 3884SOL     OW12550   1.733   4.803   5.816
 3884SOL    HW112551   1.644   4.770   5.786
 3884SOL    HW212552   1.803   4.734   5.795
 3885SOL     OW12553   0.405   1.716   4.840
 3885SOL    HW112554   0.315   1.699   4.799
 3885SOL    HW212555   0.460   1.632   4.837
 3886SOL     OW12556   6.909   6.060   5.302
 3886SOL    HW112557   6.945   6.133   5.361
 3886SOL    HW212558   6.969   5.980   5.309
 3887SOL     OW12559   5.093   2.382   5.118
 3887SOL    HW112560   5.126   2.402   5.026
 3887SOL    HW212561   5.155   2.319   5.164
 3888SOL     OW12562   5.760   1.810   1.579
 3888SOL    HW112563   5.737   1.787   1.674
 3888SOL    HW212564   5.729   1.903   1.558
 3889SOL     OW12565   0.081   5.440   6.752
 3889SOL    HW112566   0.063   5.538   6.745
 3889SOL    HW212567   0.139   5.422   6.831
 3890SOL     OW12568   6.004   3.729   1.212
 3890SOL    HW112569   5.954   3.800   1.262
 3890SOL    HW212570   5.971   3.639   1.240
 3891SOL     OW12571   5.527   5.130   5.904
 3891SOL    HW112572   5.471   5.047   5.899
 3891SOL    HW212573   5.623   5.106   5.890
 3892SOL     OW12574   5.270   6.651   3.933
 3892SOL    HW112575   5.228   6.741   3.951
 3892SOL    HW212576   5.252   6.625   3.839
 3893SOL     OW12577   3.036   5.973   3.915
 3893SOL    HW112578   3.069   6.050   3.859
 3893SOL    HW212579   2.964   6.006   3.977
 3894SOL     OW12580   4.993   4.888   6.936
 3894SOL    HW112581   5.031   4.854   6.849
 3894SOL    HW212582   5.046   4.967   6.966
 3895SOL     OW12583   1.763   1.728   5.805
 3895SOL    HW112584   1.860   1.723   5.782
 3895SOL    HW212585   1.709   1.741   5.722
 3896SOL     OW12586   6.701   2.524   5.774
 3896SOL    HW112587   6.729   2.619   5.790
 3896SOL    HW212588   6.774   2.475   5.725
 3897SOL     OW12589   3.519   6.682   2.550
 3897SOL    HW112590   3.458   6.737   2.607
 3897SOL    HW212591   3.614   6.707   2.569
 3898SOL     OW12592   3.433   4.159   4.718
 3898SOL    HW112593   3.476   4.247   4.697
 3898SOL    HW212594   3.356   4.144   4.656
 3899SOL     OW12595   5.291   1.555   5.223
 3899SOL    HW112596   5.289   1.535   5.125
 3899SOL    HW212597   5.197   1.562   5.258
 3900SOL     OW12598   6.775   2.466   4.203
 3900SOL    HW112599   6.767   2.367   4.200
 3900SOL    HW212600   6.685   2.507   4.189
 3901SOL     OW12601   2.650   5.613   4.836
 3901SOL    HW112602   2.575   5.562   4.879
 3901SOL    HW212603   2.715   5.549   4.795
 3902SOL     OW12604   3.912   4.837   1.899
 3902SOL    HW112605   3.840   4.905   1.887
 3902SOL    HW212606   3.907   4.770   1.825
 3903SOL     OW12607   4.044   2.709   6.238
 3903SOL    HW112608   4.131   2.722   6.191
 3903SOL    HW212609   4.053   2.635   6.304
 3904SOL     OW12610   2.544   5.900   0.728
 3904SOL    HW112611   2.467   5.866   0.673
 3904SOL    HW212612   2.629   5.859   0.695
 3905SOL     OW12613   0.417   0.514   5.694
 3905SOL    HW112614   0.451   0.443   5.632
 3905SOL    HW212615   0.321   0.534   5.673
 3906SOL     OW12616   1.073   5.883   5.053
 3906SOL    HW112617   1.171   5.882   5.073
 3906SOL    HW212618   1.023   5.910   5.136
 3907SOL     OW12619   1.077   1.152   4.725
 3907SOL    HW112620   1.004   1.128   4.662
 3907SOL    HW212621   1.140   1.074   4.734
 3908SOL     OW12622   2.474   0.861   4.191
 3908SOL    HW112623   2.556   0.870   4.136
 3908SOL    HW212624   2.490   0.795   4.265
 3909SOL     OW12625   5.230   2.500   1.677
 3909SOL    HW112626   5.197   2.426   1.618
 3909SOL    HW212627   5.244   2.465   1.770
 3910SOL     OW12628   3.264   2.343   1.289
 3910SOL    HW112629   3.207   2.423   1.272
 3910SOL    HW212630   3.357   2.372   1.310
 3911SOL     OW12631   6.475   0.935   1.387
 3911SOL    HW112632   6.466   0.981   1.299
 3911SOL    HW212633   6.423   0.850   1.387
 3912SOL     OW12634   4.059   3.197   6.819
 3912SOL    HW112635   4.154   3.218   6.797
 3912SOL    HW212636   4.056   3.118   6.881
 3913SOL     OW12637   4.162   5.888   1.507
 3913SOL    HW112638   4.238   5.954   1.502
 3913SOL    HW212639   4.199   5.797   1.526
 3914SOL     OW12640   6.660   1.306   0.118
 3914SOL    HW112641   6.634   1.285   0.024
 3914SOL    HW212642   6.587   1.276   0.180
 3915SOL     OW12643   5.028   6.181   5.303
 3915SOL    HW112644   5.022   6.082   5.290
 3915SOL    HW212645   4.946   6.213   5.352
 3916SOL     OW12646   2.190   2.002   2.925
 3916SOL    HW112647   2.278   2.022   2.967
 3916SOL    HW212648   2.139   1.938   2.983
 3917SOL     OW12649   3.505   4.555   1.102
 3917SOL    HW112650   3.407   4.560   1.118
 3917SOL    HW212651   3.549   4.639   1.136
 3918SOL     OW12652   4.886   0.847   6.692
 3918SOL    HW112653   4.814   0.890   6.747
 3918SOL    HW212654   4.879   0.748   6.702
 3919SOL     OW12655   4.442   6.179   2.406
 3919SOL    HW112656   4.475   6.191   2.312
 3919SOL    HW212657   4.455   6.084   2.434
 3920SOL     OW12658   3.363   1.415   5.145
 3920SOL    HW112659   3.299   1.486   5.175
 3920SOL    HW212660   3.442   1.414   5.206
 3921SOL     OW12661   0.126   2.908   6.633
 3921SOL    HW112662   0.103   2.991   6.683
 3921SOL    HW212663   0.188   2.931   6.558
 3922SOL     OW12664   4.857   4.104   3.025
 3922SOL    HW112665   4.855   4.106   2.925
 3922SOL    HW212666   4.788   4.166   3.061
 3923SOL     OW12667   5.062   1.575   2.146
 3923SOL    HW112668   5.052   1.605   2.051
 3923SOL    HW212669   5.083   1.654   2.203
 3924SOL     OW12670   5.600   5.364   4.037
 3924SOL    HW112671   5.638   5.271   4.033
 3924SOL    HW212672   5.512   5.366   3.990
 3925SOL     OW12673   5.422   5.517   1.162
 3925SOL    HW112674   5.371   5.553   1.084
 3925SOL    HW212675   5.518   5.546   1.156
 3926SOL     OW12676   1.011   5.427   4.728
 3926SOL    HW112677   1.093   5.480   4.705
 3926SOL    HW212678   0.955   5.480   4.792
 3927SOL     OW12679   5.804   1.916   6.052
 3927SOL    HW112680   5.869   1.890   5.981
 3927SOL    HW212681   5.798   1.843   6.120
 3928SOL     OW12682   3.482   5.783   2.076
 3928SOL    HW112683   3.538   5.793   1.994
 3928SOL    HW212684   3.502   5.695   2.120
 3929SOL     OW12685   0.571   2.004   5.524
 3929SOL    HW112686   0.651   2.015   5.465
 3929SOL    HW212687   0.573   2.071   5.598
 3930SOL     OW12688   2.345   4.430   4.139
 3930SOL    HW112689   2.298   4.517   4.120
 3930SOL    HW212690   2.297   4.356   4.092
 3931SOL     OW12691   1.814   2.169   0.533
 3931SOL    HW112692   1.826   2.091   0.594
 3931SOL    HW212693   1.717   2.187   0.520
 3932SOL     OW12694   2.299   4.383   3.747
 3932SOL    HW112695   2.385   4.415   3.785
 3932SOL    HW212696   2.245   4.461   3.715
 3933SOL     OW12697   1.385   6.325   1.551
 3933SOL    HW112698   1.432   6.375   1.623
 3933SOL    HW212699   1.306   6.377   1.519
 3934SOL     OW12700   1.157   6.905   1.266
 3934SOL    HW112701   1.232   6.971   1.269
 3934SOL    HW212702   1.193   6.815   1.239
 3935SOL     OW12703   6.828   3.759   5.743
 3935SOL    HW112704   6.743   3.809   5.763
 3935SOL    HW212705   6.809   3.686   5.677
 3936SOL     OW12706   6.904   4.238   5.277
 3936SOL    HW112707   6.979   4.173   5.289
 3936SOL    HW212708   6.818   4.189   5.268
 3937SOL     OW12709   0.656   6.386   1.204
 3937SOL    HW112710   0.721   6.342   1.142
 3937SOL    HW212711   0.653   6.484   1.185
 3938SOL     OW12712   0.818   3.462   1.554
 3938SOL    HW112713   0.831   3.378   1.607
 3938SOL    HW212714   0.720   3.481   1.545
 3939SOL     OW12715   0.420   0.789   3.003
 3939SOL    HW112716   0.468   0.875   3.021
 3939SOL    HW212717   0.395   0.746   3.089
 3940SOL     OW12718   2.854   6.182   0.232
 3940SOL    HW112719   2.913   6.182   0.313
 3940SOL    HW212720   2.778   6.245   0.246
 3941SOL     OW12721   5.201   5.693   2.221
 3941SOL    HW112722   5.153   5.702   2.308
 3941SOL    HW212723   5.145   5.639   2.158
 3942SOL     OW12724   6.765   6.201   5.714
 3942SOL    HW112725   6.862   6.206   5.689
 3942SOL    HW212726   6.757   6.168   5.808
 3943SOL     OW12727   1.990   2.944   0.405
 3943SOL    HW112728   1.963   2.887   0.327
 3943SOL    HW212729   2.034   3.027   0.373
 3944SOL     OW12730   4.949   2.813   6.957
 3944SOL    HW112731   4.851   2.810   6.934
 3944SOL    HW212732   4.986   2.903   6.936
 3945SOL     OW12733   5.708   0.241   3.987
 3945SOL    HW112734   5.764   0.189   4.052
 3945SOL    HW212735   5.766   0.274   3.912
 3946SOL     OW12736   0.133   3.932   0.945
 3946SOL    HW112737   0.177   3.922   0.856
 3946SOL    HW212738   0.057   3.996   0.936
 3947SOL     OW12739   6.307   5.760   1.962
 3947SOL    HW112740   6.262   5.840   1.923
 3947SOL    HW212741   6.253   5.726   2.039
 3948SOL     OW12742   1.327   2.802   5.757
 3948SOL    HW112743   1.423   2.820   5.739
 3948SOL    HW212744   1.312   2.796   5.856
 3949SOL     OW12745   5.839   0.371   2.580
 3949SOL    HW112746   5.747   0.405   2.562
 3949SOL    HW212747   5.865   0.308   2.507
 3950SOL     OW12748   2.974   4.690   1.667
 3950SOL    HW112749   2.947   4.765   1.726
 3950SOL    HW212750   2.951   4.603   1.710
 3951SOL     OW12751   0.817   2.571   4.460
 3951SOL    HW112752   0.768   2.649   4.420
 3951SOL    HW212753   0.906   2.603   4.494
 3952SOL     OW12754   5.329   4.051   0.365
 3952SOL    HW112755   5.380   4.033   0.449
 3952SOL    HW212756   5.378   4.118   0.310
 3953SOL     OW12757   3.473   3.356   6.698
 3953SOL    HW112758   3.442   3.371   6.792
 3953SOL    HW212759   3.455   3.439   6.644
 3954SOL     OW12760   0.780   3.215   5.157
 3954SOL    HW112761   0.818   3.123   5.150
 3954SOL    HW212762   0.712   3.217   5.230
 3955SOL     OW12763   6.691   3.433   0.527
 3955SOL    HW112764   6.610   3.479   0.565
 3955SOL    HW212765   6.662   3.368   0.456
 3956SOL     OW12766   6.992   2.853   5.929
 3956SOL    HW112767   6.967   2.818   6.019
 3956SOL    HW212768   0.020   2.942   5.939
 3957SOL     OW12769   0.789   1.486   2.728
 3957SOL    HW112770   0.748   1.552   2.790
 3957SOL    HW212771   0.738   1.401   2.731
 3958SOL     OW12772   5.267   6.706   6.981
 3958SOL    HW112773   5.181   6.656   6.989
 3958SOL    HW212774   5.340   6.655   0.010
 3959SOL     OW12775   2.150   6.217   1.372
 3959SOL    HW112776   2.068   6.160   1.369
 3959SOL    HW212777   2.225   6.171   1.324
 3960SOL     OW12778   5.370   3.265   1.479
 3960SOL    HW112779   5.285   3.315   1.465
 3960SOL    HW212780   5.354   3.167   1.463
 3961SOL     OW12781   5.519   0.499   0.799
 3961SOL    HW112782   5.491   0.585   0.841
 3961SOL    HW212783   5.476   0.489   0.710
 3962SOL     OW12784   0.816   6.690   5.505
 3962SOL    HW112785   0.720   6.684   5.475
 3962SOL    HW212786   0.845   6.601   5.539
 3963SOL     OW12787   4.692   4.685   2.790
 3963SOL    HW112788   4.667   4.743   2.868
 3963SOL    HW212789   4.645   4.597   2.797
 3964SOL     OW12790   5.861   6.043   6.788
 3964SOL    HW112791   5.900   6.133   6.766
 3964SOL    HW212792   5.774   6.032   6.740
 3965SOL     OW12793   3.585   2.949   1.046
 3965SOL    HW112794   3.625   3.034   1.010
 3965SOL    HW212795   3.510   2.972   1.108
 3966SOL     OW12796   6.385   3.806   5.348
 3966SOL    HW112797   6.481   3.803   5.379
 3966SOL    HW212798   6.326   3.826   5.426
 3967SOL     OW12799   1.713   6.931   6.679
 3967SOL    HW112800   1.620   6.966   6.663
 3967SOL    HW212801   1.708   6.843   6.726
 3968SOL     OW12802   4.983   0.874   1.607
 3968SOL    HW112803   5.028   0.954   1.647
 3968SOL    HW212804   4.889   0.868   1.640
 3969SOL     OW12805   0.577   6.339   1.488
 3969SOL    HW112806   0.550   6.251   1.526
 3969SOL    HW212807   0.643   6.324   1.414
 3970SOL     OW12808   4.695   4.294   4.442
 3970SOL    HW112809   4.781   4.290   4.390
 3970SOL    HW212810   4.716   4.288   4.540
 3971SOL     OW12811   0.978   6.112   3.606
 3971SOL    HW112812   1.056   6.171   3.584
 3971SOL    HW212813   0.916   6.107   3.528
 3972SOL     OW12814   1.049   0.627   6.668
 3972SOL    HW112815   0.989   0.636   6.747
 3972SOL    HW212816   1.145   0.631   6.698
 3973SOL     OW12817   3.302   3.022   3.736
 3973SOL    HW112818   3.366   3.083   3.782
 3973SOL    HW212819   3.244   3.075   3.674
 3974SOL     OW12820   5.429   0.144   6.280
 3974SOL    HW112821   5.335   0.173   6.297
 3974SOL    HW212822   5.463   0.094   6.360
 3975SOL     OW12823   6.795   6.427   5.410
 3975SOL    HW112824   6.811   6.491   5.485
 3975SOL    HW212825   6.717   6.368   5.432
 3976SOL     OW12826   1.163   3.107   0.265
 3976SOL    HW112827   1.187   3.191   0.313
 3976SOL    HW212828   1.196   3.112   0.171
 3977SOL     OW12829   3.706   5.162   5.922
 3977SOL    HW112830   3.742   5.069   5.912
 3977SOL    HW212831   3.696   5.184   6.019
 3978SOL     OW12832   6.429   4.036   6.792
 3978SOL    HW112833   6.334   4.006   6.801
 3978SOL    HW212834   6.431   4.133   6.765
 3979SOL     OW12835   1.307   6.682   2.929
 3979SOL    HW112836   1.223   6.684   2.874
 3979SOL    HW212837   1.285   6.705   3.024
 3980SOL     OW12838   4.963   3.486   4.832
 3980SOL    HW112839   4.926   3.395   4.810
 3980SOL    HW212840   4.912   3.524   4.908
 3981SOL     OW12841   6.562   2.088   5.482
 3981SOL    HW112842   6.512   2.122   5.562
 3981SOL    HW212843   6.557   1.989   5.480
 3982SOL     OW12844   2.297   2.644   4.074
 3982SOL    HW112845   2.233   2.568   4.070
 3982SOL    HW212846   2.388   2.613   4.047
 3983SOL     OW12847   3.625   0.145   3.567
 3983SOL    HW112848   3.531   0.113   3.557
 3983SOL    HW212849   3.626   0.226   3.626
 3984SOL     OW12850   1.957   0.107   1.538
 3984SOL    HW112851   2.045   0.077   1.574
 3984SOL    HW212852   1.888   0.037   1.557
 3985SOL     OW12853   1.927   3.418   1.596
 3985SOL    HW112854   1.909   3.409   1.498
 3985SOL    HW212855   2.014   3.375   1.618
 3986SOL     OW12856   1.705   2.314   2.210
 3986SOL    HW112857   1.673   2.388   2.152
 3986SOL    HW212858   1.804   2.324   2.225
 3987SOL     OW12859   1.605   4.231   5.620
 3987SOL    HW112860   1.691   4.182   5.635
 3987SOL    HW212861   1.560   4.196   5.537
 3988SOL     OW12862   4.595   1.354   0.114
 3988SOL    HW112863   4.613   1.359   0.212
 3988SOL    HW212864   4.538   1.274   0.095
 3989SOL     OW12865   4.253   0.470   6.017
 3989SOL    HW112866   4.309   0.545   6.053
 3989SOL    HW212867   4.260   0.468   5.917
 3990SOL     OW12868   1.109   2.515   3.815
 3990SOL    HW112869   1.086   2.521   3.717
 3990SOL    HW212870   1.140   2.604   3.847
 3991SOL     OW12871   0.642   1.500   4.027
 3991SOL    HW112872   0.607   1.406   4.020
 3991SOL    HW212873   0.570   1.564   4.003
 3992SOL     OW12874   5.700   3.847   6.811
 3992SOL    HW112875   5.755   3.836   6.894
 3992SOL    HW212876   5.645   3.765   6.797
 3993SOL     OW12877   1.612   0.589   4.279
 3993SOL    HW112878   1.625   0.625   4.372
 3993SOL    HW212879   1.606   0.665   4.215
 3994SOL     OW12880   2.810   2.355   3.189
 3994SOL    HW112881   2.830   2.336   3.286
 3994SOL    HW212882   2.894   2.351   3.136
 3995SOL     OW12883   1.127   3.445   2.668
 3995SOL    HW112884   1.135   3.346   2.663
 3995SOL    HW212885   1.038   3.469   2.708
 3996SOL     OW12886   6.176   6.655   3.999
 3996SOL    HW112887   6.094   6.662   4.055
 3996SOL    HW212888   6.217   6.746   3.989
 3997SOL     OW12889   4.867   3.388   2.460
 3997SOL    HW112890   4.884   3.434   2.372
 3997SOL    HW212891   4.811   3.446   2.518
 3998SOL     OW12892   5.129   2.440   3.066
 3998SOL    HW112893   5.103   2.461   2.972
 3998SOL    HW212894   5.055   2.388   3.110
 3999SOL     OW12895   4.470   2.435   1.425
 3999SOL    HW112896   4.445   2.521   1.470
 3999SOL    HW212897   4.567   2.437   1.401
 4000SOL     OW12898   2.801   5.182   2.363
 4000SOL    HW112899   2.766   5.272   2.338
 4000SOL    HW212900   2.766   5.114   2.299
 4001SOL     OW12901   1.281   4.817   4.093
 4001SOL    HW112902   1.306   4.753   4.165
 4001SOL    HW212903   1.186   4.846   4.106
 4002SOL     OW12904   3.647   4.073   3.645
 4002SOL    HW112905   3.643   3.976   3.669
 4002SOL    HW212906   3.557   4.115   3.660
 4003SOL     OW12907   1.754   0.818   5.497
 4003SOL    HW112908   1.661   0.800   5.465
 4003SOL    HW212909   1.754   0.898   5.557
 4004SOL     OW12910   0.855   3.849   3.614
 4004SOL    HW112911   0.819   3.941   3.630
 4004SOL    HW212912   0.851   3.796   3.699
 4005SOL     OW12913   4.708   3.209   0.180
 4005SOL    HW112914   4.757   3.166   0.256
 4005SOL    HW212915   4.773   3.226   0.105
 4006SOL     OW12916   5.306   5.379   2.895
 4006SOL    HW112917   5.380   5.319   2.926
 4006SOL    HW212918   5.317   5.397   2.797
 4007SOL     OW12919   6.909   0.905   2.908
 4007SOL    HW112920   6.916   0.894   3.008
 4007SOL    HW212921   6.995   0.939   2.872
 4008SOL     OW12922   3.663   1.181   0.628
 4008SOL    HW112923   3.647   1.095   0.675
 4008SOL    HW212924   3.645   1.257   0.691
 4009SOL     OW12925   5.086   1.754   0.820
 4009SOL    HW112926   5.154   1.719   0.885
 4009SOL    HW212927   5.051   1.842   0.853
 4010SOL     OW12928   2.937   5.073   1.984
 4010SOL    HW112929   2.961   4.976   1.982
 4010SOL    HW212930   2.837   5.082   1.983
 4011SOL     OW12931   5.109   6.121   6.619
 4011SOL    HW112932   5.176   6.195   6.608
 4011SOL    HW212933   5.068   6.126   6.710
 4012SOL     OW12934   4.626   6.598   2.904
 4012SOL    HW112935   4.596   6.645   2.987
 4012SOL    HW212936   4.610   6.657   2.825
 4013SOL     OW12937   6.906   1.189   5.525
 4013SOL    HW112938   6.848   1.180   5.445
 4013SOL    HW212939   6.913   1.285   5.552
 4014SOL     OW12940   3.271   4.900   2.534
 4014SOL    HW112941   3.251   4.925   2.440
 4014SOL    HW212942   3.189   4.860   2.576
 4015SOL     OW12943   4.258   4.763   6.301
 4015SOL    HW112944   4.181   4.747   6.238
 4015SOL    HW212945   4.328   4.693   6.286
 4016SOL     OW12946   4.243   5.134   5.321
 4016SOL    HW112947   4.261   5.101   5.229
 4016SOL    HW212948   4.156   5.098   5.354
 4017SOL     OW12949   0.605   4.818   5.591
 4017SOL    HW112950   0.584   4.910   5.559
 4017SOL    HW212951   0.558   4.802   5.678
 4018SOL     OW12952   4.542   5.804   1.417
 4018SOL    HW112953   4.541   5.753   1.504
 4018SOL    HW212954   4.499   5.893   1.431
 4019SOL     OW12955   5.424   3.745   2.788
 4019SOL    HW112956   5.362   3.672   2.760
 4019SOL    HW212957   5.499   3.707   2.842
 4020SOL     OW12958   7.014   5.559   4.492
 4020SOL    HW112959   0.059   5.573   4.568
 4020SOL    HW212960   7.000   5.646   4.445
 4021SOL     OW12961   4.250   3.459   6.571
 4021SOL    HW112962   4.182   3.493   6.506
 4021SOL    HW212963   4.330   3.428   6.521
 4022SOL     OW12964   2.449   0.371   1.228
 4022SOL    HW112965   2.489   0.342   1.315
 4022SOL    HW212966   2.367   0.317   1.209
 4023SOL     OW12967   0.463   1.245   4.730
 4023SOL    HW112968   0.546   1.213   4.775
 4023SOL    HW212969   0.401   1.168   4.716
 4024SOL     OW12970   0.921   6.206   4.307
 4024SOL    HW112971   0.961   6.127   4.353
 4024SOL    HW212972   0.844   6.177   4.250
 4025SOL     OW12973   6.998   5.636   3.622
 4025SOL    HW112974   6.921   5.581   3.655
 4025SOL    HW212975   0.020   5.594   3.541
 4026SOL     OW12976   6.611   0.004   3.865
 4026SOL    HW112977   6.637   0.023   3.959
 4026SOL    HW212978   6.649   6.933   3.837
 4027SOL     OW12979   2.643   3.883   6.181
 4027SOL    HW112980   2.552   3.921   6.196
 4027SOL    HW212981   2.663   3.883   6.083
 4028SOL     OW12982   4.545   1.595   3.505
 4028SOL    HW112983   4.543   1.511   3.559
 4028SOL    HW212984   4.497   1.667   3.555
 4029SOL     OW12985   1.960   5.472   0.155
 4029SOL    HW112986   1.945   5.459   0.057
 4029SOL    HW212987   2.040   5.531   0.169
 4030SOL     OW12988   0.072   1.113   2.749
 4030SOL    HW112989   7.016   1.182   2.748
 4030SOL    HW212990   0.145   1.143   2.811
 4031SOL     OW12991   6.020   6.421   0.983
 4031SOL    HW112992   6.011   6.508   1.031
 4031SOL    HW212993   6.112   6.384   1.000
 4032SOL     OW12994   5.382   0.770   2.001
 4032SOL    HW112995   5.313   0.790   2.070
 4032SOL    HW212996   5.468   0.815   2.025
 4033SOL     OW12997   1.733   2.896   2.547
 4033SOL    HW112998   1.706   2.851   2.462
 4033SOL    HW212999   1.721   2.995   2.537
 4034SOL     OW13000   0.149   3.359   5.216
 4034SOL    HW113001   0.069   3.417   5.199
 4034SOL    HW213002   0.232   3.413   5.203
 4035SOL     OW13003   4.361   1.907   2.092
 4035SOL    HW113004   4.368   2.006   2.083
 4035SOL    HW213005   4.372   1.881   2.188
 4036SOL     OW13006   2.732   5.869   2.822
 4036SOL    HW113007   2.818   5.878   2.871
 4036SOL    HW213008   2.686   5.957   2.817
 4037SOL     OW13009   2.640   1.152   6.075
 4037SOL    HW113010   2.707   1.151   6.000
 4037SOL    HW213011   2.560   1.097   6.049
 4038SOL     OW13012   3.733   3.534   6.038
 4038SOL    HW113013   3.737   3.478   5.955
 4038SOL    HW213014   3.706   3.628   6.013
 4039SOL     OW13015   6.303   5.020   1.303
 4039SOL    HW113016   6.392   5.013   1.257
 4039SOL    HW213017   6.237   4.962   1.255
 4040SOL     OW13018   3.020   6.414   4.733
 4040SOL    HW113019   2.982   6.326   4.765
 4040SOL    HW213020   3.065   6.401   4.645
 4041SOL     OW13021   2.476   6.427   0.827
 4041SOL    HW113022   2.434   6.373   0.899
 4041SOL    HW213023   2.518   6.366   0.759
 4042SOL     OW13024   6.495   1.065   3.061
 4042SOL    HW113025   6.502   0.994   3.132
 4042SOL    HW213026   6.553   1.040   2.984
 4043SOL     OW13027   5.462   3.278   0.096
 4043SOL    HW113028   5.443   3.202   0.158
 4043SOL    HW213029   5.502   3.243   0.012
 4044SOL     OW13030   4.683   5.572   3.095
 4044SOL    HW113031   4.698   5.477   3.066
 4044SOL    HW213032   4.769   5.622   3.095
 4045SOL     OW13033   5.099   0.435   5.370
 4045SOL    HW113034   5.166   0.390   5.430
 4045SOL    HW213035   5.107   0.398   5.277
 4046SOL     OW13036   6.083   2.083   2.748
 4046SOL    HW113037   6.074   1.986   2.723
 4046SOL    HW213038   6.158   2.124   2.696
 4047SOL     OW13039   2.884   3.531   6.921
 4047SOL    HW113040   2.814   3.592   6.958
 4047SOL    HW213041   2.938   3.494   6.996
 4048SOL     OW13042   4.442   1.721   2.481
 4048SOL    HW113043   4.454   1.811   2.438
 4048SOL    HW213044   4.528   1.670   2.473
 4049SOL     OW13045   3.984   4.392   6.699
 4049SOL    HW113046   3.914   4.410   6.630
 4049SOL    HW213047   3.947   4.330   6.768
 4050SOL     OW13048   0.649   5.652   1.979
 4050SOL    HW113049   0.638   5.737   1.928
 4050SOL    HW213050   0.562   5.629   2.024
 4051SOL     OW13051   5.273   1.102   5.326
 4051SOL    HW113052   5.342   1.053   5.380
 4051SOL    HW213053   5.309   1.119   5.235
 4052SOL     OW13054   6.279   1.925   4.105
 4052SOL    HW113055   6.232   1.899   4.021
 4052SOL    HW213056   6.372   1.891   4.104
 4053SOL     OW13057   0.907   5.256   4.271
 4053SOL    HW113058   0.919   5.340   4.322
 4053SOL    HW213059   0.870   5.185   4.331
 4054SOL     OW13060   4.180   3.984   0.517
 4054SOL    HW113061   4.256   3.963   0.579
 4054SOL    HW213062   4.093   3.967   0.563
 4055SOL     OW13063   0.403   4.797   1.597
 4055SOL    HW113064   0.347   4.727   1.553
 4055SOL    HW213065   0.488   4.809   1.544
 4056SOL     OW13066   5.319   3.401   1.148
 4056SOL    HW113067   5.354   3.494   1.138
 4056SOL    HW213068   5.273   3.392   1.236
 4057SOL     OW13069   0.003   3.120   0.041
 4057SOL    HW113070   0.023   3.055   0.115
 4057SOL    HW213071   6.982   3.203   0.081
 4058SOL     OW13072   2.938   6.621   5.875
 4058SOL    HW113073   2.924   6.591   5.781
 4058SOL    HW213074   2.850   6.626   5.922
 4059SOL     OW13075   0.581   1.862   3.855
 4059SOL    HW113076   0.535   1.779   3.886
 4059SOL    HW213077   0.532   1.901   3.777
 4060SOL     OW13078   6.307   5.865   5.519
 4060SOL    HW113079   6.232   5.887   5.582
 4060SOL    HW213080   6.289   5.776   5.477
 4061SOL     OW13081   2.140   5.807   0.791
 4061SOL    HW113082   2.150   5.885   0.852
 4061SOL    HW213083   2.052   5.763   0.808
 4062SOL     OW13084   1.366   2.373   1.673
 4062SOL    HW113085   1.458   2.400   1.704
 4062SOL    HW213086   1.306   2.363   1.753
 4063SOL     OW13087   4.758   0.929   0.020
 4063SOL    HW113088   4.841   0.980   7.014
 4063SOL    HW213089   4.741   0.860   6.967
 4064SOL     OW13090   2.051   1.890   5.304
 4064SOL    HW113091   1.956   1.862   5.314
 4064SOL    HW213092   2.075   1.893   5.207
 4065SOL     OW13093   2.572   6.741   1.016
 4065SOL    HW113094   2.553   6.832   1.053
 4065SOL    HW213095   2.524   6.730   0.929
 4066SOL     OW13096   0.222   4.280   3.502
 4066SOL    HW113097   0.193   4.374   3.518
 4066SOL    HW213098   0.201   4.225   3.583
 4067SOL     OW13099   4.794   4.904   1.172
 4067SOL    HW113100   4.782   4.823   1.115
 4067SOL    HW213101   4.705   4.948   1.187
 4068SOL     OW13102   1.803   2.557   5.184
 4068SOL    HW113103   1.812   2.533   5.281
 4068SOL    HW213104   1.791   2.474   5.130
 4069SOL     OW13105   3.973   0.208   6.556
 4069SOL    HW113106   3.954   0.110   6.555
 4069SOL    HW213107   3.946   0.248   6.468
 4070SOL     OW13108   1.848   3.140   3.929
 4070SOL    HW113109   1.804   3.221   3.890
 4070SOL    HW213110   1.826   3.060   3.874
 4071SOL     OW13111   0.708   0.394   3.820
 4071SOL    HW113112   0.667   0.365   3.907
 4071SOL    HW213113   0.802   0.422   3.836
 4072SOL     OW13114   2.321   5.699   3.078
 4072SOL    HW113115   2.377   5.750   3.013
 4072SOL    HW213116   2.228   5.737   3.078
 4073SOL     OW13117   2.903   4.884   0.380
 4073SOL    HW113118   2.927   4.977   0.409
 4073SOL    HW213119   2.932   4.870   0.285
 4074SOL     OW13120   1.305   6.051   2.961
 4074SOL    HW113121   1.364   6.031   2.883
 4074SOL    HW213122   1.262   5.966   2.992
 4075SOL     OW13123   6.100   0.793   0.522
 4075SOL    HW113124   6.009   0.824   0.497
 4075SOL    HW213125   6.104   0.693   0.519
 4076SOL     OW13126   3.023   3.857   5.253
 4076SOL    HW113127   2.953   3.865   5.182
 4076SOL    HW213128   2.982   3.872   5.343
 4077SOL     OW13129   2.873   1.464   1.766
 4077SOL    HW113130   2.950   1.526   1.752
 4077SOL    HW213131   2.884   1.384   1.708
 4078SOL     OW13132   2.697   4.699   2.748
 4078SOL    HW113133   2.612   4.647   2.741
 4078SOL    HW213134   2.752   4.684   2.666
 4079SOL     OW13135   1.070   2.294   4.527
 4079SOL    HW113136   0.971   2.301   4.536
 4079SOL    HW213137   1.109   2.384   4.510
 4080SOL     OW13138   6.120   1.698   5.025
 4080SOL    HW113139   6.183   1.734   4.955
 4080SOL    HW213140   6.079   1.613   4.992
 4081SOL     OW13141   1.808   3.372   3.597
 4081SOL    HW113142   1.830   3.467   3.621
 4081SOL    HW213143   1.892   3.318   3.592
 4082SOL     OW13144   1.116   3.276   1.524
 4082SOL    HW113145   1.178   3.202   1.549
 4082SOL    HW213146   1.050   3.244   1.456
 4083SOL     OW13147   5.651   2.603   5.207
 4083SOL    HW113148   5.641   2.618   5.109
 4083SOL    HW213149   5.576   2.545   5.240
 4084SOL     OW13150   0.511   1.232   4.060
 4084SOL    HW113151   0.433   1.272   4.109
 4084SOL    HW213152   0.483   1.145   4.019
 4085SOL     OW13153   3.466   6.611   0.288
 4085SOL    HW113154   3.417   6.592   0.373
 4085SOL    HW213155   3.454   6.707   0.264
 4086SOL     OW13156   1.586   4.589   1.034
 4086SOL    HW113157   1.609   4.656   1.105
 4086SOL    HW213158   1.571   4.636   0.947
 4087SOL     OW13159   1.622   1.338   3.112
 4087SOL    HW113160   1.634   1.418   3.055
 4087SOL    HW213161   1.546   1.283   3.078
 4088SOL     OW13162   6.627   1.548   1.133
 4088SOL    HW113163   6.672   1.596   1.208
 4088SOL    HW213164   6.562   1.482   1.169
 4089SOL     OW13165   1.169   0.481   4.239
 4089SOL    HW113166   1.170   0.486   4.139
 4089SOL    HW213167   1.259   0.453   4.272
 4090SOL     OW13168   2.172   4.087   6.062
 4090SOL    HW113169   2.102   4.125   6.123
 4090SOL    HW213170   2.174   3.987   6.072
 4091SOL     OW13171   4.439   5.675   0.383
 4091SOL    HW113172   4.342   5.685   0.402
 4091SOL    HW213173   4.477   5.764   0.354
 4092SOL     OW13174   0.193   3.123   4.641
 4092SOL    HW113175   0.268   3.089   4.584
 4092SOL    HW213176   0.183   3.221   4.627
 4093SOL     OW13177   5.470   0.438   4.020
 4093SOL    HW113178   5.541   0.371   3.998
 4093SOL    HW213179   5.390   0.391   4.056
 4094SOL     OW13180   2.082   4.197   5.131
 4094SOL    HW113181   2.151   4.128   5.153
 4094SOL    HW213182   2.115   4.254   5.057
 4095SOL     OW13183   0.958   3.419   6.186
 4095SOL    HW113184   0.885   3.388   6.246
 4095SOL    HW213185   0.959   3.519   6.182
 4096SOL     OW13186   3.667   4.174   0.287
 4096SOL    HW113187   3.739   4.118   0.329
 4096SOL    HW213188   3.623   4.122   0.214
 4097SOL     OW13189   3.662   3.362   5.805
 4097SOL    HW113190   3.591   3.293   5.818
 4097SOL    HW213191   3.630   3.432   5.741
 4098SOL     OW13192   0.673   2.098   3.273
 4098SOL    HW113193   0.683   2.190   3.311
 4098SOL    HW213194   0.663   2.032   3.348
 4099SOL     OW13195   3.948   5.649   1.878
 4099SOL    HW113196   4.005   5.627   1.957
 4099SOL    HW213197   4.006   5.681   1.803
 4100SOL     OW13198   3.798   6.066   3.580
 4100SOL    HW113199   3.720   6.128   3.567
 4100SOL    HW213200   3.802   6.037   3.675
 4101SOL     OW13201   6.087   1.726   6.260
 4101SOL    HW113202   6.147   1.805   6.252
 4101SOL    HW213203   6.071   1.707   6.357
 4102SOL     OW13204   5.957   1.202   0.135
 4102SOL    HW113205   5.881   1.195   0.199
 4102SOL    HW213206   6.037   1.154   0.172
 4103SOL     OW13207   0.569   0.602   2.002
 4103SOL    HW113208   0.527   0.640   1.920
 4103SOL    HW213209   0.547   0.660   2.081
 4104SOL     OW13210   1.266   4.553   2.744
 4104SOL    HW113211   1.167   4.562   2.755
 4104SOL    HW213212   1.295   4.463   2.776
 4105SOL     OW13213   4.132   4.672   0.015
 4105SOL    HW113214   4.150   4.638   6.940
 4105SOL    HW213215   4.089   4.600   0.069
 4106SOL     OW13216   0.144   3.695   4.420
 4106SOL    HW113217   0.079   3.742   4.480
 4106SOL    HW213218   0.221   3.660   4.473
 4107SOL     OW13219   6.933   0.481   1.503
 4107SOL    HW113220   6.892   0.430   1.578
 4107SOL    HW213221   6.925   0.428   1.418
 4108SOL     OW13222   6.188   3.672   6.349
 4108SOL    HW113223   6.168   3.625   6.435
 4108SOL    HW213224   6.257   3.742   6.364
 4109SOL     OW13225   3.277   6.444   3.545
 4109SOL    HW113226   3.303   6.357   3.504
 4109SOL    HW213227   3.179   6.444   3.566
 4110SOL     OW13228   5.083   3.557   5.925
 4110SOL    HW113229   5.016   3.492   5.961
 4110SOL    HW213230   5.040   3.646   5.910
 4111SOL     OW13231   4.374   2.869   6.991
 4111SOL    HW113232   4.372   2.933   0.050
 4111SOL    HW213233   4.321   2.788   7.013
 4112SOL     OW13234   3.132   1.279   3.741
 4112SOL    HW113235   3.169   1.369   3.764
 4112SOL    HW213236   3.038   1.271   3.776
 4113SOL     OW13237   3.501   4.724   5.261
 4113SOL    HW113238   3.483   4.785   5.184
 4113SOL    HW213239   3.569   4.766   5.322
 4114SOL     OW13240   2.518   1.745   2.891
 4114SOL    HW113241   2.481   1.838   2.894
 4114SOL    HW213242   2.618   1.748   2.897
 4115SOL     OW13243   4.929   4.920   1.624
 4115SOL    HW113244   4.936   4.970   1.538
 4115SOL    HW213245   4.870   4.840   1.612
 4116SOL     OW13246   3.709   1.567   1.568
 4116SOL    HW113247   3.783   1.620   1.527
 4116SOL    HW213248   3.676   1.612   1.651
 4117SOL     OW13249   1.202   5.563   1.432
 4117SOL    HW113250   1.265   5.495   1.468
 4117SOL    HW213251   1.233   5.594   1.342
 4118SOL     OW13252   1.192   6.558   0.330
 4118SOL    HW113253   1.199   6.495   0.408
 4118SOL    HW213254   1.275   6.552   0.275
 4119SOL     OW13255   3.333   0.596   4.173
 4119SOL    HW113256   3.262   0.567   4.108
 4119SOL    HW213257   3.346   0.695   4.165
 4120SOL     OW13258   3.631   0.397   1.544
 4120SOL    HW113259   3.711   0.444   1.581
 4120SOL    HW213260   3.644   0.298   1.552
 4121SOL     OW13261   0.022   3.068   4.244
 4121SOL    HW113262   6.955   3.118   4.224
 4121SOL    HW213263   0.007   3.008   4.322
 4122SOL     OW13264   1.491   5.456   5.961
 4122SOL    HW113265   1.423   5.394   6.001
 4122SOL    HW213266   1.461   5.485   5.870
 4123SOL     OW13267   5.165   4.005   6.366
 4123SOL    HW113268   5.253   3.966   6.339
 4123SOL    HW213269   5.109   3.934   6.410
 4124SOL     OW13270   5.617   6.507   4.336
 4124SOL    HW113271   5.640   6.552   4.249
 4124SOL    HW213272   5.557   6.567   4.389
 4125SOL     OW13273   4.389   0.969   0.864
 4125SOL    HW113274   4.378   0.907   0.942
 4125SOL    HW213275   4.317   1.038   0.867
 4126SOL     OW13276   2.097   3.951   4.871
 4126SOL    HW113277   2.024   3.944   4.939
 4126SOL    HW213278   2.184   3.969   4.917
 4127SOL     OW13279   5.640   3.509   5.563
 4127SOL    HW113280   5.627   3.413   5.537
 4127SOL    HW213281   5.607   3.523   5.656
 4128SOL     OW13282   1.517   2.984   2.147
 4128SOL    HW113283   1.584   3.012   2.078
 4128SOL    HW213284   1.440   3.048   2.147
 4129SOL     OW13285   5.736   2.218   5.751
 4129SOL    HW113286   5.816   2.182   5.800
 4129SOL    HW213287   5.750   2.316   5.735
 4130SOL     OW13288   6.579   4.054   0.213
 4130SOL    HW113289   6.600   4.064   0.115
 4130SOL    HW213290   6.558   4.144   0.251
 4131SOL     OW13291   6.598   4.989   4.193
 4131SOL    HW113292   6.646   5.056   4.135
 4131SOL    HW213293   6.648   4.902   4.190
 4132SOL     OW13294   5.035   2.878   3.405
 4132SOL    HW113295   5.064   2.871   3.309
 4132SOL    HW213296   5.077   2.958   3.446
 4133SOL     OW13297   2.766   1.247   1.151
 4133SOL    HW113298   2.832   1.216   1.220
 4133SOL    HW213299   2.764   1.181   1.076
 4134SOL     OW13300   1.812   1.965   0.066
 4134SOL    HW113301   1.831   2.015   0.151
 4134SOL    HW213302   1.892   1.968   0.006
 4135SOL     OW13303   2.162   1.539   2.185
 4135SOL    HW113304   2.111   1.455   2.197
 4135SOL    HW213305   2.221   1.555   2.265
 4136SOL     OW13306   6.979   2.185   4.109
 4136SOL    HW113307   6.888   2.197   4.069
 4136SOL    HW213308   6.989   2.244   4.190
 4137SOL     OW13309   3.327   3.622   6.631
 4137SOL    HW113310   3.241   3.628   6.683
 4137SOL    HW213311   3.400   3.667   6.683
 4138SOL     OW13312   4.033   4.770   3.427
 4138SOL    HW113313   3.966   4.739   3.494
 4138SOL    HW213314   4.003   4.745   3.335
 4139SOL     OW13315   1.662   2.013   6.232
 4139SOL    HW113316   1.614   1.984   6.149
 4139SOL    HW213317   1.739   1.951   6.249
 4140SOL     OW13318   4.489   1.241   5.072
 4140SOL    HW113319   4.541   1.161   5.042
 4140SOL    HW213320   4.486   1.308   4.998
 4141SOL     OW13321   5.620   5.693   0.574
 4141SOL    HW113322   5.585   5.657   0.660
 4141SOL    HW213323   5.592   5.789   0.565
 4142SOL     OW13324   0.127   4.346   1.326
 4142SOL    HW113325   0.217   4.320   1.361
 4142SOL    HW213326   0.063   4.270   1.336
 4143SOL     OW13327   6.790   2.893   0.922
 4143SOL    HW113328   6.845   2.971   0.952
 4143SOL    HW213329   6.726   2.867   0.995
 4144SOL     OW13330   5.219   1.232   2.539
 4144SOL    HW113331   5.249   1.275   2.624
 4144SOL    HW213332   5.133   1.183   2.554
 4145SOL     OW13333   2.241   6.886   1.240
 4145SOL    HW113334   2.171   6.857   1.306
 4145SOL    HW213335   2.207   6.871   1.147
 4146SOL     OW13336   4.881   0.031   0.091
 4146SOL    HW113337   4.915   6.967   0.139
 4146SOL    HW213338   4.958   0.090   0.069
 4147SOL     OW13339   3.473   1.768   5.395
 4147SOL    HW113340   3.550   1.727   5.345
 4147SOL    HW213341   3.392   1.711   5.383
 4148SOL     OW13342   6.442   0.443   3.466
 4148SOL    HW113343   6.458   0.541   3.460
 4148SOL    HW213344   6.348   0.422   3.441
 4149SOL     OW13345   5.855   4.234   1.959
 4149SOL    HW113346   5.850   4.318   1.905
 4149SOL    HW213347   5.901   4.252   2.045
 4150SOL     OW13348   5.473   0.020   6.902
 4150SOL    HW113349   5.499   6.941   6.911
 4150SOL    HW213350   5.395   0.027   6.839
 4151SOL     OW13351   0.142   5.363   0.546
 4151SOL    HW113352   0.140   5.380   0.447
 4151SOL    HW213353   0.211   5.293   0.566
 4152SOL     OW13354   3.884   4.633   1.718
 4152SOL    HW113355   3.915   4.650   1.625
 4152SOL    HW213356   3.784   4.620   1.718
 4153SOL     OW13357   6.307   4.715   6.233
 4153SOL    HW113358   6.373   4.656   6.186
 4153SOL    HW213359   6.240   4.749   6.167
 4154SOL     OW13360   6.208   3.067   5.800
 4154SOL    HW113361   6.266   3.149   5.795
 4154SOL    HW213362   6.192   3.032   5.707
 4155SOL     OW13363   1.057   3.407   1.981
 4155SOL    HW113364   1.035   3.481   1.918
 4155SOL    HW213365   1.091   3.328   1.930
 4156SOL     OW13366   5.489   6.920   5.757
 4156SOL    HW113367   5.505   6.965   5.845
 4156SOL    HW213368   5.566   6.940   5.696
 4157SOL     OW13369   4.028   0.491   4.466
 4157SOL    HW113370   4.080   0.497   4.552
 4157SOL    HW213371   3.968   0.570   4.457
 4158SOL     OW13372   0.627   5.968   3.300
 4158SOL    HW113373   0.690   6.038   3.332
 4158SOL    HW213374   0.538   6.009   3.280
 4159SOL     OW13375   1.116   2.590   4.448
 4159SOL    HW113376   1.152   2.572   4.356
 4159SOL    HW213377   1.181   2.645   4.500
 4160SOL     OW13378   0.176   0.534   1.599
 4160SOL    HW113379   0.081   0.519   1.571
 4160SOL    HW213380   0.180   0.554   1.697
 4161SOL     OW13381   0.370   1.642   0.113
 4161SOL    HW113382   0.454   1.644   0.058
 4161SOL    HW213383   0.326   1.732   0.110
 4162SOL     OW13384   5.819   6.908   5.028
 4162SOL    HW113385   5.915   6.896   5.003
 4162SOL    HW213386   5.812   6.982   5.095
 4163SOL     OW13387   5.527   1.471   3.955
 4163SOL    HW113388   5.430   1.471   3.980
 4163SOL    HW213389   5.569   1.556   3.986
 4164SOL     OW13390   1.727   0.441   6.506
 4164SOL    HW113391   1.788   0.468   6.432
 4164SOL    HW213392   1.763   0.476   6.593
 4165SOL     OW13393   3.741   6.805   1.515
 4165SOL    HW113394   3.680   6.855   1.453
 4165SOL    HW213395   3.833   6.801   1.474
 4166SOL     OW13396   4.686   2.935   0.816
 4166SOL    HW113397   4.634   2.868   0.870
 4166SOL    HW213398   4.672   2.917   0.719
 4167SOL     OW13399   2.719   2.551   1.464
 4167SOL    HW113400   2.710   2.630   1.403
 4167SOL    HW213401   2.630   2.506   1.474
 4168SOL     OW13402   1.261   5.656   1.683
 4168SOL    HW113403   1.222   5.748   1.686
 4168SOL    HW213404   1.264   5.625   1.588
 4169SOL     OW13405   5.514   3.132   4.240
 4169SOL    HW113406   5.492   3.071   4.316
 4169SOL    HW213407   5.448   3.119   4.166
 4170SOL     OW13408   4.026   2.660   5.612
 4170SOL    HW113409   4.060   2.572   5.644
 4170SOL    HW213410   4.019   2.660   5.512
 4171SOL     OW13411   5.201   3.691   1.510
 4171SOL    HW113412   5.225   3.600   1.544
 4171SOL    HW213413   5.174   3.750   1.587
 4172SOL     OW13414   0.932   2.020   1.127
 4172SOL    HW113415   1.008   1.954   1.129
 4172SOL    HW213416   0.846   1.971   1.134
 4173SOL     OW13417   5.095   3.100   5.116
 4173SOL    HW113418   5.177   3.079   5.064
 4173SOL    HW213419   5.095   3.197   5.141
 4174SOL     OW13420   4.785   0.700   3.970
 4174SOL    HW113421   4.773   0.705   3.871
 4174SOL    HW213422   4.821   0.787   4.004
 4175SOL     OW13423   2.837   0.463   3.226
 4175SOL    HW113424   2.911   0.414   3.181
 4175SOL    HW213425   2.754   0.456   3.172
 4176SOL     OW13426   4.825   6.551   3.223
 4176SOL    HW113427   4.919   6.574   3.249
 4176SOL    HW213428   4.776   6.634   3.200
 4177SOL     OW13429   0.342   6.245   2.466
 4177SOL    HW113430   0.325   6.227   2.563
 4177SOL    HW213431   0.280   6.189   2.411
 4178SOL     OW13432   3.634   2.181   5.625
 4178SOL    HW113433   3.593   2.154   5.712
 4178SOL    HW213434   3.592   2.128   5.551
 4179SOL     OW13435   5.833   3.782   5.700
 4179SOL    HW113436   5.751   3.840   5.696
 4179SOL    HW213437   5.897   3.818   5.767
 4180SOL     OW13438   4.774   3.948   1.591
 4180SOL    HW113439   4.701   3.958   1.523
 4180SOL    HW213440   4.745   3.991   1.677
 4181SOL     OW13441   1.175   1.237   0.513
 4181SOL    HW113442   1.175   1.144   0.478
 4181SOL    HW213443   1.265   1.279   0.497
 4182SOL     OW13444   5.756   0.333   2.871
 4182SOL    HW113445   5.809   0.350   2.788
 4182SOL    HW213446   5.663   0.368   2.859
 4183SOL     OW13447   1.494   1.980   1.456
 4183SOL    HW113448   1.559   2.054   1.445
 4183SOL    HW213449   1.527   1.917   1.527
 4184SOL     OW13450   4.274   5.109   0.684
 4184SOL    HW113451   4.345   5.167   0.724
 4184SOL    HW213452   4.305   5.073   0.596
 4185SOL     OW13453   0.381   0.210   3.877
 4185SOL    HW113454   0.319   0.219   3.799
 4185SOL    HW213455   0.470   0.178   3.846
 4186SOL     OW13456   2.660   3.846   1.187
 4186SOL    HW113457   2.693   3.809   1.101
 4186SOL    HW213458   2.582   3.792   1.219
 4187SOL     OW13459   3.816   3.421   6.545
 4187SOL    HW113460   3.857   3.478   6.617
 4187SOL    HW213461   3.756   3.478   6.488
 4188SOL     OW13462   4.283   0.193   4.804
 4188SOL    HW113463   4.212   0.143   4.854
 4188SOL    HW213464   4.300   0.149   4.716
 4189SOL     OW13465   2.314   1.791   4.742
 4189SOL    HW113466   2.369   1.828   4.817
 4189SOL    HW213467   2.279   1.867   4.687
 4190SOL     OW13468   3.587   1.272   0.358
 4190SOL    HW113469   3.627   1.363   0.367
 4190SOL    HW213470   3.611   1.217   0.439
 4191SOL     OW13471   6.528   2.097   2.591
 4191SOL    HW113472   6.556   2.102   2.495
 4191SOL    HW213473   6.490   2.185   2.619
 4192SOL     OW13474   6.336   1.239   3.621
 4192SOL    HW113475   6.406   1.202   3.559
 4192SOL    HW213476   6.247   1.201   3.597
 4193SOL     OW13477   1.889   6.959   1.984
 4193SOL    HW113478   1.845   6.989   2.069
 4193SOL    HW213479   1.922   0.022   1.934
 4194SOL     OW13480   0.434   0.957   3.867
 4194SOL    HW113481   0.398   0.899   3.940
 4194SOL    HW213482   0.416   0.914   3.778
 4195SOL     OW13483   5.260   0.153   1.433
 4195SOL    HW113484   5.313   0.194   1.507
 4195SOL    HW213485   5.299   0.181   1.345
 4196SOL     OW13486   4.958   2.650   3.890
 4196SOL    HW113487   4.880   2.658   3.829
 4196SOL    HW213488   4.948   2.714   3.966
 4197SOL     OW13489   4.791   4.614   4.395
 4197SOL    HW113490   4.804   4.648   4.302
 4197SOL    HW213491   4.829   4.522   4.403
 4198SOL     OW13492   6.600   3.444   6.958
 4198SOL    HW113493   6.612   3.357   6.911
 4198SOL    HW213494   6.519   3.491   6.923
 4199SOL     OW13495   2.864   3.402   5.725
 4199SOL    HW113496   2.864   3.463   5.645
 4199SOL    HW213497   2.958   3.374   5.745
 4200SOL     OW13498   1.871   0.120   6.741
 4200SOL    HW113499   1.816   0.185   6.794
 4200SOL    HW213500   1.821   0.034   6.732
 4201SOL     OW13501   5.534   6.137   3.777
 4201SOL    HW113502   5.621   6.170   3.740
 4201SOL    HW213503   5.514   6.046   3.741
 4202SOL     OW13504   5.534   4.770   4.684
 4202SOL    HW113505   5.571   4.701   4.622
 4202SOL    HW213506   5.469   4.828   4.634
 4203SOL     OW13507   5.242   5.686   3.427
 4203SOL    HW113508   5.165   5.724   3.376
 4203SOL    HW213509   5.326   5.734   3.401
 4204SOL     OW13510   3.302   3.270   1.508
 4204SOL    HW113511   3.232   3.211   1.549
 4204SOL    HW213512   3.263   3.316   1.427
 4205SOL     OW13513   2.614   5.229   3.398
 4205SOL    HW113514   2.712   5.221   3.419
 4205SOL    HW213515   2.603   5.268   3.307
 4206SOL     OW13516   5.125   0.212   4.402
 4206SOL    HW113517   5.160   0.138   4.344
 4206SOL    HW213518   5.043   0.251   4.361
 4207SOL     OW13519   0.914   1.490   1.755
 4207SOL    HW113520   0.840   1.530   1.701
 4207SOL    HW213521   1.002   1.525   1.723
 4208SOL     OW13522   0.724   3.590   1.057
 4208SOL    HW113523   0.751   3.681   1.026
 4208SOL    HW213524   0.668   3.598   1.139
 4209SOL     OW13525   2.809   0.146   4.954
 4209SOL    HW113526   2.899   0.174   4.919
 4209SOL    HW213527   2.776   0.068   4.902
 4210SOL     OW13528   4.638   2.861   0.546
 4210SOL    HW113529   4.683   2.778   0.514
 4210SOL    HW213530   4.548   2.839   0.583
 4211SOL     OW13531   4.436   4.820   3.302
 4211SOL    HW113532   4.386   4.740   3.335
 4211SOL    HW213533   4.532   4.812   3.328
 4212SOL     OW13534   6.339   1.067   2.779
 4212SOL    HW113535   6.320   0.980   2.825
 4212SOL    HW213536   6.408   1.118   2.831
 4213SOL     OW13537   0.977   1.265   2.517
 4213SOL    HW113538   0.941   1.181   2.558
 4213SOL    HW213539   1.000   1.330   2.590
 4214SOL     OW13540   1.061   2.949   4.438
 4214SOL    HW113541   1.036   2.935   4.342
 4214SOL    HW213542   1.160   2.949   4.447
 4215SOL     OW13543   0.946   5.284   4.000
 4215SOL    HW113544   0.942   5.280   4.100
 4215SOL    HW213545   0.907   5.201   3.961
 4216SOL     OW13546   1.238   2.908   4.959
 4216SOL    HW113547   1.181   2.859   5.024
 4216SOL    HW213548   1.236   2.860   4.871
 4217SOL     OW13549   0.068   0.552   3.096
 4217SOL    HW113550   0.144   0.506   3.049
 4217SOL    HW213551   7.000   0.531   3.048
 4218SOL     OW13552   4.490   0.032   2.016
 4218SOL    HW113553   4.404   0.010   2.062
 4218SOL    HW213554   4.472   0.066   1.924
 4219SOL     OW13555   4.110   5.768   3.244
 4219SOL    HW113556   4.037   5.834   3.227
 4219SOL    HW213557   4.199   5.814   3.236
 4220SOL     OW13558   6.225   2.840   3.724
 4220SOL    HW113559   6.245   2.791   3.639
 4220SOL    HW213560   6.135   2.884   3.716
 4221SOL     OW13561   5.619   5.520   5.877
 4221SOL    HW113562   5.702   5.564   5.843
 4221SOL    HW213563   5.619   5.523   5.977
 4222SOL     OW13564   4.719   2.029   1.152
 4222SOL    HW113565   4.788   2.000   1.218
 4222SOL    HW213566   4.709   2.129   1.155
 4223SOL     OW13567   3.932   3.932   2.406
 4223SOL    HW113568   3.955   4.023   2.371
 4223SOL    HW213569   3.995   3.908   2.480
 4224SOL     OW13570   4.468   2.488   4.944
 4224SOL    HW113571   4.508   2.579   4.957
 4224SOL    HW213572   4.376   2.486   4.984
 4225SOL     OW13573   5.548   0.298   4.734
 4225SOL    HW113574   5.638   0.330   4.762
 4225SOL    HW213575   5.483   0.310   4.809
 4226SOL     OW13576   1.040   1.200   3.688
 4226SOL    HW113577   1.099   1.158   3.619
 4226SOL    HW213578   1.028   1.297   3.667
 4227SOL     OW13579   5.385   4.232   0.156
 4227SOL    HW113580   5.347   4.185   0.077
 4227SOL    HW213581   5.478   4.262   0.135
 4228SOL     OW13582   6.135   5.374   2.370
 4228SOL    HW113583   6.138   5.470   2.400
 4228SOL    HW213584   6.227   5.344   2.345
 4229SOL     OW13585   5.200   4.468   5.446
 4229SOL    HW113586   5.175   4.528   5.370
 4229SOL    HW213587   5.257   4.519   5.511
 4230SOL     OW13588   3.058   6.899   4.807
 4230SOL    HW113589   2.992   6.954   4.755
 4230SOL    HW213590   3.127   6.959   4.848
 4231SOL     OW13591   4.466   6.931   5.809
 4231SOL    HW113592   4.523   6.990   5.752
 4231SOL    HW213593   4.376   6.922   5.769
 4232SOL     OW13594   2.182   4.040   2.285
 4232SOL    HW113595   2.114   4.084   2.227
 4232SOL    HW213596   2.261   4.101   2.296
 4233SOL     OW13597   6.440   6.583   0.955
 4233SOL    HW113598   6.377   6.617   1.026
 4233SOL    HW213599   6.525   6.553   0.998
 4234SOL     OW13600   2.738   4.441   5.590
 4234SOL    HW113601   2.815   4.479   5.539
 4234SOL    HW213602   2.738   4.342   5.582
 4235SOL     OW13603   6.495   3.767   5.709
 4235SOL    HW113604   6.496   3.719   5.797
 4235SOL    HW213605   6.537   3.857   5.719
 4236SOL     OW13606   1.139   3.327   4.670
 4236SOL    HW113607   1.086   3.338   4.754
 4236SOL    HW213608   1.203   3.250   4.681
 4237SOL     OW13609   5.345   3.000   4.904
 4237SOL    HW113610   5.420   2.981   4.840
 4237SOL    HW213611   5.379   3.050   4.983
 4238SOL     OW13612   4.175   5.216   4.042
 4238SOL    HW113613   4.206   5.131   3.999
 4238SOL    HW213614   4.175   5.290   3.974
 4239SOL     OW13615   4.966   5.505   5.840
 4239SOL    HW113616   4.906   5.459   5.775
 4239SOL    HW213617   5.025   5.570   5.791
 4240SOL     OW13618   2.442   4.363   6.760
 4240SOL    HW113619   2.366   4.381   6.698
 4240SOL    HW213620   2.444   4.265   6.783
 4241SOL     OW13621   4.023   0.592   6.537
 4241SOL    HW113622   4.056   0.571   6.445
 4241SOL    HW213623   3.960   0.669   6.533
 4242SOL     OW13624   2.082   0.795   2.483
 4242SOL    HW113625   2.111   0.850   2.404
 4242SOL    HW213626   2.034   0.853   2.548
 4243SOL     OW13627   1.594   2.778   3.242
 4243SOL    HW113628   1.681   2.826   3.249
 4243SOL    HW213629   1.533   2.829   3.181
 4244SOL     OW13630   3.687   6.558   1.654
 4244SOL    HW113631   3.720   6.489   1.590
 4244SOL    HW213632   3.698   6.649   1.614
 4245SOL     OW13633   6.159   3.774   0.830
 4245SOL    HW113634   6.158   3.811   0.737
 4245SOL    HW213635   6.066   3.751   0.858
 4246SOL     OW13636   5.234   1.651   3.728
 4246SOL    HW113637   5.231   1.748   3.704
 4246SOL    HW213638   5.313   1.608   3.683
 4247SOL     OW13639   1.444   5.126   5.800
 4247SOL    HW113640   1.378   5.198   5.777
 4247SOL    HW213641   1.409   5.038   5.768
 4248SOL     OW13642   1.634   0.678   3.251
 4248SOL    HW113643   1.645   0.662   3.349
 4248SOL    HW213644   1.723   0.701   3.211
 4249SOL     OW13645   6.683   6.689   5.208
 4249SOL    HW113646   6.612   6.625   5.236
 4249SOL    HW213647   6.672   6.711   5.111
 4250SOL     OW13648   0.248   5.652   4.229
 4250SOL    HW113649   0.283   5.560   4.248
 4250SOL    HW213650   0.239   5.664   4.131
 4251SOL     OW13651   6.395   2.228   5.659
 4251SOL    HW113652   6.297   2.227   5.642
 4251SOL    HW213653   6.417   2.303   5.723
 4252SOL     OW13654   0.012   6.512   0.285
 4252SOL    HW113655   6.951   6.459   0.253
 4252SOL    HW213656   0.070   6.455   0.343
 4253SOL     OW13657   4.781   5.561   2.696
 4253SOL    HW113658   4.739   5.579   2.607
 4253SOL    HW213659   4.861   5.502   2.683
 4254SOL     OW13660   1.765   3.416   0.335
 4254SOL    HW113661   1.848   3.472   0.326
 4254SOL    HW213662   1.791   3.320   0.337
 4255SOL     OW13663   1.382   3.498   3.257
 4255SOL    HW113664   1.318   3.571   3.231
 4255SOL    HW213665   1.437   3.473   3.178
 4256SOL     OW13666   0.876   5.842   1.726
 4256SOL    HW113667   0.863   5.790   1.642
 4256SOL    HW213668   0.871   5.940   1.706
 4257SOL     OW13669   6.491   0.206   4.514
 4257SOL    HW113670   6.564   0.216   4.446
 4257SOL    HW213671   6.436   0.290   4.516
 4258SOL     OW13672   3.469   6.069   0.672
 4258SOL    HW113673   3.458   6.145   0.736
 4258SOL    HW213674   3.413   6.087   0.591
 4259SOL     OW13675   1.367   0.488   1.820
 4259SOL    HW113676   1.446   0.428   1.819
 4259SOL    HW213677   1.389   0.574   1.774
 4260SOL     OW13678   5.625   1.299   4.488
 4260SOL    HW113679   5.532   1.263   4.490
 4260SOL    HW213680   5.637   1.367   4.560
 4261SOL     OW13681   1.820   6.149   4.127
 4261SOL    HW113682   1.848   6.217   4.196
 4261SOL    HW213683   1.892   6.139   4.059
 4262SOL     OW13684   1.846   4.097   6.468
 4262SOL    HW113685   1.815   4.010   6.506
 4262SOL    HW213686   1.787   4.123   6.391
 4263SOL     OW13687   2.434   1.585   4.550
 4263SOL    HW113688   2.385   1.633   4.622
 4263SOL    HW213689   2.510   1.533   4.590
 4264SOL     OW13690   5.036   1.421   5.021
 4264SOL    HW113691   4.969   1.473   5.074
 4264SOL    HW213692   5.015   1.429   4.924
 4265SOL     OW13693   3.331   0.500   6.824
 4265SOL    HW113694   3.309   0.482   6.728
 4265SOL    HW213695   3.428   0.479   6.840
 4266SOL     OW13696   1.166   5.368   1.055
 4266SOL    HW113697   1.157   5.450   0.998
 4266SOL    HW213698   1.078   5.321   1.060
 4267SOL     OW13699   1.787   4.485   4.689
 4267SOL    HW113700   1.869   4.539   4.670
 4267SOL    HW213701   1.810   4.408   4.748
 4268SOL     OW13702   1.195   4.154   0.296
 4268SOL    HW113703   1.187   4.247   0.261
 4268SOL    HW213704   1.218   4.157   0.393
 4269SOL     OW13705   3.027   1.449   5.138
 4269SOL    HW113706   3.050   1.454   5.041
 4269SOL    HW213707   3.074   1.371   5.179
 4270SOL     OW13708   3.948   2.703   1.010
 4270SOL    HW113709   3.959   2.614   0.968
 4270SOL    HW213710   3.947   2.693   1.110
 4271SOL     OW13711   0.043   0.911   1.645
 4271SOL    HW113712   0.040   0.884   1.741
 4271SOL    HW213713   6.981   0.875   1.597
 4272SOL     OW13714   0.244   1.094   6.670
 4272SOL    HW113715   0.146   1.113   6.661
 4272SOL    HW213716   0.273   1.111   6.765
 4273SOL     OW13717   3.269   5.920   4.533
 4273SOL    HW113718   3.227   6.008   4.553
 4273SOL    HW213719   3.265   5.902   4.435
 4274SOL     OW13720   6.792   1.592   2.115
 4274SOL    HW113721   6.756   1.516   2.061
 4274SOL    HW213722   6.717   1.637   2.163
 4275SOL     OW13723   6.878   3.085   3.365
 4275SOL    HW113724   6.793   3.033   3.360
 4275SOL    HW213725   6.866   3.162   3.428
 4276SOL     OW13726   2.476   5.712   3.668
 4276SOL    HW113727   2.554   5.656   3.639
 4276SOL    HW213728   2.394   5.656   3.673
 4277SOL     OW13729   5.834   5.660   2.702
 4277SOL    HW113730   5.828   5.561   2.716
 4277SOL    HW213731   5.925   5.692   2.730
 4278SOL     OW13732   1.350   6.851   1.700
 4278SOL    HW113733   1.397   6.842   1.788
 4278SOL    HW213734   1.352   6.947   1.671
 4279SOL     OW13735   1.068   1.438   3.326
 4279SOL    HW113736   1.125   1.399   3.399
 4279SOL    HW213737   1.122   1.443   3.242
 4280SOL     OW13738   0.918   6.859   6.412
 4280SOL    HW113739   0.926   6.812   6.325
 4280SOL    HW213740   0.851   6.812   6.470
 4281SOL     OW13741   5.297   5.449   3.168
 4281SOL    HW113742   5.295   5.423   3.071
 4281SOL    HW213743   5.231   5.523   3.183
 4282SOL     OW13744   3.709   4.041   0.824
 4282SOL    HW113745   3.680   4.035   0.728
 4282SOL    HW213746   3.716   3.949   0.862
 4283SOL     OW13747   5.028   1.325   4.380
 4283SOL    HW113748   5.073   1.352   4.466
 4283SOL    HW213749   4.934   1.359   4.379
 4284SOL     OW13750   4.652   5.697   6.179
 4284SOL    HW113751   4.584   5.766   6.206
 4284SOL    HW213752   4.667   5.702   6.081
 4285SOL     OW13753   3.690   0.436   5.620
 4285SOL    HW113754   3.655   0.458   5.528
 4285SOL    HW213755   3.680   0.516   5.679
 4286SOL     OW13756   5.717   0.897   6.645
 4286SOL    HW113757   5.646   0.966   6.633
 4286SOL    HW213758   5.747   0.865   6.555
 4287SOL     OW13759   4.347   0.223   0.614
 4287SOL    HW113760   4.281   0.289   0.578
 4287SOL    HW213761   4.437   0.241   0.574
 4288SOL     OW13762   6.759   6.296   2.475
 4288SOL    HW113763   6.846   6.301   2.524
 4288SOL    HW213764   6.724   6.389   2.461
 4289SOL     OW13765   0.350   4.151   4.153
 4289SOL    HW113766   0.425   4.086   4.151
 4289SOL    HW213767   0.359   4.210   4.233
 4290SOL     OW13768   0.556   1.000   3.457
 4290SOL    HW113769   0.499   0.959   3.529
 4290SOL    HW213770   0.621   1.064   3.498
 4291SOL     OW13771   4.841   3.408   6.370
 4291SOL    HW113772   4.803   3.320   6.341
 4291SOL    HW213773   4.794   3.482   6.321
 4292SOL     OW13774   6.274   2.373   1.590
 4292SOL    HW113775   6.260   2.384   1.689
 4292SOL    HW213776   6.211   2.434   1.541
 4293SOL     OW13777   3.998   4.132   0.033
 4293SOL    HW113778   3.959   4.107   0.122
 4293SOL    HW213779   3.931   4.183   6.998
 4294SOL     OW13780   1.421   1.846   6.373
 4294SOL    HW113781   1.348   1.913   6.389
 4294SOL    HW213782   1.496   1.889   6.323
 4295SOL     OW13783   4.248   5.907   2.986
 4295SOL    HW113784   4.304   5.902   3.069
 4295SOL    HW213785   4.298   5.867   2.910
 4296SOL     OW13786   2.872   6.231   2.749
 4296SOL    HW113787   2.803   6.192   2.810
 4296SOL    HW213788   2.907   6.316   2.788
 4297SOL     OW13789   5.663   5.019   0.753
 4297SOL    HW113790   5.680   5.027   0.655
 4297SOL    HW213791   5.725   4.952   0.793
 4298SOL     OW13792   1.955   6.822   0.734
 4298SOL    HW113793   2.042   6.773   0.733
 4298SOL    HW213794   1.957   6.894   0.664
 4299SOL     OW13795   0.601   3.007   0.157
 4299SOL    HW113796   0.699   3.023   0.174
 4299SOL    HW213797   0.551   3.093   0.167
 4300SOL     OW13798   2.504   1.003   1.088
 4300SOL    HW113799   2.572   1.072   1.065
 4300SOL    HW213800   2.456   0.974   1.005
 4301SOL     OW13801   2.866   6.576   0.805
 4301SOL    HW113802   2.773   6.587   0.769
 4301SOL    HW213803   2.896   6.662   0.846
 4302SOL     OW13804   2.346   5.507   6.208
 4302SOL    HW113805   2.316   5.535   6.117
 4302SOL    HW213806   2.435   5.461   6.201
 4303SOL     OW13807   6.039   5.340   2.951
 4303SOL    HW113808   5.994   5.367   2.866
 4303SOL    HW213809   6.026   5.412   3.019
 4304SOL     OW13810   3.741   3.631   1.383
 4304SOL    HW113811   3.648   3.650   1.413
 4304SOL    HW213812   3.800   3.708   1.409
 4305SOL     OW13813   1.364   6.849   5.355
 4305SOL    HW113814   1.384   6.876   5.261
 4305SOL    HW213815   1.293   6.908   5.393
 4306SOL     OW13816   5.901   3.711   5.198
 4306SOL    HW113817   5.891   3.702   5.297
 4306SOL    HW213818   5.917   3.621   5.158
 4307SOL     OW13819   0.353   1.517   5.917
 4307SOL    HW113820   0.391   1.462   5.843
 4307SOL    HW213821   0.415   1.592   5.939
 4308SOL     OW13822   4.766   5.991   0.036
 4308SOL    HW113823   4.780   6.084   0.068
 4308SOL    HW213824   4.806   5.926   0.101
 4309SOL     OW13825   1.203   2.242   0.873
 4309SOL    HW113826   1.128   2.227   0.937
 4309SOL    HW213827   1.165   2.260   0.782
 4310SOL     OW13828   0.129   2.098   3.254
 4310SOL    HW113829   0.097   2.157   3.328
 4310SOL    HW213830   0.207   2.141   3.209
 4311SOL     OW13831   0.484   0.290   2.156
 4311SOL    HW113832   0.485   0.253   2.249
 4311SOL    HW213833   0.392   0.282   2.118
 4312SOL     OW13834   0.593   4.727   2.610
 4312SOL    HW113835   0.559   4.779   2.532
 4312SOL    HW213836   0.579   4.778   2.694
 4313SOL     OW13837   6.639   2.209   6.679
 4313SOL    HW113838   6.736   2.193   6.662
 4313SOL    HW213839   6.617   2.182   6.773
 4314SOL     OW13840   0.347   1.942   5.397
 4314SOL    HW113841   0.432   1.939   5.450
 4314SOL    HW213842   0.368   1.964   5.302
 4315SOL     OW13843   2.939   1.172   4.652
 4315SOL    HW113844   3.011   1.111   4.685
 4315SOL    HW213845   2.867   1.177   4.721
 4316SOL     OW13846   5.440   6.605   1.520
 4316SOL    HW113847   5.500   6.683   1.537
 4316SOL    HW213848   5.389   6.619   1.435
 4317SOL     OW13849   5.004   0.705   5.779
 4317SOL    HW113850   4.962   0.692   5.869
 4317SOL    HW213851   4.988   0.624   5.723
 4318SOL     OW13852   0.919   0.349   4.188
 4318SOL    HW113853   1.013   0.377   4.212
 4318SOL    HW213854   0.878   0.301   4.265
 4319SOL     OW13855   1.847   5.139   2.927
 4319SOL    HW113856   1.932   5.193   2.923
 4319SOL    HW213857   1.780   5.179   2.864
 4320SOL     OW13858   3.166   6.552   1.075
 4320SOL    HW113859   3.223   6.506   1.143
 4320SOL    HW213860   3.165   6.650   1.093
 4321SOL     OW13861   6.492   6.654   2.717
 4321SOL    HW113862   6.578   6.701   2.736
 4321SOL    HW213863   6.466   6.598   2.796
 4322SOL     OW13864   0.659   3.422   5.017
 4322SOL    HW113865   0.734   3.463   4.965
 4322SOL    HW213866   0.696   3.358   5.085
 4323SOL     OW13867   3.880   4.990   6.873
 4323SOL    HW113868   3.920   4.947   6.954
 4323SOL    HW213869   3.881   4.925   6.797
 4324SOL     OW13870   6.824   4.559   5.801
 4324SOL    HW113871   6.862   4.638   5.752
 4324SOL    HW213872   6.865   4.475   5.765
 4325SOL     OW13873   2.405   0.926   2.596
 4325SOL    HW113874   2.371   0.870   2.521
 4325SOL    HW213875   2.337   0.931   2.668
 4326SOL     OW13876   5.187   2.255   2.462
 4326SOL    HW113877   5.157   2.216   2.549
 4326SOL    HW213878   5.225   2.182   2.404
 4327SOL     OW13879   2.908   6.233   3.541
 4327SOL    HW113880   2.822   6.275   3.512
 4327SOL    HW213881   2.897   6.134   3.544
 4328SOL     OW13882   6.125   6.826   4.793
 4328SOL    HW113883   6.117   6.845   4.890
 4328SOL    HW213884   6.037   6.797   4.756
 4329SOL     OW13885   0.303   1.484   6.180
 4329SOL    HW113886   0.301   1.556   6.249
 4329SOL    HW213887   0.353   1.516   6.100
 4330SOL     OW13888   3.137   4.840   4.887
 4330SOL    HW113889   3.223   4.860   4.935
 4330SOL    HW213890   3.102   4.751   4.918
 4331SOL     OW13891   5.928   1.184   2.128
 4331SOL    HW113892   5.847   1.211   2.075
 4331SOL    HW213893   5.920   1.220   2.221
 4332SOL     OW13894   0.409   5.097   2.852
 4332SOL    HW113895   0.414   5.196   2.868
 4332SOL    HW213896   0.315   5.071   2.829
 4333SOL     OW13897   3.875   2.392   5.845
 4333SOL    HW113898   3.789   2.353   5.812
 4333SOL    HW213899   3.921   2.325   5.904
 4334SOL     OW13900   0.345   2.982   4.475
 4334SOL    HW113901   0.393   2.936   4.549
 4334SOL    HW213902   0.297   2.914   4.418
 4335SOL     OW13903   2.453   3.841   1.496
 4335SOL    HW113904   2.404   3.783   1.562
 4335SOL    HW213905   2.551   3.840   1.517
 4336SOL     OW13906   2.470   5.205   5.754
 4336SOL    HW113907   2.446   5.254   5.838
 4336SOL    HW213908   2.428   5.251   5.675
 4337SOL     OW13909   1.314   5.353   3.854
 4337SOL    HW113910   1.302   5.453   3.855
 4337SOL    HW213911   1.283   5.317   3.765
 4338SOL     OW13912   3.774   0.903   5.586
 4338SOL    HW113913   3.861   0.856   5.603
 4338SOL    HW213914   3.698   0.842   5.610
 4339SOL     OW13915   3.978   3.774   6.376
 4339SOL    HW113916   3.997   3.676   6.368
 4339SOL    HW213917   4.031   3.824   6.308
 4340SOL     OW13918   6.527   4.137   0.760
 4340SOL    HW113919   6.556   4.181   0.845
 4340SOL    HW213920   6.428   4.122   0.762
 4341SOL     OW13921   0.109   6.917   2.652
 4341SOL    HW113922   0.067   6.921   2.561
 4341SOL    HW213923   0.202   6.881   2.644
 4342SOL     OW13924   4.878   3.523   2.207
 4342SOL    HW113925   4.798   3.580   2.192
 4342SOL    HW213926   4.959   3.581   2.215
 4343SOL     OW13927   3.933   6.814   5.949
 4343SOL    HW113928   3.834   6.833   5.947
 4343SOL    HW213929   3.950   6.721   5.918
 4344SOL     OW13930   0.177   3.492   3.884
 4344SOL    HW113931   0.221   3.565   3.936
 4344SOL    HW213932   0.187   3.405   3.933
 4345SOL     OW13933   3.204   2.925   2.281
 4345SOL    HW113934   3.226   2.926   2.184
 4345SOL    HW213935   3.126   2.986   2.298
 4346SOL     OW13936   0.691   3.064   2.350
 4346SOL    HW113937   0.723   3.065   2.445
 4346SOL    HW213938   0.705   3.154   2.309
 4347SOL     OW13939   5.994   6.035   0.504
 4347SOL    HW113940   5.953   5.947   0.477
 4347SOL    HW213941   6.093   6.029   0.495
 4348SOL     OW13942   5.983   5.322   3.936
 4348SOL    HW113943   6.023   5.253   3.876
 4348SOL    HW213944   5.943   5.396   3.880
 4349SOL     OW13945   6.944   3.938   4.151
 4349SOL    HW113946   6.877   3.986   4.208
 4349SOL    HW213947   6.937   3.839   4.166
 4350SOL     OW13948   4.320   1.521   4.923
 4350SOL    HW113949   4.413   1.487   4.910
 4350SOL    HW213950   4.303   1.597   4.860
 4351SOL     OW13951   0.904   6.618   0.317
 4351SOL    HW113952   0.890   6.717   0.321
 4351SOL    HW213953   1.002   6.598   0.316
 4352SOL     OW13954   3.812   3.550   0.728
 4352SOL    HW113955   3.866   3.525   0.647
 4352SOL    HW213956   3.846   3.500   0.808
 4353SOL     OW13957   2.841   3.007   1.362
 4353SOL    HW113958   2.837   3.008   1.462
 4353SOL    HW213959   2.917   3.064   1.331
 4354SOL     OW13960   5.725   6.844   3.641
 4354SOL    HW113961   5.703   6.938   3.615
 4354SOL    HW213962   5.651   6.783   3.612
 4355SOL     OW13963   1.384   6.321   3.027
 4355SOL    HW113964   1.356   6.225   3.017
 4355SOL    HW213965   1.443   6.346   2.951
 4356SOL     OW13966   5.126   2.491   5.874
 4356SOL    HW113967   5.108   2.494   5.776
 4356SOL    HW213968   5.039   2.493   5.925
 4357SOL     OW13969   5.649   0.740   2.360
 4357SOL    HW113970   5.651   0.827   2.311
 4357SOL    HW213971   5.723   0.681   2.327
 4358SOL     OW13972   2.181   0.031   6.760
 4358SOL    HW113973   2.083   0.014   6.771
 4358SOL    HW213974   2.206   0.021   6.663
 4359SOL     OW13975   2.390   2.451   6.953
 4359SOL    HW113976   2.453   2.388   6.908
 4359SOL    HW213977   2.394   2.437   0.034
 4360SOL     OW13978   1.900   3.614   3.690
 4360SOL    HW113979   1.935   3.688   3.633
 4360SOL    HW213980   1.840   3.652   3.761
 4361SOL     OW13981   6.659   1.951   0.885
 4361SOL    HW113982   6.625   2.029   0.832
 4361SOL    HW213983   6.598   1.873   0.872
 4362SOL     OW13984   1.251   5.740   3.296
 4362SOL    HW113985   1.327   5.711   3.354
 4362SOL    HW213986   1.255   5.839   3.284
 4363SOL     OW13987   4.363   1.187   2.913
 4363SOL    HW113988   4.265   1.208   2.917
 4363SOL    HW213989   4.412   1.248   2.976
 4364SOL     OW13990   4.149   3.361   2.414
 4364SOL    HW113991   4.238   3.359   2.369
 4364SOL    HW213992   4.099   3.278   2.391
 4365SOL     OW13993   2.515   2.020   1.471
 4365SOL    HW113994   2.578   1.949   1.499
 4365SOL    HW213995   2.467   2.057   1.551
 4366SOL     OW13996   4.379   6.072   4.993
 4366SOL    HW113997   4.362   6.170   4.980
 4366SOL    HW213998   4.297   6.021   4.967
 4367SOL     OW13999   2.712   5.608   3.264
 4367SOL    HW114000   2.802   5.565   3.261
 4367SOL    HW214001   2.722   5.707   3.276
 4368SOL     OW14002   4.667   4.185   3.485
 4368SOL    HW114003   4.665   4.276   3.526
 4368SOL    HW214004   4.591   4.176   3.420
 4369SOL     OW14005   4.423   4.525   3.113
 4369SOL    HW114006   4.340   4.544   3.166
 4369SOL    HW214007   4.438   4.598   3.046
 4370SOL     OW14008   3.612   4.389   1.692
 4370SOL    HW114009   3.562   4.401   1.606
 4370SOL    HW214010   3.621   4.478   1.738
 4371SOL     OW14011   3.092   2.089   0.393
 4371SOL    HW114012   3.013   2.028   0.385
 4371SOL    HW214013   3.165   2.057   0.333
 4372SOL     OW14014   1.901   3.256   4.623
 4372SOL    HW114015   1.974   3.306   4.671
 4372SOL    HW214016   1.818   3.259   4.678
 4373SOL     OW14017   4.044   1.231   5.750
 4373SOL    HW114018   4.095   1.288   5.686
 4373SOL    HW214019   4.065   1.135   5.734
 4374SOL     OW14020   2.188   0.891   1.674
 4374SOL    HW114021   2.183   0.813   1.612
 4374SOL    HW214022   2.284   0.917   1.688
 4375SOL     OW14023   4.906   1.373   4.042
 4375SOL    HW114024   4.976   1.312   4.005
 4375SOL    HW214025   4.820   1.324   4.051
 4376SOL     OW14026   1.528   6.166   0.319
 4376SOL    HW114027   1.601   6.234   0.308
 4376SOL    HW214028   1.495   6.168   0.413
 4377SOL     OW14029   5.839   6.998   6.796
 4377SOL    HW114030   5.812   0.030   6.713
 4377SOL    HW214031   5.919   0.025   6.836
 4378SOL     OW14032   2.157   5.741   2.455
 4378SOL    HW114033   2.242   5.794   2.461
 4378SOL    HW214034   2.177   5.649   2.422
 4379SOL     OW14035   1.516   0.862   1.877
 4379SOL    HW114036   1.458   0.906   1.945
 4379SOL    HW214037   1.535   0.926   1.802
 4380SOL     OW14038   2.418   5.239   4.965
 4380SOL    HW114039   2.392   5.272   4.874
 4380SOL    HW214040   2.351   5.172   4.996
 4381SOL     OW14041   4.147   5.963   5.456
 4381SOL    HW114042   4.201   5.917   5.385
 4381SOL    HW214043   4.104   6.045   5.418
 4382SOL     OW14044   4.998   3.954   3.181
 4382SOL    HW114045   4.962   4.019   3.113
 4382SOL    HW214046   4.986   3.992   3.273
 4383SOL     OW14047   1.016   2.732   6.854
 4383SOL    HW114048   0.999   2.831   6.848
 4383SOL    HW214049   1.106   2.712   6.817
 4384SOL     OW14050   4.007   6.122   0.974
 4384SOL    HW114051   4.014   6.221   0.974
 4384SOL    HW214052   4.060   6.084   1.050
 4385SOL     OW14053   6.884   1.800   2.480
 4385SOL    HW114054   6.807   1.743   2.510
 4385SOL    HW214055   6.934   1.833   2.560
 4386SOL     OW14056   1.051   3.383   0.139
 4386SOL    HW114057   1.098   3.388   0.051
 4386SOL    HW214058   1.118   3.380   0.213
 4387SOL     OW14059   6.927   3.405   1.970
 4387SOL    HW114060   6.848   3.447   2.016
 4387SOL    HW214061   6.919   3.419   1.871
 4388SOL     OW14062   3.526   1.405   5.373
 4388SOL    HW114063   3.440   1.380   5.419
 4388SOL    HW214064   3.600   1.406   5.440
 4389SOL     OW14065   4.707   2.392   2.940
 4389SOL    HW114066   4.754   2.367   3.025
 4389SOL    HW214067   4.608   2.389   2.955
 4390SOL     OW14068   4.630   2.616   2.265
 4390SOL    HW114069   4.707   2.671   2.298
 4390SOL    HW214070   4.573   2.589   2.343
 4391SOL     OW14071   0.584   5.560   0.533
 4391SOL    HW114072   0.521   5.620   0.583
 4391SOL    HW214073   0.661   5.535   0.593
 4392SOL     OW14074   5.358   3.473   4.557
 4392SOL    HW114075   5.315   3.536   4.621
 4392SOL    HW214076   5.414   3.407   4.608
 4393SOL     OW14077   4.474   6.529   3.610
 4393SOL    HW114078   4.537   6.466   3.565
 4393SOL    HW214079   4.417   6.574   3.541
 4394SOL     OW14080   4.708   0.734   1.947
 4394SOL    HW114081   4.690   0.774   2.037
 4394SOL    HW214082   4.796   0.767   1.913
 4395SOL     OW14083   5.162   1.751   2.348
 4395SOL    HW114084   5.225   1.681   2.382
 4395SOL    HW214085   5.196   1.788   2.261
 4396SOL     OW14086   1.380   0.338   3.848
 4396SOL    HW114087   1.376   0.279   3.929
 4396SOL    HW214088   1.475   0.360   3.827
 4397SOL     OW14089   6.567   0.417   5.804
 4397SOL    HW114090   6.484   0.472   5.809
 4397SOL    HW214091   6.545   0.321   5.823
 4398SOL     OW14092   6.958   5.043   4.510
 4398SOL    HW114093   6.935   5.061   4.414
 4398SOL    HW214094   6.893   5.089   4.570
 4399SOL     OW14095   2.354   1.323   1.573
 4399SOL    HW114096   2.370   1.397   1.507
 4399SOL    HW214097   2.420   1.329   1.647
 4400SOL     OW14098   3.170   6.135   4.922
 4400SOL    HW114099   3.160   6.036   4.935
 4400SOL    HW214100   3.259   6.154   4.879
 4401SOL     OW14101   5.290   6.135   4.827
 4401SOL    HW114102   5.354   6.180   4.765
 4401SOL    HW214103   5.210   6.193   4.842
 4402SOL     OW14104   6.886   6.991   3.083
 4402SOL    HW114105   6.804   0.031   3.080
 4402SOL    HW214106   6.961   0.020   3.036
 4403SOL     OW14107   0.790   0.201   2.611
 4403SOL    HW114108   0.769   0.202   2.709
 4403SOL    HW214109   0.862   0.268   2.592
 4404SOL     OW14110   1.659   4.128   3.288
 4404SOL    HW114111   1.592   4.193   3.323
 4404SOL    HW214112   1.750   4.168   3.294
 4405SOL     OW14113   3.364   4.039   5.534
 4405SOL    HW114114   3.441   4.102   5.549
 4405SOL    HW214115   3.375   3.993   5.446
 4406SOL     OW14116   5.320   3.765   1.270
 4406SOL    HW114117   5.410   3.721   1.268
 4406SOL    HW214118   5.266   3.728   1.346
 4407SOL     OW14119   6.460   6.758   0.164
 4407SOL    HW114120   6.544   6.811   0.173
 4407SOL    HW214121   6.438   6.716   0.252
 4408SOL     OW14122   4.704   5.575   6.976
 4408SOL    HW114123   4.804   5.574   6.973
 4408SOL    HW214124   4.673   5.554   0.051
 4409SOL     OW14125   3.356   1.297   2.056
 4409SOL    HW114126   3.277   1.264   2.004
 4409SOL    HW214127   3.331   1.379   2.106
 4410SOL     OW14128   2.750   5.582   1.715
 4410SOL    HW114129   2.722   5.675   1.691
 4410SOL    HW214130   2.765   5.529   1.631
 4411SOL     OW14131   3.748   3.124   2.641
 4411SOL    HW114132   3.688   3.044   2.637
 4411SOL    HW214133   3.696   3.204   2.669
 4412SOL     OW14134   3.863   2.508   6.558
 4412SOL    HW114135   3.915   2.553   6.631
 4412SOL    HW214136   3.806   2.576   6.511
 4413SOL     OW14137   3.936   6.127   4.687
 4413SOL    HW114138   3.974   6.102   4.597
 4413SOL    HW214139   3.874   6.205   4.676
 4414SOL     OW14140   3.677   5.033   1.884
 4414SOL    HW114141   3.625   5.117   1.864
 4414SOL    HW214142   3.618   4.968   1.932
 4415SOL     OW14143   5.092   2.691   0.144
 4415SOL    HW114144   5.048   2.754   0.080
 4415SOL    HW214145   5.036   2.608   0.152
 4416SOL     OW14146   3.736   0.688   3.423
 4416SOL    HW114147   3.787   0.603   3.439
 4416SOL    HW214148   3.799   0.765   3.423
 4417SOL     OW14149   0.049   0.015   1.941
 4417SOL    HW114150   0.139   0.046   1.973
 4417SOL    HW214151   6.995   0.064   1.991
 4418SOL     OW14152   3.984   6.778   3.287
 4418SOL    HW114153   4.003   6.693   3.336
 4418SOL    HW214154   4.041   6.782   3.205
 4419SOL     OW14155   0.426   5.089   6.409
 4419SOL    HW114156   0.452   5.081   6.313
 4419SOL    HW214157   0.491   5.148   6.456
 4420SOL     OW14158   5.155   1.780   6.518
 4420SOL    HW114159   5.169   1.798   6.420
 4420SOL    HW214160   5.084   1.841   6.553
 4421SOL     OW14161   1.625   1.651   3.559
 4421SOL    HW114162   1.558   1.714   3.598
 4421SOL    HW214163   1.599   1.557   3.581
 4422SOL     OW14164   2.430   3.591   5.953
 4422SOL    HW114165   2.444   3.579   5.854
 4422SOL    HW214166   2.409   3.687   5.972
 4423SOL     OW14167   0.876   2.271   6.682
 4423SOL    HW114168   0.867   2.245   6.586
 4423SOL    HW214169   0.950   2.217   6.724
 4424SOL     OW14170   0.079   0.190   3.112
 4424SOL    HW114171   0.157   0.146   3.068
 4424SOL    HW214172   0.106   0.220   3.204
 4425SOL     OW14173   4.666   4.201   6.662
 4425SOL    HW114174   4.577   4.203   6.709
 4425SOL    HW214175   4.698   4.295   6.648
 4426SOL     OW14176   0.807   0.402   5.851
 4426SOL    HW114177   0.752   0.329   5.811
 4426SOL    HW214178   0.895   0.364   5.883
 4427SOL     OW14179   1.086   0.054   3.650
 4427SOL    HW114180   1.101   0.058   3.749
 4427SOL    HW214181   1.155   7.013   3.608
 4428SOL     OW14182   2.612   5.459   3.014
 4428SOL    HW114183   2.644   5.517   3.089
 4428SOL    HW214184   2.673   5.379   3.007
 4429SOL     OW14185   4.243   0.010   3.260
 4429SOL    HW114186   4.177   6.994   3.193
 4429SOL    HW214187   4.273   0.102   3.233
 4430SOL     OW14188   1.815   1.358   1.838
 4430SOL    HW114189   1.811   1.261   1.818
 4430SOL    HW214190   1.900   1.379   1.886
 4431SOL     OW14191   1.767   2.125   2.786
 4431SOL    HW114192   1.722   2.161   2.704
 4431SOL    HW214193   1.709   2.053   2.826
 4432SOL     OW14194   3.101   3.926   2.725
 4432SOL    HW114195   3.055   3.906   2.811
 4432SOL    HW214196   3.196   3.949   2.742
 4433SOL     OW14197   6.360   0.085   3.233
 4433SOL    HW114198   6.401   0.038   3.155
 4433SOL    HW214199   6.378   0.033   3.316
 4434SOL     OW14200   5.565   2.149   4.347
 4434SOL    HW114201   5.541   2.118   4.439
 4434SOL    HW214202   5.522   2.238   4.331
 4435SOL     OW14203   3.557   2.679   1.804
 4435SOL    HW114204   3.600   2.761   1.843
 4435SOL    HW214205   3.626   2.608   1.791
 4436SOL     OW14206   4.775   1.477   6.695
 4436SOL    HW114207   4.833   1.531   6.756
 4436SOL    HW214208   4.760   1.528   6.610
 4437SOL     OW14209   3.320   0.049   4.548
 4437SOL    HW114210   3.239   0.004   4.585
 4437SOL    HW214211   3.370   0.095   4.622
 4438SOL     OW14212   4.544   3.256   6.238
 4438SOL    HW114213   4.633   3.215   6.258
 4438SOL    HW214214   4.479   3.184   6.214
 4439SOL     OW14215   2.431   5.581   2.053
 4439SOL    HW114216   2.409   5.483   2.057
 4439SOL    HW214217   2.362   5.628   1.998
 4440SOL     OW14218   0.491   0.556   5.964
 4440SOL    HW114219   0.498   0.656   5.971
 4440SOL    HW214220   0.485   0.531   5.867
 4441SOL     OW14221   6.192   2.630   2.941
 4441SOL    HW114222   6.135   2.710   2.960
 4441SOL    HW214223   6.143   2.569   2.879
 4442SOL     OW14224   2.991   6.994   2.546
 4442SOL    HW114225   2.915   6.966   2.488
 4442SOL    HW214226   2.972   6.968   2.641
 4443SOL     OW14227   2.670   1.688   5.228
 4443SOL    HW114228   2.721   1.754   5.282
 4443SOL    HW214229   2.673   1.714   5.132
 4444SOL     OW14230   5.033   0.724   1.945
 4444SOL    HW114231   5.097   0.713   2.021
 4444SOL    HW214232   4.983   0.810   1.956
 4445SOL     OW14233   1.644   1.087   6.118
 4445SOL    HW114234   1.625   1.050   6.027
 4445SOL    HW214235   1.687   1.177   6.108
 4446SOL     OW14236   6.696   6.481   3.359
 4446SOL    HW114237   6.661   6.574   3.368
 4446SOL    HW214238   6.783   6.473   3.409
 4447SOL     OW14239   5.669   2.778   5.466
 4447SOL    HW114240   5.657   2.735   5.376
 4447SOL    HW214241   5.762   2.816   5.472
 4448SOL     OW14242   2.438   3.263   6.711
 4448SOL    HW114243   2.401   3.170   6.711
 4448SOL    HW214244   2.364   3.328   6.691
 4449SOL     OW14245   1.126   1.261   4.973
 4449SOL    HW114246   1.113   1.207   4.889
 4449SOL    HW214247   1.078   1.348   4.964
 4450SOL     OW14248   3.704   4.042   3.373
 4450SOL    HW114249   3.672   4.063   3.465
 4450SOL    HW214250   3.643   4.084   3.306
 4451SOL     OW14251   6.071   4.449   1.946
 4451SOL    HW114252   6.116   4.524   1.993
 4451SOL    HW214253   6.009   4.485   1.876
 4452SOL     OW14254   6.321   6.074   6.280
 4452SOL    HW114255   6.296   6.148   6.217
 4452SOL    HW214256   6.262   6.076   6.360
 4453SOL     OW14257   5.735   2.078   1.494
 4453SOL    HW114258   5.741   2.151   1.562
 4453SOL    HW214259   5.778   2.108   1.409
 4454SOL     OW14260   4.977   2.998   1.456
 4454SOL    HW114261   4.991   3.091   1.489
 4454SOL    HW214262   4.879   2.979   1.447
 4455SOL     OW14263   4.373   1.178   2.114
 4455SOL    HW114264   4.397   1.124   2.033
 4455SOL    HW214265   4.329   1.263   2.085
 4456SOL     OW14266   0.880   5.822   3.247
 4456SOL    HW114267   0.955   5.888   3.244
 4456SOL    HW214268   0.796   5.867   3.215
 4457SOL     OW14269   5.224   2.400   6.408
 4457SOL    HW114270   5.260   2.482   6.363
 4457SOL    HW214271   5.124   2.401   6.404
 4458SOL     OW14272   3.826   2.141   5.900
 4458SOL    HW114273   3.726   2.129   5.905
 4458SOL    HW214274   3.863   2.080   5.831
 4459SOL     OW14275   4.618   5.844   4.570
 4459SOL    HW114276   4.604   5.906   4.647
 4459SOL    HW214277   4.676   5.768   4.599
 4460SOL     OW14278   2.030   1.440   6.376
 4460SOL    HW114279   2.105   1.502   6.352
 4460SOL    HW214280   2.062   1.346   6.370
 4461SOL     OW14281   2.291   0.220   1.823
 4461SOL    HW114282   2.308   0.301   1.768
 4461SOL    HW214283   2.363   0.210   1.891
 4462SOL     OW14284   6.786   5.514   1.462
 4462SOL    HW114285   6.742   5.586   1.408
 4462SOL    HW214286   6.873   5.548   1.498
 4463SOL     OW14287   0.887   3.729   6.398
 4463SOL    HW114288   0.932   3.789   6.332
 4463SOL    HW214289   0.879   3.637   6.358
 4464SOL     OW14290   5.769   3.475   6.904
 4464SOL    HW114291   5.732   3.435   6.820
 4464SOL    HW214292   5.700   3.534   6.946
 4465SOL     OW14293   1.396   6.315   2.226
 4465SOL    HW114294   1.454   6.309   2.145
 4465SOL    HW214295   1.410   6.234   2.283
 4466SOL     OW14296   0.768   2.261   3.709
 4466SOL    HW114297   0.845   2.204   3.737
 4466SOL    HW214298   0.802   2.339   3.657
 4467SOL     OW14299   0.949   6.695   3.036
 4467SOL    HW114300   0.950   6.745   3.122
 4467SOL    HW214301   0.855   6.687   3.003
 4468SOL     OW14302   1.549   2.237   0.493
 4468SOL    HW114303   1.522   2.333   0.483
 4468SOL    HW214304   1.475   2.178   0.462
 4469SOL     OW14305   4.469   0.282   6.690
 4469SOL    HW114306   4.378   0.266   6.727
 4469SOL    HW214307   4.474   0.374   6.651
 4470SOL     OW14308   4.318   4.600   1.328
 4470SOL    HW114309   4.356   4.631   1.415
 4470SOL    HW214310   4.271   4.677   1.284
 4471SOL     OW14311   6.412   3.519   0.554
 4471SOL    HW114312   6.433   3.524   0.457
 4471SOL    HW214313   6.327   3.469   0.568
 4472SOL     OW14314   2.035   4.562   2.470
 4472SOL    HW114315   2.011   4.640   2.413
 4472SOL    HW214316   1.963   4.548   2.539
 4473SOL     OW14317   0.462   6.758   5.147
 4473SOL    HW114318   0.367   6.777   5.173
 4473SOL    HW214319   0.474   6.659   5.138
 4474SOL     OW14320   4.625   0.407   3.451
 4474SOL    HW114321   4.640   0.488   3.508
 4474SOL    HW214322   4.527   0.399   3.431
 4475SOL     OW14323   1.846   4.081   0.469
 4475SOL    HW114324   1.749   4.057   0.456
 4475SOL    HW214325   1.852   4.163   0.527
 4476SOL     OW14326   4.509   6.297   1.795
 4476SOL    HW114327   4.417   6.315   1.761
 4476SOL    HW214328   4.577   6.337   1.732
 4477SOL     OW14329   1.297   1.826   1.033
 4477SOL    HW114330   1.295   1.844   1.132
 4477SOL    HW214331   1.233   1.753   1.011
 4478SOL     OW14332   1.956   5.891   1.663
 4478SOL    HW114333   1.863   5.924   1.679
 4478SOL    HW214334   1.966   5.800   1.704
 4479SOL     OW14335   0.458   0.166   5.290
 4479SOL    HW114336   0.551   0.132   5.282
 4479SOL    HW214337   0.395   0.100   5.250
 4480SOL     OW14338   0.843   4.539   3.642
 4480SOL    HW114339   0.883   4.585   3.721
 4480SOL    HW214340   0.894   4.455   3.622
 4481SOL     OW14341   1.198   6.572   4.457
 4481SOL    HW114342   1.176   6.498   4.393
 4481SOL    HW214343   1.125   6.641   4.454
 4482SOL     OW14344   6.997   4.250   4.014
 4482SOL    HW114345   0.038   4.172   3.992
 4482SOL    HW214346   6.993   4.262   4.113
 4483SOL     OW14347   5.670   2.761   2.130
 4483SOL    HW114348   5.577   2.757   2.165
 4483SOL    HW214349   5.734   2.777   2.205
 4484SOL     OW14350   4.350   2.695   5.597
 4484SOL    HW114351   4.364   2.694   5.498
 4484SOL    HW214352   4.280   2.761   5.621
 4485SOL     OW14353   5.457   1.761   6.317
 4485SOL    HW114354   5.488   1.697   6.387
 4485SOL    HW214355   5.438   1.712   6.232
 4486SOL     OW14356   6.056   3.010   4.144
 4486SOL    HW114357   6.024   3.038   4.054
 4486SOL    HW214358   5.978   2.981   4.200
 4487SOL     OW14359   3.176   2.927   6.328
 4487SOL    HW114360   3.178   3.024   6.355
 4487SOL    HW214361   3.211   2.871   6.402
 4488SOL     OW14362   0.230   1.444   4.762
 4488SOL    HW114363   0.176   1.501   4.824
 4488SOL    HW214364   0.297   1.391   4.814
 4489SOL     OW14365   6.185   6.612   4.589
 4489SOL    HW114366   6.226   6.526   4.619
 4489SOL    HW214367   6.172   6.673   4.667
 4490SOL     OW14368   6.884   2.017   3.176
 4490SOL    HW114369   6.976   2.054   3.190
 4490SOL    HW214370   6.886   1.917   3.186
 4491SOL     OW14371   0.928   3.245   3.145
 4491SOL    HW114372   0.991   3.219   3.219
 4491SOL    HW214373   0.837   3.259   3.182
 4492SOL     OW14374   4.565   3.253   6.813
 4492SOL    HW114375   4.645   3.310   6.832
 4492SOL    HW214376   4.566   3.173   6.872
 4493SOL     OW14377   5.966   5.154   4.194
 4493SOL    HW114378   5.997   5.153   4.289
 4493SOL    HW214379   5.995   5.239   4.151
 4494SOL     OW14380   6.365   4.244   4.205
 4494SOL    HW114381   6.346   4.329   4.156
 4494SOL    HW214382   6.379   4.264   4.302
 4495SOL     OW14383   4.915   6.582   1.205
 4495SOL    HW114384   4.985   6.652   1.195
 4495SOL    HW214385   4.836   6.621   1.253
 4496SOL     OW14386   4.960   3.910   5.362
 4496SOL    HW114387   4.872   3.921   5.317
 4496SOL    HW214388   5.033   3.941   5.301
 4497SOL     OW14389   6.067   4.771   0.416
 4497SOL    HW114390   5.979   4.760   0.461
 4497SOL    HW214391   6.137   4.794   0.484
 4498SOL     OW14392   0.107   3.487   6.879
 4498SOL    HW114393   0.178   3.447   6.822
 4498SOL    HW214394   0.131   3.582   6.899
 4499SOL     OW14395   6.911   3.085   6.176
 4499SOL    HW114396   6.917   2.985   6.169
 4499SOL    HW214397   6.938   3.113   6.268
 4500SOL     OW14398   3.046   3.975   4.572
 4500SOL    HW114399   3.015   3.934   4.486
 4500SOL    HW214400   3.125   4.034   4.555
 4501SOL     OW14401   0.310   4.217   5.019
 4501SOL    HW114402   0.317   4.132   4.966
 4501SOL    HW214403   0.286   4.292   4.957
 4502SOL     OW14404   0.495   2.920   0.401
 4502SOL    HW114405   0.525   2.950   0.311
 4502SOL    HW214406   0.400   2.889   0.396
 4503SOL     OW14407   1.206   1.286   3.937
 4503SOL    HW114408   1.149   1.207   3.959
 4503SOL    HW214409   1.162   1.341   3.867
 4504SOL     OW14410   5.158   1.696   4.628
 4504SOL    HW114411   5.170   1.731   4.535
 4504SOL    HW214412   5.235   1.724   4.685
 4505SOL     OW14413   1.735   5.732   6.052
 4505SOL    HW114414   1.765   5.828   6.056
 4505SOL    HW214415   1.741   5.691   6.143
 4506SOL     OW14416   4.391   0.450   5.467
 4506SOL    HW114417   4.325   0.474   5.538
 4506SOL    HW214418   4.383   0.514   5.391
 4507SOL     OW14419   6.030   4.456   0.455
 4507SOL    HW114420   5.933   4.429   0.453
 4507SOL    HW214421   6.036   4.555   0.462
 4508SOL     OW14422   1.396   3.791   0.755
 4508SOL    HW114423   1.409   3.693   0.768
 4508SOL    HW214424   1.458   3.841   0.817
 4509SOL     OW14425   2.466   1.785   4.373
 4509SOL    HW114426   2.426   1.867   4.412
 4509SOL    HW214427   2.452   1.708   4.435
 4510SOL     OW14428   4.022   6.399   5.401
 4510SOL    HW114429   4.091   6.345   5.353
 4510SOL    HW214430   4.005   6.484   5.350
 4511SOL     OW14431   6.080   2.219   0.437
 4511SOL    HW114432   6.144   2.208   0.513
 4511SOL    HW214433   6.010   2.286   0.462
 4512SOL     OW14434   2.786   5.183   6.860
 4512SOL    HW114435   2.808   5.161   6.955
 4512SOL    HW214436   2.690   5.211   6.854
 4513SOL     OW14437   4.873   0.968   1.938
 4513SOL    HW114438   4.927   1.048   1.963
 4513SOL    HW214439   4.776   0.986   1.957
 4514SOL     OW14440   3.380   1.312   4.889
 4514SOL    HW114441   3.387   1.345   4.983
 4514SOL    HW214442   3.433   1.371   4.828
 4515SOL     OW14443   0.372   5.292   1.114
 4515SOL    HW114444   0.429   5.237   1.052
 4515SOL    HW214445   0.342   5.235   1.191
 4516SOL     OW14446   1.036   0.734   4.970
 4516SOL    HW114447   0.976   0.772   4.900
 4516SOL    HW214448   1.025   0.786   5.055
 4517SOL     OW14449   3.201   6.548   5.402
 4517SOL    HW114450   3.171   6.633   5.445
 4517SOL    HW214451   3.278   6.567   5.340
 4518SOL     OW14452   1.376   1.886   4.510
 4518SOL    HW114453   1.395   1.880   4.412
 4518SOL    HW214454   1.302   1.951   4.525
 4519SOL     OW14455   6.761   3.275   3.839
 4519SOL    HW114456   6.771   3.181   3.869
 4519SOL    HW214457   6.666   3.304   3.848
 4520SOL     OW14458   6.902   3.804   3.016
 4520SOL    HW114459   6.840   3.873   3.051
 4520SOL    HW214460   6.970   3.847   2.957
 4521SOL     OW14461   5.609   2.118   6.718
 4521SOL    HW114462   5.629   2.050   6.649
 4521SOL    HW214463   5.609   2.209   6.677
 4522SOL     OW14464   6.037   0.261   3.967
 4522SOL    HW114465   6.110   0.250   3.898
 4522SOL    HW214466   6.077   0.296   4.052
 4523SOL     OW14467   3.735   3.559   0.288
 4523SOL    HW114468   3.834   3.569   0.300
 4523SOL    HW214469   3.704   3.474   0.332
 4524SOL     OW14470   5.733   6.982   4.757
 4524SOL    HW114471   5.648   6.955   4.711
 4524SOL    HW214472   5.733   6.947   4.850
 4525SOL     OW14473   6.706   1.487   5.114
 4525SOL    HW114474   6.734   1.481   5.018
 4525SOL    HW214475   6.606   1.486   5.119
 4526SOL     OW14476   4.941   0.131   0.941
 4526SOL    HW114477   4.920   0.158   1.035
 4526SOL    HW214478   5.031   0.089   0.937
 4527SOL     OW14479   5.104   0.774   2.507
 4527SOL    HW114480   5.082   0.709   2.579
 4527SOL    HW214481   5.194   0.753   2.469
 4528SOL     OW14482   6.221   6.886   0.025
 4528SOL    HW114483   6.144   6.843   6.997
 4528SOL    HW214484   6.271   6.818   0.079
 4529SOL     OW14485   3.614   6.218   2.868
 4529SOL    HW114486   3.534   6.275   2.847
 4529SOL    HW214487   3.644   6.171   2.785
 4530SOL     OW14488   0.434   3.476   5.538
 4530SOL    HW114489   0.469   3.385   5.558
 4530SOL    HW214490   0.504   3.544   5.558
 4531SOL     OW14491   0.193   3.919   4.075
 4531SOL    HW114492   0.246   4.002   4.092
 4531SOL    HW214493   0.105   3.925   4.121
 4532SOL     OW14494   5.885   1.564   0.612
 4532SOL    HW114495   5.973   1.533   0.577
 4532SOL    HW214496   5.888   1.568   0.712
 4533SOL     OW14497   2.614   5.814   2.568
 4533SOL    HW114498   2.517   5.834   2.582
 4533SOL    HW214499   2.664   5.830   2.653
 4534SOL     OW14500   6.070   4.088   5.129
 4534SOL    HW114501   6.125   4.015   5.089
 4534SOL    HW214502   5.998   4.047   5.186
 4535SOL     OW14503   4.874   2.724   1.820
 4535SOL    HW114504   4.942   2.795   1.800
 4535SOL    HW214505   4.830   2.744   1.908
 4536SOL     OW14506   6.436   0.898   4.685
 4536SOL    HW114507   6.377   0.822   4.659
 4536SOL    HW214508   6.440   0.965   4.611
 4537SOL     OW14509   3.488   2.948   6.306
 4537SOL    HW114510   3.475   2.849   6.300
 4537SOL    HW214511   3.470   2.989   6.217
 4538SOL     OW14512   3.092   1.239   3.248
 4538SOL    HW114513   3.145   1.169   3.201
 4538SOL    HW214514   3.002   1.246   3.207
 4539SOL     OW14515   2.006   1.486   3.039
 4539SOL    HW114516   2.101   1.457   3.040
 4539SOL    HW214517   1.967   1.472   2.948
 4540SOL     OW14518   3.570   2.997   4.170
 4540SOL    HW114519   3.477   2.998   4.209
 4540SOL    HW214520   3.633   2.960   4.237
 4541SOL     OW14521   4.916   1.655   1.617
 4541SOL    HW114522   4.886   1.560   1.614
 4541SOL    HW214523   4.884   1.703   1.535
 4542SOL     OW14524   5.074   0.337   2.614
 4542SOL    HW114525   5.064   0.435   2.633
 4542SOL    HW214526   5.013   0.285   2.675
 4543SOL     OW14527   5.620   1.370   1.416
 4543SOL    HW114528   5.687   1.358   1.343
 4543SOL    HW214529   5.590   1.465   1.418
 4544SOL     OW14530   3.495   4.929   6.275
 4544SOL    HW114531   3.515   5.013   6.326
 4544SOL    HW214532   3.454   4.953   6.187
 4545SOL     OW14533   3.927   2.000   5.402
 4545SOL    HW114534   3.869   1.918   5.402
 4545SOL    HW214535   4.023   1.973   5.404
 4546SOL     OW14536   1.545   6.434   6.670
 4546SOL    HW114537   1.477   6.480   6.728
 4546SOL    HW214538   1.601   6.373   6.726
 4547SOL     OW14539   4.832   2.067   2.330
 4547SOL    HW114540   4.927   2.058   2.299
 4547SOL    HW214541   4.823   2.027   2.421
 4548SOL     OW14542   1.239   3.891   3.533
 4548SOL    HW114543   1.318   3.863   3.478
 4548SOL    HW214544   1.160   3.833   3.511
 4549SOL     OW14545   6.503   2.983   2.757
 4549SOL    HW114546   6.603   2.983   2.751
 4549SOL    HW214547   6.467   2.906   2.704
 4550SOL     OW14548   1.386   6.163   4.149
 4550SOL    HW114549   1.389   6.073   4.106
 4550SOL    HW214550   1.478   6.189   4.179
 4551SOL     OW14551   0.679   2.760   5.620
 4551SOL    HW114552   0.637   2.701   5.689
 4551SOL    HW214553   0.741   2.706   5.563
 4552SOL     OW14554   0.234   3.666   4.677
 4552SOL    HW114555   0.208   3.595   4.742
 4552SOL    HW214556   0.334   3.678   4.677
 4553SOL     OW14557   4.974   4.639   0.350
 4553SOL    HW114558   5.049   4.624   0.286
 4553SOL    HW214559   4.991   4.590   0.435
 4554SOL     OW14560   5.288   6.870   2.557
 4554SOL    HW114561   5.319   6.950   2.505
 4554SOL    HW214562   5.302   6.887   2.654
 4555SOL     OW14563   5.013   2.002   6.758
 4555SOL    HW114564   5.074   2.070   6.718
 4555SOL    HW214565   5.049   1.973   6.847
 4556SOL     OW14566   4.648   1.227   3.936
 4556SOL    HW114567   4.566   1.277   3.910
 4556SOL    HW214568   4.717   1.237   3.865
 4557SOL     OW14569   5.233   0.009   6.009
 4557SOL    HW114570   5.185   6.940   5.996
 4557SOL    HW214571   5.300   0.021   5.936
 4558SOL     OW14572   6.405   3.106   6.557
 4558SOL    HW114573   6.386   3.184   6.616
 4558SOL    HW214574   6.329   3.091   6.495
 4559SOL     OW14575   1.042   6.633   1.128
 4559SOL    HW114576   0.996   6.567   1.187
 4559SOL    HW214577   0.979   6.662   1.055
 4560SOL     OW14578   5.132   3.563   2.977
 4560SOL    HW114579   5.140   3.478   2.926
 4560SOL    HW214580   5.061   3.621   2.935
 4561SOL     OW14581   3.350   0.502   6.541
 4561SOL    HW114582   3.413   0.427   6.557
 4561SOL    HW214583   3.262   0.466   6.510
 4562SOL     OW14584   2.586   4.980   6.538
 4562SOL    HW114585   2.616   4.889   6.509
 4562SOL    HW214586   2.666   5.035   6.563
 4563SOL     OW14587   6.302   2.341   6.861
 4563SOL    HW114588   6.264   2.256   6.824
 4563SOL    HW214589   6.349   2.391   6.789
 4564SOL     OW14590   1.727   5.633   0.230
 4564SOL    HW114591   1.708   5.721   0.273
 4564SOL    HW214592   1.825   5.615   0.234
 4565SOL     OW14593   2.405   0.579   5.556
 4565SOL    HW114594   2.458   0.589   5.640
 4565SOL    HW214595   2.447   0.634   5.484
 4566SOL     OW14596   0.107   1.402   6.952
 4566SOL    HW114597   0.060   1.464   7.015
 4566SOL    HW214598   0.175   1.453   6.900
 4567SOL     OW14599   0.082   1.062   0.965
 4567SOL    HW114600   0.138   1.141   0.942
 4567SOL    HW214601   7.003   1.089   0.967
 4568SOL     OW14602   3.523   4.272   5.570
 4568SOL    HW114603   3.441   4.322   5.543
 4568SOL    HW214604   3.595   4.337   5.595
 4569SOL     OW14605   0.515   2.119   4.351
 4569SOL    HW114606   0.578   2.051   4.389
 4569SOL    HW214607   0.495   2.189   4.420
 4570SOL     OW14608   0.601   5.216   3.850
 4570SOL    HW114609   0.664   5.145   3.881
 4570SOL    HW214610   0.647   5.305   3.856
 4571SOL     OW14611   3.572   2.870   4.710
 4571SOL    HW114612   3.577   2.938   4.783
 4571SOL    HW214613   3.650   2.808   4.716
 4572SOL     OW14614   1.587   6.650   1.471
 4572SOL    HW114615   1.501   6.659   1.521
 4572SOL    HW214616   1.574   6.681   1.376
 4573SOL     OW14617   5.291   6.936   0.723
 4573SOL    HW114618   5.276   6.985   0.637
 4573SOL    HW214619   5.364   6.869   0.711
 4574SOL     OW14620   0.334   4.696   1.972
 4574SOL    HW114621   0.253   4.640   1.988
 4574SOL    HW214622   0.395   4.649   1.909
 4575SOL     OW14623   6.325   0.300   2.769
 4575SOL    HW114624   6.249   0.237   2.752
 4575SOL    HW214625   6.292   0.380   2.818
 4576SOL     OW14626   3.006   5.696   5.910
 4576SOL    HW114627   3.025   5.719   5.814
 4576SOL    HW214628   2.994   5.597   5.918
 4577SOL     OW14629   1.002   3.154   3.559
 4577SOL    HW114630   1.032   3.226   3.621
 4577SOL    HW214631   1.036   3.066   3.591
 4578SOL     OW14632   6.734   4.309   3.954
 4578SOL    HW114633   6.826   4.273   3.972
 4578SOL    HW214634   6.667   4.251   4.000
 4579SOL     OW14635   5.752   2.077   3.585
 4579SOL    HW114636   5.684   2.124   3.530
 4579SOL    HW214637   5.843   2.091   3.546
 4580SOL     OW14638   6.852   5.649   0.644
 4580SOL    HW114639   6.768   5.598   0.623
 4580SOL    HW214640   6.913   5.647   0.566
 4581SOL     OW14641   3.454   5.734   2.531
 4581SOL    HW114642   3.358   5.708   2.525
 4581SOL    HW214643   3.500   5.678   2.600
 4582SOL     OW14644   5.008   6.227   2.406
 4582SOL    HW114645   5.057   6.145   2.436
 4582SOL    HW214646   4.923   6.236   2.458
 4583SOL     OW14647   4.281   1.656   5.735
 4583SOL    HW114648   4.210   1.717   5.701
 4583SOL    HW214649   4.238   1.575   5.776
 4584SOL     OW14650   0.612   5.637   5.500
 4584SOL    HW114651   0.662   5.656   5.585
 4584SOL    HW214652   0.671   5.585   5.439
 4585SOL     OW14653   3.606   6.301   2.563
 4585SOL    HW114654   3.597   6.205   2.539
 4585SOL    HW214655   3.670   6.346   2.501
 4586SOL     OW14656   3.480   5.399   2.564
 4586SOL    HW114657   3.444   5.405   2.471
 4586SOL    HW214658   3.550   5.327   2.568
 4587SOL     OW14659   2.455   4.070   1.240
 4587SOL    HW114660   2.475   4.148   1.298
 4587SOL    HW214661   2.523   3.998   1.254
 4588SOL     OW14662   4.218   3.551   5.222
 4588SOL    HW114663   4.249   3.614   5.151
 4588SOL    HW214664   4.133   3.585   5.263
 4589SOL     OW14665   6.529   2.500   4.751
 4589SOL    HW114666   6.539   2.477   4.654
 4589SOL    HW214667   6.547   2.419   4.806
 4590SOL     OW14668   4.525   5.453   2.490
 4590SOL    HW114669   4.594   5.448   2.418
 4590SOL    HW214670   4.536   5.374   2.552
 4591SOL     OW14671   5.510   6.321   5.287
 4591SOL    HW114672   5.543   6.409   5.320
 4591SOL    HW214673   5.417   6.305   5.322
 4592SOL     OW14674   3.813   2.248   6.436
 4592SOL    HW114675   3.829   2.279   6.342
 4592SOL    HW214676   3.799   2.327   6.495
 4593SOL     OW14677   3.785   6.318   2.256
 4593SOL    HW114678   3.881   6.303   2.279
 4593SOL    HW214679   3.757   6.410   2.286
 4594SOL     OW14680   2.522   1.446   1.979
 4594SOL    HW114681   2.537   1.390   1.898
 4594SOL    HW214682   2.475   1.530   1.953
 4595SOL     OW14683   3.826   2.913   5.907
 4595SOL    HW114684   3.729   2.889   5.907
 4595SOL    HW214685   3.880   2.835   5.936
 4596SOL     OW14686   5.388   0.031   1.946
 4596SOL    HW114687   5.305   0.070   1.906
 4596SOL    HW214688   5.368   7.015   2.037
 4597SOL     OW14689   5.927   4.722   6.669
 4597SOL    HW114690   5.869   4.782   6.613
 4597SOL    HW214691   5.894   4.723   6.764
 4598SOL     OW14692   2.649   4.529   6.725
 4598SOL    HW114693   2.629   4.622   6.695
 4598SOL    HW214694   2.565   4.474   6.722
 4599SOL     OW14695   1.759   4.675   0.486
 4599SOL    HW114696   1.673   4.667   0.435
 4599SOL    HW214697   1.784   4.772   0.493
 4600SOL     OW14698   3.175   5.724   1.249
 4600SOL    HW114699   3.157   5.724   1.348
 4600SOL    HW214700   3.220   5.809   1.223
 4601SOL     OW14701   2.099   6.260   5.168
 4601SOL    HW114702   2.011   6.304   5.188
 4601SOL    HW214703   2.132   6.291   5.078
 4602SOL     OW14704   2.125   0.676   1.524
 4602SOL    HW114705   2.198   0.682   1.456
 4602SOL    HW214706   2.089   0.583   1.526
 4603SOL     OW14707   3.461   6.901   1.380
 4603SOL    HW114708   3.419   6.834   1.441
 4603SOL    HW214709   3.456   6.992   1.422
 4604SOL     OW14710   3.380   6.954   2.201
 4604SOL    HW114711   3.461   6.951   2.260
 4604SOL    HW214712   3.332   6.866   2.207
 4605SOL     OW14713   5.250   6.819   4.676
 4605SOL    HW114714   5.188   6.741   4.681
 4605SOL    HW214715   5.200   6.898   4.640
 4606SOL     OW14716   0.038   6.224   5.695
 4606SOL    HW114717   0.095   6.214   5.614
 4606SOL    HW214718   0.077   6.170   5.770
 4607SOL     OW14719   3.350   2.047   1.412
 4607SOL    HW114720   3.260   2.040   1.454
 4607SOL    HW214721   3.350   2.121   1.344
 4608SOL     OW14722   1.702   4.102   5.187
 4608SOL    HW114723   1.768   4.033   5.215
 4608SOL    HW214724   1.624   4.058   5.143
 4609SOL     OW14725   4.235   6.338   6.732
 4609SOL    HW114726   4.231   6.255   6.788
 4609SOL    HW214727   4.318   6.389   6.755
 4610SOL     OW14728   0.316   3.324   6.802
 4610SOL    HW114729   0.334   3.226   6.789
 4610SOL    HW214730   0.342   3.374   6.719
 4611SOL     OW14731   0.658   4.128   0.300
 4611SOL    HW114732   0.674   4.037   0.336
 4611SOL    HW214733   0.684   4.196   0.368
 4612SOL     OW14734   2.298   6.743   6.806
 4612SOL    HW114735   2.378   6.745   6.866
 4612SOL    HW214736   2.280   6.835   6.772
 4613SOL     OW14737   3.355   5.409   2.297
 4613SOL    HW114738   3.305   5.328   2.268
 4613SOL    HW214739   3.296   5.489   2.290
 4614SOL     OW14740   1.516   5.462   0.273
 4614SOL    HW114741   1.475   5.481   0.184
 4614SOL    HW214742   1.598   5.518   0.285
 4615SOL     OW14743   0.499   2.552   0.253
 4615SOL    HW114744   0.540   2.643   0.254
 4615SOL    HW214745   0.481   2.522   0.347
 4616SOL     OW14746   5.377   0.861   6.767
 4616SOL    HW114747   5.288   0.905   6.774
 4616SOL    HW214748   5.412   0.871   6.673
 4617SOL     OW14749   0.072   2.828   2.318
 4617SOL    HW114750   0.022   2.915   2.315
 4617SOL    HW214751   0.123   2.816   2.233
 4618SOL     OW14752   0.999   2.464   6.257
 4618SOL    HW114753   0.908   2.483   6.293
 4618SOL    HW214754   1.001   2.372   6.218
 4619SOL     OW14755   3.384   0.914   3.758
 4619SOL    HW114756   3.310   0.957   3.706
 4619SOL    HW214757   3.407   0.972   3.837
 4620SOL     OW14758   2.499   4.301   6.316
 4620SOL    HW114759   2.547   4.295   6.404
 4620SOL    HW214760   2.481   4.397   6.294
 4621SOL     OW14761   0.099   6.162   6.036
 4621SOL    HW114762   0.112   6.257   6.009
 4621SOL    HW214763   0.112   6.154   6.135
 4622SOL     OW14764   1.981   3.871   1.244
 4622SOL    HW114765   1.984   3.896   1.147
 4622SOL    HW214766   2.062   3.907   1.291
 4623SOL     OW14767   6.180   4.921   2.025
 4623SOL    HW114768   6.238   5.000   2.045
 4623SOL    HW214769   6.127   4.939   1.942
 4624SOL     OW14770   4.823   0.035   4.627
 4624SOL    HW114771   4.816   0.058   4.725
 4624SOL    HW214772   4.745   0.073   4.578
 4625SOL     OW14773   0.870   3.558   6.931
 4625SOL    HW114774   0.805   3.516   6.868
 4625SOL    HW214775   0.958   3.512   6.923
 4626SOL     OW14776   6.539   5.363   1.154
 4626SOL    HW114777   6.637   5.344   1.167
 4626SOL    HW214778   6.523   5.462   1.162
 4627SOL     OW14779   3.013   6.355   6.020
 4627SOL    HW114780   3.058   6.397   5.941
 4627SOL    HW214781   2.960   6.425   6.068
 4628SOL     OW14782   0.234   3.889   2.055
 4628SOL    HW114783   0.329   3.859   2.057
 4628SOL    HW214784   0.226   3.972   2.000
 4629SOL     OW14785   2.457   4.848   5.622
 4629SOL    HW114786   2.458   4.749   5.614
 4629SOL    HW214787   2.539   4.879   5.670
 4630SOL     OW14788   1.671   6.563   2.657
 4630SOL    HW114789   1.611   6.548   2.736
 4630SOL    HW214790   1.748   6.621   2.685
 4631SOL     OW14791   3.304   6.827   2.639
 4631SOL    HW114792   3.301   6.927   2.640
 4631SOL    HW214793   3.234   6.792   2.577
 4632SOL     OW14794   5.343   5.732   4.012
 4632SOL    HW114795   5.266   5.686   3.969
 4632SOL    HW214796   5.314   5.768   4.101
 4633SOL     OW14797   6.568   2.272   4.921
 4633SOL    HW114798   6.665   2.285   4.945
 4633SOL    HW214799   6.519   2.237   5.001
 4634SOL     OW14800   3.239   4.254   0.743
 4634SOL    HW114801   3.208   4.228   0.834
 4634SOL    HW214802   3.331   4.293   0.748
 4635SOL     OW14803   5.455   4.203   1.655
 4635SOL    HW114804   5.476   4.163   1.744
 4635SOL    HW214805   5.436   4.131   1.589
 4636SOL     OW14806   2.415   5.170   0.551
 4636SOL    HW114807   2.451   5.263   0.565
 4636SOL    HW214808   2.485   5.103   0.574
 4637SOL     OW14809   1.456   1.337   5.091
 4637SOL    HW114810   1.422   1.331   4.997
 4637SOL    HW214811   1.555   1.346   5.091
 4638SOL     OW14812   5.439   3.381   5.312
 4638SOL    HW114813   5.484   3.442   5.247
 4638SOL    HW214814   5.371   3.432   5.364
 4639SOL     OW14815   6.918   3.789   5.411
 4639SOL    HW114816   7.009   3.830   5.400
 4639SOL    HW214817   6.924   3.710   5.471
 4640SOL     OW14818   5.597   4.014   2.682
 4640SOL    HW114819   5.544   3.930   2.669
 4640SOL    HW214820   5.555   4.070   2.752
 4641SOL     OW14821   2.233   5.060   5.081
 4641SOL    HW114822   2.141   5.083   5.050
 4641SOL    HW214823   2.255   5.114   5.163
 4642SOL     OW14824   5.413   6.323   4.341
 4642SOL    HW114825   5.482   6.391   4.317
 4642SOL    HW214826   5.358   6.302   4.260
 4643SOL     OW14827   4.019   2.034   1.902
 4643SOL    HW114828   3.925   2.002   1.917
 4643SOL    HW214829   4.072   1.964   1.855
 4644SOL     OW14830   2.313   5.478   5.254
 4644SOL    HW114831   2.335   5.519   5.165
 4644SOL    HW214832   2.397   5.464   5.306
 4645SOL     OW14833   2.257   5.627   4.778
 4645SOL    HW114834   2.157   5.634   4.772
 4645SOL    HW214835   2.293   5.595   4.690
 4646SOL     OW14836   4.190   0.470   1.667
 4646SOL    HW114837   4.268   0.445   1.724
 4646SOL    HW214838   4.105   0.452   1.717
 4647SOL     OW14839   6.766   0.281   4.419
 4647SOL    HW114840   6.811   0.370   4.412
 4647SOL    HW214841   6.817   0.222   4.481
 4648SOL     OW14842   2.338   5.887   2.643
 4648SOL    HW114843   2.265   5.916   2.706
 4648SOL    HW214844   2.356   5.960   2.578
 4649SOL     OW14845   5.491   0.245   6.042
 4649SOL    HW114846   5.539   0.332   6.049
 4649SOL    HW214847   5.445   0.224   6.128
 4650SOL     OW14848   6.471   4.760   2.053
 4650SOL    HW114849   6.428   4.806   1.976
 4650SOL    HW214850   6.448   4.809   2.138
 4651SOL     OW14851   0.198   2.510   1.902
 4651SOL    HW114852   0.197   2.505   2.002
 4651SOL    HW214853   0.232   2.599   1.873
 4652SOL     OW14854   6.898   6.476   6.254
 4652SOL    HW114855   6.815   6.518   6.289
 4652SOL    HW214856   6.915   6.506   6.160
 4653SOL     OW14857   0.204   5.807   0.058
 4653SOL    HW114858   0.261   5.826   6.995
 4653SOL    HW214859   0.149   5.888   0.080
 4654SOL     OW14860   1.354   1.112   6.946
 4654SOL    HW114861   1.427   1.171   6.981
 4654SOL    HW214862   1.266   1.145   6.978
 4655SOL     OW14863   0.090   4.610   3.293
 4655SOL    HW114864   0.169   4.564   3.254
 4655SOL    HW214865   0.110   4.707   3.307
 4656SOL     OW14866   1.977   6.727   3.477
 4656SOL    HW114867   2.073   6.716   3.504
 4656SOL    HW214868   1.962   6.681   3.390
 4657SOL     OW14869   5.458   0.205   0.362
 4657SOL    HW114870   5.423   0.218   0.269
 4657SOL    HW214871   5.476   0.107   0.378
 4658SOL     OW14872   5.590   0.543   3.512
 4658SOL    HW114873   5.660   0.588   3.456
 4658SOL    HW214874   5.580   0.448   3.483
 4659SOL     OW14875   1.554   2.450   4.980
 4659SOL    HW114876   1.570   2.358   5.015
 4659SOL    HW214877   1.565   2.517   5.053
 4660SOL     OW14878   0.026   0.349   5.932
 4660SOL    HW114879   0.068   0.300   6.009
 4660SOL    HW214880   6.947   0.324   5.926
 4661SOL     OW14881   3.891   3.979   3.841
 4661SOL    HW114882   3.849   4.022   3.921
 4661SOL    HW214883   3.852   4.018   3.757
 4662SOL     OW14884   5.109   0.495   5.071
 4662SOL    HW114885   5.020   0.498   5.025
 4662SOL    HW214886   5.136   0.400   5.084
 4663SOL     OW14887   0.218   2.178   2.694
 4663SOL    HW114888   0.156   2.180   2.773
 4663SOL    HW214889   0.313   2.172   2.727
 4664SOL     OW14890   2.865   2.306   6.475
 4664SOL    HW114891   2.851   2.336   6.569
 4664SOL    HW214892   2.855   2.384   6.413
 4665SOL     OW14893   5.405   0.754   0.136
 4665SOL    HW114894   5.468   0.792   0.203
 4665SOL    HW214895   5.456   0.711   0.062
 4666SOL     OW14896   2.148   1.261   0.678
 4666SOL    HW114897   2.142   1.360   0.665
 4666SOL    HW214898   2.072   1.231   0.736
 4667SOL     OW14899   0.297   5.373   5.912
 4667SOL    HW114900   0.378   5.432   5.910
 4667SOL    HW214901   0.288   5.327   5.824
 4668SOL     OW14902   6.764   1.523   4.013
 4668SOL    HW114903   6.766   1.584   3.933
 4668SOL    HW214904   6.678   1.535   4.062
 4669SOL     OW14905   2.070   0.190   0.307
 4669SOL    HW114906   1.974   0.177   0.333
 4669SOL    HW214907   2.097   0.117   0.244
 4670SOL     OW14908   2.335   1.657   4.036
 4670SOL    HW114909   2.294   1.747   4.051
 4670SOL    HW214910   2.287   1.589   4.092
 4671SOL     OW14911   5.902   3.768   0.958
 4671SOL    HW114912   5.966   3.786   1.032
 4671SOL    HW214913   5.808   3.780   0.992
 4672SOL     OW14914   1.650   3.625   6.143
 4672SOL    HW114915   1.656   3.544   6.085
 4672SOL    HW214916   1.630   3.598   6.237
 4673SOL     OW14917   4.202   0.815   2.868
 4673SOL    HW114918   4.190   0.768   2.780
 4673SOL    HW214919   4.113   0.835   2.908
 4674SOL     OW14920   4.380   5.914   6.138
 4674SOL    HW114921   4.322   5.874   6.068
 4674SOL    HW214922   4.364   5.868   6.226
 4675SOL     OW14923   0.728   4.173   7.005
 4675SOL    HW114924   0.647   4.192   0.042
 4675SOL    HW214925   0.805   4.151   0.048
 4676SOL     OW14926   1.006   5.799   3.948
 4676SOL    HW114927   0.984   5.716   3.897
 4676SOL    HW214928   1.080   5.848   3.902
 4677SOL     OW14929   1.487   2.960   0.147
 4677SOL    HW114930   1.563   2.925   0.092
 4677SOL    HW214931   1.513   2.958   0.243
 4678SOL     OW14932   2.589   4.949   2.511
 4678SOL    HW114933   2.661   4.879   2.511
 4678SOL    HW214934   2.626   5.034   2.472
 4679SOL     OW14935   5.076   0.026   2.008
 4679SOL    HW114936   5.097   0.086   1.931
 4679SOL    HW214937   5.074   6.949   1.976
 4680SOL     OW14938   2.177   1.148   1.449
 4680SOL    HW114939   2.246   1.208   1.487
 4680SOL    HW214940   2.118   1.114   1.522
 4681SOL     OW14941   5.296   4.522   1.264
 4681SOL    HW114942   5.264   4.469   1.343
 4681SOL    HW214943   5.370   4.583   1.292
 4682SOL     OW14944   3.926   3.543   6.798
 4682SOL    HW114945   3.895   3.493   6.879
 4682SOL    HW214946   4.026   3.544   6.796
 4683SOL     OW14947   6.209   4.165   3.204
 4683SOL    HW114948   6.218   4.082   3.259
 4683SOL    HW214949   6.115   4.201   3.213
 4684SOL     OW14950   4.787   6.586   0.005
 4684SOL    HW114951   4.809   6.615   0.098
 4684SOL    HW214952   4.756   6.664   6.968
 4685SOL     OW14953   2.680   3.187   5.703
 4685SOL    HW114954   2.732   3.270   5.722
 4685SOL    HW214955   2.616   3.204   5.628
 4686SOL     OW14956   2.822   5.527   6.991
 4686SOL    HW114957   2.736   5.514   0.023
 4686SOL    HW214958   2.894   5.553   0.039
 4687SOL     OW14959   3.165   0.674   3.203
 4687SOL    HW114960   3.087   0.650   3.260
 4687SOL    HW214961   3.235   0.718   3.259
 4688SOL     OW14962   5.873   3.241   5.631
 4688SOL    HW114963   5.935   3.244   5.553
 4688SOL    HW214964   5.779   3.234   5.600
 4689SOL     OW14965   5.794   1.078   1.444
 4689SOL    HW114966   5.736   1.155   1.471
 4689SOL    HW214967   5.889   1.110   1.435
 4690SOL     OW14968   2.801   1.737   0.201
 4690SOL    HW114969   2.754   1.648   0.199
 4690SOL    HW214970   2.733   1.810   0.212
 4691SOL     OW14971   6.967   4.083   1.791
 4691SOL    HW114972   7.000   3.995   1.757
 4691SOL    HW214973   0.019   4.124   1.850
 4692SOL     OW14974   5.848   3.907   2.661
 4692SOL    HW114975   5.755   3.944   2.658
 4692SOL    HW214976   5.903   3.950   2.589
 4693SOL     OW14977   1.988   0.715   3.582
 4693SOL    HW114978   2.016   0.628   3.542
 4693SOL    HW214979   2.061   0.749   3.641
 4694SOL     OW14980   2.050   1.443   0.175
 4694SOL    HW114981   1.957   1.454   0.142
 4694SOL    HW214982   2.062   1.496   0.259
 4695SOL     OW14983   0.824   6.107   1.679
 4695SOL    HW114984   0.852   6.182   1.618
 4695SOL    HW214985   0.803   6.144   1.769
 4696SOL     OW14986   1.105   5.214   5.996
 4696SOL    HW114987   1.163   5.181   6.071
 4696SOL    HW214988   1.160   5.269   5.933
 4697SOL     OW14989   3.450   4.994   0.643
 4697SOL    HW114990   3.506   4.976   0.562
 4697SOL    HW214991   3.466   4.922   0.711
 4698SOL     OW14992   5.902   1.364   3.194
 4698SOL    HW114993   5.955   1.390   3.113
 4698SOL    HW214994   5.951   1.292   3.243
 4699SOL     OW14995   1.075   7.003   2.631
 4699SOL    HW114996   1.044   0.053   2.563
 4699SOL    HW214997   1.103   6.919   2.585
 4700SOL     OW14998   5.869   2.168   3.190
 4700SOL    HW114999   5.913   2.237   3.134
 4700SOL    HW215000   5.830   2.097   3.132
 4701SOL     OW15001   3.362   1.791   1.703
 4701SOL    HW115002   3.454   1.829   1.695
 4701SOL    HW215003   3.325   1.812   1.793
 4702SOL     OW15004   5.547   4.613   6.618
 4702SOL    HW115005   5.517   4.605   6.713
 4702SOL    HW215006   5.493   4.552   6.560
 4703SOL     OW15007   0.902   5.197   3.407
 4703SOL    HW115008   0.832   5.143   3.455
 4703SOL    HW215009   0.954   5.250   3.473
 4704SOL     OW15010   1.188   5.193   5.433
 4704SOL    HW115011   1.272   5.180   5.379
 4704SOL    HW215012   1.191   5.133   5.513
 4705SOL     OW15013   3.282   2.312   1.624
 4705SOL    HW115014   3.293   2.403   1.664
 4705SOL    HW215015   3.304   2.315   1.527
 4706SOL     OW15016   1.974   0.413   0.533
 4706SOL    HW115017   1.933   0.451   0.615
 4706SOL    HW215018   1.904   0.400   0.463
 4707SOL     OW15019   1.916   6.343   1.128
 4707SOL    HW115020   1.879   6.266   1.180
 4707SOL    HW215021   1.855   6.422   1.136
 4708SOL     OW15022   0.497   3.031   3.983
 4708SOL    HW115023   0.464   2.975   4.059
 4708SOL    HW215024   0.518   3.123   4.016
 4709SOL     OW15025   4.784   3.862   5.152
 4709SOL    HW115026   4.838   3.914   5.085
 4709SOL    HW215027   4.789   3.765   5.130
 4710SOL     OW15028   5.987   6.380   4.420
 4710SOL    HW115029   5.948   6.290   4.397
 4710SOL    HW215030   6.012   6.382   4.517
 4711SOL     OW15031   5.706   3.357   3.251
 4711SOL    HW115032   5.700   3.316   3.342
 4711SOL    HW215033   5.783   3.317   3.201
 4712SOL     OW15034   4.761   4.161   5.181
 4712SOL    HW115035   4.709   4.094   5.234
 4712SOL    HW215036   4.752   4.141   5.084
 4713SOL     OW15037   5.797   4.303   1.352
 4713SOL    HW115038   5.723   4.339   1.295
 4713SOL    HW215039   5.799   4.203   1.345
 4714SOL     OW15040   5.707   1.160   6.037
 4714SOL    HW115041   5.791   1.214   6.045
 4714SOL    HW215042   5.637   1.214   5.990
 4715SOL     OW15043   6.328   1.227   1.826
 4715SOL    HW115044   6.241   1.187   1.854
 4715SOL    HW215045   6.375   1.166   1.763
 4716SOL     OW15046   3.713   3.957   6.017
 4716SOL    HW115047   3.704   3.993   5.925
 4716SOL    HW215048   3.621   3.946   6.057
 4717SOL     OW15049   2.858   5.298   4.952
 4717SOL    HW115050   2.896   5.318   5.042
 4717SOL    HW215051   2.860   5.199   4.936
 4718SOL     OW15052   4.511   4.375   0.390
 4718SOL    HW115053   4.590   4.377   0.328
 4718SOL    HW215054   4.529   4.311   0.465
 4719SOL     OW15055   6.811   3.843   3.698
 4719SOL    HW115056   6.899   3.872   3.735
 4719SOL    HW215057   6.737   3.886   3.751
 4720SOL     OW15058   3.041   4.076   6.756
 4720SOL    HW115059   3.020   4.108   6.664
 4720SOL    HW215060   2.963   4.024   6.792
 4721SOL     OW15061   6.322   3.163   2.850
 4721SOL    HW115062   6.385   3.097   2.809
 4721SOL    HW215063   6.366   3.203   2.931
 4722SOL     OW15064   1.748   4.606   6.792
 4722SOL    HW115065   1.836   4.562   6.774
 4722SOL    HW215066   1.687   4.541   6.837
 4723SOL     OW15067   3.690   4.018   6.667
 4723SOL    HW115068   3.694   4.066   6.755
 4723SOL    HW215069   3.608   3.962   6.664
 4724SOL     OW15070   1.323   6.702   4.690
 4724SOL    HW115071   1.286   6.630   4.631
 4724SOL    HW215072   1.318   6.789   4.642
 4725SOL     OW15073   5.481   5.916   0.245
 4725SOL    HW115074   5.407   5.971   0.206
 4725SOL    HW215075   5.562   5.974   0.258
 4726SOL     OW15076   0.737   3.413   5.459
 4726SOL    HW115077   0.658   3.351   5.456
 4726SOL    HW215078   0.797   3.386   5.534
 4727SOL     OW15079   0.697   5.241   0.354
 4727SOL    HW115080   0.647   5.325   0.336
 4727SOL    HW215081   0.734   5.243   0.448
 4728SOL     OW15082   6.500   1.581   4.488
 4728SOL    HW115083   6.581   1.585   4.429
 4728SOL    HW215084   6.503   1.657   4.554
 4729SOL     OW15085   6.009   1.148   1.150
 4729SOL    HW115086   6.004   1.090   1.068
 4729SOL    HW215087   6.024   1.090   1.230
 4730SOL     OW15088   3.469   6.701   5.055
 4730SOL    HW115089   3.466   6.640   5.134
 4730SOL    HW215090   3.396   6.769   5.063
 4731SOL     OW15091   3.655   0.658   0.645
 4731SOL    HW115092   3.648   0.577   0.587
 4731SOL    HW215093   3.582   0.656   0.714
 4732SOL     OW15094   0.268   4.563   3.828
 4732SOL    HW115095   0.195   4.547   3.763
 4732SOL    HW215096   0.279   4.483   3.887
 4733SOL     OW15097   2.085   3.687   3.121
 4733SOL    HW115098   2.100   3.634   3.205
 4733SOL    HW215099   2.113   3.632   3.042
 4734SOL     OW15100   4.898   3.252   6.606
 4734SOL    HW115101   4.822   3.296   6.557
 4734SOL    HW215102   4.967   3.321   6.630
 4735SOL     OW15103   6.972   6.958   4.797
 4735SOL    HW115104   6.907   7.005   4.857
 4735SOL    HW215105   0.031   6.924   4.852
 4736SOL     OW15106   6.499   2.119   3.303
 4736SOL    HW115107   6.581   2.173   3.283
 4736SOL    HW215108   6.524   2.040   3.359
 4737SOL     OW15109   2.129   4.340   1.080
 4737SOL    HW115110   2.198   4.393   1.031
 4737SOL    HW215111   2.038   4.368   1.050
 4738SOL     OW15112   1.820   6.455   3.794
 4738SOL    HW115113   1.746   6.417   3.738
 4738SOL    HW215114   1.809   6.554   3.802
 4739SOL     OW15115   5.599   3.254   3.791
 4739SOL    HW115116   5.668   3.324   3.809
 4739SOL    HW215117   5.518   3.296   3.751
 4740SOL     OW15118   0.616   1.151   1.356
 4740SOL    HW115119   0.664   1.230   1.395
 4740SOL    HW215120   0.569   1.179   1.272
 4741SOL     OW15121   4.273   4.702   1.800
 4741SOL    HW115122   4.183   4.665   1.824
 4741SOL    HW215123   4.307   4.759   1.875
 4742SOL     OW15124   2.479   6.178   1.862
 4742SOL    HW115125   2.565   6.136   1.892
 4742SOL    HW215126   2.478   6.184   1.762
 4743SOL     OW15127   2.485   1.920   0.581
 4743SOL    HW115128   2.485   1.990   0.510
 4743SOL    HW215129   2.434   1.840   0.548
 4744SOL     OW15130   1.849   3.037   5.332
 4744SOL    HW115131   1.846   3.125   5.285
 4744SOL    HW215132   1.805   3.044   5.421
 4745SOL     OW15133   2.964   5.569   4.972
 4745SOL    HW115134   2.907   5.492   4.944
 4745SOL    HW215135   2.907   5.639   5.014
 4746SOL     OW15136   6.803   0.331   0.396
 4746SOL    HW115137   6.749   0.252   0.427
 4746SOL    HW215138   6.742   0.399   0.356
 4747SOL     OW15139   6.301   2.729   0.840
 4747SOL    HW115140   6.382   2.736   0.782
 4747SOL    HW215141   6.287   2.633   0.865
 4748SOL     OW15142   1.963   1.040   1.648
 4748SOL    HW115143   2.031   0.972   1.673
 4748SOL    HW215144   1.882   1.029   1.706
 4749SOL     OW15145   1.467   6.669   6.806
 4749SOL    HW115146   1.441   6.760   6.772
 4749SOL    HW215147   1.566   6.656   6.792
 4750SOL     OW15148   6.942   0.960   4.523
 4750SOL    HW115149   6.930   0.913   4.610
 4750SOL    HW215150   0.008   0.928   4.478
 4751SOL     OW15151   1.153   3.883   6.753
 4751SOL    HW115152   1.234   3.852   6.803
 4751SOL    HW215153   1.081   3.906   6.819
 4752SOL     OW15154   3.073   6.020   1.499
 4752SOL    HW115155   3.125   6.042   1.417
 4752SOL    HW215156   3.101   5.931   1.533
 4753SOL     OW15157   5.808   6.912   5.373
 4753SOL    HW115158   5.903   6.942   5.376
 4753SOL    HW215159   5.804   6.812   5.377
 4754SOL     OW15160   0.725   0.211   5.678
 4754SOL    HW115161   0.797   0.230   5.611
 4754SOL    HW215162   0.728   0.113   5.702
 4755SOL     OW15163   2.550   1.614   6.595
 4755SOL    HW115164   2.648   1.596   6.594
 4755SOL    HW215165   2.524   1.653   6.683
 4756SOL     OW15166   4.823   2.730   1.257
 4756SOL    HW115167   4.792   2.675   1.180
 4756SOL    HW215168   4.885   2.676   1.314
 4757SOL     OW15169   2.156   1.894   1.140
 4757SOL    HW115170   2.205   1.855   1.063
 4757SOL    HW215171   2.104   1.974   1.110
 4758SOL     OW15172   5.175   5.354   5.300
 4758SOL    HW115173   5.102   5.292   5.270
 4758SOL    HW215174   5.213   5.401   5.220
 4759SOL     OW15175   5.379   5.552   5.728
 4759SOL    HW115176   5.458   5.561   5.790
 4759SOL    HW215177   5.408   5.569   5.634
 4760SOL     OW15178   1.670   1.604   1.794
 4760SOL    HW115179   1.592   1.625   1.852
 4760SOL    HW215180   1.699   1.510   1.810
 4761SOL     OW15181   0.734   6.750   6.578
 4761SOL    HW115182   0.756   6.738   6.675
 4761SOL    HW215183   0.639   6.777   6.568
 4762SOL     OW15184   2.008   5.724   2.147
 4762SOL    HW115185   2.051   5.758   2.063
 4762SOL    HW215186   2.051   5.768   2.226
 4763SOL     OW15187   6.180   5.904   3.717
 4763SOL    HW115188   6.217   5.862   3.634
 4763SOL    HW215189   6.081   5.911   3.709
 4764SOL     OW15190   3.649   3.580   4.161
 4764SOL    HW115191   3.683   3.499   4.209
 4764SOL    HW215192   3.640   3.560   4.064
 4765SOL     OW15193   5.393   5.645   4.668
 4765SOL    HW115194   5.411   5.740   4.641
 4765SOL    HW215195   5.382   5.640   4.767
 4766SOL     OW15196   2.696   0.236   2.910
 4766SOL    HW115197   2.634   0.288   2.968
 4766SOL    HW215198   2.760   0.298   2.864
 4767SOL     OW15199   4.125   5.986   6.436
 4767SOL    HW115200   4.088   6.048   6.505
 4767SOL    HW215201   4.129   6.033   6.348
 4768SOL     OW15202   6.970   0.640   5.236
 4768SOL    HW115203   6.911   0.645   5.155
 4768SOL    HW215204   0.040   0.684   5.216
 4769SOL     OW15205   4.039   6.890   1.479
 4769SOL    HW115206   4.105   6.915   1.550
 4769SOL    HW215207   4.008   6.973   1.431
 4770SOL     OW15208   2.730   0.739   3.188
 4770SOL    HW115209   2.806   0.674   3.194
 4770SOL    HW215210   2.680   0.740   3.275
 4771SOL     OW15211   3.965   4.141   5.301
 4771SOL    HW115212   3.881   4.190   5.322
 4771SOL    HW215213   3.944   4.057   5.253
 4772SOL     OW15214   2.567   2.087   1.940
 4772SOL    HW115215   2.566   2.163   2.005
 4772SOL    HW215216   2.638   2.104   1.871
 4773SOL     OW15217   0.199   6.033   3.716
 4773SOL    HW115218   0.229   5.943   3.748
 4773SOL    HW215219   0.276   6.078   3.669
 4774SOL     OW15220   0.585   4.276   1.266
 4774SOL    HW115221   0.576   4.179   1.242
 4774SOL    HW215222   0.682   4.302   1.264
 4775SOL     OW15223   4.123   0.499   2.211
 4775SOL    HW115224   4.062   0.485   2.289
 4775SOL    HW215225   4.164   0.590   2.217
 4776SOL     OW15226   2.988   5.414   2.305
 4776SOL    HW115227   2.895   5.438   2.276
 4776SOL    HW215228   3.046   5.495   2.301
 4777SOL     OW15229   2.895   4.053   1.037
 4777SOL    HW115230   2.966   4.123   1.034
 4777SOL    HW215231   2.886   4.019   1.131
 4778SOL     OW15232   5.004   3.880   2.014
 4778SOL    HW115233   4.953   3.841   1.937
 4778SOL    HW215234   5.082   3.933   1.980
 4779SOL     OW15235   5.569   0.595   2.992
 4779SOL    HW115236   5.658   0.609   2.949
 4779SOL    HW215237   5.498   0.642   2.939
 4780SOL     OW15238   0.701   6.475   6.399
 4780SOL    HW115239   0.786   6.521   6.422
 4780SOL    HW215240   0.660   6.437   6.482
 4781SOL     OW15241   2.385   5.343   1.346
 4781SOL    HW115242   2.397   5.416   1.414
 4781SOL    HW215243   2.362   5.384   1.258
 4782SOL     OW15244   5.695   6.751   6.751
 4782SOL    HW115245   5.606   6.763   6.707
 4782SOL    HW215246   5.738   6.841   6.762
 4783SOL     OW15247   5.584   4.381   1.205
 4783SOL    HW115248   5.527   4.327   1.267
 4783SOL    HW215249   5.526   4.430   1.140
 4784SOL     OW15250   5.856   5.127   4.509
 4784SOL    HW115251   5.848   5.207   4.568
 4784SOL    HW215252   5.952   5.101   4.499
 4785SOL     OW15253   6.647   0.373   1.542
 4785SOL    HW115254   6.673   0.403   1.450
 4785SOL    HW215255   6.595   0.445   1.588
 4786SOL     OW15256   1.690   3.105   1.943
 4786SOL    HW115257   1.780   3.147   1.935
 4786SOL    HW215258   1.660   3.073   1.854
 4787SOL     OW15259   3.488   1.945   3.115
 4787SOL    HW115260   3.520   1.858   3.078
 4787SOL    HW215261   3.457   2.003   3.040
 4788SOL     OW15262   1.454   5.336   4.257
 4788SOL    HW115263   1.379   5.337   4.323
 4788SOL    HW215264   1.433   5.271   4.184
 4789SOL     OW15265   5.658   0.727   0.548
 4789SOL    HW115266   5.711   0.718   0.633
 4789SOL    HW215267   5.640   0.636   0.511
 4790SOL     OW15268   5.681   2.144   6.163
 4790SOL    HW115269   5.737   2.170   6.242
 4790SOL    HW215270   5.734   2.087   6.101
 4791SOL     OW15271   5.619   6.953   2.196
 4791SOL    HW115272   5.691   6.914   2.139
 4791SOL    HW215273   5.533   6.906   2.179
 4792SOL     OW15274   2.067   2.639   2.316
 4792SOL    HW115275   2.109   2.729   2.330
 4792SOL    HW215276   2.138   2.570   2.311
 4793SOL     OW15277   1.374   6.645   5.828
 4793SOL    HW115278   1.343   6.551   5.840
 4793SOL    HW215279   1.378   6.667   5.731
 4794SOL     OW15280   2.642   0.660   2.360
 4794SOL    HW115281   2.561   0.717   2.353
 4794SOL    HW215282   2.621   0.577   2.413
 4795SOL     OW15283   6.227   3.154   3.798
 4795SOL    HW115284   6.310   3.099   3.811
 4795SOL    HW215285   6.239   3.211   3.716
 4796SOL     OW15286   5.446   4.746   0.926
 4796SOL    HW115287   5.385   4.670   0.948
 4796SOL    HW215288   5.527   4.742   0.984
 4797SOL     OW15289   0.316   4.932   5.100
 4797SOL    HW115290   0.302   5.000   5.173
 4797SOL    HW215291   0.229   4.913   5.055
 4798SOL     OW15292   6.979   4.782   4.390
 4798SOL    HW115293   6.902   4.723   4.413
 4798SOL    HW215294   6.978   4.863   4.448
 4799SOL     OW15295   4.582   1.464   4.880
 4799SOL    HW115296   4.613   1.556   4.905
 4799SOL    HW215297   4.658   1.414   4.838
 4800SOL     OW15298   1.796   2.250   4.616
 4800SOL    HW115299   1.778   2.237   4.714
 4800SOL    HW215300   1.781   2.163   4.568
 4801SOL     OW15301   0.626   2.396   1.126
 4801SOL    HW115302   0.655   2.483   1.166
 4801SOL    HW215303   0.706   2.340   1.105
 4802SOL     OW15304   2.827   0.572   1.777
 4802SOL    HW115305   2.856   0.612   1.690
 4802SOL    HW215306   2.864   0.627   1.852
 4803SOL     OW15307   1.192   0.115   0.698
 4803SOL    HW115308   1.285   0.097   0.667
 4803SOL    HW215309   1.137   0.031   0.692
 4804SOL     OW15310   4.149   5.124   0.146
 4804SOL    HW115311   4.110   5.197   0.202
 4804SOL    HW215312   4.177   5.161   0.057
 4805SOL     OW15313   6.805   1.727   0.976
 4805SOL    HW115314   6.733   1.658   0.985
 4805SOL    HW215315   6.765   1.812   0.942
 4806SOL     OW15316   0.784   2.854   3.021
 4806SOL    HW115317   0.862   2.837   3.082
 4806SOL    HW215318   0.703   2.807   3.057
 4807SOL     OW15319   0.001   0.091   1.569
 4807SOL    HW115320   6.996   0.182   1.604
 4807SOL    HW215321   0.058   0.043   1.635
 4808SOL     OW15322   4.986   2.923   1.066
 4808SOL    HW115323   4.972   2.860   1.142
 4808SOL    HW215324   4.943   2.887   0.984
 4809SOL     OW15325   3.849   5.613   6.840
 4809SOL    HW115326   3.923   5.670   6.804
 4809SOL    HW215327   3.883   5.563   6.920
 4810SOL     OW15328   1.090   0.274   1.446
 4810SOL    HW115329   1.036   0.215   1.386
 4810SOL    HW215330   1.134   0.345   1.391
 4811SOL     OW15331   4.029   5.123   2.202
 4811SOL    HW115332   3.969   5.203   2.200
 4811SOL    HW215333   3.975   5.041   2.180
 4812SOL     OW15334   0.002   5.782   4.301
 4812SOL    HW115335   0.092   5.743   4.281
 4812SOL    HW215336   0.009   5.881   4.309
 4813SOL     OW15337   5.313   2.122   3.187
 4813SOL    HW115338   5.366   2.141   3.104
 4813SOL    HW215339   5.291   2.208   3.233
 4814SOL     OW15340   6.761   3.610   1.727
 4814SOL    HW115341   6.671   3.632   1.689
 4814SOL    HW215342   6.781   3.671   1.804
 4815SOL     OW15343   4.653   6.336   1.116
 4815SOL    HW115344   4.728   6.286   1.073
 4815SOL    HW215345   4.666   6.434   1.101
 4816SOL     OW15346   5.407   4.984   3.272
 4816SOL    HW115347   5.478   5.018   3.211
 4816SOL    HW215348   5.326   4.961   3.218
 4817SOL     OW15349   0.838   1.885   6.770
 4817SOL    HW115350   0.758   1.829   6.792
 4817SOL    HW215351   0.873   1.927   6.853
 4818SOL     OW15352   0.582   0.182   4.146
 4818SOL    HW115353   0.514   0.176   4.219
 4818SOL    HW215354   0.620   0.274   4.143
 4819SOL     OW15355   1.716   3.132   0.704
 4819SOL    HW115356   1.814   3.146   0.702
 4819SOL    HW215357   1.685   3.095   0.616
 4820SOL     OW15358   6.867   3.119   2.061
 4820SOL    HW115359   6.851   3.033   2.013
 4820SOL    HW215360   6.919   3.182   2.003
 4821SOL     OW15361   6.826   5.400   2.400
 4821SOL    HW115362   6.804   5.386   2.304
 4821SOL    HW215363   6.855   5.314   2.441
 4822SOL     OW15364   1.332   3.692   4.237
 4822SOL    HW115365   1.416   3.735   4.203
 4822SOL    HW215366   1.352   3.599   4.268
 4823SOL     OW15367   1.853   3.039   1.519
 4823SOL    HW115368   1.864   2.973   1.444
 4823SOL    HW215369   1.943   3.061   1.557
 4824SOL     OW15370   5.957   1.547   5.452
 4824SOL    HW115371   5.974   1.646   5.458
 4824SOL    HW215372   6.003   1.501   5.528
 4825SOL     OW15373   1.705   6.885   3.749
 4825SOL    HW115374   1.801   6.871   3.773
 4825SOL    HW215375   1.685   6.983   3.743
 4826SOL     OW15376   4.390   0.673   1.338
 4826SOL    HW115377   4.392   0.579   1.305
 4826SOL    HW215378   4.482   0.701   1.366
 4827SOL     OW15379   6.720   1.626   1.382
 4827SOL    HW115380   6.756   1.718   1.369
 4827SOL    HW215381   6.743   1.594   1.475
 4828SOL     OW15382   4.772   0.548   3.624
 4828SOL    HW115383   4.729   0.637   3.640
 4828SOL    HW215384   4.868   0.561   3.601
 4829SOL     OW15385   3.842   6.805   5.262
 4829SOL    HW115386   3.922   6.758   5.225
 4829SOL    HW215387   3.854   6.904   5.255
 4830SOL     OW15388   3.039   5.863   3.280
 4830SOL    HW115389   2.941   5.849   3.295
 4830SOL    HW215390   3.091   5.792   3.327
 4831SOL     OW15391   3.095   4.805   5.489
 4831SOL    HW115392   3.014   4.863   5.496
 4831SOL    HW215393   3.127   4.804   5.394
 4832SOL     OW15394   3.714   3.353   4.555
 4832SOL    HW115395   3.783   3.377   4.623
 4832SOL    HW215396   3.628   3.399   4.577
 4833SOL     OW15397   6.879   3.357   4.131
 4833SOL    HW115398   6.846   3.276   4.180
 4833SOL    HW215399   6.844   3.356   4.037
 4834SOL     OW15400   1.204   5.146   1.458
 4834SOL    HW115401   1.296   5.167   1.493
 4834SOL    HW215402   1.166   5.227   1.414
 4835SOL     OW15403   6.502   2.472   5.346
 4835SOL    HW115404   6.593   2.461   5.386
 4835SOL    HW215405   6.446   2.529   5.406
 4836SOL     OW15406   5.067   0.926   5.345
 4836SOL    HW115407   5.141   0.994   5.341
 4836SOL    HW215408   5.019   0.934   5.432
 4837SOL     OW15409   0.358   4.336   3.967
 4837SOL    HW115410   0.456   4.356   3.958
 4837SOL    HW215411   0.347   4.250   4.017
 4838SOL     OW15412   2.120   4.118   6.406
 4838SOL    HW115413   2.193   4.052   6.428
 4838SOL    HW215414   2.038   4.096   6.459
 4839SOL     OW15415   2.623   1.533   0.167
 4839SOL    HW115416   2.627   1.487   0.079
 4839SOL    HW215417   2.600   1.466   0.238
 4840SOL     OW15418   5.919   3.844   4.448
 4840SOL    HW115419   5.915   3.943   4.463
 4840SOL    HW215420   6.011   3.818   4.418
 4841SOL     OW15421   3.453   5.903   2.805
 4841SOL    HW115422   3.445   5.804   2.787
 4841SOL    HW215423   3.498   5.918   2.893
 4842SOL     OW15424   3.331   5.562   2.968
 4842SOL    HW115425   3.337   5.497   3.044
 4842SOL    HW215426   3.319   5.513   2.882
 4843SOL     OW15427   0.379   1.842   1.418
 4843SOL    HW115428   0.288   1.802   1.432
 4843SOL    HW215429   0.382   1.933   1.459
 4844SOL     OW15430   1.338   5.561   5.096
 4844SOL    HW115431   1.343   5.493   5.169
 4844SOL    HW215432   1.283   5.525   5.020
 4845SOL     OW15433   4.917   3.796   4.857
 4845SOL    HW115434   5.015   3.786   4.871
 4845SOL    HW215435   4.867   3.733   4.916
 4846SOL     OW15436   6.591   3.817   4.331
 4846SOL    HW115437   6.657   3.745   4.312
 4846SOL    HW215438   6.507   3.800   4.280
 4847SOL     OW15439   2.495   5.944   6.552
 4847SOL    HW115440   2.469   5.992   6.468
 4847SOL    HW215441   2.420   5.950   6.618
 4848SOL     OW15442   3.404   1.002   4.390
 4848SOL    HW115443   3.414   0.959   4.480
 4848SOL    HW215444   3.327   1.066   4.392
 4849SOL     OW15445   2.084   6.797   1.022
 4849SOL    HW115446   2.115   6.704   1.045
 4849SOL    HW215447   1.990   6.794   0.990
 4850SOL     OW15448   4.679   0.140   0.285
 4850SOL    HW115449   4.592   0.108   0.247
 4850SOL    HW215450   4.755   0.106   0.229
 4851SOL     OW15451   3.743   4.480   6.579
 4851SOL    HW115452   3.697   4.522   6.657
 4851SOL    HW215453   3.674   4.444   6.516
 4852SOL     OW15454   4.768   5.617   4.636
 4852SOL    HW115455   4.791   5.566   4.718
 4852SOL    HW215456   4.748   5.553   4.561
 4853SOL     OW15457   4.466   6.683   1.912
 4853SOL    HW115458   4.543   6.743   1.933
 4853SOL    HW215459   4.381   6.725   1.945
 4854SOL     OW15460   5.358   6.344   1.574
 4854SOL    HW115461   5.380   6.435   1.540
 4854SOL    HW215462   5.296   6.352   1.653
 4855SOL     OW15463   5.211   4.849   5.665
 4855SOL    HW115464   5.277   4.869   5.592
 4855SOL    HW215465   5.176   4.935   5.702
 4856SOL     OW15466   0.083   3.945   2.902
 4856SOL    HW115467   0.102   3.924   2.806
 4856SOL    HW215468   0.061   4.042   2.911
 4857SOL     OW15469   2.381   2.324   5.171
 4857SOL    HW115470   2.293   2.352   5.134
 4857SOL    HW215471   2.376   2.230   5.204
 4858SOL     OW15472   0.466   6.324   4.155
 4858SOL    HW115473   0.393   6.269   4.196
 4858SOL    HW215474   0.541   6.264   4.128
 4859SOL     OW15475   0.700   6.377   2.377
 4859SOL    HW115476   0.737   6.284   2.372
 4859SOL    HW215477   0.725   6.427   2.294
 4860SOL     OW15478   4.486   5.500   1.251
 4860SOL    HW115479   4.536   5.585   1.229
 4860SOL    HW215480   4.510   5.471   1.343
 4861SOL     OW15481   0.275   4.198   6.561
 4861SOL    HW115482   0.365   4.172   6.597
 4861SOL    HW215483   0.204   4.173   6.627
 4862SOL     OW15484   2.345   5.510   5.715
 4862SOL    HW115485   2.407   5.451   5.663
 4862SOL    HW215486   2.250   5.491   5.688
 4863SOL     OW15487   4.570   1.898   3.231
 4863SOL    HW115488   4.610   1.946   3.309
 4863SOL    HW215489   4.523   1.963   3.172
 4864SOL     OW15490   2.032   1.076   1.204
 4864SOL    HW115491   2.032   1.142   1.129
 4864SOL    HW215492   2.083   1.114   1.281
 4865SOL     OW15493   3.504   5.927   5.665
 4865SOL    HW115494   3.545   6.017   5.672
 4865SOL    HW215495   3.574   5.857   5.679
 4866SOL     OW15496   6.960   4.370   2.010
 4866SOL    HW115497   7.004   4.301   2.067
 4866SOL    HW215498   6.864   4.344   1.994
 4867SOL     OW15499   4.748   5.771   3.359
 4867SOL    HW115500   4.658   5.733   3.377
 4867SOL    HW215501   4.818   5.701   3.374
 4868SOL     OW15502   0.805   6.244   1.027
 4868SOL    HW115503   0.830   6.223   0.933
 4868SOL    HW215504   0.825   6.166   1.085
 4869SOL     OW15505   6.334   0.554   0.939
 4869SOL    HW115506   6.416   0.587   0.985
 4869SOL    HW215507   6.257   0.556   1.003
 4870SOL     OW15508   6.693   6.843   1.595
 4870SOL    HW115509   6.649   6.932   1.586
 4870SOL    HW215510   6.719   6.828   1.690
 4871SOL     OW15511   0.607   3.662   4.120
 4871SOL    HW115512   0.705   3.669   4.139
 4871SOL    HW215513   0.590   3.584   4.060
 4872SOL     OW15514   1.024   0.585   3.434
 4872SOL    HW115515   0.978   0.625   3.514
 4872SOL    HW215516   1.116   0.623   3.425
 4873SOL     OW15517   0.877   5.606   5.335
 4873SOL    HW115518   0.911   5.543   5.265
 4873SOL    HW215519   0.934   5.599   5.417
 4874SOL     OW15520   5.030   3.667   3.223
 4874SOL    HW115521   5.082   3.614   3.156
 4874SOL    HW215522   5.018   3.761   3.189
 4875SOL     OW15523   6.320   2.606   6.711
 4875SOL    HW115524   6.245   2.600   6.776
 4875SOL    HW215525   6.291   2.658   6.631
 4876SOL     OW15526   0.569   1.238   6.334
 4876SOL    HW115527   0.594   1.332   6.357
 4876SOL    HW215528   0.480   1.216   6.375
 4877SOL     OW15529   6.510   1.735   0.836
 4877SOL    HW115530   6.479   1.640   0.843
 4877SOL    HW215531   6.455   1.784   0.768
 4878SOL     OW15532   6.791   1.951   1.370
 4878SOL    HW115533   6.751   1.932   1.280
 4878SOL    HW215534   6.754   2.038   1.404
 4879SOL     OW15535   4.236   5.506   3.329
 4879SOL    HW115536   4.169   5.571   3.294
 4879SOL    HW215537   4.327   5.531   3.295
 4880SOL     OW15538   5.516   2.347   6.024
 4880SOL    HW115539   5.588   2.291   6.066
 4880SOL    HW215540   5.444   2.288   5.988
 4881SOL     OW15541   3.341   5.975   6.526
 4881SOL    HW115542   3.433   5.981   6.489
 4881SOL    HW215543   3.344   5.986   6.625
 4882SOL     OW15544   5.440   0.970   5.485
 4882SOL    HW115545   5.369   0.908   5.516
 4882SOL    HW215546   5.523   0.956   5.540
 4883SOL     OW15547   0.629   5.666   0.928
 4883SOL    HW115548   0.560   5.664   0.855
 4883SOL    HW215549   0.585   5.648   1.016
 4884SOL     OW15550   3.266   6.651   1.875
 4884SOL    HW115551   3.323   6.733   1.863
 4884SOL    HW215552   3.325   6.572   1.892
 4885SOL     OW15553   2.006   0.142   1.837
 4885SOL    HW115554   1.947   0.192   1.773
 4885SOL    HW215555   2.094   0.188   1.845
 4886SOL     OW15556   6.264   0.691   6.472
 4886SOL    HW115557   6.307   0.713   6.385
 4886SOL    HW215558   6.310   0.740   6.546
 4887SOL     OW15559   0.424   1.833   5.088
 4887SOL    HW115560   0.364   1.770   5.139
 4887SOL    HW215561   0.420   1.811   4.991
 4888SOL     OW15562   2.707   5.425   2.234
 4888SOL    HW115563   2.610   5.413   2.252
 4888SOL    HW215564   2.720   5.498   2.166
 4889SOL     OW15565   1.529   2.407   0.019
 4889SOL    HW115566   1.588   2.480   0.053
 4889SOL    HW215567   1.585   2.331   7.005
 4890SOL     OW15568   1.286   0.405   4.610
 4890SOL    HW115569   1.219   0.447   4.672
 4890SOL    HW215570   1.341   0.339   4.661
 4891SOL     OW15571   1.166   3.926   0.750
 4891SOL    HW115572   1.246   3.867   0.762
 4891SOL    HW215573   1.123   3.906   0.662
 4892SOL     OW15574   1.395   5.915   1.451
 4892SOL    HW115575   1.461   5.841   1.464
 4892SOL    HW215576   1.375   5.958   1.539
 4893SOL     OW15577   0.434   3.442   6.592
 4893SOL    HW115578   0.468   3.415   6.502
 4893SOL    HW215579   0.412   3.540   6.591
 4894SOL     OW15580   2.103   0.859   3.374
 4894SOL    HW115581   2.059   0.785   3.426
 4894SOL    HW215582   2.078   0.947   3.415
 4895SOL     OW15583   0.314   3.842   0.659
 4895SOL    HW115584   0.229   3.873   0.616
 4895SOL    HW215585   0.327   3.744   0.642
 4896SOL     OW15586   4.157   5.416   3.805
 4896SOL    HW115587   4.063   5.396   3.778
 4896SOL    HW215588   4.219   5.393   3.730
 4897SOL     OW15589   3.434   5.305   6.075
 4897SOL    HW115590   3.492   5.381   6.046
 4897SOL    HW215591   3.428   5.304   6.174
 4898SOL     OW15592   5.808   2.433   5.423
 4898SOL    HW115593   5.807   2.471   5.515
 4898SOL    HW215594   5.879   2.477   5.369
 4899SOL     OW15595   5.353   4.021   4.789
 4899SOL    HW115596   5.445   4.038   4.826
 4899SOL    HW215597   5.359   4.007   4.691
 4900SOL     OW15598   0.912   6.513   4.975
 4900SOL    HW115599   0.829   6.543   4.928
 4900SOL    HW215600   0.941   6.583   5.040
 4901SOL     OW15601   1.396   6.833   3.199
 4901SOL    HW115602   1.337   6.889   3.258
 4901SOL    HW215603   1.469   6.889   3.162
 4902SOL     OW15604   2.977   4.775   2.061
 4902SOL    HW115605   3.074   4.769   2.038
 4902SOL    HW215606   2.924   4.714   2.001
 4903SOL     OW15607   5.058   6.448   6.274
 4903SOL    HW115608   5.053   6.528   6.215
 4903SOL    HW215609   5.034   6.474   6.368
 4904SOL     OW15610   3.460   6.183   3.489
 4904SOL    HW115611   3.516   6.183   3.572
 4904SOL    HW215612   3.373   6.138   3.507
 4905SOL     OW15613   6.235   3.402   2.500
 4905SOL    HW115614   6.325   3.403   2.545
 4905SOL    HW215615   6.221   3.314   2.455
 4906SOL     OW15616   6.063   1.083   1.414
 4906SOL    HW115617   6.072   0.995   1.460
 4906SOL    HW215618   6.151   1.129   1.412
 4907SOL     OW15619   2.915   0.897   2.448
 4907SOL    HW115620   2.867   0.936   2.527
 4907SOL    HW215621   3.012   0.887   2.470
 4908SOL     OW15622   3.423   5.563   6.643
 4908SOL    HW115623   3.348   5.507   6.607
 4908SOL    HW215624   3.390   5.613   6.723
 4909SOL     OW15625   6.645   0.372   5.085
 4909SOL    HW115626   6.599   0.408   5.003
 4909SOL    HW215627   6.579   0.322   5.141
 4910SOL     OW15628   6.353   0.052   5.122
 4910SOL    HW115629   6.419   0.010   5.060
 4910SOL    HW215630   6.337   0.147   5.094
 4911SOL     OW15631   0.279   3.336   6.014
 4911SOL    HW115632   0.293   3.315   6.110
 4911SOL    HW215633   0.223   3.264   5.972
 4912SOL     OW15634   2.513   2.418   1.923
 4912SOL    HW115635   2.557   2.375   2.002
 4912SOL    HW215636   2.583   2.455   1.862
 4913SOL     OW15637   2.903   3.679   2.042
 4913SOL    HW115638   2.930   3.741   2.116
 4913SOL    HW215639   2.808   3.651   2.056
 4914SOL     OW15640   1.763   6.334   3.372
 4914SOL    HW115641   1.839   6.321   3.309
 4914SOL    HW215642   1.679   6.351   3.320
 4915SOL     OW15643   3.234   6.039   3.519
 4915SOL    HW115644   3.257   5.951   3.561
 4915SOL    HW215645   3.160   6.025   3.452
 4916SOL     OW15646   2.318   1.188   2.377
 4916SOL    HW115647   2.378   1.111   2.402
 4916SOL    HW215648   2.348   1.225   2.289
 4917SOL     OW15649   1.339   5.031   0.316
 4917SOL    HW115650   1.437   5.047   0.325
 4917SOL    HW215651   1.310   4.960   0.380
 4918SOL     OW15652   2.436   0.431   2.187
 4918SOL    HW115653   2.342   0.425   2.221
 4918SOL    HW215654   2.485   0.348   2.213
 4919SOL     OW15655   2.704   2.506   1.755
 4919SOL    HW115656   2.718   2.530   1.659
 4919SOL    HW215657   2.792   2.483   1.796
 4920SOL     OW15658   4.505   0.642   6.846
 4920SOL    HW115659   4.591   0.634   6.896
 4920SOL    HW215660   4.428   0.629   6.909
 4921SOL     OW15661   1.429   4.836   2.012
 4921SOL    HW115662   1.514   4.860   1.964
 4921SOL    HW215663   1.393   4.750   1.976
 4922SOL     OW15664   1.013   2.906   5.757
 4922SOL    HW115665   1.084   2.923   5.689
 4922SOL    HW215666   0.992   2.808   5.759
 4923SOL     OW15667   3.896   1.674   1.046
 4923SOL    HW115668   3.956   1.741   1.091
 4923SOL    HW215669   3.952   1.600   1.009
 4924SOL     OW15670   0.581   4.077   4.514
 4924SOL    HW115671   0.606   4.025   4.596
 4924SOL    HW215672   0.663   4.097   4.461
 4925SOL     OW15673   3.997   6.151   6.605
 4925SOL    HW115674   4.020   6.237   6.650
 4925SOL    HW215675   3.917   6.164   6.547
 4926SOL     OW15676   4.752   2.423   2.085
 4926SOL    HW115677   4.706   2.458   2.167
 4926SOL    HW215678   4.775   2.500   2.024
 4927SOL     OW15679   3.794   3.577   3.036
 4927SOL    HW115680   3.860   3.647   3.061
 4927SOL    HW215681   3.803   3.555   2.939
 4928SOL     OW15682   0.667   6.045   0.661
 4928SOL    HW115683   0.745   6.065   0.602
 4928SOL    HW215684   0.598   5.995   0.609
 4929SOL     OW15685   0.890   4.791   4.394
 4929SOL    HW115686   0.844   4.877   4.418
 4929SOL    HW215687   0.925   4.797   4.300
 4930SOL     OW15688   6.997   1.870   0.657
 4930SOL    HW115689   6.922   1.933   0.676
 4930SOL    HW215690   0.049   1.879   0.728
 4931SOL     OW15691   6.986   0.603   1.242
 4931SOL    HW115692   6.978   0.691   1.196
 4931SOL    HW215693   0.023   0.613   1.325
 4932SOL     OW15694   3.193   2.393   0.913
 4932SOL    HW115695   3.148   2.331   0.849
 4932SOL    HW215696   3.291   2.395   0.895
 4933SOL     OW15697   2.691   1.114   4.747
 4933SOL    HW115698   2.596   1.081   4.749
 4933SOL    HW215699   2.741   1.067   4.674
 4934SOL     OW15700   1.240   6.122   4.714
 4934SOL    HW115701   1.140   6.118   4.712
 4934SOL    HW215702   1.273   6.151   4.624
 4935SOL     OW15703   1.653   1.177   0.635
 4935SOL    HW115704   1.700   1.235   0.569
 4935SOL    HW215705   1.681   1.202   0.728
 4936SOL     OW15706   3.941   5.552   0.481
 4936SOL    HW115707   3.849   5.526   0.508
 4936SOL    HW215708   3.940   5.586   0.387
 4937SOL     OW15709   0.515   3.401   6.339
 4937SOL    HW115710   0.450   3.331   6.311
 4937SOL    HW215711   0.542   3.456   6.260
 4938SOL     OW15712   3.541   4.458   1.419
 4938SOL    HW115713   3.629   4.462   1.372
 4938SOL    HW215714   3.502   4.550   1.424
 4939SOL     OW15715   1.448   2.205   2.307
 4939SOL    HW115716   1.522   2.267   2.279
 4939SOL    HW215717   1.419   2.228   2.400
 4940SOL     OW15718   6.804   2.211   5.033
 4940SOL    HW115719   6.898   2.231   5.062
 4940SOL    HW215720   6.753   2.173   5.111
 4941SOL     OW15721   4.060   1.765   5.139
 4941SOL    HW115722   4.026   1.825   5.067
 4941SOL    HW215723   4.135   1.811   5.188
 4942SOL     OW15724   0.217   1.570   3.802
 4942SOL    HW115725   0.175   1.634   3.737
 4942SOL    HW215726   0.266   1.499   3.751
 4943SOL     OW15727   5.162   3.066   6.510
 4943SOL    HW115728   5.230   3.139   6.515
 4943SOL    HW215729   5.091   3.082   6.578
 4944SOL     OW15730   1.268   5.386   0.789
 4944SOL    HW115731   1.206   5.464   0.799
 4944SOL    HW215732   1.328   5.401   0.710
 4945SOL     OW15733   2.510   0.765   4.706
 4945SOL    HW115734   2.454   0.844   4.731
 4945SOL    HW215735   2.517   0.703   4.784
 4946SOL     OW15736   2.604   4.787   6.964
 4946SOL    HW115737   2.601   4.841   0.030
 4946SOL    HW215738   2.662   4.832   6.897
 4947SOL     OW15739   1.461   1.242   1.889
 4947SOL    HW115740   1.453   1.173   1.817
 4947SOL    HW215741   1.382   1.235   1.950
 4948SOL     OW15742   1.131   2.755   1.940
 4948SOL    HW115743   1.064   2.692   1.902
 4948SOL    HW215744   1.222   2.730   1.907
 4949SOL     OW15745   0.085   4.186   0.050
 4949SOL    HW115746   0.131   4.235   0.123
 4949SOL    HW215747   0.108   4.089   0.054
 4950SOL     OW15748   2.661   3.837   5.623
 4950SOL    HW115749   2.672   3.791   5.712
 4950SOL    HW215750   2.606   3.920   5.635
 4951SOL     OW15751   5.129   5.247   3.342
 4951SOL    HW115752   5.153   5.213   3.251
 4951SOL    HW215753   5.031   5.237   3.357
 4952SOL     OW15754   0.522   6.903   6.220
 4952SOL    HW115755   0.425   6.921   6.236
 4952SOL    HW215756   0.536   6.805   6.208
 4953SOL     OW15757   0.731   1.939   5.113
 4953SOL    HW115758   0.660   1.869   5.104
 4953SOL    HW215759   0.790   1.937   5.033
 4954SOL     OW15760   3.497   3.955   5.302
 4954SOL    HW115761   3.565   3.989   5.237
 4954SOL    HW215762   3.427   3.903   5.253
 4955SOL     OW15763   3.645   5.224   6.649
 4955SOL    HW115764   3.723   5.162   6.659
 4955SOL    HW215765   3.644   5.289   6.725
 4956SOL     OW15766   2.921   0.262   4.626
 4956SOL    HW115767   2.988   0.262   4.552
 4956SOL    HW215768   2.968   0.257   4.714
 4957SOL     OW15769   6.133   4.280   6.786
 4957SOL    HW115770   6.141   4.378   6.770
 4957SOL    HW215771   6.223   4.238   6.779
 4958SOL     OW15772   3.541   5.789   0.045
 4958SOL    HW115773   3.543   5.883   0.078
 4958SOL    HW215774   3.571   5.786   6.967
 4959SOL     OW15775   0.648   3.132   2.925
 4959SOL    HW115776   0.574   3.069   2.901
 4959SOL    HW215777   0.709   3.088   2.991
 4960SOL     OW15778   4.533   5.071   4.107
 4960SOL    HW115779   4.577   5.160   4.103
 4960SOL    HW215780   4.539   5.026   4.018
 4961SOL     OW15781   4.118   0.902   0.300
 4961SOL    HW115782   4.176   0.982   0.317
 4961SOL    HW215783   4.108   0.888   0.202
 4962SOL     OW15784   1.390   4.032   1.061
 4962SOL    HW115785   1.314   4.092   1.034
 4962SOL    HW215786   1.453   4.022   0.984
 4963SOL     OW15787   1.158   4.049   6.526
 4963SOL    HW115788   1.221   4.035   6.449
 4963SOL    HW215789   1.172   3.977   6.594
 4964SOL     OW15790   2.691   6.706   4.521
 4964SOL    HW115791   2.649   6.775   4.462
 4964SOL    HW215792   2.673   6.615   4.485
 4965SOL     OW15793   1.685   5.890   3.311
 4965SOL    HW115794   1.622   5.822   3.274
 4965SOL    HW215795   1.726   5.855   3.395
 4966SOL     OW15796   3.019   0.012   3.992
 4966SOL    HW115797   3.109   0.054   3.974
 4966SOL    HW215798   3.029   6.959   4.063
 4967SOL     OW15799   4.423   4.756   4.815
 4967SOL    HW115800   4.515   4.757   4.777
 4967SOL    HW215801   4.419   4.687   4.888
 4968SOL     OW15802   6.166   2.569   3.201
 4968SOL    HW115803   6.081   2.517   3.191
 4968SOL    HW215804   6.201   2.593   3.111
 4969SOL     OW15805   0.617   6.316   3.057
 4969SOL    HW115806   0.689   6.346   3.120
 4969SOL    HW215807   0.659   6.293   2.969
 4970SOL     OW15808   0.644   1.855   1.440
 4970SOL    HW115809   0.641   1.896   1.531
 4970SOL    HW215810   0.552   1.847   1.403
 4971SOL     OW15811   6.803   5.998   3.002
 4971SOL    HW115812   6.894   6.036   3.022
 4971SOL    HW215813   6.813   5.913   2.952
 4972SOL     OW15814   1.369   4.441   1.268
 4972SOL    HW115815   1.317   4.465   1.186
 4972SOL    HW215816   1.450   4.389   1.242
 4973SOL     OW15817   6.584   0.653   1.036
 4973SOL    HW115818   6.645   0.588   0.991
 4973SOL    HW215819   6.611   0.746   1.012
 4974SOL     OW15820   3.557   5.638   5.022
 4974SOL    HW115821   3.619   5.656   5.099
 4974SOL    HW215822   3.472   5.690   5.035
 4975SOL     OW15823   5.939   4.452   0.788
 4975SOL    HW115824   5.999   4.527   0.761
 4975SOL    HW215825   5.860   4.449   0.726
 4976SOL     OW15826   1.974   6.580   3.228
 4976SOL    HW115827   1.985   6.485   3.256
 4976SOL    HW215828   2.025   6.596   3.144
 4977SOL     OW15829   2.051   4.439   6.220
 4977SOL    HW115830   2.025   4.343   6.227
 4977SOL    HW215831   2.048   4.467   6.124
 4978SOL     OW15832   5.083   4.733   4.766
 4978SOL    HW115833   5.061   4.817   4.716
 4978SOL    HW215834   5.166   4.691   4.728
 4979SOL     OW15835   2.478   0.092   6.073
 4979SOL    HW115836   2.549   0.094   6.002
 4979SOL    HW215837   2.505   0.030   6.146
 4980SOL     OW15838   5.343   3.729   3.069
 4980SOL    HW115839   5.421   3.689   3.118
 4980SOL    HW215840   5.278   3.657   3.045
 4981SOL     OW15841   3.336   4.865   1.945
 4981SOL    HW115842   3.285   4.849   1.861
 4981SOL    HW215843   3.431   4.837   1.932
 4982SOL     OW15844   3.974   1.425   5.971
 4982SOL    HW115845   3.891   1.423   6.025
 4982SOL    HW215846   3.982   1.341   5.918
 4983SOL     OW15847   5.601   5.491   2.813
 4983SOL    HW115848   5.528   5.558   2.797
 4983SOL    HW215849   5.667   5.528   2.878
 4984SOL     OW15850   5.234   4.564   3.007
 4984SOL    HW115851   5.261   4.573   2.911
 4984SOL    HW215852   5.135   4.549   3.012
 4985SOL     OW15853   5.520   6.690   2.584
 4985SOL    HW115854   5.593   6.747   2.546
 4985SOL    HW215855   5.435   6.741   2.588
 4986SOL     OW15856   0.067   5.138   3.052
 4986SOL    HW115857   0.122   5.150   2.969
 4986SOL    HW215858   0.011   5.219   3.067
 4987SOL     OW15859   0.436   0.964   2.422
 4987SOL    HW115860   0.506   1.024   2.382
 4987SOL    HW215861   0.358   1.019   2.450
 4988SOL     OW15862   5.578   6.418   3.527
 4988SOL    HW115863   5.645   6.491   3.518
 4988SOL    HW215864   5.625   6.330   3.532
 4989SOL     OW15865   4.529   0.304   2.552
 4989SOL    HW115866   4.459   0.351   2.607
 4989SOL    HW215867   4.594   0.259   2.612
 4990SOL     OW15868   4.602   2.212   5.046
 4990SOL    HW115869   4.546   2.144   5.093
 4990SOL    HW215870   4.557   2.301   5.050
 4991SOL     OW15871   1.564   5.064   4.865
 4991SOL    HW115872   1.569   5.085   4.767
 4991SOL    HW215873   1.559   5.150   4.917
 4992SOL     OW15874   0.473   2.280   4.000
 4992SOL    HW115875   0.377   2.290   3.972
 4992SOL    HW215876   0.529   2.347   3.950
 4993SOL     OW15877   3.715   6.198   4.042
 4993SOL    HW115878   3.699   6.103   4.014
 4993SOL    HW215879   3.634   6.253   4.019
 4994SOL     OW15880   3.265   4.425   5.507
 4994SOL    HW115881   3.215   4.416   5.594
 4994SOL    HW215882   3.284   4.521   5.489
 4995SOL     OW15883   0.396   0.046   5.634
 4995SOL    HW115884   0.413   6.995   5.564
 4995SOL    HW215885   0.341   0.121   5.596
 4996SOL     OW15886   7.003   1.383   4.360
 4996SOL    HW115887   0.047   1.314   4.397
 4996SOL    HW215888   6.941   1.341   4.293
 4997SOL     OW15889   3.807   2.175   1.655
 4997SOL    HW115890   3.817   2.224   1.568
 4997SOL    HW215891   3.749   2.227   1.716
 4998SOL     OW15892   0.278   3.767   3.726
 4998SOL    HW115893   0.313   3.734   3.814
 4998SOL    HW215894   0.185   3.801   3.738
 4999SOL     OW15895   0.757   4.156   4.040
 4999SOL    HW115896   0.834   4.101   4.009
 4999SOL    HW215897   0.672   4.104   4.030
 5000SOL     OW15898   2.837   5.584   2.736
 5000SOL    HW115899   2.872   5.522   2.806
 5000SOL    HW215900   2.827   5.676   2.775
 5001SOL     OW15901   0.595   5.316   3.063
 5001SOL    HW115902   0.538   5.285   3.140
 5001SOL    HW215903   0.537   5.366   2.998
 5002SOL     OW15904   0.549   3.314   3.613
 5002SOL    HW115905   0.496   3.352   3.537
 5002SOL    HW215906   0.487   3.278   3.683
 5003SOL     OW15907   3.908   6.723   3.990
 5003SOL    HW115908   3.969   6.713   3.912
 5003SOL    HW215909   3.945   6.673   4.069
 5004SOL     OW15910   2.330   6.108   6.713
 5004SOL    HW115911   2.247   6.140   6.760
 5004SOL    HW215912   2.396   6.182   6.709
 5005SOL     OW15913   3.643   2.410   0.032
 5005SOL    HW115914   3.653   2.320   7.008
 5005SOL    HW215915   3.618   2.400   0.128
 5006SOL     OW15916   5.231   1.842   2.095
 5006SOL    HW115917   5.302   1.782   2.060
 5006SOL    HW215918   5.164   1.861   2.023
 5007SOL     OW15919   6.067   6.985   2.280
 5007SOL    HW115920   6.088   6.892   2.250
 5007SOL    HW215921   6.135   7.014   2.348
 5008SOL     OW15922   5.474   6.354   2.318
 5008SOL    HW115923   5.553   6.412   2.339
 5008SOL    HW215924   5.504   6.261   2.300
 5009SOL     OW15925   6.849   2.457   0.671
 5009SOL    HW115926   6.843   2.556   0.683
 5009SOL    HW215927   6.938   2.425   0.705
 5010SOL     OW15928   4.186   3.149   0.722
 5010SOL    HW115929   4.264   3.204   0.693
 5010SOL    HW215930   4.118   3.208   0.766
 5011SOL     OW15931   2.226   3.726   6.883
 5011SOL    HW115932   2.183   3.795   6.825
 5011SOL    HW215933   2.256   3.767   6.969
 5012SOL     OW15934   6.274   2.100   4.947
 5012SOL    HW115935   6.311   2.098   4.855
 5012SOL    HW215936   6.349   2.095   5.014
 5013SOL     OW15937   6.018   0.607   5.786
 5013SOL    HW115938   6.032   0.576   5.692
 5013SOL    HW215939   6.038   0.705   5.793
 5014SOL     OW15940   6.277   3.687   1.313
 5014SOL    HW115941   6.266   3.631   1.395
 5014SOL    HW215942   6.188   3.702   1.271
 5015SOL     OW15943   5.420   6.696   4.412
 5015SOL    HW115944   5.413   6.740   4.323
 5015SOL    HW215945   5.411   6.765   4.484
 5016SOL     OW15946   1.683   3.807   4.994
 5016SOL    HW115947   1.769   3.857   5.001
 5016SOL    HW215948   1.614   3.864   4.950
 5017SOL     OW15949   0.724   2.823   1.775
 5017SOL    HW115950   0.805   2.873   1.804
 5017SOL    HW215951   0.646   2.851   1.832
 5018SOL     OW15952   0.632   6.619   0.965
 5018SOL    HW115953   0.536   6.635   0.987
 5018SOL    HW215954   0.687   6.630   1.048
 5019SOL     OW15955   1.359   5.367   5.305
 5019SOL    HW115956   1.437   5.340   5.363
 5019SOL    HW215957   1.298   5.426   5.357
 5020SOL     OW15958   1.821   0.070   4.321
 5020SOL    HW115959   1.781   0.005   4.385
 5020SOL    HW215960   1.897   0.118   4.365
 5021SOL     OW15961   1.446   1.416   1.144
 5021SOL    HW115962   1.382   1.438   1.071
 5021SOL    HW215963   1.481   1.501   1.184
 5022SOL     OW15964   0.306   3.365   1.560
 5022SOL    HW115965   0.268   3.295   1.499
 5022SOL    HW215966   0.242   3.441   1.567
 5023SOL     OW15967   6.980   4.507   2.765
 5023SOL    HW115968   0.009   4.461   2.689
 5023SOL    HW215969   6.956   4.600   2.737
 5024SOL     OW15970   4.613   3.655   1.477
 5024SOL    HW115971   4.593   3.753   1.473
 5024SOL    HW215972   4.628   3.621   1.384
 5025SOL     OW15973   3.863   0.950   3.436
 5025SOL    HW115974   3.929   0.974   3.507
 5025SOL    HW215975   3.772   0.946   3.476
 5026SOL     OW15976   4.838   6.915   5.145
 5026SOL    HW115977   4.884   6.852   5.082
 5026SOL    HW215978   4.792   6.862   5.217
 5027SOL     OW15979   5.383   0.508   6.681
 5027SOL    HW115980   5.481   0.502   6.699
 5027SOL    HW215981   5.333   0.451   6.747
 5028SOL     OW15982   0.326   2.242   3.099
 5028SOL    HW115983   0.410   2.282   3.133
 5028SOL    HW215984   0.290   2.298   3.024
 5029SOL     OW15985   6.106   1.804   2.724
 5029SOL    HW115986   6.047   1.726   2.705
 5029SOL    HW215987   6.177   1.811   2.653
 5030SOL     OW15988   0.249   4.804   6.564
 5030SOL    HW115989   0.186   4.752   6.622
 5030SOL    HW215990   0.229   4.901   6.572
 5031SOL     OW15991   6.726   0.424   6.032
 5031SOL    HW115992   6.790   0.497   6.057
 5031SOL    HW215993   6.654   0.462   5.974
 5032SOL     OW15994   3.129   3.532   5.499
 5032SOL    HW115995   3.092   3.559   5.410
 5032SOL    HW215996   3.145   3.433   5.500
 5033SOL     OW15997   1.922   1.059   0.080
 5033SOL    HW115998   2.004   1.008   0.053
 5033SOL    HW215999   1.853   1.051   0.008
 5034SOL     OW16000   4.257   6.543   4.122
 5034SOL    HW116001   4.171   6.522   4.169
 5034SOL    HW216002   4.298   6.458   4.089
 5035SOL     OW16003   1.402   4.802   3.842
 5035SOL    HW116004   1.358   4.817   3.931
 5035SOL    HW216005   1.335   4.812   3.769
 5036SOL     OW16006   6.360   2.833   5.337
 5036SOL    HW116007   6.406   2.795   5.257
 5036SOL    HW216008   6.264   2.851   5.315
 5037SOL     OW16009   4.495   4.524   0.957
 5037SOL    HW116010   4.496   4.441   0.902
 5037SOL    HW216011   4.403   4.563   0.956
 5038SOL     OW16012   3.516   3.383   3.601
 5038SOL    HW116013   3.432   3.353   3.647
 5038SOL    HW216014   3.566   3.303   3.569
 5039SOL     OW16015   0.476   3.492   6.961
 5039SOL    HW116016   0.404   3.423   6.954
 5039SOL    HW216017   0.486   3.539   6.874
 5040SOL     OW16018   0.829   5.790   6.723
 5040SOL    HW116019   0.889   5.738   6.662
 5040SOL    HW216020   0.856   5.775   6.818
 5041SOL     OW16021   6.526   3.241   2.395
 5041SOL    HW116022   6.503   3.261   2.300
 5041SOL    HW216023   6.620   3.209   2.400
 5042SOL     OW16024   0.363   3.736   5.861
 5042SOL    HW116025   0.344   3.834   5.872
 5042SOL    HW216026   0.436   3.724   5.794
 5043SOL     OW16027   3.810   0.288   0.968
 5043SOL    HW116028   3.740   0.294   0.897
 5043SOL    HW216029   3.782   0.220   1.036
 5044SOL     OW16030   6.051   5.517   0.696
 5044SOL    HW116031   6.051   5.475   0.787
 5044SOL    HW216032   6.122   5.588   0.693
 5045SOL     OW16033   6.247   3.473   6.171
 5045SOL    HW116034   6.224   3.550   6.230
 5045SOL    HW216035   6.199   3.483   6.083
 5046SOL     OW16036   3.183   3.493   3.203
 5046SOL    HW116037   3.167   3.423   3.273
 5046SOL    HW216038   3.260   3.550   3.230
 5047SOL     OW16039   2.008   3.963   3.085
 5047SOL    HW116040   1.993   4.008   3.172
 5047SOL    HW216041   2.031   3.867   3.100
 5048SOL     OW16042   1.442   1.008   5.742
 5048SOL    HW116043   1.357   1.039   5.700
 5048SOL    HW216044   1.456   1.056   5.829
 5049SOL     OW16045   5.797   0.734   6.401
 5049SOL    HW116046   5.889   0.749   6.364
 5049SOL    HW216047   5.779   0.636   6.405
 5050SOL     OW16048   1.791   0.947   1.273
 5050SOL    HW116049   1.726   1.014   1.237
 5050SOL    HW216050   1.884   0.981   1.258
 5051SOL     OW16051   3.614   4.759   1.430
 5051SOL    HW116052   3.589   4.806   1.514
 5051SOL    HW216053   3.616   4.824   1.354
 5052SOL     OW16054   3.227   1.048   5.459
 5052SOL    HW116055   3.197   1.083   5.547
 5052SOL    HW216056   3.209   0.949   5.454
 5053SOL     OW16057   0.447   6.445   2.313
 5053SOL    HW116058   0.385   6.380   2.358
 5053SOL    HW216059   0.541   6.421   2.335
 5054SOL     OW16060   3.893   4.899   4.465
 5054SOL    HW116061   3.952   4.877   4.387
 5054SOL    HW216062   3.936   4.969   4.522
 5055SOL     OW16063   6.585   2.650   6.711
 5055SOL    HW116064   6.624   2.646   6.803
 5055SOL    HW216065   6.490   2.621   6.714
 5056SOL     OW16066   5.124   3.994   5.134
 5056SOL    HW116067   5.124   3.940   5.050
 5056SOL    HW216068   5.163   4.084   5.115
 5057SOL     OW16069   1.074   6.602   2.812
 5057SOL    HW116070   1.030   6.626   2.899
 5057SOL    HW216071   1.005   6.569   2.748
 5058SOL     OW16072   3.061   4.390   6.220
 5058SOL    HW116073   2.994   4.383   6.294
 5058SOL    HW216074   3.033   4.332   6.144
 5059SOL     OW16075   0.526   0.578   2.861
 5059SOL    HW116076   0.624   0.559   2.868
 5059SOL    HW216077   0.506   0.665   2.907
 5060SOL     OW16078   6.269   1.933   5.513
 5060SOL    HW116079   6.341   1.887   5.567
 5060SOL    HW216080   6.278   2.032   5.524
 5061SOL     OW16081   5.050   3.424   0.216
 5061SOL    HW116082   5.028   3.335   0.177
 5061SOL    HW216083   5.149   3.434   0.223
 5062SOL     OW16084   0.741   0.257   1.699
 5062SOL    HW116085   0.822   0.202   1.677
 5062SOL    HW216086   0.697   0.287   1.614
 5063SOL     OW16087   1.268   7.002   2.089
 5063SOL    HW116088   1.243   6.943   2.166
 5063SOL    HW216089   1.339   6.959   2.035
 5064SOL     OW16090   4.467   3.108   0.638
 5064SOL    HW116091   4.444   3.025   0.587
 5064SOL    HW216092   4.510   3.082   0.724
 5065SOL     OW16093   2.408   6.692   5.846
 5065SOL    HW116094   2.504   6.719   5.840
 5065SOL    HW216095   2.396   6.630   5.924
 5066SOL     OW16096   5.992   5.138   1.184
 5066SOL    HW116097   6.067   5.201   1.165
 5066SOL    HW216098   6.010   5.051   1.138
 5067SOL     OW16099   4.647   1.435   0.367
 5067SOL    HW116100   4.730   1.437   0.422
 5067SOL    HW216101   4.580   1.500   0.405
 5068SOL     OW16102   2.595   4.912   0.198
 5068SOL    HW116103   2.521   4.890   0.262
 5068SOL    HW216104   2.683   4.906   0.246
 5069SOL     OW16105   0.324   4.546   2.650
 5069SOL    HW116106   0.250   4.500   2.601
 5069SOL    HW216107   0.380   4.599   2.586
 5070SOL     OW16108   5.136   2.905   3.950
 5070SOL    HW116109   5.129   2.836   3.879
 5070SOL    HW216110   5.120   2.864   4.040
 5071SOL     OW16111   4.758   1.835   6.942
 5071SOL    HW116112   4.790   1.851   6.848
 5071SOL    HW216113   4.821   1.773   6.988
 5072SOL     OW16114   1.014   4.678   1.458
 5072SOL    HW116115   1.069   4.595   1.460
 5072SOL    HW216116   0.923   4.657   1.421
 5073SOL     OW16117   5.041   0.593   2.706
 5073SOL    HW116118   4.968   0.659   2.724
 5073SOL    HW216119   5.061   0.541   2.789
 5074SOL     OW16120   2.633   3.822   6.429
 5074SOL    HW116121   2.652   3.844   6.334
 5074SOL    HW216122   2.700   3.867   6.488
 5075SOL     OW16123   0.192   5.720   4.987
 5075SOL    HW116124   0.218   5.814   5.007
 5075SOL    HW216125   0.178   5.710   4.888
 5076SOL     OW16126   3.375   0.549   1.271
 5076SOL    HW116127   3.391   0.647   1.255
 5076SOL    HW216128   3.301   0.517   1.212
 5077SOL     OW16129   0.576   2.753   3.413
 5077SOL    HW116130   0.535   2.830   3.461
 5077SOL    HW216131   0.547   2.667   3.456
 5078SOL     OW16132   1.214   1.754   4.067
 5078SOL    HW116133   1.258   1.843   4.075
 5078SOL    HW216134   1.278   1.682   4.094
 5079SOL     OW16135   3.920   4.894   5.880
 5079SOL    HW116136   3.954   4.833   5.952
 5079SOL    HW216137   3.821   4.881   5.871
 5080SOL     OW16138   5.522   6.933   6.048
 5080SOL    HW116139   5.622   6.935   6.041
 5080SOL    HW216140   5.494   6.983   6.130
 5081SOL     OW16141   3.647   3.606   3.565
 5081SOL    HW116142   3.594   3.521   3.564
 5081SOL    HW216143   3.717   3.602   3.494
 5082SOL     OW16144   5.067   5.832   4.816
 5082SOL    HW116145   5.033   5.814   4.723
 5082SOL    HW216146   5.052   5.929   4.838
 5083SOL     OW16147   1.826   6.511   1.546
 5083SOL    HW116148   1.872   6.488   1.460
 5083SOL    HW216149   1.741   6.559   1.527
 5084SOL     OW16150   1.535   6.034   3.603
 5084SOL    HW116151   1.522   6.056   3.506
 5084SOL    HW216152   1.549   6.119   3.654
 5085SOL     OW16153   6.165   2.506   6.309
 5085SOL    HW116154   6.151   2.432   6.375
 5085SOL    HW216155   6.260   2.504   6.277
 5086SOL     OW16156   6.724   5.065   3.572
 5086SOL    HW116157   6.678   5.114   3.498
 5086SOL    HW216158   6.761   5.132   3.638
 5087SOL     OW16159   6.746   5.605   5.551
 5087SOL    HW116160   6.693   5.523   5.574
 5087SOL    HW216161   6.707   5.685   5.597
 5088SOL     OW16162   5.595   0.389   6.337
 5088SOL    HW116163   5.679   0.358   6.381
 5088SOL    HW216164   5.534   0.311   6.325
 5089SOL     OW16165   5.545   3.730   3.270
 5089SOL    HW116166   5.537   3.816   3.321
 5089SOL    HW216167   5.631   3.686   3.293
 5090SOL     OW16168   1.838   5.424   1.007
 5090SOL    HW116169   1.879   5.366   1.077
 5090SOL    HW216170   1.828   5.373   0.922
 5091SOL     OW16171   1.337   6.125   2.666
 5091SOL    HW116172   1.400   6.171   2.605
 5091SOL    HW216173   1.274   6.192   2.706
 5092SOL     OW16174   4.180   2.060   1.373
 5092SOL    HW116175   4.224   1.971   1.388
 5092SOL    HW216176   4.250   2.132   1.378
 5093SOL     OW16177   0.575   2.377   1.774
 5093SOL    HW116178   0.590   2.417   1.865
 5093SOL    HW216179   0.479   2.349   1.766
 5094SOL     OW16180   0.705   0.078   5.327
 5094SOL    HW116181   0.719   0.082   5.228
 5094SOL    HW216182   0.793   0.062   5.372
 5095SOL     OW16183   2.847   6.939   4.598
 5095SOL    HW116184   2.868   6.965   4.503
 5095SOL    HW216185   2.818   6.844   4.600
 5096SOL     OW16186   4.269   4.160   1.201
 5096SOL    HW116187   4.202   4.217   1.153
 5096SOL    HW216188   4.294   4.082   1.143
 5097SOL     OW16189   1.517   6.756   6.038
 5097SOL    HW116190   1.474   6.702   5.965
 5097SOL    HW216191   1.481   6.726   6.127
 5098SOL     OW16192   0.128   1.595   2.975
 5098SOL    HW116193   0.222   1.573   2.946
 5098SOL    HW216194   0.067   1.586   2.897
 5099SOL     OW16195   1.483   0.474   5.135
 5099SOL    HW116196   1.520   0.425   5.214
 5099SOL    HW216197   1.409   0.420   5.095
 5100SOL     OW16198   5.233   6.784   6.526
 5100SOL    HW116199   5.318   6.824   6.493
 5100SOL    HW216200   5.175   6.857   6.564
 5101SOL     OW16201   4.224   6.400   0.381
 5101SOL    HW116202   4.161   6.346   0.326
 5101SOL    HW216203   4.175   6.475   0.424
 5102SOL     OW16204   3.621   5.625   5.305
 5102SOL    HW116205   3.630   5.541   5.359
 5102SOL    HW216206   3.526   5.635   5.275
 5103SOL     OW16207   0.116   0.324   4.527
 5103SOL    HW116208   0.138   0.343   4.432
 5103SOL    HW216209   0.068   0.402   4.567
 5104SOL     OW16210   1.391   0.714   1.676
 5104SOL    HW116211   1.462   0.757   1.732
 5104SOL    HW216212   1.303   0.760   1.692
 5105SOL     OW16213   3.244   3.838   6.435
 5105SOL    HW116214   3.251   3.762   6.500
 5105SOL    HW216215   3.325   3.896   6.443
 5106SOL     OW16216   3.423   0.872   2.404
 5106SOL    HW116217   3.326   0.857   2.422
 5106SOL    HW216218   3.456   0.804   2.339
 5107SOL     OW16219   2.048   6.994   5.540
 5107SOL    HW116220   2.126   6.983   5.479
 5107SOL    HW216221   2.078   6.980   5.635
 5108SOL     OW16222   3.466   3.631   4.393
 5108SOL    HW116223   3.465   3.531   4.401
 5108SOL    HW216224   3.528   3.657   4.318
 5109SOL     OW16225   0.155   1.166   1.338
 5109SOL    HW116226   0.070   1.205   1.373
 5109SOL    HW216227   0.154   1.167   1.238
 5110SOL     OW16228   2.044   5.808   5.898
 5110SOL    HW116229   2.041   5.808   5.798
 5110SOL    HW216230   1.991   5.885   5.933
 5111SOL     OW16231   1.390   1.086   0.661
 5111SOL    HW116232   1.484   1.117   0.648
 5111SOL    HW216233   1.354   1.049   0.575
 5112SOL     OW16234   0.308   5.783   3.809
 5112SOL    HW116235   0.326   5.701   3.863
 5112SOL    HW216236   0.334   5.766   3.714
 5113SOL     OW16237   1.034   0.101   6.716
 5113SOL    HW116238   0.934   0.094   6.714
 5113SOL    HW216239   1.061   0.194   6.689
 5114SOL     OW16240   4.005   4.892   0.071
 5114SOL    HW116241   4.043   4.973   0.115
 5114SOL    HW216242   4.080   4.834   0.038
 5115SOL     OW16243   1.523   3.647   5.670
 5115SOL    HW116244   1.577   3.587   5.729
 5115SOL    HW216245   1.539   3.623   5.575
 5116SOL     OW16246   6.772   4.649   0.286
 5116SOL    HW116247   6.730   4.695   0.364
 5116SOL    HW216248   6.715   4.661   0.205
 5117SOL     OW16249   2.441   4.374   4.567
 5117SOL    HW116250   2.499   4.455   4.564
 5117SOL    HW216251   2.461   4.321   4.649
 5118SOL     OW16252   4.384   6.423   0.891
 5118SOL    HW116253   4.465   6.443   0.835
 5118SOL    HW216254   4.306   6.406   0.830
 5119SOL     OW16255   5.920   0.079   2.498
 5119SOL    HW116256   5.914   0.000   2.436
 5119SOL    HW216257   6.012   0.083   2.536
 5120SOL     OW16258   5.007   1.630   2.568
 5120SOL    HW116259   5.051   1.601   2.652
 5120SOL    HW216260   5.068   1.692   2.518
 5121SOL     OW16261   0.297   3.804   5.572
 5121SOL    HW116262   0.264   3.716   5.608
 5121SOL    HW216263   0.242   3.828   5.491
 5122SOL     OW16264   2.037   6.341   3.698
 5122SOL    HW116265   1.973   6.383   3.763
 5122SOL    HW216266   2.057   6.405   3.624
 5123SOL     OW16267   5.377   4.706   2.183
 5123SOL    HW116268   5.343   4.627   2.132
 5123SOL    HW216269   5.310   4.780   2.178
 5124SOL     OW16270   2.737   6.972   0.014
 5124SOL    HW116271   2.752   6.894   0.075
 5124SOL    HW216272   2.639   6.979   7.011
 5125SOL     OW16273   0.161   3.366   4.542
 5125SOL    HW116274   0.134   3.405   4.630
 5125SOL    HW216275   0.121   3.421   4.468
 5126SOL     OW16276   5.668   3.560   6.503
 5126SOL    HW116277   5.737   3.632   6.508
 5126SOL    HW216278   5.704   3.475   6.542
 5127SOL     OW16279   5.996   2.906   6.641
 5127SOL    HW116280   5.935   2.875   6.713
 5127SOL    HW216281   6.045   2.988   6.670
 5128SOL     OW16282   0.374   0.753   6.753
 5128SOL    HW116283   0.330   0.785   6.837
 5128SOL    HW216284   0.456   0.702   6.776
 5129SOL     OW16285   4.432   2.111   2.614
 5129SOL    HW116286   4.417   2.052   2.694
 5129SOL    HW216287   4.349   2.164   2.596
 5130SOL     OW16288   1.364   6.087   4.442
 5130SOL    HW116289   1.435   6.020   4.464
 5130SOL    HW216290   1.405   6.164   4.393
 5131SOL     OW16291   3.091   4.850   3.674
 5131SOL    HW116292   3.156   4.920   3.645
 5131SOL    HW216293   3.142   4.770   3.708
 5132SOL     OW16294   3.327   1.475   6.884
 5132SOL    HW116295   3.261   1.502   6.954
 5132SOL    HW216296   3.407   1.535   6.888
 5133SOL     OW16297   4.664   4.503   6.605
 5133SOL    HW116298   4.622   4.554   6.680
 5133SOL    HW216299   4.763   4.522   6.603
 5134SOL     OW16300   6.650   6.176   0.955
 5134SOL    HW116301   6.728   6.118   0.979
 5134SOL    HW216302   6.683   6.266   0.926
 5135SOL     OW16303   6.595   3.241   2.114
 5135SOL    HW116304   6.542   3.283   2.041
 5135SOL    HW216305   6.678   3.294   2.129
 5136SOL     OW16306   1.187   0.953   5.950
 5136SOL    HW116307   1.139   0.915   6.029
 5136SOL    HW216308   1.178   0.890   5.873
 5137SOL     OW16309   5.855   1.140   4.480
 5137SOL    HW116310   5.846   1.092   4.393
 5137SOL    HW216311   5.764   1.162   4.516
 5138SOL     OW16312   3.190   2.970   4.011
 5138SOL    HW116313   3.219   2.958   3.916
 5138SOL    HW216314   3.131   3.050   4.018
 5139SOL     OW16315   2.661   0.046   5.180
 5139SOL    HW116316   2.714   0.087   5.106
 5139SOL    HW216317   2.564   0.065   5.165
 5140SOL     OW16318   4.269   2.455   6.770
 5140SOL    HW116319   4.317   2.406   6.698
 5140SOL    HW216320   4.334   2.483   6.841
 5141SOL     OW16321   6.498   2.853   1.791
 5141SOL    HW116322   6.407   2.840   1.753
 5141SOL    HW216323   6.536   2.765   1.818
 5142SOL     OW16324   0.239   0.109   2.789
 5142SOL    HW116325   0.187   0.036   2.744
 5142SOL    HW216326   0.213   0.197   2.750
 5143SOL     OW16327   6.989   6.223   2.932
 5143SOL    HW116328   0.007   6.185   2.847
 5143SOL    HW216329   6.913   6.285   2.912
 5144SOL     OW16330   2.324   2.791   5.306
 5144SOL    HW116331   2.384   2.857   5.260
 5144SOL    HW216332   2.229   2.819   5.295
 5145SOL     OW16333   2.204   5.723   6.967
 5145SOL    HW116334   2.186   5.688   6.875
 5145SOL    HW216335   2.275   5.668   7.011
 5146SOL     OW16336   5.051   5.139   6.112
 5146SOL    HW116337   5.130   5.084   6.082
 5146SOL    HW216338   4.990   5.082   6.167
 5147SOL     OW16339   4.688   2.721   3.795
 5147SOL    HW116340   4.664   2.627   3.770
 5147SOL    HW216341   4.703   2.726   3.894
 5148SOL     OW16342   0.810   0.560   6.505
 5148SOL    HW116343   0.907   0.558   6.526
 5148SOL    HW216344   0.773   0.650   6.528
 5149SOL     OW16345   4.702   4.703   3.831
 5149SOL    HW116346   4.691   4.618   3.883
 5149SOL    HW216347   4.799   4.720   3.817
 5150SOL     OW16348   0.118   6.154   3.965
 5150SOL    HW116349   0.114   6.062   3.928
 5150SOL    HW216350   0.176   6.212   3.908
 5151SOL     OW16351   6.150   5.370   2.056
 5151SOL    HW116352   6.109   5.286   2.022
 5151SOL    HW216353   6.245   5.375   2.025
 5152SOL     OW16354   1.043   1.481   0.451
 5152SOL    HW116355   1.133   1.521   0.467
 5152SOL    HW216356   1.047   1.383   0.467
 5153SOL     OW16357   1.243   1.631   1.360
 5153SOL    HW116358   1.214   1.549   1.410
 5153SOL    HW216359   1.325   1.611   1.307
 5154SOL     OW16360   0.079   2.897   0.233
 5154SOL    HW116361   0.082   2.871   0.330
 5154SOL    HW216362   0.095   2.817   0.176
 5155SOL     OW16363   1.744   1.357   0.461
 5155SOL    HW116364   1.717   1.331   0.368
 5155SOL    HW216365   1.702   1.444   0.485
 5156SOL     OW16366   5.358   6.076   5.635
 5156SOL    HW116367   5.431   6.013   5.609
 5156SOL    HW216368   5.358   6.088   5.735
 5157SOL     OW16369   3.473   0.297   1.158
 5157SOL    HW116370   3.463   0.391   1.192
 5157SOL    HW216371   3.441   0.233   1.228
 5158SOL     OW16372   2.030   2.183   1.624
 5158SOL    HW116373   1.965   2.144   1.689
 5158SOL    HW216374   2.039   2.123   1.545
 5159SOL     OW16375   6.322   3.341   5.803
 5159SOL    HW116376   6.400   3.339   5.866
 5159SOL    HW216377   6.239   3.367   5.853
 5160SOL     OW16378   6.304   6.402   3.466
 5160SOL    HW116379   6.352   6.451   3.539
 5160SOL    HW216380   6.279   6.466   3.394
 5161SOL     OW16381   1.046   3.424   0.558
 5161SOL    HW116382   1.113   3.435   0.631
 5161SOL    HW216383   0.977   3.357   0.585
 5162SOL     OW16384   0.229   0.232   3.668
 5162SOL    HW116385   0.154   0.177   3.628
 5162SOL    HW216386   0.195   0.323   3.690
 5163SOL     OW16387   2.984   0.145   1.901
 5163SOL    HW116388   2.997   0.082   1.825
 5163SOL    HW216389   3.073   0.180   1.931
 5164SOL     OW16390   3.179   3.097   0.649
 5164SOL    HW116391   3.265   3.084   0.699
 5164SOL    HW216392   3.197   3.142   0.562
 5165SOL     OW16393   1.453   3.780   6.508
 5165SOL    HW116394   1.428   3.850   6.442
 5165SOL    HW216395   1.415   3.803   6.598
 5166SOL     OW16396   1.408   5.729   0.756
 5166SOL    HW116397   1.311   5.716   0.777
 5166SOL    HW216398   1.419   5.746   0.658
 5167SOL     OW16399   5.627   3.273   5.444
 5167SOL    HW116400   5.605   3.183   5.481
 5167SOL    HW216401   5.547   3.311   5.398
 5168SOL     OW16402   4.360   2.407   3.141
 5168SOL    HW116403   4.319   2.467   3.073
 5168SOL    HW216404   4.292   2.340   3.172
 5169SOL     OW16405   4.296   6.146   4.388
 5169SOL    HW116406   4.327   6.096   4.307
 5169SOL    HW216407   4.210   6.105   4.421
 5170SOL     OW16408   1.745   3.775   6.757
 5170SOL    HW116409   1.658   3.734   6.787
 5170SOL    HW216410   1.812   3.702   6.743
 5171SOL     OW16411   2.125   5.642   5.405
 5171SOL    HW116412   2.196   5.595   5.352
 5171SOL    HW216413   2.049   5.666   5.344
 5172SOL     OW16414   6.328   5.797   4.738
 5172SOL    HW116415   6.413   5.752   4.711
 5172SOL    HW216416   6.250   5.738   4.714
 5173SOL     OW16417   4.407   4.047   5.671
 5173SOL    HW116418   4.323   4.018   5.716
 5173SOL    HW216419   4.422   3.990   5.589
 5174SOL     OW16420   2.322   6.457   3.031
 5174SOL    HW116421   2.235   6.458   2.981
 5174SOL    HW216422   2.380   6.531   2.998
 5175SOL     OW16423   3.258   3.412   6.913
 5175SOL    HW116424   3.269   3.460   7.000
 5175SOL    HW216425   3.200   3.465   6.852
 5176SOL     OW16426   5.994   6.167   0.165
 5176SOL    HW116427   6.075   6.112   0.186
 5176SOL    HW216428   6.009   6.218   0.081
 5177SOL     OW16429   5.996   0.143   0.483
 5177SOL    HW116430   6.065   0.103   0.423
 5177SOL    HW216431   5.913   0.162   0.430
 5178SOL     OW16432   0.635   4.522   2.165
 5178SOL    HW116433   0.678   4.440   2.130
 5178SOL    HW216434   0.537   4.505   2.179
 5179SOL     OW16435   5.200   5.920   2.606
 5179SOL    HW116436   5.132   5.919   2.679
 5179SOL    HW216437   5.287   5.955   2.642
 5180SOL     OW16438   2.513   6.867   2.580
 5180SOL    HW116439   2.483   6.896   2.671
 5180SOL    HW216440   2.493   6.770   2.567
 5181SOL     OW16441   0.374   0.158   5.929
 5181SOL    HW116442   0.286   0.114   5.910
 5181SOL    HW216443   0.423   0.174   5.844
 5182SOL     OW16444   2.698   6.392   3.503
 5182SOL    HW116445   2.672   6.400   3.407
 5182SOL    HW216446   2.647   6.459   3.557
 5183SOL     OW16447   4.253   1.632   3.668
 5183SOL    HW116448   4.174   1.679   3.708
 5183SOL    HW216449   4.251   1.535   3.694
 5184SOL     OW16450   2.737   1.533   4.025
 5184SOL    HW116451   2.677   1.576   4.093
 5184SOL    HW216452   2.759   1.600   3.954
 5185SOL     OW16453   6.206   0.440   1.784
 5185SOL    HW116454   6.252   0.515   1.735
 5185SOL    HW216455   6.109   0.461   1.793
 5186SOL     OW16456   7.010   3.122   6.777
 5186SOL    HW116457   6.967   3.207   6.748
 5186SOL    HW216458   0.003   3.122   6.877
 5187SOL     OW16459   1.680   4.862   5.180
 5187SOL    HW116460   1.623   4.842   5.260
 5187SOL    HW216461   1.760   4.914   5.208
 5188SOL     OW16462   6.373   6.911   2.615
 5188SOL    HW116463   6.383   6.834   2.678
 5188SOL    HW216464   6.455   6.918   2.559
 5189SOL     OW16465   5.089   6.555   6.558
 5189SOL    HW116466   5.133   6.465   6.565
 5189SOL    HW216467   5.159   6.627   6.564
 5190SOL     OW16468   2.171   3.731   0.900
 5190SOL    HW116469   2.103   3.800   0.924
 5190SOL    HW216470   2.261   3.758   0.936
 5191SOL     OW16471   3.230   4.891   2.206
 5191SOL    HW116472   3.252   4.987   2.221
 5191SOL    HW216473   3.287   4.856   2.131
 5192SOL     OW16474   1.964   5.142   2.162
 5192SOL    HW116475   1.966   5.234   2.201
 5192SOL    HW216476   1.967   5.075   2.235
 5193SOL     OW16477   5.263   0.114   5.673
 5193SOL    HW116478   5.292   0.019   5.661
 5193SOL    HW216479   5.173   0.116   5.716
 5194SOL     OW16480   5.415   2.027   6.306
 5194SOL    HW116481   5.442   1.932   6.288
 5194SOL    HW216482   5.421   2.080   6.222
 5195SOL     OW16483   6.987   0.537   4.674
 5195SOL    HW116484   6.959   0.488   4.756
 5195SOL    HW216485   0.062   0.572   4.685
 5196SOL     OW16486   5.619   0.030   2.624
 5196SOL    HW116487   5.544   0.065   2.569
 5196SOL    HW216488   5.674   6.984   2.569
 5197SOL     OW16489   1.141   3.825   5.134
 5197SOL    HW116490   1.194   3.762   5.191
 5197SOL    HW216491   1.203   3.892   5.093
 5198SOL     OW16492   5.920   5.380   3.276
 5198SOL    HW116493   5.954   5.452   3.216
 5198SOL    HW216494   5.994   5.317   3.298
 5199SOL     OW16495   0.377   5.046   1.699
 5199SOL    HW116496   0.281   5.069   1.685
 5199SOL    HW216497   0.397   4.959   1.654
 5200SOL     OW16498   7.011   3.897   4.498
 5200SOL    HW116499   0.050   3.959   4.443
 5200SOL    HW216500   6.917   3.932   4.501
 5201SOL     OW16501   1.391   5.171   4.050
 5201SOL    HW116502   1.342   5.233   3.989
 5201SOL    HW216503   1.465   5.126   4.000
 5202SOL     OW16504   0.610   5.194   1.735
 5202SOL    HW116505   0.532   5.131   1.735
 5202SOL    HW216506   0.615   5.241   1.647
 5203SOL     OW16507   1.121   2.318   0.622
 5203SOL    HW116508   1.086   2.246   0.561
 5203SOL    HW216509   1.080   2.406   0.596
 5204SOL     OW16510   4.896   4.477   6.917
 5204SOL    HW116511   4.919   4.469   6.820
 5204SOL    HW216512   4.933   4.399   6.967
 5205SOL     OW16513   1.912   0.396   1.768
 5205SOL    HW116514   1.888   0.473   1.709
 5205SOL    HW216515   1.951   0.431   1.853
 5206SOL     OW16516   0.272   4.567   5.559
 5206SOL    HW116517   0.209   4.639   5.587
 5206SOL    HW216518   0.295   4.510   5.638
 5207SOL     OW16519   1.929   4.160   4.213
 5207SOL    HW116520   1.869   4.211   4.275
 5207SOL    HW216521   1.902   4.177   4.118
 5208SOL     OW16522   3.854   1.556   6.430
 5208SOL    HW116523   3.866   1.544   6.529
 5208SOL    HW216524   3.881   1.473   6.383
 5209SOL     OW16525   4.885   6.103   2.958
 5209SOL    HW116526   4.860   6.057   3.043
 5209SOL    HW216527   4.866   6.200   2.966
 5210SOL     OW16528   4.836   5.228   3.787
 5210SOL    HW116529   4.753   5.281   3.771
 5210SOL    HW216530   4.913   5.290   3.803
 5211SOL     OW16531   4.087   3.295   2.715
 5211SOL    HW116532   4.134   3.327   2.633
 5211SOL    HW216533   4.047   3.205   2.698
 5212SOL     OW16534   1.169   1.848   0.581
 5212SOL    HW116535   1.245   1.882   0.636
 5212SOL    HW216536   1.083   1.863   0.629
 5213SOL     OW16537   4.299   2.032   6.510
 5213SOL    HW116538   4.388   1.990   6.532
 5213SOL    HW216539   4.227   1.965   6.525
 5214SOL     OW16540   5.685   1.486   5.520
 5214SOL    HW116541   5.661   1.579   5.547
 5214SOL    HW216542   5.784   1.477   5.515
 5215SOL     OW16543   4.857   5.111   2.595
 5215SOL    HW116544   4.784   5.081   2.656
 5215SOL    HW216545   4.946   5.084   2.631
 5216SOL     OW16546   5.025   5.021   1.029
 5216SOL    HW116547   5.091   4.972   0.971
 5216SOL    HW216548   4.955   4.957   1.061
 5217SOL     OW16549   2.462   4.846   3.982
 5217SOL    HW116550   2.418   4.916   4.039
 5217SOL    HW216551   2.535   4.803   4.035
 5218SOL     OW16552   1.583   6.797   3.507
 5218SOL    HW116553   1.633   6.714   3.484
 5218SOL    HW216554   1.612   6.831   3.596
 5219SOL     OW16555   2.784   5.876   0.184
 5219SOL    HW116556   2.776   5.785   0.142
 5219SOL    HW216557   2.732   5.877   0.270
 5220SOL     OW16558   0.610   6.524   2.583
 5220SOL    HW116559   0.531   6.476   2.623
 5220SOL    HW216560   0.633   6.482   2.495
 5221SOL     OW16561   4.968   1.564   4.777
 5221SOL    HW116562   5.028   1.613   4.713
 5221SOL    HW216563   4.911   1.630   4.826
 5222SOL     OW16564   1.157   0.442   2.743
 5222SOL    HW116565   1.201   0.531   2.753
 5222SOL    HW216566   1.075   0.451   2.685
 5223SOL     OW16567   4.958   6.928   1.733
 5223SOL    HW116568   4.905   6.857   1.685
 5223SOL    HW216569   5.030   6.884   1.787
 5224SOL     OW16570   5.784   2.209   2.397
 5224SOL    HW116571   5.808   2.133   2.337
 5224SOL    HW216572   5.704   2.185   2.452
 5225SOL     OW16573   5.482   5.874   5.244
 5225SOL    HW116574   5.401   5.817   5.260
 5225SOL    HW216575   5.456   5.953   5.189
 5226SOL     OW16576   1.219   6.467   3.913
 5226SOL    HW116577   1.315   6.462   3.941
 5226SOL    HW216578   1.194   6.383   3.866
 5227SOL     OW16579   6.028   4.725   3.301
 5227SOL    HW116580   5.931   4.713   3.323
 5227SOL    HW216581   6.051   4.822   3.310
 5228SOL     OW16582   5.464   1.362   0.792
 5228SOL    HW116583   5.502   1.383   0.882
 5228SOL    HW216584   5.503   1.276   0.759
 5229SOL     OW16585   1.299   4.420   5.451
 5229SOL    HW116586   1.372   4.380   5.396
 5229SOL    HW216587   1.230   4.462   5.392
 5230SOL     OW16588   0.760   0.002   6.717
 5230SOL    HW116589   0.741   6.950   6.648
 5230SOL    HW216590   0.707   0.084   6.697
 5231SOL     OW16591   3.944   3.109   3.125
 5231SOL    HW116592   3.969   3.096   3.221
 5231SOL    HW216593   4.010   3.171   3.082
 5232SOL     OW16594   4.902   2.397   6.879
 5232SOL    HW116595   4.957   2.348   6.946
 5232SOL    HW216596   4.823   2.341   6.854
 5233SOL     OW16597   0.868   0.511   2.347
 5233SOL    HW116598   0.834   0.453   2.273
 5233SOL    HW216599   0.884   0.604   2.311
 5234SOL     OW16600   4.112   6.930   0.981
 5234SOL    HW116601   4.198   6.889   0.949
 5234SOL    HW216602   4.074   6.988   0.909
 5235SOL     OW16603   0.879   3.348   1.145
 5235SOL    HW116604   0.852   3.433   1.099
 5235SOL    HW216605   0.818   3.332   1.222
 5236SOL     OW16606   5.316   2.938   1.119
 5236SOL    HW116607   5.235   2.928   1.061
 5236SOL    HW216608   5.357   2.848   1.135
 5237SOL     OW16609   2.395   1.878   5.179
 5237SOL    HW116610   2.419   1.868   5.276
 5237SOL    HW216611   2.374   1.788   5.141
 5238SOL     OW16612   1.893   4.734   1.197
 5238SOL    HW116613   1.804   4.719   1.242
 5238SOL    HW216614   1.960   4.669   1.233
 5239SOL     OW16615   2.916   3.390   4.262
 5239SOL    HW116616   2.822   3.385   4.298
 5239SOL    HW216617   2.975   3.328   4.315
 5240SOL     OW16618   3.364   2.090   4.925
 5240SOL    HW116619   3.405   2.051   5.007
 5240SOL    HW216620   3.303   2.165   4.951
 5241SOL     OW16621   1.725   5.984   0.145
 5241SOL    HW116622   1.634   6.017   0.171
 5241SOL    HW216623   1.722   5.948   0.052
 5242SOL     OW16624   5.759   1.057   5.099
 5242SOL    HW116625   5.713   1.007   5.172
 5242SOL    HW216626   5.734   1.154   5.105
 5243SOL     OW16627   1.704   4.977   1.322
 5243SOL    HW116628   1.685   5.052   1.259
 5243SOL    HW216629   1.622   4.921   1.332
 5244SOL     OW16630   5.326   4.253   5.593
 5244SOL    HW116631   5.261   4.316   5.550
 5244SOL    HW216632   5.409   4.247   5.537
 5245SOL     OW16633   4.851   3.529   6.725
 5245SOL    HW116634   4.933   3.495   6.771
 5245SOL    HW216635   4.777   3.541   6.791
 5246SOL     OW16636   0.983   3.241   2.883
 5246SOL    HW116637   0.920   3.316   2.861
 5246SOL    HW216638   0.984   3.226   2.982
 5247SOL     OW16639   0.725   5.085   1.345
 5247SOL    HW116640   0.796   5.106   1.413
 5247SOL    HW216641   0.681   5.170   1.317
 5248SOL     OW16642   4.801   1.330   5.931
 5248SOL    HW116643   4.766   1.237   5.942
 5248SOL    HW216644   4.824   1.367   6.021
 5249SOL     OW16645   1.038   4.923   4.735
 5249SOL    HW116646   0.983   5.004   4.716
 5249SOL    HW216647   1.102   4.943   4.809
 5250SOL     OW16648   0.774   1.643   5.892
 5250SOL    HW116649   0.716   1.612   5.817
 5250SOL    HW216650   0.754   1.589   5.974
 5251SOL     OW16651   6.685   3.458   1.354
 5251SOL    HW116652   6.637   3.375   1.381
 5251SOL    HW216653   6.783   3.446   1.368
 5252SOL     OW16654   4.195   5.956   0.596
 5252SOL    HW116655   4.128   5.957   0.671
 5252SOL    HW216656   4.256   6.034   0.605
 5253SOL     OW16657   5.508   3.533   3.909
 5253SOL    HW116658   5.535   3.476   3.987
 5253SOL    HW216659   5.437   3.487   3.857
 5254SOL     OW16660   4.621   0.971   4.061
 5254SOL    HW116661   4.602   1.048   4.000
 5254SOL    HW216662   4.547   0.904   4.054
 5255SOL     OW16663   3.514   6.241   5.183
 5255SOL    HW116664   3.594   6.183   5.170
 5255SOL    HW216665   3.447   6.193   5.241
 5256SOL     OW16666   5.526   6.478   3.950
 5256SOL    HW116667   5.442   6.529   3.928
 5256SOL    HW216668   5.596   6.543   3.979
 5257SOL     OW16669   3.422   0.821   1.198
 5257SOL    HW116670   3.499   0.835   1.260
 5257SOL    HW216671   3.342   0.870   1.232
 5258SOL     OW16672   5.585   3.655   2.379
 5258SOL    HW116673   5.628   3.607   2.455
 5258SOL    HW216674   5.620   3.749   2.376
 5259SOL     OW16675   4.639   4.951   2.712
 5259SOL    HW116676   4.641   4.851   2.716
 5259SOL    HW216677   4.546   4.982   2.695
 5260SOL     OW16678   5.598   3.469   1.430
 5260SOL    HW116679   5.518   3.410   1.439
 5260SOL    HW216680   5.669   3.422   1.378
 5261SOL     OW16681   1.323   2.270   4.623
 5261SOL    HW116682   1.231   2.273   4.583
 5261SOL    HW216683   1.352   2.363   4.647
 5262SOL     OW16684   2.567   6.822   2.110
 5262SOL    HW116685   2.473   6.837   2.142
 5262SOL    HW216686   2.568   6.748   2.042
 5263SOL     OW16687   1.034   6.557   6.887
 5263SOL    HW116688   0.954   6.512   6.926
 5263SOL    HW216689   1.005   6.628   6.824
 5264SOL     OW16690   0.381   2.340   0.951
 5264SOL    HW116691   0.459   2.355   1.011
 5264SOL    HW216692   0.337   2.427   0.931
 5265SOL     OW16693   5.038   4.622   1.442
 5265SOL    HW116694   5.133   4.592   1.442
 5265SOL    HW216695   5.032   4.715   1.405
 5266SOL     OW16696   1.560   6.742   1.213
 5266SOL    HW116697   1.467   6.705   1.215
 5266SOL    HW216698   1.558   6.837   1.242
 5267SOL     OW16699   4.691   4.673   4.789
 5267SOL    HW116700   4.707   4.729   4.708
 5267SOL    HW216701   4.774   4.621   4.810
 5268SOL     OW16702   5.559   4.788   4.981
 5268SOL    HW116703   5.652   4.764   5.007
 5268SOL    HW216704   5.550   4.786   4.881
 5269SOL     OW16705   2.196   5.858   3.625
 5269SOL    HW116706   2.099   5.845   3.643
 5269SOL    HW216707   2.233   5.777   3.579
 5270SOL     OW16708   6.060   2.774   2.131
 5270SOL    HW116709   6.023   2.788   2.222
 5270SOL    HW216710   6.101   2.859   2.097
 5271SOL     OW16711   4.924   4.528   4.842
 5271SOL    HW116712   4.955   4.479   4.924
 5271SOL    HW216713   4.996   4.591   4.813
 5272SOL     OW16714   1.629   0.840   4.752
 5272SOL    HW116715   1.579   0.925   4.770
 5272SOL    HW216716   1.682   0.815   4.832
 5273SOL     OW16717   0.515   1.251   3.713
 5273SOL    HW116718   0.606   1.247   3.672
 5273SOL    HW216719   0.520   1.220   3.808
 5274SOL     OW16720   6.273   5.222   4.228
 5274SOL    HW116721   6.249   5.301   4.171
 5274SOL    HW216722   6.359   5.240   4.276
 5275SOL     OW16723   1.894   6.720   6.976
 5275SOL    HW116724   1.855   6.802   7.017
 5275SOL    HW216725   1.966   6.684   0.019
 5276SOL     OW16726   0.359   0.074   1.598
 5276SOL    HW116727   0.337   0.131   1.518
 5276SOL    HW216728   0.315   7.002   1.589
 5277SOL     OW16729   0.967   1.991   3.225
 5277SOL    HW116730   1.006   2.031   3.308
 5277SOL    HW216731   0.880   2.037   3.205
 5278SOL     OW16732   0.938   5.260   5.447
 5278SOL    HW116733   1.028   5.217   5.435
 5278SOL    HW216734   0.907   5.297   5.360
 5279SOL     OW16735   1.700   5.602   6.794
 5279SOL    HW116736   1.652   5.586   6.881
 5279SOL    HW216737   1.652   5.672   6.741
 5280SOL     OW16738   4.458   5.729   4.913
 5280SOL    HW116739   4.506   5.669   4.977
 5280SOL    HW216740   4.515   5.808   4.892
 5281SOL     OW16741   1.985   0.840   4.868
 5281SOL    HW116742   2.040   0.899   4.927
 5281SOL    HW216743   1.973   0.750   4.911
 5282SOL     OW16744   1.260   0.981   1.974
 5282SOL    HW116745   1.222   1.068   2.006
 5282SOL    HW216746   1.195   0.907   1.992
 5283SOL     OW16747   0.470   0.805   4.109
 5283SOL    HW116748   0.449   0.716   4.149
 5283SOL    HW216749   0.471   0.874   4.182
 5284SOL     OW16750   4.918   2.208   2.124
 5284SOL    HW116751   4.865   2.284   2.086
 5284SOL    HW216752   4.855   2.137   2.156
 5285SOL     OW16753   1.062   2.862   4.177
 5285SOL    HW116754   1.112   2.776   4.168
 5285SOL    HW216755   1.063   2.911   4.090
 5286SOL     OW16756   5.924   3.011   1.135
 5286SOL    HW116757   5.838   2.973   1.099
 5286SOL    HW216758   5.955   3.085   1.076
 5287SOL     OW16759   2.747   5.238   1.308
 5287SOL    HW116760   2.817   5.169   1.328
 5287SOL    HW216761   2.657   5.195   1.311
 5288SOL     OW16762   4.960   0.429   2.379
 5288SOL    HW116763   4.988   0.363   2.448
 5288SOL    HW216764   5.034   0.441   2.312
 5289SOL     OW16765   1.528   4.542   6.400
 5289SOL    HW116766   1.615   4.567   6.356
 5289SOL    HW216767   1.513   4.444   6.390
 5290SOL     OW16768   1.251   3.025   5.600
 5290SOL    HW116769   1.270   2.951   5.664
 5290SOL    HW216770   1.312   3.102   5.619
 5291SOL     OW16771   2.723   4.807   4.910
 5291SOL    HW116772   2.790   4.738   4.938
 5291SOL    HW216773   2.656   4.820   4.983
 5292SOL     OW16774   6.774   4.104   6.135
 5292SOL    HW116775   6.814   4.118   6.044
 5292SOL    HW216776   6.846   4.111   6.205
 5293SOL     OW16777   2.323   5.540   4.537
 5293SOL    HW116778   2.354   5.577   4.450
 5293SOL    HW216779   2.242   5.483   4.522
 5294SOL     OW16780   3.920   0.787   4.959
 5294SOL    HW116781   3.902   0.884   4.973
 5294SOL    HW216782   3.999   0.776   4.899
 5295SOL     OW16783   3.094   0.890   2.127
 5295SOL    HW116784   3.193   0.908   2.123
 5295SOL    HW216785   3.065   0.886   2.222
 5296SOL     OW16786   4.273   4.684   0.994
 5296SOL    HW116787   4.179   4.662   0.967
 5296SOL    HW216788   4.271   4.749   1.070
 5297SOL     OW16789   2.532   4.402   0.782
 5297SOL    HW116790   2.544   4.393   0.683
 5297SOL    HW216791   2.563   4.319   0.827
 5298SOL     OW16792   2.027   7.011   0.527
 5298SOL    HW116793   2.079   0.051   0.590
 5298SOL    HW216794   2.057   0.011   0.433
 5299SOL     OW16795   3.112   1.800   0.166
 5299SOL    HW116796   3.104   1.760   0.258
 5299SOL    HW216797   3.121   1.727   0.098
 5300SOL     OW16798   2.359   4.298   0.259
 5300SOL    HW116799   2.430   4.349   0.209
 5300SOL    HW216800   2.307   4.242   0.195
 5301SOL     OW16801   4.685   0.365   5.877
 5301SOL    HW116802   4.661   0.403   5.788
 5301SOL    HW216803   4.610   0.308   5.910
 5302SOL     OW16804   5.534   5.529   3.267
 5302SOL    HW116805   5.448   5.485   3.241
 5302SOL    HW216806   5.515   5.604   3.330
 5303SOL     OW16807   6.766   4.921   5.920
 5303SOL    HW116808   6.711   4.838   5.928
 5303SOL    HW216809   6.769   4.967   6.009
 5304SOL     OW16810   6.473   1.304   1.531
 5304SOL    HW116811   6.480   1.400   1.559
 5304SOL    HW216812   6.480   1.245   1.612
 5305SOL     OW16813   1.238   5.540   2.832
 5305SOL    HW116814   1.332   5.534   2.798
 5305SOL    HW216815   1.174   5.518   2.758
 5306SOL     OW16816   6.499   3.622   5.934
 5306SOL    HW116817   6.580   3.564   5.917
 5306SOL    HW216818   6.502   3.657   6.027
 5307SOL     OW16819   5.303   1.941   0.701
 5307SOL    HW116820   5.243   1.987   0.767
 5307SOL    HW216821   5.265   1.851   0.679
 5308SOL     OW16822   1.617   4.700   3.134
 5308SOL    HW116823   1.547   4.735   3.196
 5308SOL    HW216824   1.687   4.653   3.187
 5309SOL     OW16825   4.338   6.143   3.281
 5309SOL    HW116826   4.369   6.179   3.369
 5309SOL    HW216827   4.255   6.191   3.253
 5310SOL     OW16828   6.029   2.812   3.041
 5310SOL    HW116829   6.026   2.908   3.014
 5310SOL    HW216830   5.973   2.798   3.122
 5311SOL     OW16831   5.864   0.485   0.421
 5311SOL    HW116832   5.778   0.516   0.379
 5311SOL    HW216833   5.923   0.445   0.351
 5312SOL     OW16834   0.210   6.834   1.540
 5312SOL    HW116835   0.282   6.803   1.479
 5312SOL    HW216836   0.124   6.791   1.514
 5313SOL     OW16837   6.290   5.062   5.305
 5313SOL    HW116838   6.208   5.033   5.355
 5313SOL    HW216839   6.263   5.114   5.224
 5314SOL     OW16840   6.037   6.910   1.419
 5314SOL    HW116841   6.104   6.885   1.349
 5314SOL    HW216842   6.023   6.833   1.480
 5315SOL     OW16843   4.194   1.365   3.749
 5315SOL    HW116844   4.232   1.327   3.833
 5315SOL    HW216845   4.104   1.324   3.731
 5316SOL     OW16846   0.950   2.775   4.636
 5316SOL    HW116847   0.970   2.835   4.559
 5316SOL    HW216848   0.854   2.786   4.663
 5317SOL     OW16849   6.543   1.500   5.744
 5317SOL    HW116850   6.515   1.456   5.829
 5317SOL    HW216851   6.467   1.552   5.706
 5318SOL     OW16852   6.243   3.184   0.161
 5318SOL    HW116853   6.174   3.117   0.135
 5318SOL    HW216854   6.292   3.216   0.080
 5319SOL     OW16855   4.510   6.774   1.124
 5319SOL    HW116856   4.480   6.798   1.217
 5319SOL    HW216857   4.568   6.847   1.088
 5320SOL     OW16858   3.227   5.993   1.253
 5320SOL    HW116859   3.208   6.023   1.159
 5320SOL    HW216860   3.301   6.048   1.291
 5321SOL     OW16861   2.008   4.640   4.579
 5321SOL    HW116862   2.108   4.641   4.590
 5321SOL    HW216863   1.977   4.727   4.541
 5322SOL     OW16864   5.667   6.869   1.915
 5322SOL    HW116865   5.762   6.891   1.891
 5322SOL    HW216866   5.663   6.774   1.948
 5323SOL     OW16867   4.344   1.696   5.454
 5323SOL    HW116868   4.322   1.673   5.549
 5323SOL    HW216869   4.443   1.704   5.444
 5324SOL     OW16870   2.492   2.315   0.189
 5324SOL    HW116871   2.491   2.367   0.275
 5324SOL    HW216872   2.575   2.339   0.137
 5325SOL     OW16873   2.552   2.187   5.022
 5325SOL    HW116874   2.507   2.263   5.069
 5325SOL    HW216875   2.525   2.187   4.926
 5326SOL     OW16876   6.293   6.089   2.641
 5326SOL    HW116877   6.317   6.158   2.709
 5326SOL    HW216878   6.377   6.047   2.606
 5327SOL     OW16879   5.638   2.613   4.940
 5327SOL    HW116880   5.693   2.649   4.864
 5327SOL    HW216881   5.634   2.514   4.934
 5328SOL     OW16882   4.157   3.933   6.946
 5328SOL    HW116883   4.125   3.912   6.853
 5328SOL    HW216884   4.099   4.004   6.986
 5329SOL     OW16885   1.584   6.067   6.600
 5329SOL    HW116886   1.647   5.990   6.611
 5329SOL    HW216887   1.599   6.133   6.674
 5330SOL     OW16888   2.651   3.021   0.538
 5330SOL    HW116889   2.696   2.935   0.512
 5330SOL    HW216890   2.576   3.001   0.601
 5331SOL     OW16891   6.682   0.998   6.820
 5331SOL    HW116892   6.648   1.091   6.839
 5331SOL    HW216893   6.614   0.947   6.768
 5332SOL     OW16894   1.382   4.558   1.959
 5332SOL    HW116895   1.373   4.545   2.058
 5332SOL    HW216896   1.406   4.470   1.916
 5333SOL     OW16897   0.890   6.454   4.180
 5333SOL    HW116898   0.938   6.374   4.216
 5333SOL    HW216899   0.812   6.474   4.239
 5334SOL     OW16900   2.873   0.030   4.347
 5334SOL    HW116901   2.881   0.115   4.297
 5334SOL    HW216902   2.941   6.982   4.314
 5335SOL     OW16903   6.884   5.344   0.673
 5335SOL    HW116904   6.815   5.395   0.622
 5335SOL    HW216905   6.975   5.372   0.643
 5336SOL     OW16906   1.870   3.514   2.266
 5336SOL    HW116907   1.786   3.460   2.269
 5336SOL    HW216908   1.902   3.532   2.359
 5337SOL     OW16909   5.326   4.020   1.137
 5337SOL    HW116910   5.244   4.078   1.143
 5337SOL    HW216911   5.305   3.929   1.172
 5338SOL     OW16912   6.707   1.797   0.016
 5338SOL    HW116913   6.702   1.737   6.955
 5338SOL    HW216914   6.628   1.783   0.075
 5339SOL     OW16915   6.893   1.605   3.562
 5339SOL    HW116916   6.975   1.653   3.591
 5339SOL    HW216917   6.918   1.527   3.504
 5340SOL     OW16918   5.739   2.834   0.178
 5340SOL    HW116919   5.722   2.908   0.113
 5340SOL    HW216920   5.654   2.815   0.229
 5341SOL     OW16921   4.400   1.261   6.130
 5341SOL    HW116922   4.385   1.242   6.033
 5341SOL    HW216923   4.386   1.358   6.148
 5342SOL     OW16924   3.959   0.602   5.161
 5342SOL    HW116925   4.058   0.591   5.170
 5342SOL    HW216926   3.938   0.660   5.082
 5343SOL     OW16927   3.838   3.335   2.317
 5343SOL    HW116928   3.806   3.430   2.311
 5343SOL    HW216929   3.800   3.292   2.399
 5344SOL     OW16930   1.932   2.944   3.459
 5344SOL    HW116931   1.973   2.859   3.492
 5344SOL    HW216932   2.004   3.011   3.441
 5345SOL     OW16933   4.694   6.626   0.969
 5345SOL    HW116934   4.639   6.683   1.029
 5345SOL    HW216935   4.753   6.684   0.913
 5346SOL     OW16936   2.641   6.504   3.249
 5346SOL    HW116937   2.621   6.481   3.154
 5346SOL    HW216938   2.697   6.586   3.252
 5347SOL     OW16939   0.068   1.881   1.445
 5347SOL    HW116940   7.001   1.872   1.393
 5347SOL    HW216941   0.052   1.851   1.539
 5348SOL     OW16942   1.211   1.594   0.702
 5348SOL    HW116943   1.114   1.569   0.710
 5348SOL    HW216944   1.220   1.673   0.642
 5349SOL     OW16945   0.083   1.521   0.856
 5349SOL    HW116946   0.163   1.575   0.830
 5349SOL    HW216947   0.002   1.557   0.811
 5350SOL     OW16948   2.682   1.149   6.352
 5350SOL    HW116949   2.773   1.115   6.376
 5350SOL    HW216950   2.680   1.174   6.255
 5351SOL     OW16951   4.959   6.368   0.996
 5351SOL    HW116952   4.949   6.430   1.074
 5351SOL    HW216953   5.007   6.415   0.922
 5352SOL     OW16954   2.432   5.542   3.284
 5352SOL    HW116955   2.396   5.591   3.204
 5352SOL    HW216956   2.529   5.561   3.294
 5353SOL     OW16957   4.731   5.872   5.083
 5353SOL    HW116958   4.702   5.917   5.168
 5353SOL    HW216959   4.760   5.778   5.104
 5354SOL     OW16960   1.717   5.081   2.032
 5354SOL    HW116961   1.735   4.999   1.978
 5354SOL    HW216962   1.802   5.113   2.074
 5355SOL     OW16963   4.589   1.381   3.663
 5355SOL    HW116964   4.684   1.353   3.651
 5355SOL    HW216965   4.581   1.438   3.745
 5356SOL     OW16966   6.320   3.923   1.013
 5356SOL    HW116967   6.263   3.862   0.958
 5356SOL    HW216968   6.416   3.901   0.998
 5357SOL     OW16969   3.694   0.209   0.182
 5357SOL    HW116970   3.793   0.222   0.192
 5357SOL    HW216971   3.652   0.296   0.154
 5358SOL     OW16972   4.419   2.204   0.831
 5358SOL    HW116973   4.392   2.234   0.740
 5358SOL    HW216974   4.348   2.228   0.897
 5359SOL     OW16975   2.534   1.610   0.802
 5359SOL    HW116976   2.459   1.546   0.820
 5359SOL    HW216977   2.571   1.644   0.888
 5360SOL     OW16978   3.697   6.458   6.014
 5360SOL    HW116979   3.769   6.523   5.991
 5360SOL    HW216980   3.624   6.505   6.063
 5361SOL     OW16981   2.430   1.050   4.749
 5361SOL    HW116982   2.443   1.100   4.835
 5361SOL    HW216983   2.334   1.053   4.723
 5362SOL     OW16984   4.694   5.080   2.941
 5362SOL    HW116985   4.662   5.041   2.854
 5362SOL    HW216986   4.622   5.071   3.009
 5363SOL     OW16987   0.988   5.646   6.549
 5363SOL    HW116988   1.062   5.578   6.552
 5363SOL    HW216989   0.982   5.685   6.456
 5364SOL     OW16990   6.834   6.259   0.607
 5364SOL    HW116991   6.887   6.311   0.674
 5364SOL    HW216992   6.893   6.190   0.565
 5365SOL     OW16993   4.416   2.349   6.031
 5365SOL    HW116994   4.475   2.269   6.045
 5365SOL    HW216995   4.349   2.328   5.960
 5366SOL     OW16996   4.301   4.345   0.219
 5366SOL    HW116997   4.236   4.291   0.273
 5366SOL    HW216998   4.378   4.371   0.277
 5367SOL     OW16999   0.779   4.672   1.306
 5367SOL    HW117000   0.705   4.619   1.264
 5367SOL    HW217001   0.741   4.731   1.377
 5368SOL     OW17002   5.578   1.752   3.087
 5368SOL    HW117003   5.579   1.758   3.187
 5368SOL    HW217004   5.518   1.824   3.051
 5369SOL     OW17005   2.407   4.644   3.114
 5369SOL    HW117006   2.418   4.558   3.064
 5369SOL    HW217007   2.495   4.691   3.120
 5370SOL     OW17008   3.770   2.699   1.417
 5370SOL    HW117009   3.715   2.619   1.440
 5370SOL    HW217010   3.750   2.773   1.482
 5371SOL     OW17011   1.572   4.181   4.275
 5371SOL    HW117012   1.641   4.161   4.344
 5371SOL    HW217013   1.550   4.279   4.277
 5372SOL     OW17014   2.934   4.890   2.781
 5372SOL    HW117015   2.883   4.804   2.786
 5372SOL    HW217016   2.916   4.934   2.692
 5373SOL     OW17017   3.077   5.013   4.318
 5373SOL    HW117018   3.174   4.996   4.336
 5373SOL    HW217019   3.022   4.953   4.376
 5374SOL     OW17020   1.781   2.785   6.513
 5374SOL    HW117021   1.739   2.747   6.595
 5374SOL    HW217022   1.756   2.728   6.434
 5375SOL     OW17023   1.566   4.624   4.612
 5375SOL    HW117024   1.587   4.714   4.649
 5375SOL    HW217025   1.637   4.559   4.640
 5376SOL     OW17026   1.464   3.798   1.744
 5376SOL    HW117027   1.478   3.812   1.646
 5376SOL    HW217028   1.505   3.711   1.771
 5377SOL     OW17029   0.489   0.405   1.821
 5377SOL    HW117030   0.501   0.382   1.917
 5377SOL    HW217031   0.568   0.373   1.769
 5378SOL     OW17032   5.861   0.958   0.020
 5378SOL    HW117033   5.803   1.025   0.068
 5378SOL    HW217034   5.955   0.993   0.015
 5379SOL     OW17035   0.320   5.394   3.182
 5379SOL    HW117036   0.323   5.470   3.247
 5379SOL    HW217037   0.367   5.315   3.221
 5380SOL     OW17038   2.324   6.833   3.602
 5380SOL    HW117039   2.274   6.853   3.517
 5380SOL    HW217040   2.410   6.884   3.603
 5381SOL     OW17041   5.790   4.260   0.964
 5381SOL    HW117042   5.787   4.352   0.924
 5381SOL    HW217043   5.879   4.219   0.944
 5382SOL     OW17044   2.969   1.156   1.310
 5382SOL    HW117045   3.036   1.205   1.254
 5382SOL    HW217046   3.013   1.076   1.352
 5383SOL     OW17047   2.671   2.277   5.320
 5383SOL    HW117048   2.630   2.346   5.261
 5383SOL    HW217049   2.771   2.285   5.317
 5384SOL     OW17050   6.304   6.815   4.437
 5384SOL    HW117051   6.264   6.740   4.489
 5384SOL    HW217052   6.233   6.880   4.411
 5385SOL     OW17053   3.124   4.054   2.251
 5385SOL    HW117054   3.213   4.036   2.210
 5385SOL    HW217055   3.063   4.093   2.182
 5386SOL     OW17056   4.910   6.408   4.336
 5386SOL    HW117057   4.906   6.437   4.240
 5386SOL    HW217058   4.954   6.480   4.390
 5387SOL     OW17059   3.081   5.300   2.045
 5387SOL    HW117060   3.017   5.235   2.006
 5387SOL    HW217061   3.067   5.305   2.144
 5388SOL     OW17062   5.715   6.870   2.448
 5388SOL    HW117063   5.681   6.851   2.356
 5388SOL    HW217064   5.808   6.832   2.457
 5389SOL     OW17065   4.627   0.869   1.579
 5389SOL    HW117066   4.586   0.779   1.596
 5389SOL    HW217067   4.568   0.940   1.617
 5390SOL     OW17068   5.971   5.145   4.991
 5390SOL    HW117069   6.034   5.211   4.950
 5390SOL    HW217070   5.919   5.099   4.919
 5391SOL     OW17071   2.862   3.390   0.597
 5391SOL    HW117072   2.912   3.336   0.528
 5391SOL    HW217073   2.778   3.341   0.621
 5392SOL     OW17074   5.905   3.056   1.788
 5392SOL    HW117075   5.845   2.987   1.747
 5392SOL    HW217076   5.962   3.097   1.716
 5393SOL     OW17077   0.014   0.162   6.971
 5393SOL    HW117078   0.082   0.187   0.023
 5393SOL    HW217079   0.001   0.063   6.971
 5394SOL     OW17080   0.669   3.990   5.806
 5394SOL    HW117081   0.652   4.000   5.904
 5394SOL    HW217082   0.655   3.894   5.780
 5395SOL     OW17083   4.028   0.701   0.918
 5395SOL    HW117084   4.007   0.744   0.830
 5395SOL    HW217085   3.947   0.651   0.951
 5396SOL     OW17086   5.345   3.829   2.099
 5396SOL    HW117087   5.358   3.767   2.021
 5396SOL    HW217088   5.294   3.782   2.171
 5397SOL     OW17089   6.933   3.381   1.695
 5397SOL    HW117090   6.882   3.462   1.668
 5397SOL    HW217091   6.936   3.316   1.618
 5398SOL     OW17092   3.009   2.392   1.619
 5398SOL    HW117093   3.091   2.336   1.613
 5398SOL    HW217094   2.997   2.424   1.713
 5399SOL     OW17095   2.056   6.265   0.878
 5399SOL    HW117096   2.153   6.259   0.855
 5399SOL    HW217097   2.041   6.228   0.969
 5400SOL     OW17098   2.751   4.660   0.408
 5400SOL    HW117099   2.802   4.743   0.431
 5400SOL    HW217100   2.655   4.683   0.392
 5401SOL     OW17101   5.902   3.346   1.921
 5401SOL    HW117102   5.901   3.249   1.897
 5401SOL    HW217103   5.810   3.383   1.917
 5402SOL     OW17104   2.147   6.422   2.156
 5402SOL    HW117105   2.061   6.376   2.136
 5402SOL    HW217106   2.222   6.370   2.115
 5403SOL     OW17107   0.138   3.748   6.391
 5403SOL    HW117108   0.201   3.711   6.460
 5403SOL    HW217109   0.153   3.846   6.381
 5404SOL     OW17110   1.498   2.984   3.992
 5404SOL    HW117111   1.552   3.057   4.034
 5404SOL    HW217112   1.539   2.960   3.904
 5405SOL     OW17113   6.851   5.623   6.058
 5405SOL    HW117114   6.915   5.551   6.031
 5405SOL    HW217115   6.842   5.622   6.158
 5406SOL     OW17116   1.511   1.342   6.987
 5406SOL    HW117117   1.492   1.350   6.889
 5406SOL    HW217118   1.609   1.338   7.003
 5407SOL     OW17119   3.926   3.309   0.898
 5407SOL    HW117120   3.983   3.385   0.931
 5407SOL    HW217121   3.955   3.224   0.942
 5408SOL     OW17122   2.265   0.741   6.231
 5408SOL    HW117123   2.169   0.724   6.213
 5408SOL    HW217124   2.321   0.679   6.176
 5409SOL     OW17125   5.049   0.497   2.934
 5409SOL    HW117126   4.983   0.529   3.003
 5409SOL    HW217127   5.091   0.412   2.966
 5410SOL     OW17128   3.144   1.943   1.615
 5410SOL    HW117129   3.109   1.996   1.692
 5410SOL    HW217130   3.224   1.891   1.646
 5411SOL     OW17131   6.862   5.012   5.483
 5411SOL    HW117132   6.918   5.089   5.455
 5411SOL    HW217133   6.800   4.986   5.409
 5412SOL     OW17134   5.505   2.935   0.826
 5412SOL    HW117135   5.437   2.875   0.784
 5412SOL    HW217136   5.459   3.012   0.872
 5413SOL     OW17137   2.947   1.841   1.405
 5413SOL    HW117138   2.986   1.888   1.484
 5413SOL    HW217139   2.964   1.894   1.322
 5414SOL     OW17140   4.298   1.273   4.569
 5414SOL    HW117141   4.332   1.205   4.634
 5414SOL    HW217142   4.340   1.362   4.590
 5415SOL     OW17143   0.436   6.000   1.075
 5415SOL    HW117144   0.476   5.922   1.124
 5415SOL    HW217145   0.468   6.085   1.116
 5416SOL     OW17146   4.120   5.042   4.964
 5416SOL    HW117147   4.170   4.966   5.005
 5416SOL    HW217148   4.143   5.127   5.012
 5417SOL     OW17149   3.458   6.531   5.270
 5417SOL    HW117150   3.555   6.548   5.283
 5417SOL    HW217151   3.445   6.445   5.220
 5418SOL     OW17152   3.689   0.149   2.461
 5418SOL    HW117153   3.731   0.225   2.510
 5418SOL    HW217154   3.595   0.173   2.436
 5419SOL     OW17155   3.254   4.919   6.636
 5419SOL    HW117156   3.217   4.979   6.565
 5419SOL    HW217157   3.325   4.861   6.597
 5420SOL     OW17158   2.018   2.275   3.456
 5420SOL    HW117159   2.075   2.214   3.510
 5420SOL    HW217160   1.950   2.221   3.405
 5421SOL     OW17161   1.789   4.036   1.626
 5421SOL    HW117162   1.819   3.955   1.575
 5421SOL    HW217163   1.862   4.104   1.625
 5422SOL     OW17164   1.735   4.374   1.716
 5422SOL    HW117165   1.822   4.325   1.726
 5422SOL    HW217166   1.660   4.315   1.746
 5423SOL     OW17167   6.227   3.068   6.352
 5423SOL    HW117168   6.248   2.993   6.289
 5423SOL    HW217169   6.142   3.112   6.323
 5424SOL     OW17170   5.129   3.387   4.411
 5424SOL    HW117171   5.142   3.410   4.314
 5424SOL    HW217172   5.202   3.430   4.465
 5425SOL     OW17173   4.115   1.222   5.127
 5425SOL    HW117174   4.193   1.258   5.177
 5425SOL    HW217175   4.033   1.230   5.182
 5426SOL     OW17176   5.609   6.740   5.136
 5426SOL    HW117177   5.669   6.814   5.106
 5426SOL    HW217178   5.665   6.663   5.168
 5427SOL     OW17179   4.437   5.931   6.679
 5427SOL    HW117180   4.465   5.972   6.766
 5427SOL    HW217181   4.473   5.838   6.673
 5428SOL     OW17182   0.854   0.324   1.089
 5428SOL    HW117183   0.937   0.306   1.036
 5428SOL    HW217184   0.793   0.245   1.085
 5429SOL     OW17185   1.496   2.066   6.709
 5429SOL    HW117186   1.551   2.080   6.791
 5429SOL    HW217187   1.506   1.972   6.676
 5430SOL     OW17188   0.767   2.511   6.365
 5430SOL    HW117189   0.683   2.456   6.371
 5430SOL    HW217190   0.803   2.527   6.457
 5431SOL     OW17191   3.304   6.534   6.611
 5431SOL    HW117192   3.246   6.610   6.639
 5431SOL    HW217193   3.248   6.452   6.600
 5432SOL     OW17194   5.125   0.158   7.012
 5432SOL    HW117195   5.115   0.062   6.983
 5432SOL    HW217196   5.180   0.161   0.079
 5433SOL     OW17197   6.972   1.847   4.964
 5433SOL    HW117198   7.011   1.938   4.954
 5433SOL    HW217199   6.897   1.850   5.031
 5434SOL     OW17200   2.905   0.059   6.360
 5434SOL    HW117201   2.835   0.065   6.431
 5434SOL    HW217202   2.871   0.103   6.277
 5435SOL     OW17203   4.199   0.174   1.662
 5435SOL    HW117204   4.213   0.238   1.586
 5435SOL    HW217205   4.288   0.147   1.699
 5436SOL     OW17206   4.770   4.647   3.291
 5436SOL    HW117207   4.828   4.689   3.221
 5436SOL    HW217208   4.769   4.705   3.373
 5437SOL     OW17209   3.047   4.329   6.972
 5437SOL    HW117210   3.124   4.390   6.955
 5437SOL    HW217211   3.081   4.238   6.995
 5438SOL     OW17212   6.059   1.798   1.615
 5438SOL    HW117213   6.086   1.702   1.614
 5438SOL    HW217214   5.959   1.803   1.620
 5439SOL     OW17215   1.269   2.200   1.186
 5439SOL    HW117216   1.310   2.112   1.207
 5439SOL    HW217217   1.173   2.200   1.214
 5440SOL     OW17218   0.952   2.197   1.316
 5440SOL    HW117219   0.865   2.195   1.365
 5440SOL    HW217220   0.946   2.141   1.234
 5441SOL     OW17221   3.382   2.070   3.964
 5441SOL    HW117222   3.286   2.099   3.966
 5441SOL    HW217223   3.423   2.097   3.877
 5442SOL     OW17224   3.997   0.086   1.994
 5442SOL    HW117225   4.061   0.016   2.025
 5442SOL    HW217226   3.919   0.090   2.056
 5443SOL     OW17227   2.674   6.932   4.829
 5443SOL    HW117228   2.705   6.847   4.872
 5443SOL    HW217229   2.719   6.943   4.741
 5444SOL     OW17230   0.439   6.475   3.918
 5444SOL    HW117231   0.436   6.414   3.997
 5444SOL    HW217232   0.476   6.563   3.945
 5445SOL     OW17233   6.328   3.517   2.824
 5445SOL    HW117234   6.381   3.467   2.756
 5445SOL    HW217235   6.387   3.581   2.873
 5446SOL     OW17236   5.923   5.913   4.536
 5446SOL    HW117237   5.843   5.853   4.535
 5446SOL    HW217238   5.992   5.877   4.474
 5447SOL     OW17239   3.927   2.540   0.046
 5447SOL    HW117240   3.855   2.473   0.060
 5447SOL    HW217241   3.889   2.624   0.007
 5448SOL     OW17242   5.164   2.188   5.587
 5448SOL    HW117243   5.240   2.182   5.523
 5448SOL    HW217244   5.096   2.252   5.552
 5449SOL     OW17245   1.102   2.875   0.382
 5449SOL    HW117246   1.128   2.965   0.347
 5449SOL    HW217247   1.134   2.804   0.321
 5450SOL     OW17248   1.923   0.231   1.292
 5450SOL    HW117249   1.938   0.160   1.360
 5450SOL    HW217250   1.855   0.296   1.325
 5451SOL     OW17251   0.337   6.249   3.097
 5451SOL    HW117252   0.392   6.329   3.076
 5451SOL    HW217253   0.394   6.167   3.094
 5452SOL     OW17254   1.898   4.279   7.010
 5452SOL    HW117255   1.996   4.264   0.009
 5452SOL    HW217256   1.885   4.305   6.915
 5453SOL     OW17257   6.286   3.741   0.300
 5453SOL    HW117258   6.310   3.781   0.389
 5453SOL    HW217259   6.353   3.671   0.277
 5454SOL     OW17260   0.212   5.086   6.570
 5454SOL    HW117261   0.128   5.132   6.543
 5454SOL    HW217262   0.278   5.089   6.495
 5455SOL     OW17263   6.552   3.191   1.318
 5455SOL    HW117264   6.488   3.192   1.240
 5455SOL    HW217265   6.500   3.195   1.403
 5456SOL     OW17266   2.926   0.488   6.565
 5456SOL    HW117267   2.998   0.433   6.522
 5456SOL    HW217268   2.837   0.460   6.529
 5457SOL     OW17269   5.881   2.542   1.120
 5457SOL    HW117270   5.961   2.510   1.172
 5457SOL    HW217271   5.911   2.605   1.048
 5458SOL     OW17272   1.397   4.325   6.927
 5458SOL    HW117273   1.344   4.307   6.844
 5458SOL    HW217274   1.394   4.244   6.986
 5459SOL     OW17275   1.960   4.762   0.045
 5459SOL    HW117276   1.862   4.742   0.056
 5459SOL    HW217277   1.979   4.854   0.079
 5460SOL     OW17278   2.885   0.478   1.189
 5460SOL    HW117279   2.880   0.471   1.090
 5460SOL    HW217280   2.822   0.548   1.221
 5461SOL     OW17281   4.860   0.057   4.926
 5461SOL    HW117282   4.958   0.045   4.912
 5461SOL    HW217283   4.834   0.022   5.016
 5462SOL     OW17284   1.442   0.082   0.604
 5462SOL    HW117285   1.532   0.040   0.611
 5462SOL    HW217286   1.418   0.095   0.508
 5463SOL     OW17287   6.178   2.752   0.522
 5463SOL    HW117288   6.163   2.835   0.468
 5463SOL    HW217289   6.133   2.675   0.477
 5464SOL     OW17290   2.121   0.708   3.856
 5464SOL    HW117291   2.022   0.717   3.867
 5464SOL    HW217292   2.162   0.687   3.945
 5465SOL     OW17293   3.715   6.979   4.846
 5465SOL    HW117294   3.617   6.996   4.837
 5465SOL    HW217295   3.753   0.019   4.919
 5466SOL     OW17296   4.916   4.065   4.576
 5466SOL    HW117297   4.846   4.116   4.625
 5466SOL    HW217298   4.890   3.969   4.571
 5467SOL     OW17299   5.664   1.472   2.443
 5467SOL    HW117300   5.613   1.392   2.412
 5467SOL    HW217301   5.620   1.510   2.524
 5468SOL     OW17302   5.029   1.933   4.851
 5468SOL    HW117303   5.048   2.022   4.892
 5468SOL    HW217304   5.079   1.924   4.765
 5469SOL     OW17305   4.131   4.431   5.761
 5469SOL    HW117306   4.229   4.439   5.778
 5469SOL    HW217307   4.100   4.339   5.783
 5470SOL     OW17308   1.924   5.144   3.821
 5470SOL    HW117309   1.930   5.052   3.859
 5470SOL    HW217310   2.016   5.178   3.800
 5471SOL     OW17311   6.908   5.737   1.672
 5471SOL    HW117312   7.002   5.723   1.641
 5471SOL    HW217313   6.906   5.807   1.743
 5472SOL     OW17314   4.236   3.889   5.841
 5472SOL    HW117315   4.285   3.961   5.890
 5472SOL    HW217316   4.139   3.913   5.835
 5473SOL     OW17317   1.599   3.245   3.668
 5473SOL    HW117318   1.683   3.284   3.633
 5473SOL    HW217319   1.550   3.314   3.723
 5474SOL     OW17320   1.835   5.566   4.113
 5474SOL    HW117321   1.891   5.506   4.056
 5474SOL    HW217322   1.846   5.661   4.082
 5475SOL     OW17323   3.416   1.898   0.783
 5475SOL    HW117324   3.357   1.906   0.703
 5475SOL    HW217325   3.382   1.957   0.856
 5476SOL     OW17326   1.151   2.977   6.570
 5476SOL    HW117327   1.131   3.037   6.648
 5476SOL    HW217328   1.221   3.019   6.512
 5477SOL     OW17329   2.192   2.918   2.993
 5477SOL    HW117330   2.202   2.885   3.087
 5477SOL    HW217331   2.270   2.888   2.939
 5478SOL     OW17332   5.534   5.894   5.899
 5478SOL    HW117333   5.524   5.840   5.815
 5478SOL    HW217334   5.450   5.945   5.916
 5479SOL     OW17335   4.589   0.126   4.475
 5479SOL    HW117336   4.635   0.136   4.387
 5479SOL    HW217337   4.547   0.035   4.482
 5480SOL     OW17338   0.819   4.055   4.370
 5480SOL    HW117339   0.794   3.960   4.391
 5480SOL    HW217340   0.911   4.056   4.331
 5481SOL     OW17341   3.579   6.667   4.509
 5481SOL    HW117342   3.545   6.656   4.602
 5481SOL    HW217343   3.522   6.734   4.461
 5482SOL     OW17344   3.084   4.476   1.344
 5482SOL    HW117345   3.137   4.527   1.411
 5482SOL    HW217346   2.987   4.483   1.367
 5483SOL     OW17347   0.512   2.861   6.166
 5483SOL    HW117348   0.562   2.944   6.142
 5483SOL    HW217349   0.416   2.884   6.182
 5484SOL     OW17350   4.509   0.878   4.331
 5484SOL    HW117351   4.581   0.936   4.292
 5484SOL    HW217352   4.430   0.935   4.355
 5485SOL     OW17353   2.929   6.520   5.614
 5485SOL    HW117354   2.865   6.579   5.565
 5485SOL    HW217355   2.904   6.425   5.602
 5486SOL     OW17356   2.862   5.785   4.408
 5486SOL    HW117357   2.810   5.837   4.475
 5486SOL    HW217358   2.892   5.846   4.334
 5487SOL     OW17359   2.811   4.863   5.896
 5487SOL    HW117360   2.751   4.922   5.841
 5487SOL    HW217361   2.884   4.827   5.837
 5488SOL     OW17362   6.203   0.934   0.962
 5488SOL    HW117363   6.123   0.993   0.953
 5488SOL    HW217364   6.257   0.937   0.878
 5489SOL     OW17365   6.574   3.768   2.225
 5489SOL    HW117366   6.500   3.830   2.201
 5489SOL    HW217367   6.555   3.724   2.312
 5490SOL     OW17368   1.189   6.760   2.598
 5490SOL    HW117369   1.264   6.735   2.536
 5490SOL    HW217370   1.163   6.680   2.652
 5491SOL     OW17371   6.904   3.857   0.742
 5491SOL    HW117372   6.909   3.929   0.811
 5491SOL    HW217373   6.810   3.844   0.714
 5492SOL     OW17374   0.802   1.136   5.506
 5492SOL    HW117375   0.848   1.055   5.542
 5492SOL    HW217376   0.723   1.108   5.452
 5493SOL     OW17377   3.978   3.624   1.542
 5493SOL    HW117378   3.970   3.524   1.547
 5493SOL    HW217379   4.032   3.657   1.619
 5494SOL     OW17380   6.213   4.271   5.253
 5494SOL    HW117381   6.216   4.341   5.182
 5494SOL    HW217382   6.173   4.188   5.215
 5495SOL     OW17383   6.073   0.724   1.107
 5495SOL    HW117384   6.131   0.792   1.063
 5495SOL    HW217385   6.036   0.662   1.037
 5496SOL     OW17386   3.722   0.507   4.534
 5496SOL    HW117387   3.638   0.528   4.584
 5496SOL    HW217388   3.714   0.540   4.440
 5497SOL     OW17389   1.047   0.859   6.205
 5497SOL    HW117390   1.087   0.820   6.288
 5497SOL    HW217391   0.981   0.795   6.166
 5498SOL     OW17392   0.636   5.126   2.229
 5498SOL    HW117393   0.648   5.219   2.263
 5498SOL    HW217394   0.670   5.120   2.136
 5499SOL     OW17395   1.424   0.217   4.754
 5499SOL    HW117396   1.375   0.132   4.736
 5499SOL    HW217397   1.517   0.210   4.716
 5500SOL     OW17398   2.301   0.734   0.271
 5500SOL    HW117399   2.273   0.647   0.311
 5500SOL    HW217400   2.299   0.805   0.341
 5501SOL     OW17401   3.506   2.911   6.708
 5501SOL    HW117402   3.585   2.969   6.687
 5501SOL    HW217403   3.497   2.902   6.807
 5502SOL     OW17404   4.372   2.242   0.180
 5502SOL    HW117405   4.459   2.225   0.225
 5502SOL    HW217406   4.315   2.159   0.185
 5503SOL     OW17407   0.084   3.939   0.560
 5503SOL    HW117408   0.058   3.947   0.463
 5503SOL    HW217409   0.002   3.931   0.616
 5504SOL     OW17410   3.533   1.053   6.486
 5504SOL    HW117411   3.493   1.136   6.526
 5504SOL    HW217412   3.607   1.078   6.423
 5505SOL     OW17413   2.431   4.710   4.336
 5505SOL    HW117414   2.462   4.657   4.257
 5505SOL    HW217415   2.456   4.662   4.420
 5506SOL     OW17416   0.548   3.602   6.031
 5506SOL    HW117417   0.621   3.669   6.023
 5506SOL    HW217418   0.462   3.642   5.997
 5507SOL     OW17419   3.081   0.189   6.714
 5507SOL    HW117420   3.097   0.283   6.744
 5507SOL    HW217421   3.015   0.145   6.775
 5508SOL     OW17422   0.265   0.681   6.516
 5508SOL    HW117423   0.297   0.722   6.601
 5508SOL    HW217424   0.204   0.744   6.468
 5509SOL     OW17425   0.039   5.155   0.114
 5509SOL    HW117426   0.080   5.116   0.032
 5509SOL    HW217427   6.992   5.226   0.089
 5510SOL     OW17428   3.925   5.345   0.242
 5510SOL    HW117429   3.842   5.293   0.260
 5510SOL    HW217430   3.993   5.327   0.313
 5511SOL     OW17431   0.666   1.375   5.515
 5511SOL    HW117432   0.725   1.300   5.486
 5511SOL    HW217433   0.721   1.459   5.523
 5512SOL     OW17434   3.541   0.896   2.645
 5512SOL    HW117435   3.503   0.897   2.552
 5512SOL    HW217436   3.475   0.934   2.709
 5513SOL     OW17437   3.845   4.264   6.887
 5513SOL    HW117438   3.780   4.198   6.925
 5513SOL    HW217439   3.825   4.355   6.924
 5514SOL     OW17440   2.619   0.443   6.234
 5514SOL    HW117441   2.622   0.407   6.327
 5514SOL    HW217442   2.535   0.412   6.190
 5515SOL     OW17443   2.606   5.904   2.016
 5515SOL    HW117444   2.660   5.846   2.076
 5515SOL    HW217445   2.509   5.898   2.041
 5516SOL     OW17446   2.543   2.550   4.921
 5516SOL    HW117447   2.627   2.562   4.975
 5516SOL    HW217448   2.526   2.633   4.868
 5517SOL     OW17449   1.639   3.348   3.321
 5517SOL    HW117450   1.555   3.402   3.315
 5517SOL    HW217451   1.694   3.380   3.398
 5518SOL     OW17452   4.699   4.039   5.734
 5518SOL    HW117453   4.603   4.067   5.726
 5518SOL    HW217454   4.706   3.940   5.718
 5519SOL     OW17455   4.778   2.311   3.915
 5519SOL    HW117456   4.819   2.326   4.005
 5519SOL    HW217457   4.689   2.268   3.926
 5520SOL     OW17458   4.698   6.836   1.892
 5520SOL    HW117459   4.765   6.794   1.954
 5520SOL    HW217460   4.724   6.931   1.876
 5521SOL     OW17461   5.849   5.825   1.603
 5521SOL    HW117462   5.813   5.755   1.541
 5521SOL    HW217463   5.883   5.782   1.686
 5522SOL     OW17464   6.293   5.633   0.662
 5522SOL    HW117465   6.288   5.653   0.564
 5522SOL    HW217466   6.356   5.696   0.705
 5523SOL     OW17467   5.504   1.225   2.468
 5523SOL    HW117468   5.416   1.229   2.514
 5523SOL    HW217469   5.558   1.149   2.506
 5524SOL     OW17470   3.016   0.833   4.282
 5524SOL    HW117471   3.046   0.826   4.187
 5524SOL    HW217472   2.922   0.864   4.285
 5525SOL     OW17473   6.367   1.702   1.152
 5525SOL    HW117474   6.306   1.722   1.075
 5525SOL    HW217475   6.443   1.646   1.120
 5526SOL     OW17476   4.793   4.968   3.451
 5526SOL    HW117477   4.829   5.022   3.527
 5526SOL    HW217478   4.869   4.942   3.391
 5527SOL     OW17479   6.221   1.596   3.885
 5527SOL    HW117480   6.143   1.659   3.878
 5527SOL    HW217481   6.260   1.600   3.977
 5528SOL     OW17482   0.709   1.889   1.132
 5528SOL    HW117483   0.703   1.798   1.172
 5528SOL    HW217484   0.619   1.933   1.136
 5529SOL     OW17485   3.681   1.086   2.070
 5529SOL    HW117486   3.693   1.181   2.043
 5529SOL    HW217487   3.676   1.029   1.987
 5530SOL     OW17488   6.258   2.258   1.316
 5530SOL    HW117489   6.282   2.268   1.412
 5530SOL    HW217490   6.237   2.163   1.296
 5531SOL     OW17491   2.471   4.291   1.439
 5531SOL    HW117492   2.420   4.351   1.377
 5531SOL    HW217493   2.557   4.264   1.396
 5532SOL     OW17494   1.603   3.015   1.118
 5532SOL    HW117495   1.655   2.976   1.042
 5532SOL    HW217496   1.610   2.956   1.198
 5533SOL     OW17497   4.145   2.228   4.076
 5533SOL    HW117498   4.056   2.198   4.109
 5533SOL    HW217499   4.164   2.320   4.109
 5534SOL     OW17500   1.314   0.792   4.433
 5534SOL    HW117501   1.232   0.754   4.390
 5534SOL    HW217502   1.297   0.887   4.459
 5535SOL     OW17503   0.464   2.301   3.470
 5535SOL    HW117504   0.559   2.292   3.499
 5535SOL    HW217505   0.460   2.341   3.379
 5536SOL     OW17506   3.537   6.504   4.267
 5536SOL    HW117507   3.569   6.556   4.346
 5536SOL    HW217508   3.601   6.429   4.249
 5537SOL     OW17509   3.274   1.086   3.511
 5537SOL    HW117510   3.339   1.123   3.444
 5537SOL    HW217511   3.227   1.161   3.557
 5538SOL     OW17512   4.106   5.672   4.414
 5538SOL    HW117513   4.082   5.594   4.356
 5538SOL    HW217514   4.026   5.699   4.469
 5539SOL     OW17515   2.146   4.002   0.298
 5539SOL    HW117516   2.091   4.006   0.381
 5539SOL    HW217517   2.189   3.912   0.291
 5540SOL     OW17518   5.449   5.063   2.170
 5540SOL    HW117519   5.411   4.995   2.108
 5540SOL    HW217520   5.507   5.016   2.238
 5541SOL     OW17521   4.531   1.401   5.502
 5541SOL    HW117522   4.607   1.431   5.561
 5541SOL    HW217523   4.552   1.426   5.407
 5542SOL     OW17524   4.967   4.833   5.920
 5542SOL    HW117525   5.042   4.860   5.981
 5542SOL    HW217526   4.925   4.915   5.881
 5543SOL     OW17527   6.711   2.247   5.848
 5543SOL    HW117528   6.802   2.238   5.887
 5543SOL    HW217529   6.718   2.277   5.753
 5544SOL     OW17530   5.888   1.342   6.056
 5544SOL    HW117531   5.976   1.311   6.092
 5544SOL    HW217532   5.900   1.432   6.013
 5545SOL     OW17533   3.032   2.063   1.889
 5545SOL    HW117534   2.950   2.092   1.840
 5545SOL    HW217535   3.040   2.115   1.974
 5546SOL     OW17536   2.020   5.074   5.555
 5546SOL    HW117537   1.937   5.027   5.584
 5546SOL    HW217538   2.002   5.172   5.546
 5547SOL     OW17539   4.000   6.193   5.059
 5547SOL    HW117540   4.001   6.104   5.013
 5547SOL    HW217541   4.091   6.212   5.096
 5548SOL     OW17542   6.761   3.579   4.915
 5548SOL    HW117543   6.698   3.623   4.979
 5548SOL    HW217544   6.855   3.604   4.938
 5549SOL     OW17545   3.457   4.369   6.821
 5549SOL    HW117546   3.487   4.339   6.731
 5549SOL    HW217547   3.449   4.290   6.882
 5550SOL     OW17548   3.479   6.459   1.860
 5550SOL    HW117549   3.562   6.474   1.806
 5550SOL    HW217550   3.486   6.373   1.910
 5551SOL     OW17551   0.518   1.057   3.009
 5551SOL    HW117552   0.602   1.065   2.957
 5551SOL    HW217553   0.526   1.107   3.095
 5552SOL     OW17554   0.227   2.736   1.722
 5552SOL    HW117555   0.254   2.745   1.626
 5552SOL    HW217556   0.244   2.822   1.770
 5553SOL     OW17557   5.085   6.610   0.149
 5553SOL    HW117558   5.053   6.651   0.235
 5553SOL    HW217559   5.121   6.519   0.167
 5554SOL     OW17560   2.769   2.018   4.836
 5554SOL    HW117561   2.778   2.003   4.738
 5554SOL    HW217562   2.845   2.075   4.868
 5555SOL     OW17563   0.012   5.797   2.851
 5555SOL    HW117564   6.989   5.884   2.822
 5555SOL    HW217565   0.011   5.734   2.773
 5556SOL     OW17566   0.515   0.991   4.293
 5556SOL    HW117567   0.534   1.086   4.269
 5556SOL    HW217568   0.495   0.984   4.391
 5557SOL     OW17569   2.573   0.435   3.476
 5557SOL    HW117570   2.593   0.524   3.435
 5557SOL    HW217571   2.488   0.441   3.528
 5558SOL     OW17572   5.352   2.398   4.575
 5558SOL    HW117573   5.301   2.318   4.542
 5558SOL    HW217574   5.287   2.472   4.595
 5559SOL     OW17575   1.657   0.351   1.118
 5559SOL    HW117576   1.673   0.380   1.212
 5559SOL    HW217577   1.737   0.372   1.062
 5560SOL     OW17578   0.412   0.540   4.248
 5560SOL    HW117579   0.413   0.497   4.157
 5560SOL    HW217580   0.432   0.471   4.318
 5561SOL     OW17581   1.550   3.595   3.558
 5561SOL    HW117582   1.501   3.654   3.494
 5561SOL    HW217583   1.635   3.562   3.515
 5562SOL     OW17584   2.312   2.412   5.867
 5562SOL    HW117585   2.291   2.477   5.794
 5562SOL    HW217586   2.325   2.462   5.953
 5563SOL     OW17587   4.072   4.986   1.351
 5563SOL    HW117588   3.987   5.016   1.307
 5563SOL    HW217589   4.106   5.060   1.410
 5564SOL     OW17590   6.007   4.462   1.295
 5564SOL    HW117591   5.961   4.374   1.314
 5564SOL    HW217592   6.051   4.457   1.206
 5565SOL     OW17593   2.539   3.563   5.689
 5565SOL    HW117594   2.614   3.542   5.752
 5565SOL    HW217595   2.541   3.499   5.612
 5566SOL     OW17596   1.837   4.427   0.995
 5566SOL    HW117597   1.878   4.438   0.904
 5566SOL    HW217598   1.769   4.499   1.009
 5567SOL     OW17599   1.693   5.978   2.169
 5567SOL    HW117600   1.673   5.885   2.201
 5567SOL    HW217601   1.623   6.006   2.103
 5568SOL     OW17602   3.731   1.773   1.265
 5568SOL    HW117603   3.732   1.861   1.312
 5568SOL    HW217604   3.805   1.716   1.301
 5569SOL     OW17605   5.812   2.280   0.100
 5569SOL    HW117606   5.772   2.188   0.096
 5569SOL    HW217607   5.744   2.347   0.069
 5570SOL     OW17608   6.647   3.980   5.881
 5570SOL    HW117609   6.600   4.045   5.823
 5570SOL    HW217610   6.589   3.958   5.960
 5571SOL     OW17611   6.601   4.610   6.188
 5571SOL    HW117612   6.598   4.511   6.197
 5571SOL    HW217613   6.641   4.635   6.100
 5572SOL     OW17614   5.375   2.617   5.484
 5572SOL    HW117615   5.443   2.626   5.557
 5572SOL    HW217616   5.342   2.707   5.457
 5573SOL     OW17617   1.018   3.877   0.516
 5573SOL    HW117618   0.928   3.847   0.546
 5573SOL    HW217619   1.063   3.802   0.467
 5574SOL     OW17620   0.675   6.057   4.570
 5574SOL    HW117621   0.672   6.073   4.669
 5574SOL    HW217622   0.671   6.144   4.522
 5575SOL     OW17623   1.663   1.064   1.496
 5575SOL    HW117624   1.701   0.988   1.445
 5575SOL    HW217625   1.737   1.123   1.528
 5576SOL     OW17626   6.227   6.054   6.954
 5576SOL    HW117627   6.204   5.989   6.882
 5576SOL    HW217628   6.163   6.132   6.951
 5577SOL     OW17629   2.336   3.778   5.315
 5577SOL    HW117630   2.328   3.856   5.252
 5577SOL    HW217631   2.291   3.698   5.275
 5578SOL     OW17632   3.984   1.677   5.906
 5578SOL    HW117633   3.988   1.579   5.928
 5578SOL    HW217634   3.904   1.718   5.949
 5579SOL     OW17635   5.179   4.615   0.821
 5579SOL    HW117636   5.219   4.538   0.771
 5579SOL    HW217637   5.133   4.580   0.903
 5580SOL     OW17638   5.420   0.897   1.478
 5580SOL    HW117639   5.367   0.924   1.559
 5580SOL    HW217640   5.461   0.808   1.494
 5581SOL     OW17641   2.745   2.757   0.408
 5581SOL    HW117642   2.837   2.772   0.371
 5581SOL    HW217643   2.738   2.663   0.441
 5582SOL     OW17644   3.783   3.505   3.309
 5582SOL    HW117645   3.770   3.513   3.210
 5582SOL    HW217646   3.838   3.424   3.329
 5583SOL     OW17647   3.468   0.754   0.458
 5583SOL    HW117648   3.421   0.670   0.431
 5583SOL    HW217649   3.531   0.734   0.533
 5584SOL     OW17650   5.821   2.962   2.663
 5584SOL    HW117651   5.770   3.044   2.688
 5584SOL    HW217652   5.913   2.988   2.632
 5585SOL     OW17653   6.831   6.650   4.108
 5585SOL    HW117654   6.885   6.682   4.030
 5585SOL    HW217655   6.738   6.627   4.078
 5586SOL     OW17656   2.349   1.396   6.520
 5586SOL    HW117657   2.363   1.452   6.601
 5586SOL    HW217658   2.407   1.430   6.445
 5587SOL     OW17659   3.604   0.252   3.866
 5587SOL    HW117660   3.632   0.304   3.947
 5587SOL    HW217661   3.554   0.312   3.804
 5588SOL     OW17662   4.121   0.011   5.974
 5588SOL    HW117663   4.103   0.080   5.904
 5588SOL    HW217664   4.075   6.943   5.949
 5589SOL     OW17665   3.576   3.145   6.478
 5589SOL    HW117666   3.502   3.175   6.538
 5589SOL    HW217667   3.538   3.090   6.404
 5590SOL     OW17668   0.068   6.757   3.222
 5590SOL    HW117669   0.038   6.806   3.304
 5590SOL    HW217670   0.045   6.660   3.231
 5591SOL     OW17671   4.713   0.602   7.002
 5591SOL    HW117672   4.813   0.604   6.995
 5591SOL    HW217673   4.688   0.568   0.075
 5592SOL     OW17674   2.700   2.388   2.825
 5592SOL    HW117675   2.742   2.395   2.734
 5592SOL    HW217676   2.717   2.297   2.862
 5593SOL     OW17677   1.838   3.269   5.209
 5593SOL    HW117678   1.899   3.304   5.138
 5593SOL    HW217679   1.743   3.284   5.183
 5594SOL     OW17680   2.360   1.004   6.670
 5594SOL    HW117681   2.361   0.917   6.719
 5594SOL    HW217682   2.391   0.991   6.576
 5595SOL     OW17683   0.115   1.801   5.900
 5595SOL    HW117684   0.036   1.857   5.877
 5595SOL    HW217685   0.087   1.706   5.914
 5596SOL     OW17686   4.830   1.215   2.980
 5596SOL    HW117687   4.834   1.167   3.068
 5596SOL    HW217688   4.740   1.258   2.970
 5597SOL     OW17689   0.370   0.963   6.254
 5597SOL    HW117690   0.432   0.885   6.253
 5597SOL    HW217691   0.383   1.017   6.170
 5598SOL     OW17692   6.978   2.563   4.394
 5598SOL    HW117693   6.911   2.521   4.334
 5598SOL    HW217694   6.970   2.524   4.486
 5599SOL     OW17695   4.755   2.954   3.421
 5599SOL    HW117696   4.707   2.866   3.421
 5599SOL    HW217697   4.854   2.937   3.425
 5600SOL     OW17698   2.300   1.611   1.967
 5600SOL    HW117699   2.266   1.556   2.044
 5600SOL    HW217700   2.303   1.707   1.994
 5601SOL     OW17701   6.155   3.034   5.538
 5601SOL    HW117702   6.093   3.077   5.473
 5601SOL    HW217703   6.249   3.046   5.508
 5602SOL     OW17704   6.303   2.533   2.564
 5602SOL    HW117705   6.316   2.439   2.533
 5602SOL    HW217706   6.372   2.592   2.523
 5603SOL     OW17707   4.477   1.130   5.568
 5603SOL    HW117708   4.497   1.223   5.537
 5603SOL    HW217709   4.466   1.070   5.488
 5604SOL     OW17710   1.128   6.948   2.887
 5604SOL    HW117711   1.192   0.007   2.900
 5604SOL    HW217712   1.095   6.949   2.792
 5605SOL     OW17713   4.155   6.978   4.306
 5605SOL    HW117714   4.155   6.888   4.350
 5605SOL    HW217715   4.126   6.969   4.211
 5606SOL     OW17716   4.844   3.005   0.374
 5606SOL    HW117717   4.756   2.979   0.414
 5606SOL    HW217718   4.892   3.067   0.437
 5607SOL     OW17719   6.816   2.431   3.342
 5607SOL    HW117720   6.760   2.426   3.425
 5607SOL    HW217721   6.781   2.366   3.274
 5608SOL     OW17722   5.236   0.709   3.423
 5608SOL    HW117723   5.233   0.791   3.366
 5608SOL    HW217724   5.302   0.645   3.385
 5609SOL     OW17725   6.847   0.574   0.936
 5609SOL    HW117726   6.806   0.517   0.864
 5609SOL    HW217727   6.926   0.526   0.974
 5610SOL     OW17728   5.096   5.296   0.961
 5610SOL    HW117729   5.195   5.299   0.974
 5610SOL    HW217730   5.061   5.206   0.985
 5611SOL     OW17731   6.136   5.082   1.761
 5611SOL    HW117732   6.224   5.108   1.801
 5611SOL    HW217733   6.152   5.033   1.675
 5612SOL     OW17734   4.038   2.277   0.013
 5612SOL    HW117735   4.128   2.272   6.987
 5612SOL    HW217736   4.024   2.368   0.051
 5613SOL     OW17737   6.034   4.912   6.237
 5613SOL    HW117738   6.071   4.974   6.306
 5613SOL    HW217739   5.946   4.876   6.267
 5614SOL     OW17740   4.968   3.134   3.830
 5614SOL    HW117741   5.040   3.079   3.874
 5614SOL    HW217742   4.897   3.073   3.795
 5615SOL     OW17743   0.334   2.945   3.117
 5615SOL    HW117744   0.240   2.929   3.149
 5615SOL    HW217745   0.364   3.036   3.145
 5616SOL     OW17746   1.708   3.113   2.316
 5616SOL    HW117747   1.780   3.047   2.296
 5616SOL    HW217748   1.622   3.082   2.276
 5617SOL     OW17749   1.389   5.447   6.304
 5617SOL    HW117750   1.449   5.393   6.363
 5617SOL    HW217751   1.381   5.540   6.341
 5618SOL     OW17752   5.339   6.869   2.165
 5618SOL    HW117753   5.266   6.863   2.233
 5618SOL    HW217754   5.372   6.777   2.143
 5619SOL     OW17755   3.623   3.158   3.506
 5619SOL    HW117756   3.714   3.201   3.503
 5619SOL    HW217757   3.624   3.081   3.570
 5620SOL     OW17758   4.827   4.722   4.151
 5620SOL    HW117759   4.896   4.794   4.145
 5620SOL    HW217760   4.738   4.763   4.173
 5621SOL     OW17761   0.043   2.455   6.582
 5621SOL    HW117762   0.121   2.423   6.528
 5621SOL    HW217763   6.984   2.392   6.570
 5622SOL     OW17764   4.623   5.822   3.775
 5622SOL    HW117765   4.591   5.733   3.807
 5622SOL    HW217766   4.555   5.892   3.798
 5623SOL     OW17767   4.990   4.964   4.615
 5623SOL    HW117768   5.029   4.963   4.523
 5623SOL    HW217769   4.980   5.058   4.646
 5624SOL     OW17770   5.219   4.764   3.193
 5624SOL    HW117771   5.290   4.728   3.254
 5624SOL    HW217772   5.193   4.693   3.127
 5625SOL     OW17773   1.938   6.048   6.006
 5625SOL    HW117774   1.863   6.113   6.016
 5625SOL    HW217775   2.002   6.082   5.936
 5626SOL     OW17776   0.789   4.180   6.620
 5626SOL    HW117777   0.884   4.208   6.635
 5626SOL    HW217778   0.778   4.083   6.644
 5627SOL     OW17779   0.938   5.411   6.883
 5627SOL    HW117780   0.886   5.331   6.915
 5627SOL    HW217781   0.902   5.493   6.927
 5628SOL     OW17782   2.435   3.275   0.882
 5628SOL    HW117783   2.420   3.241   0.789
 5628SOL    HW217784   2.519   3.235   0.919
 5629SOL     OW17785   6.072   3.639   2.591
 5629SOL    HW117786   6.102   3.653   2.497
 5629SOL    HW217787   6.119   3.559   2.629
 5630SOL     OW17788   0.999   3.924   6.966
 5630SOL    HW117789   0.920   3.862   6.965
 5630SOL    HW217790   1.002   3.971   0.037
 5631SOL     OW17791   3.780   1.600   1.921
 5631SOL    HW117792   3.741   1.523   1.871
 5631SOL    HW217793   3.707   1.657   1.958
 5632SOL     OW17794   4.906   6.613   6.020
 5632SOL    HW117795   4.848   6.672   6.076
 5632SOL    HW217796   4.854   6.581   5.941
 5633SOL     OW17797   1.244   5.576   5.397
 5633SOL    HW117798   1.283   5.667   5.383
 5633SOL    HW217799   1.165   5.583   5.458
 5634SOL     OW17800   2.637   0.603   1.239
 5634SOL    HW117801   2.570   0.531   1.221
 5634SOL    HW217802   2.634   0.627   1.336
 5635SOL     OW17803   3.138   0.859   1.085
 5635SOL    HW117804   3.160   0.896   0.995
 5635SOL    HW217805   3.173   0.921   1.156
 5636SOL     OW17806   5.162   1.490   5.934
 5636SOL    HW117807   5.128   1.462   6.024
 5636SOL    HW217808   5.123   1.430   5.864
 5637SOL     OW17809   5.081   6.600   4.640
 5637SOL    HW117810   4.989   6.638   4.651
 5637SOL    HW217811   5.087   6.514   4.691
 5638SOL     OW17812   6.299   5.172   0.917
 5638SOL    HW117813   6.395   5.143   0.920
 5638SOL    HW217814   6.278   5.223   1.000
 5639SOL     OW17815   2.355   0.435   1.679
 5639SOL    HW117816   2.279   0.444   1.615
 5639SOL    HW217817   2.408   0.520   1.680
 5640SOL     OW17818   3.165   0.352   2.830
 5640SOL    HW117819   3.141   0.314   2.741
 5640SOL    HW217820   3.245   0.411   2.821
 5641SOL     OW17821   6.451   4.254   3.644
 5641SOL    HW117822   6.518   4.317   3.681
 5641SOL    HW217823   6.497   4.177   3.600
 5642SOL     OW17824   2.065   3.477   6.891
 5642SOL    HW117825   1.984   3.495   6.834
 5642SOL    HW217826   2.139   3.538   6.862
 5643SOL     OW17827   5.259   2.430   4.891
 5643SOL    HW117828   5.273   2.515   4.942
 5643SOL    HW217829   5.220   2.450   4.802
 5644SOL     OW17830   4.477   0.886   4.949
 5644SOL    HW117831   4.402   0.919   5.006
 5644SOL    HW217832   4.490   0.788   4.965
 5645SOL     OW17833   6.572   5.640   3.928
 5645SOL    HW117834   6.640   5.713   3.930
 5645SOL    HW217835   6.504   5.656   4.000
 5646SOL     OW17836   0.269   6.326   3.775
 5646SOL    HW117837   0.331   6.280   3.712
 5646SOL    HW217838   0.322   6.383   3.838
 5647SOL     OW17839   6.001   5.338   6.064
 5647SOL    HW117840   6.027   5.362   6.157
 5647SOL    HW217841   5.963   5.245   6.064
 5648SOL     OW17842   1.969   1.159   4.850
 5648SOL    HW117843   1.991   1.114   4.936
 5648SOL    HW217844   1.895   1.110   4.805
 5649SOL     OW17845   1.290   0.339   4.970
 5649SOL    HW117846   1.238   0.422   4.949
 5649SOL    HW217847   1.337   0.308   4.888
 5650SOL     OW17848   6.606   4.674   0.050
 5650SOL    HW117849   6.609   4.774   0.042
 5650SOL    HW217850   6.562   4.636   6.986
 5651SOL     OW17851   6.662   1.367   3.067
 5651SOL    HW117852   6.594   1.360   2.994
 5651SOL    HW217853   6.688   1.463   3.080
 5652SOL     OW17854   5.243   4.425   0.282
 5652SOL    HW117855   5.189   4.482   0.221
 5652SOL    HW217856   5.310   4.373   0.229
 5653SOL     OW17857   2.011   6.205   6.375
 5653SOL    HW117858   1.948   6.262   6.323
 5653SOL    HW217859   2.071   6.154   6.312
 5654SOL     OW17860   0.768   5.488   6.035
 5654SOL    HW117861   0.771   5.389   6.048
 5654SOL    HW217862   0.825   5.533   6.104
 5655SOL     OW17863   0.022   3.919   3.792
 5655SOL    HW117864   0.071   4.001   3.764
 5655SOL    HW217865   0.030   3.907   3.891
 5656SOL     OW17866   3.156   4.881   6.252
 5656SOL    HW117867   3.199   4.921   6.171
 5656SOL    HW217868   3.192   4.925   6.334
 5657SOL     OW17869   4.397   6.049   1.458
 5657SOL    HW117870   4.369   6.102   1.539
 5657SOL    HW217871   4.355   6.088   1.377
 5658SOL     OW17872   4.886   6.815   5.473
 5658SOL    HW117873   4.795   6.846   5.446
 5658SOL    HW217874   4.891   6.715   5.463
 5659SOL     OW17875   3.566   3.321   2.682
 5659SOL    HW117876   3.487   3.260   2.681
 5659SOL    HW217877   3.549   3.399   2.622
 5660SOL     OW17878   6.075   0.139   0.885
 5660SOL    HW117879   6.156   0.197   0.883
 5660SOL    HW217880   5.994   0.195   0.868
 5661SOL     OW17881   6.808   6.054   5.040
 5661SOL    HW117882   6.845   6.065   5.133
 5661SOL    HW217883   6.720   6.008   5.045
 5662SOL     OW17884   2.068   3.643   4.178
 5662SOL    HW117885   2.090   3.546   4.190
 5662SOL    HW217886   2.070   3.666   4.081
 5663SOL     OW17887   1.612   3.798   0.425
 5663SOL    HW117888   1.599   3.896   0.434
 5663SOL    HW217889   1.594   3.770   0.331
 5664SOL     OW17890   6.982   4.891   2.936
 5664SOL    HW117891   7.004   4.952   3.012
 5664SOL    HW217892   6.944   4.806   2.971
 5665SOL     OW17893   2.202   1.635   6.297
 5665SOL    HW117894   2.250   1.722   6.310
 5665SOL    HW217895   2.178   1.625   6.200
 5666SOL     OW17896   5.945   5.056   0.600
 5666SOL    HW117897   5.911   5.122   0.534
 5666SOL    HW217898   6.039   5.030   0.577
 5667SOL     OW17899   0.364   5.462   3.712
 5667SOL    HW117900   0.283   5.484   3.656
 5667SOL    HW217901   0.337   5.405   3.789
 5668SOL     OW17902   6.149   2.476   5.293
 5668SOL    HW117903   6.070   2.501   5.237
 5668SOL    HW217904   6.133   2.385   5.333
 5669SOL     OW17905   6.761   3.002   5.258
 5669SOL    HW117906   6.666   3.027   5.237
 5669SOL    HW217907   6.823   3.051   5.196
 5670SOL     OW17908   2.045   4.160   3.577
 5670SOL    HW117909   1.950   4.139   3.600
 5670SOL    HW217910   2.071   4.247   3.620
 5671SOL     OW17911   1.718   1.352   5.093
 5671SOL    HW117912   1.750   1.258   5.105
 5671SOL    HW217913   1.768   1.395   5.018
 5672SOL     OW17914   5.726   4.090   5.608
 5672SOL    HW117915   5.765   4.021   5.547
 5672SOL    HW217916   5.644   4.053   5.652
 5673SOL     OW17917   1.557   0.276   1.805
 5673SOL    HW117918   1.571   0.177   1.804
 5673SOL    HW217919   1.552   0.308   1.900
 5674SOL     OW17920   6.506   3.586   1.175
 5674SOL    HW117921   6.562   3.544   1.247
 5674SOL    HW217922   6.411   3.593   1.206
 5675SOL     OW17923   4.001   1.981   5.743
 5675SOL    HW117924   4.018   1.890   5.705
 5675SOL    HW217925   4.087   2.019   5.777
 5676SOL     OW17926   3.138   6.914   1.379
 5676SOL    HW117927   3.067   6.874   1.319
 5676SOL    HW217928   3.206   6.960   1.323
 5677SOL     OW17929   7.014   0.113   4.110
 5677SOL    HW117930   0.057   0.186   4.143
 5677SOL    HW217931   0.043   0.025   4.120
 5678SOL     OW17932   2.042   5.293   3.281
 5678SOL    HW117933   1.995   5.204   3.283
 5678SOL    HW217934   2.141   5.279   3.286
 5679SOL     OW17935   2.481   6.143   4.960
 5679SOL    HW117936   2.543   6.174   5.032
 5679SOL    HW217937   2.462   6.046   4.973
 5680SOL     OW17938   2.344   6.840   6.252
 5680SOL    HW117939   2.316   6.755   6.296
 5680SOL    HW217940   2.266   6.902   6.246
 5681SOL     OW17941   0.974   3.674   0.797
 5681SOL    HW117942   0.946   3.714   0.884
 5681SOL    HW217943   1.048   3.608   0.813
 5682SOL     OW17944   0.863   3.445   4.073
 5682SOL    HW117945   0.866   3.370   4.139
 5682SOL    HW217946   0.848   3.408   3.981
 5683SOL     OW17947   3.777   2.436   5.440
 5683SOL    HW117948   3.689   2.482   5.426
 5683SOL    HW217949   3.851   2.502   5.430
 5684SOL     OW17950   3.089   3.959   3.312
 5684SOL    HW117951   3.160   4.008   3.361
 5684SOL    HW217952   3.002   4.007   3.322
 5685SOL     OW17953   0.208   5.275   2.009
 5685SOL    HW117954   0.236   5.181   1.991
 5685SOL    HW217955   0.110   5.285   1.988
 5686SOL     OW17956   3.328   5.736   6.818
 5686SOL    HW117957   3.273   5.805   6.866
 5686SOL    HW217958   3.421   5.769   6.808
 5687SOL     OW17959   4.646   5.638   5.571
 5687SOL    HW117960   4.570   5.700   5.593
 5687SOL    HW217961   4.660   5.575   5.647
 5688SOL     OW17962   6.109   1.991   2.011
 5688SOL    HW117963   6.160   1.930   1.950
 5688SOL    HW217964   6.173   2.044   2.066
 5689SOL     OW17965   3.947   2.501   0.359
 5689SOL    HW117966   3.886   2.526   0.434
 5689SOL    HW217967   3.926   2.408   0.328
 5690SOL     OW17968   4.881   6.675   1.629
 5690SOL    HW117969   4.925   6.588   1.650
 5690SOL    HW217970   4.813   6.661   1.557
 5691SOL     OW17971   1.876   0.266   2.124
 5691SOL    HW117972   1.949   0.328   2.153
 5691SOL    HW217973   1.915   0.193   2.068
 5692SOL     OW17974   5.396   2.969   6.990
 5692SOL    HW117975   5.495   2.979   6.979
 5692SOL    HW217976   5.364   2.892   6.935
 5693SOL     OW17977   4.710   2.681   3.374
 5693SOL    HW117978   4.663   2.593   3.375
 5693SOL    HW217979   4.762   2.693   3.459
 5694SOL     OW17980   0.437   1.544   4.328
 5694SOL    HW117981   0.471   1.632   4.295
 5694SOL    HW217982   0.498   1.508   4.399
 5695SOL     OW17983   2.067   3.531   3.363
 5695SOL    HW117984   2.053   3.443   3.318
 5695SOL    HW217985   1.980   3.564   3.400
 5696SOL     OW17986   3.126   6.828   5.528
 5696SOL    HW117987   3.160   6.921   5.533
 5696SOL    HW217988   3.076   6.815   5.443
 5697SOL     OW17989   6.786   3.262   0.117
 5697SOL    HW117990   6.815   3.356   0.107
 5697SOL    HW217991   6.736   3.233   0.035
 5698SOL     OW17992   0.401   4.219   2.126
 5698SOL    HW117993   0.380   4.187   2.219
 5698SOL    HW217994   0.427   4.316   2.129
 5699SOL     OW17995   5.945   0.903   4.942
 5699SOL    HW117996   5.885   0.972   4.983
 5699SOL    HW217997   5.916   0.885   4.848
 5700SOL     OW17998   1.197   5.566   3.733
 5700SOL    HW117999   1.115   5.607   3.773
 5700SOL    HW218000   1.268   5.635   3.724
 5701SOL     OW18001   5.718   5.330   1.437
 5701SOL    HW118002   5.619   5.325   1.424
 5701SOL    HW218003   5.749   5.247   1.483
 5702SOL     OW18004   1.608   0.225   6.095
 5702SOL    HW118005   1.652   0.172   6.022
 5702SOL    HW218006   1.600   0.168   6.177
 5703SOL     OW18007   3.914   4.292   0.833
 5703SOL    HW118008   3.905   4.359   0.760
 5703SOL    HW218009   3.991   4.318   0.893
 5704SOL     OW18010   3.803   5.674   3.444
 5704SOL    HW118011   3.880   5.708   3.497
 5704SOL    HW218012   3.759   5.750   3.397
 5705SOL     OW18013   6.539   1.683   2.132
 5705SOL    HW118014   6.470   1.660   2.063
 5705SOL    HW218015   6.501   1.667   2.223
 5706SOL     OW18016   2.019   1.200   6.814
 5706SOL    HW118017   2.080   1.184   6.737
 5706SOL    HW218018   1.969   1.116   6.835
 5707SOL     OW18019   3.425   2.386   6.422
 5707SOL    HW118020   3.438   2.296   6.464
 5707SOL    HW218021   3.335   2.390   6.380
 5708SOL     OW18022   5.378   6.604   2.151
 5708SOL    HW118023   5.348   6.544   2.225
 5708SOL    HW218024   5.439   6.554   2.090
 5709SOL     OW18025   1.448   1.176   2.799
 5709SOL    HW118026   1.476   1.113   2.872
 5709SOL    HW218027   1.420   1.263   2.839
 5710SOL     OW18028   3.127   3.736   6.164
 5710SOL    HW118029   3.198   3.666   6.155
 5710SOL    HW218030   3.147   3.795   6.242
 5711SOL     OW18031   4.139   1.039   4.135
 5711SOL    HW118032   4.105   0.989   4.056
 5711SOL    HW218033   4.137   0.980   4.216
 5712SOL     OW18034   6.541   5.916   6.577
 5712SOL    HW118035   6.546   5.967   6.491
 5712SOL    HW218036   6.583   5.970   6.650
 5713SOL     OW18037   6.721   2.245   3.191
 5713SOL    HW118038   6.785   2.169   3.205
 5713SOL    HW218039   6.722   2.272   3.095
 5714SOL     OW18040   1.858   0.839   6.770
 5714SOL    HW118041   1.945   0.838   6.821
 5714SOL    HW218042   1.794   0.901   6.816
 5715SOL     OW18043   1.676   6.970   3.142
 5715SOL    HW118044   1.658   7.014   3.230
 5715SOL    HW218045   1.736   0.011   3.088
 5716SOL     OW18046   2.087   2.917   6.021
 5716SOL    HW118047   2.163   2.864   6.059
 5716SOL    HW218048   2.123   2.989   5.962
 5717SOL     OW18049   0.752   4.028   0.654
 5717SOL    HW118050   0.778   3.932   0.646
 5717SOL    HW218051   0.655   4.039   0.631
 5718SOL     OW18052   2.492   4.579   5.595
 5718SOL    HW118053   2.576   4.532   5.572
 5718SOL    HW218054   2.425   4.567   5.522
 5719SOL     OW18055   2.924   1.013   6.408
 5719SOL    HW118056   2.958   0.929   6.449
 5719SOL    HW218057   2.983   1.040   6.332
 5720SOL     OW18058   1.632   4.661   4.352
 5720SOL    HW118059   1.600   4.642   4.445
 5720SOL    HW218060   1.596   4.750   4.322
 5721SOL     OW18061   0.781   4.698   1.694
 5721SOL    HW118062   0.758   4.659   1.783
 5721SOL    HW218063   0.880   4.693   1.680
 5722SOL     OW18064   5.162   6.858   4.325
 5722SOL    HW118065   5.081   6.916   4.326
 5722SOL    HW218066   5.244   6.915   4.333
 5723SOL     OW18067   1.892   4.916   0.831
 5723SOL    HW118068   1.988   4.944   0.835
 5723SOL    HW218069   1.843   4.951   0.910
 5724SOL     OW18070   5.361   1.702   6.675
 5724SOL    HW118071   5.390   1.788   6.718
 5724SOL    HW218072   5.270   1.715   6.635
 5725SOL     OW18073   5.015   5.455   6.382
 5725SOL    HW118074   4.942   5.489   6.441
 5725SOL    HW218075   4.976   5.423   6.296
 5726SOL     OW18076   5.295   3.345   6.138
 5726SOL    HW118077   5.251   3.289   6.067
 5726SOL    HW218078   5.369   3.292   6.181
 5727SOL     OW18079   6.558   1.881   4.106
 5727SOL    HW118080   6.650   1.861   4.140
 5727SOL    HW218081   6.548   1.843   4.014
 5728SOL     OW18082   6.334   0.531   6.180
 5728SOL    HW118083   6.356   0.525   6.083
 5728SOL    HW218084   6.416   0.512   6.234
 5729SOL     OW18085   0.545   2.567   5.793
 5729SOL    HW118086   0.489   2.591   5.872
 5729SOL    HW218087   0.640   2.555   5.823
 5730SOL     OW18088   5.052   4.681   6.441
 5730SOL    HW118089   5.117   4.612   6.409
 5730SOL    HW218090   4.993   4.709   6.365
 5731SOL     OW18091   3.467   1.184   4.190
 5731SOL    HW118092   3.567   1.178   4.181
 5731SOL    HW218093   3.435   1.116   4.256
 5732SOL     OW18094   5.583   4.249   4.496
 5732SOL    HW118095   5.588   4.195   4.412
 5732SOL    HW218096   5.505   4.219   4.550
 5733SOL     OW18097   2.917   1.040   0.443
 5733SOL    HW118098   2.971   0.967   0.402
 5733SOL    HW218099   2.834   1.054   0.389
 5734SOL     OW18100   2.438   6.202   6.407
 5734SOL    HW118101   2.523   6.253   6.423
 5734SOL    HW218102   2.364   6.243   6.460
 5735SOL     OW18103   4.396   0.360   1.948
 5735SOL    HW118104   4.437   0.427   2.010
 5735SOL    HW218105   4.297   0.360   1.960
 5736SOL     OW18106   5.043   4.314   0.100
 5736SOL    HW118107   5.067   4.217   0.100
 5736SOL    HW218108   5.010   4.341   0.191
 5737SOL     OW18109   3.988   5.183   1.050
 5737SOL    HW118110   3.992   5.280   1.029
 5737SOL    HW218111   4.079   5.143   1.041
 5738SOL     OW18112   3.002   1.018   0.125
 5738SOL    HW118113   2.937   0.941   0.133
 5738SOL    HW218114   2.957   1.102   0.153
 5739SOL     OW18115   2.143   0.709   5.871
 5739SOL    HW118116   2.094   0.705   5.958
 5739SOL    HW218117   2.092   0.657   5.802
 5740SOL     OW18118   5.321   3.202   2.258
 5740SOL    HW118119   5.418   3.224   2.251
 5740SOL    HW218120   5.294   3.200   2.354
 5741SOL     OW18121   0.283   3.495   4.254
 5741SOL    HW118122   0.191   3.534   4.244
 5741SOL    HW218123   0.275   3.397   4.273
 5742SOL     OW18124   5.102   0.384   3.870
 5742SOL    HW118125   5.192   0.420   3.892
 5742SOL    HW218126   5.103   0.347   3.777
 5743SOL     OW18127   4.084   4.162   6.520
 5743SOL    HW118128   4.041   4.087   6.570
 5743SOL    HW218129   4.077   4.246   6.574
 5744SOL     OW18130   5.725   6.757   2.807
 5744SOL    HW118131   5.667   6.774   2.886
 5744SOL    HW218132   5.671   6.709   2.737
 5745SOL     OW18133   1.863   2.038   2.321
 5745SOL    HW118134   1.887   2.132   2.346
 5745SOL    HW218135   1.830   2.036   2.227
 5746SOL     OW18136   4.415   0.023   3.483
 5746SOL    HW118137   4.326   0.015   3.437
 5746SOL    HW218138   4.410   0.096   3.551
 5747SOL     OW18139   0.666   6.352   0.737
 5747SOL    HW118140   0.704   6.372   0.827
 5747SOL    HW218141   0.677   6.254   0.717
 5748SOL     OW18142   0.432   5.740   0.695
 5748SOL    HW118143   0.425   5.810   0.766
 5748SOL    HW218144   0.344   5.730   0.648
 5749SOL     OW18145   1.632   5.978   5.813
 5749SOL    HW118146   1.669   5.891   5.847
 5749SOL    HW218147   1.694   6.016   5.745
 5750SOL     OW18148   6.176   4.294   3.865
 5750SOL    HW118149   6.247   4.357   3.835
 5750SOL    HW218150   6.143   4.322   3.956
 5751SOL     OW18151   1.755   3.536   4.470
 5751SOL    HW118152   1.829   3.498   4.526
 5751SOL    HW218153   1.787   3.545   4.376
 5752SOL     OW18154   4.731   0.723   0.587
 5752SOL    HW118155   4.761   0.695   0.496
 5752SOL    HW218156   4.655   0.665   0.616
 5753SOL     OW18157   3.874   3.923   5.075
 5753SOL    HW118158   3.922   3.879   4.999
 5753SOL    HW218159   3.778   3.934   5.051
 5754SOL     OW18160   0.947   6.069   1.188
 5754SOL    HW118161   0.978   5.990   1.240
 5754SOL    HW218162   1.024   6.112   1.142
 5755SOL     OW18163   1.233   2.665   6.651
 5755SOL    HW118164   1.295   2.590   6.673
 5755SOL    HW218165   1.212   2.663   6.553
 5756SOL     OW18166   6.081   6.158   1.249
 5756SOL    HW118167   6.109   6.089   1.316
 5756SOL    HW218168   5.982   6.169   1.253
 5757SOL     OW18169   6.168   0.151   4.502
 5757SOL    HW118170   6.083   0.143   4.553
 5757SOL    HW218171   6.245   0.130   4.563
 5758SOL     OW18172   6.592   0.285   2.841
 5758SOL    HW118173   6.503   0.277   2.796
 5758SOL    HW218174   6.592   0.367   2.899
 5759SOL     OW18175   4.082   0.337   1.151
 5759SOL    HW118176   3.987   0.370   1.147
 5759SOL    HW218177   4.139   0.393   1.091
 5760SOL     OW18178   0.645   3.228   1.378
 5760SOL    HW118179   0.708   3.152   1.396
 5760SOL    HW218180   0.588   3.204   1.299
 5761SOL     OW18181   5.343   6.536   4.776
 5761SOL    HW118182   5.292   6.622   4.778
 5761SOL    HW218183   5.336   6.496   4.685
 5762SOL     OW18184   6.221   5.546   6.796
 5762SOL    HW118185   6.253   5.640   6.781
 5762SOL    HW218186   6.142   5.529   6.739
 5763SOL     OW18187   5.731   6.945   0.254
 5763SOL    HW118188   5.676   6.933   0.172
 5763SOL    HW218189   5.769   6.856   0.282
 5764SOL     OW18190   4.464   6.124   4.091
 5764SOL    HW118191   4.425   6.212   4.065
 5764SOL    HW218192   4.401   6.051   4.066
 5765SOL     OW18193   6.848   5.061   1.473
 5765SOL    HW118194   6.840   5.140   1.534
 5765SOL    HW218195   6.758   5.021   1.457
 5766SOL     OW18196   0.112   1.943   4.397
 5766SOL    HW118197   0.086   2.038   4.414
 5766SOL    HW218198   0.209   1.930   4.418
 5767SOL     OW18199   2.899   0.272   0.290
 5767SOL    HW118200   2.908   0.323   0.204
 5767SOL    HW218201   2.811   0.225   0.292
 5768SOL     OW18202   0.965   6.933   4.730
 5768SOL    HW118203   0.955   6.836   4.709
 5768SOL    HW218204   0.877   6.979   4.720
 5769SOL     OW18205   1.278   4.230   6.674
 5769SOL    HW118206   1.238   4.153   6.624
 5769SOL    HW218207   1.375   4.239   6.650
 5770SOL     OW18208   2.194   5.030   1.501
 5770SOL    HW118209   2.159   4.975   1.577
 5770SOL    HW218210   2.265   5.093   1.536
 5771SOL     OW18211   2.164   5.194   3.719
 5771SOL    HW118212   2.243   5.230   3.768
 5771SOL    HW218213   2.148   5.248   3.637
 5772SOL     OW18214   3.562   0.899   1.882
 5772SOL    HW118215   3.503   0.918   1.961
 5772SOL    HW218216   3.524   0.822   1.831
 5773SOL     OW18217   4.288   1.770   3.019
 5773SOL    HW118218   4.214   1.747   2.956
 5773SOL    HW218219   4.343   1.844   2.980
 5774SOL     OW18220   0.185   6.527   2.649
 5774SOL    HW118221   0.176   6.556   2.553
 5774SOL    HW218222   0.281   6.524   2.674
 5775SOL     OW18223   0.003   5.876   1.996
 5775SOL    HW118224   0.056   5.937   1.937
 5775SOL    HW218225   6.948   5.927   2.041
 5776SOL     OW18226   2.519   0.623   3.844
 5776SOL    HW118227   2.552   0.710   3.808
 5776SOL    HW218228   2.558   0.547   3.791
 5777SOL     OW18229   1.818   6.289   3.008
 5777SOL    HW118230   1.731   6.336   2.996
 5777SOL    HW218231   1.801   6.193   3.033
 5778SOL     OW18232   0.590   1.252   0.374
 5778SOL    HW118233   0.539   1.294   0.448
 5778SOL    HW218234   0.578   1.305   0.290
 5779SOL     OW18235   5.841   2.234   6.408
 5779SOL    HW118236   5.821   2.254   6.504
 5779SOL    HW218237   5.921   2.174   6.402
 5780SOL     OW18238   5.190   5.713   3.768
 5780SOL    HW118239   5.226   5.627   3.732
 5780SOL    HW218240   5.205   5.786   3.701
 5781SOL     OW18241   0.643   4.171   5.615
 5781SOL    HW118242   0.638   4.123   5.703
 5781SOL    HW218243   0.701   4.119   5.552
 5782SOL     OW18244   0.328   1.306   0.589
 5782SOL    HW118245   0.314   1.401   0.561
 5782SOL    HW218246   0.404   1.301   0.654
 5783SOL     OW18247   1.639   1.684   1.493
 5783SOL    HW118248   1.684   1.762   1.451
 5783SOL    HW218249   1.695   1.650   1.569
 5784SOL     OW18250   0.131   6.741   6.467
 5784SOL    HW118251   0.182   6.783   6.542
 5784SOL    HW218252   0.131   6.804   6.388
 5785SOL     OW18253   1.710   1.357   1.073
 5785SOL    HW118254   1.757   1.364   1.161
 5785SOL    HW218255   1.612   1.343   1.088
 5786SOL     OW18256   6.297   4.216   1.021
 5786SOL    HW118257   6.317   4.118   1.026
 5786SOL    HW218258   6.297   4.255   1.113
 5787SOL     OW18259   2.816   1.882   5.628
 5787SOL    HW118260   2.803   1.886   5.727
 5787SOL    HW218261   2.874   1.958   5.599
 5788SOL     OW18262   3.229   1.057   3.101
 5788SOL    HW118263   3.167   1.023   3.030
 5788SOL    HW218264   3.282   0.982   3.138
 5789SOL     OW18265   4.312   5.059   6.218
 5789SOL    HW118266   4.308   4.967   6.259
 5789SOL    HW218267   4.275   5.125   6.283
 5790SOL     OW18268   0.722   2.895   3.931
 5790SOL    HW118269   0.636   2.945   3.930
 5790SOL    HW218270   0.707   2.802   3.962
 5791SOL     OW18271   2.570   0.841   2.839
 5791SOL    HW118272   2.581   0.744   2.814
 5791SOL    HW218273   2.519   0.888   2.767
 5792SOL     OW18274   0.200   2.589   3.308
 5792SOL    HW118275   0.112   2.605   3.263
 5792SOL    HW218276   0.204   2.642   3.392
 5793SOL     OW18277   6.562   1.008   3.870
 5793SOL    HW118278   6.658   0.988   3.853
 5793SOL    HW218279   6.531   0.959   3.951
 5794SOL     OW18280   3.806   3.833   6.954
 5794SOL    HW118281   3.734   3.776   6.995
 5794SOL    HW218282   3.883   3.839   7.017
 5795SOL     OW18283   6.340   4.148   6.177
 5795SOL    HW118284   6.360   4.243   6.154
 5795SOL    HW218285   6.249   4.142   6.217
 5796SOL     OW18286   3.539   1.641   6.874
 5796SOL    HW118287   3.588   1.726   6.891
 5796SOL    HW218288   3.581   1.592   6.798
 5797SOL     OW18289   3.204   1.795   4.968
 5797SOL    HW118290   3.221   1.879   4.916
 5797SOL    HW218291   3.124   1.748   4.930
 5798SOL     OW18292   6.984   4.511   4.955
 5798SOL    HW118293   6.979   4.413   4.941
 5798SOL    HW218294   0.047   4.548   4.909
 5799SOL     OW18295   5.297   0.084   3.801
 5799SOL    HW118296   5.256   0.102   3.712
 5799SOL    HW218297   5.397   0.087   3.792
 5800SOL     OW18298   5.789   4.783   0.472
 5800SOL    HW118299   5.768   4.878   0.449
 5800SOL    HW218300   5.726   4.752   0.544
 5801SOL     OW18301   1.467   0.744   3.724
 5801SOL    HW118302   1.514   0.772   3.640
 5801SOL    HW218303   1.378   0.706   3.700
 5802SOL     OW18304   0.227   3.965   5.967
 5802SOL    HW118305   0.157   3.919   6.022
 5802SOL    HW218306   0.197   3.970   5.872
 5803SOL     OW18307   0.988   4.779   1.149
 5803SOL    HW118308   1.010   4.683   1.132
 5803SOL    HW218309   0.913   4.785   1.214
 5804SOL     OW18310   5.935   4.333   4.527
 5804SOL    HW118311   5.906   4.259   4.467
 5804SOL    HW218312   6.033   4.348   4.517
 5805SOL     OW18313   5.063   3.542   6.482
 5805SOL    HW118314   4.982   3.513   6.430
 5805SOL    HW218315   5.113   3.461   6.512
 5806SOL     OW18316   0.357   6.499   6.999
 5806SOL    HW118317   0.356   6.527   6.903
 5806SOL    HW218318   0.420   6.422   7.010
 5807SOL     OW18319   1.711   3.454   1.304
 5807SOL    HW118320   1.719   3.374   1.244
 5807SOL    HW218321   1.620   3.456   1.344
 5808SOL     OW18322   5.994   4.296   2.188
 5808SOL    HW118323   6.042   4.355   2.123
 5808SOL    HW218324   6.055   4.225   2.220
 5809SOL     OW18325   6.974   3.466   4.360
 5809SOL    HW118326   6.949   3.427   4.272
 5809SOL    HW218327   6.947   3.562   4.364
 5810SOL     OW18328   2.540   1.817   2.561
 5810SOL    HW118329   2.558   1.754   2.636
 5810SOL    HW218330   2.445   1.808   2.531
 5811SOL     OW18331   2.600   0.344   4.197
 5811SOL    HW118332   2.609   0.420   4.132
 5811SOL    HW218333   2.689   0.302   4.211
 5812SOL     OW18334   4.750   0.311   3.762
 5812SOL    HW118335   4.757   0.369   3.680
 5812SOL    HW218336   4.781   0.362   3.842
 5813SOL     OW18337   1.566   1.002   5.164
 5813SOL    HW118338   1.629   0.964   5.097
 5813SOL    HW218339   1.472   0.979   5.139
 5814SOL     OW18340   6.632   5.046   1.254
 5814SOL    HW118341   6.597   5.090   1.337
 5814SOL    HW218342   6.704   5.103   1.214
 5815SOL     OW18343   3.883   1.722   3.050
 5815SOL    HW118344   3.831   1.807   3.054
 5815SOL    HW218345   3.980   1.742   3.052
 5816SOL     OW18346   4.502   0.787   0.323
 5816SOL    HW118347   4.500   0.791   0.422
 5816SOL    HW218348   4.551   0.868   0.287
 5817SOL     OW18349   5.189   2.833   5.412
 5817SOL    HW118350   5.147   2.816   5.501
 5817SOL    HW218351   5.135   2.901   5.362
 5818SOL     OW18352   5.834   6.986   6.310
 5818SOL    HW118353   5.928   6.961   6.332
 5818SOL    HW218354   5.819   6.978   6.212
 5819SOL     OW18355   5.644   0.634   1.086
 5819SOL    HW118356   5.569   0.693   1.057
 5819SOL    HW218357   5.656   0.560   1.020
 5820SOL     OW18358   5.400   6.403   3.335
 5820SOL    HW118359   5.453   6.418   3.418
 5820SOL    HW218360   5.303   6.398   3.358
 5821SOL     OW18361   2.982   0.692   1.962
 5821SOL    HW118362   3.035   0.773   1.987
 5821SOL    HW218363   3.015   0.613   2.015
 5822SOL     OW18364   0.147   1.554   2.491
 5822SOL    HW118365   0.220   1.495   2.455
 5822SOL    HW218366   0.096   1.594   2.415
 5823SOL     OW18367   2.077   1.987   4.374
 5823SOL    HW118368   1.995   2.032   4.340
 5823SOL    HW218369   2.155   2.012   4.317
 5824SOL     OW18370   5.727   6.870   3.297
 5824SOL    HW118371   5.787   6.816   3.356
 5824SOL    HW218372   5.782   6.917   3.228
 5825SOL     OW18373   2.053   0.349   6.717
 5825SOL    HW118374   2.103   0.388   6.794
 5825SOL    HW218375   2.024   0.256   6.740
 5826SOL     OW18376   6.726   6.399   4.534
 5826SOL    HW118377   6.794   6.385   4.462
 5826SOL    HW218378   6.634   6.394   4.493
 5827SOL     OW18379   0.623   5.746   5.028
 5827SOL    HW118380   0.639   5.659   5.075
 5827SOL    HW218381   0.584   5.728   4.937
 5828SOL     OW18382   0.627   3.499   2.072
 5828SOL    HW118383   0.709   3.551   2.048
 5828SOL    HW218384   0.574   3.480   1.989
 5829SOL     OW18385   2.571   1.294   1.757
 5829SOL    HW118386   2.635   1.336   1.693
 5829SOL    HW218387   2.615   1.215   1.801
 5830SOL     OW18388   3.062   1.101   6.190
 5830SOL    HW118389   3.038   1.095   6.093
 5830SOL    HW218390   3.158   1.079   6.203
 5831SOL     OW18391   5.539   0.014   2.889
 5831SOL    HW118392   5.484   0.096   2.906
 5831SOL    HW218393   5.574   0.016   2.796
 5832SOL     OW18394   4.193   3.838   5.188
 5832SOL    HW118395   4.154   3.872   5.103
 5832SOL    HW218396   4.119   3.809   5.249
 5833SOL     OW18397   3.275   3.302   4.066
 5833SOL    HW118398   3.206   3.231   4.052
 5833SOL    HW218399   3.230   3.385   4.100
 5834SOL     OW18400   5.872   1.973   0.802
 5834SOL    HW118401   5.906   2.063   0.775
 5834SOL    HW218402   5.776   1.965   0.775
 5835SOL     OW18403   5.010   2.074   3.722
 5835SOL    HW118404   5.082   2.006   3.727
 5835SOL    HW218405   5.049   2.163   3.697
 5836SOL     OW18406   3.450   6.196   1.974
 5836SOL    HW118407   3.537   6.153   1.951
 5836SOL    HW218408   3.377   6.128   1.967
 5837SOL     OW18409   4.588   4.132   0.579
 5837SOL    HW118410   4.684   4.140   0.603
 5837SOL    HW218411   4.580   4.109   0.482
 5838SOL     OW18412   1.546   1.449   5.685
 5838SOL    HW118413   1.507   1.529   5.639
 5838SOL    HW218414   1.577   1.383   5.617
 5839SOL     OW18415   6.490   3.218   3.084
 5839SOL    HW118416   6.556   3.156   3.041
 5839SOL    HW218417   6.516   3.234   3.179
 5840SOL     OW18418   1.569   5.224   0.078
 5840SOL    HW118419   1.583   5.260   0.170
 5840SOL    HW218420   1.657   5.204   0.036
 5841SOL     OW18421   6.431   2.429   3.668
 5841SOL    HW118422   6.399   2.481   3.747
 5841SOL    HW218423   6.382   2.459   3.586
 5842SOL     OW18424   3.976   2.593   1.270
 5842SOL    HW118425   4.061   2.640   1.295
 5842SOL    HW218426   3.900   2.629   1.325
 5843SOL     OW18427   2.154   3.235   2.392
 5843SOL    HW118428   2.177   3.186   2.308
 5843SOL    HW218429   2.154   3.334   2.374
 5844SOL     OW18430   0.493   6.023   6.752
 5844SOL    HW118431   0.408   6.066   6.722
 5844SOL    HW218432   0.535   5.975   6.675
 5845SOL     OW18433   0.947   2.461   4.039
 5845SOL    HW118434   1.001   2.447   3.956
 5845SOL    HW218435   0.922   2.372   4.078
 5846SOL     OW18436   0.336   2.594   5.582
 5846SOL    HW118437   0.412   2.610   5.519
 5846SOL    HW218438   0.370   2.598   5.676
 5847SOL     OW18439   2.228   2.897   2.302
 5847SOL    HW118440   2.170   2.925   2.379
 5847SOL    HW218441   2.222   2.964   2.229
 5848SOL     OW18442   1.423   4.818   3.289
 5848SOL    HW118443   1.356   4.892   3.300
 5848SOL    HW218444   1.516   4.856   3.294
 5849SOL     OW18445   1.891   0.637   5.789
 5849SOL    HW118446   1.910   0.735   5.799
 5849SOL    HW218447   1.801   0.625   5.747
 5850SOL     OW18448   0.881   4.738   2.243
 5850SOL    HW118449   0.878   4.821   2.187
 5850SOL    HW218450   0.791   4.722   2.283
 5851SOL     OW18451   6.210   4.200   1.922
 5851SOL    HW118452   6.156   4.136   1.977
 5851SOL    HW218453   6.170   4.292   1.929
 5852SOL     OW18454   3.772   6.145   1.993
 5852SOL    HW118455   3.749   6.184   2.082
 5852SOL    HW218456   3.776   6.045   2.001
 5853SOL     OW18457   2.920   4.590   5.961
 5853SOL    HW118458   2.858   4.667   5.941
 5853SOL    HW218459   2.981   4.575   5.883
 5854SOL     OW18460   6.865   1.147   5.798
 5854SOL    HW118461   6.849   1.172   5.703
 5854SOL    HW218462   6.788   1.093   5.833
 5855SOL     OW18463   1.286   1.071   4.530
 5855SOL    HW118464   1.255   1.030   4.616
 5855SOL    HW218465   1.315   1.165   4.546
 5856SOL     OW18466   1.795   4.845   3.482
 5856SOL    HW118467   1.801   4.938   3.517
 5856SOL    HW218468   1.847   4.783   3.542
 5857SOL     OW18469   6.311   2.886   5.015
 5857SOL    HW118470   6.300   2.788   5.032
 5857SOL    HW218471   6.247   2.938   5.072
 5858SOL     OW18472   3.682   1.294   2.443
 5858SOL    HW118473   3.679   1.275   2.541
 5858SOL    HW218474   3.633   1.222   2.394
 5859SOL     OW18475   6.609   6.850   1.202
 5859SOL    HW118476   6.515   6.845   1.168
 5859SOL    HW218477   6.636   6.946   1.211
 5860SOL     OW18478   1.794   4.331   1.991
 5860SOL    HW118479   1.877   4.289   1.955
 5860SOL    HW218480   1.724   4.260   2.005
 5861SOL     OW18481   5.769   1.973   4.243
 5861SOL    HW118482   5.702   2.030   4.292
 5861SOL    HW218483   5.750   1.877   4.262
 5862SOL     OW18484   4.303   4.706   2.876
 5862SOL    HW118485   4.232   4.746   2.934
 5862SOL    HW218486   4.272   4.706   2.781
 5863SOL     OW18487   1.774   0.921   5.903
 5863SOL    HW118488   1.867   0.933   5.936
 5863SOL    HW218489   1.758   0.980   5.824
 5864SOL     OW18490   4.331   4.272   1.578
 5864SOL    HW118491   4.313   4.190   1.524
 5864SOL    HW218492   4.355   4.246   1.672
 5865SOL     OW18493   4.959   0.719   3.306
 5865SOL    HW118494   5.049   0.678   3.321
 5865SOL    HW218495   4.920   0.684   3.221
 5866SOL     OW18496   3.982   6.546   5.930
 5866SOL    HW118497   4.036   6.476   5.977
 5866SOL    HW218498   3.961   6.515   5.837
 5867SOL     OW18499   0.560   3.022   1.864
 5867SOL    HW118500   0.657   3.026   1.890
 5867SOL    HW218501   0.541   3.092   1.796
 5868SOL     OW18502   1.594   0.353   5.382
 5868SOL    HW118503   1.657   0.365   5.458
 5868SOL    HW218504   1.531   0.278   5.402
 5869SOL     OW18505   2.681   4.890   4.649
 5869SOL    HW118506   2.581   4.889   4.649
 5869SOL    HW218507   2.714   4.875   4.742
 5870SOL     OW18508   5.007   5.317   4.125
 5870SOL    HW118509   5.000   5.220   4.101
 5870SOL    HW218510   5.083   5.358   4.075
 5871SOL     OW18511   3.621   2.955   0.668
 5871SOL    HW118512   3.670   3.004   0.597
 5871SOL    HW218513   3.678   2.948   0.750
 5872SOL     OW18514   3.318   5.640   6.000
 5872SOL    HW118515   3.263   5.604   5.925
 5872SOL    HW218516   3.352   5.731   5.975
 5873SOL     OW18517   2.965   3.274   0.375
 5873SOL    HW118518   2.899   3.207   0.341
 5873SOL    HW218519   3.057   3.239   0.364
 5874SOL     OW18520   2.151   3.321   1.756
 5874SOL    HW118521   2.208   3.382   1.812
 5874SOL    HW218522   2.198   3.300   1.671
 5875SOL     OW18523   3.507   1.998   0.129
 5875SOL    HW118524   3.606   2.015   0.129
 5875SOL    HW218525   3.471   2.015   0.037
 5876SOL     OW18526   3.100   3.634   6.792
 5876SOL    HW118527   3.005   3.629   6.821
 5876SOL    HW218528   3.155   3.677   6.863
 5877SOL     OW18529   6.232   0.746   2.102
 5877SOL    HW118530   6.143   0.702   2.092
 5877SOL    HW218531   6.299   0.679   2.134
 5878SOL     OW18532   4.659   4.707   2.027
 5878SOL    HW118533   4.584   4.754   1.981
 5878SOL    HW218534   4.624   4.625   2.073
 5879SOL     OW18535   3.707   3.484   6.296
 5879SOL    HW118536   3.724   3.503   6.199
 5879SOL    HW218537   3.610   3.499   6.317
 5880SOL     OW18538   4.999   3.282   5.731
 5880SOL    HW118539   5.022   3.210   5.796
 5880SOL    HW218540   4.907   3.315   5.749
 5881SOL     OW18541   1.160   6.191   2.112
 5881SOL    HW118542   1.241   6.242   2.141
 5881SOL    HW218543   1.178   6.143   2.027
 5882SOL     OW18544   1.851   5.684   6.320
 5882SOL    HW118545   1.888   5.776   6.306
 5882SOL    HW218546   1.772   5.689   6.381
 5883SOL     OW18547   0.078   4.606   1.273
 5883SOL    HW118548   0.040   4.645   1.189
 5883SOL    HW218549   0.087   4.507   1.264
 5884SOL     OW18550   6.359   1.685   3.671
 5884SOL    HW118551   6.291   1.731   3.615
 5884SOL    HW218552   6.313   1.626   3.738
 5885SOL     OW18553   0.368   5.279   6.665
 5885SOL    HW118554   0.346   5.287   6.762
 5885SOL    HW218555   0.300   5.221   6.620
 5886SOL     OW18556   1.811   4.031   3.698
 5886SOL    HW118557   1.755   3.997   3.622
 5886SOL    HW218558   1.805   3.967   3.774
 5887SOL     OW18559   2.118   2.355   0.917
 5887SOL    HW118560   2.217   2.355   0.936
 5887SOL    HW218561   2.090   2.445   0.884
 5888SOL     OW18562   3.353   7.000   0.907
 5888SOL    HW118563   3.415   0.027   0.842
 5888SOL    HW218564   3.264   0.028   0.905
 5889SOL     OW18565   6.757   0.711   1.792
 5889SOL    HW118566   6.680   0.687   1.733
 5889SOL    HW218567   6.802   0.628   1.824
 5890SOL     OW18568   2.876   6.261   2.482
 5890SOL    HW118569   2.895   6.245   2.579
 5890SOL    HW218570   2.897   6.356   2.459
 5891SOL     OW18571   2.671   3.495   0.842
 5891SOL    HW118572   2.580   3.503   0.884
 5891SOL    HW218573   2.667   3.430   0.766
 5892SOL     OW18574   0.788   3.765   0.597
 5892SOL    HW118575   0.841   3.755   0.681
 5892SOL    HW218576   0.737   3.680   0.579
 5893SOL     OW18577   0.542   5.544   2.323
 5893SOL    HW118578   0.583   5.630   2.355
 5893SOL    HW218579   0.608   5.470   2.334
 5894SOL     OW18580   1.998   5.535   5.949
 5894SOL    HW118581   1.996   5.634   5.939
 5894SOL    HW218582   2.010   5.511   6.045
 5895SOL     OW18583   5.422   2.950   4.480
 5895SOL    HW118584   5.514   2.925   4.510
 5895SOL    HW218585   5.382   2.875   4.428
 5896SOL     OW18586   5.587   2.423   1.977
 5896SOL    HW118587   5.642   2.504   1.956
 5896SOL    HW218588   5.604   2.395   2.072
 5897SOL     OW18589   4.579   1.994   0.897
 5897SOL    HW118590   4.633   2.033   0.972
 5897SOL    HW218591   4.544   2.068   0.840
 5898SOL     OW18592   2.054   1.509   5.073
 5898SOL    HW118593   2.019   1.430   5.023
 5898SOL    HW218594   2.102   1.478   5.155
 5899SOL     OW18595   6.434   5.488   5.601
 5899SOL    HW118596   6.335   5.487   5.619
 5899SOL    HW218597   6.482   5.441   5.674
 5900SOL     OW18598   5.990   6.419   3.539
 5900SOL    HW118599   6.087   6.408   3.517
 5900SOL    HW218600   5.980   6.445   3.635
 5901SOL     OW18601   1.922   0.238   5.791
 5901SOL    HW118602   2.018   0.245   5.818
 5901SOL    HW218603   1.866   0.295   5.851
 5902SOL     OW18604   4.975   4.629   5.301
 5902SOL    HW118605   4.987   4.627   5.401
 5902SOL    HW218606   4.914   4.554   5.274
 5903SOL     OW18607   6.315   1.880   5.905
 5903SOL    HW118608   6.332   1.810   5.835
 5903SOL    HW218609   6.385   1.951   5.899
 5904SOL     OW18610   2.319   4.501   2.428
 5904SOL    HW118611   2.347   4.422   2.484
 5904SOL    HW218612   2.230   4.534   2.459
 5905SOL     OW18613   6.258   1.728   4.349
 5905SOL    HW118614   6.341   1.676   4.367
 5905SOL    HW218615   6.264   1.817   4.396
 5906SOL     OW18616   4.836   0.679   5.451
 5906SOL    HW118617   4.873   0.762   5.492
 5906SOL    HW218618   4.908   0.610   5.442
 5907SOL     OW18619   1.766   3.044   6.631
 5907SOL    HW118620   1.853   3.090   6.650
 5907SOL    HW218621   1.783   2.959   6.581
 5908SOL     OW18622   4.693   2.741   6.040
 5908SOL    HW118623   4.641   2.825   6.053
 5908SOL    HW218624   4.653   2.669   6.098
 5909SOL     OW18625   6.828   5.358   4.578
 5909SOL    HW118626   6.797   5.315   4.493
 5909SOL    HW218627   6.903   5.421   4.558
 5910SOL     OW18628   2.216   3.920   1.367
 5910SOL    HW118629   2.187   3.902   1.461
 5910SOL    HW218630   2.316   3.916   1.362
 5911SOL     OW18631   5.928   6.389   6.701
 5911SOL    HW118632   5.903   6.359   6.608
 5911SOL    HW218633   5.999   6.459   6.695
 5912SOL     OW18634   6.810   3.715   6.916
 5912SOL    HW118635   6.873   3.696   6.841
 5912SOL    HW218636   6.746   3.639   6.927
 5913SOL     OW18637   1.802   1.300   6.068
 5913SOL    HW118638   1.747   1.378   6.102
 5913SOL    HW218639   1.896   1.330   6.052
 5914SOL     OW18640   1.798   6.232   0.457
 5914SOL    HW118641   1.810   6.291   0.377
 5914SOL    HW218642   1.868   6.160   0.455
 5915SOL     OW18643   4.731   2.819   2.683
 5915SOL    HW118644   4.692   2.846   2.596
 5915SOL    HW218645   4.823   2.783   2.669
 5916SOL     OW18646   3.650   0.692   5.734
 5916SOL    HW118647   3.561   0.735   5.718
 5916SOL    HW218648   3.665   0.682   5.832
 5917SOL     OW18649   3.018   3.621   3.022
 5917SOL    HW118650   3.110   3.612   2.986
 5917SOL    HW218651   3.018   3.605   3.121
 5918SOL     OW18652   2.152   3.131   4.230
 5918SOL    HW118653   2.170   3.094   4.321
 5918SOL    HW218654   2.181   3.066   4.160
 5919SOL     OW18655   1.680   3.297   6.754
 5919SOL    HW118656   1.679   3.301   6.854
 5919SOL    HW218657   1.692   3.202   6.724
 5920SOL     OW18658   3.686   6.555   6.883
 5920SOL    HW118659   3.666   6.463   6.917
 5920SOL    HW218660   3.785   6.570   6.885
 5921SOL     OW18661   3.861   4.655   5.267
 5921SOL    HW118662   3.954   4.637   5.300
 5921SOL    HW218663   3.865   4.686   5.171
 5922SOL     OW18664   5.732   4.353   2.209
 5922SOL    HW118665   5.830   4.334   2.216
 5922SOL    HW218666   5.683   4.305   2.283
 5923SOL     OW18667   0.089   6.849   3.966
 5923SOL    HW118668   0.173   6.900   3.948
 5923SOL    HW218669   0.083   6.829   4.064
 5924SOL     OW18670   5.538   2.009   4.573
 5924SOL    HW118671   5.443   2.021   4.603
 5924SOL    HW218672   5.560   1.911   4.570
 5925SOL     OW18673   5.937   6.207   0.813
 5925SOL    HW118674   6.021   6.154   0.797
 5925SOL    HW218675   5.959   6.287   0.868
 5926SOL     OW18676   3.538   5.303   1.590
 5926SOL    HW118677   3.541   5.276   1.686
 5926SOL    HW218678   3.469   5.249   1.542
 5927SOL     OW18679   2.998   5.999   2.584
 5927SOL    HW118680   3.063   6.029   2.514
 5927SOL    HW218681   2.988   6.071   2.652
 5928SOL     OW18682   1.289   0.207   2.242
 5928SOL    HW118683   1.291   0.119   2.194
 5928SOL    HW218684   1.201   0.252   2.225
 5929SOL     OW18685   1.335   6.922   6.271
 5929SOL    HW118686   1.280   6.936   6.354
 5929SOL    HW218687   1.315   6.996   6.206
 5930SOL     OW18688   6.816   2.102   4.547
 5930SOL    HW118689   6.723   2.084   4.514
 5930SOL    HW218690   6.857   2.017   4.578
 5931SOL     OW18691   6.638   5.647   1.266
 5931SOL    HW118692   6.663   5.655   1.169
 5931SOL    HW218693   6.594   5.731   1.296
 5932SOL     OW18694   3.375   6.720   0.652
 5932SOL    HW118695   3.404   6.696   0.745
 5932SOL    HW218696   3.277   6.736   0.650
 5933SOL     OW18697   6.552   3.662   2.926
 5933SOL    HW118698   6.581   3.623   3.013
 5933SOL    HW218699   6.571   3.760   2.925
 5934SOL     OW18700   3.565   3.754   2.938
 5934SOL    HW118701   3.648   3.700   2.942
 5934SOL    HW218702   3.587   3.851   2.953
 5935SOL     OW18703   4.005   3.369   4.127
 5935SOL    HW118704   3.992   3.318   4.042
 5935SOL    HW218705   3.929   3.349   4.189
 5936SOL     OW18706   4.886   5.632   6.584
 5936SOL    HW118707   4.820   5.697   6.545
 5936SOL    HW218708   4.923   5.669   6.669
 5937SOL     OW18709   1.933   3.227   1.078
 5937SOL    HW118710   1.862   3.240   1.009
 5937SOL    HW218711   1.984   3.144   1.059
 5938SOL     OW18712   1.863   4.285   2.472
 5938SOL    HW118713   1.784   4.345   2.487
 5938SOL    HW218714   1.849   4.232   2.388
 5939SOL     OW18715   3.770   6.929   3.022
 5939SOL    HW118716   3.717   6.848   2.996
 5939SOL    HW218717   3.735   6.965   3.109
 5940SOL     OW18718   3.688   5.823   3.023
 5940SOL    HW118719   3.632   5.904   3.042
 5940SOL    HW218720   3.780   5.851   2.998
 5941SOL     OW18721   6.018   4.950   2.323
 5941SOL    HW118722   6.087   4.879   2.312
 5941SOL    HW218723   6.046   5.013   2.396
 5942SOL     OW18724   4.475   2.554   6.193
 5942SOL    HW118725   4.549   2.540   6.259
 5942SOL    HW218726   4.472   2.477   6.130
 5943SOL     OW18727   1.622   5.837   0.475
 5943SOL    HW118728   1.524   5.852   0.463
 5943SOL    HW218729   1.665   5.923   0.505
 5944SOL     OW18730   5.516   1.953   2.729
 5944SOL    HW118731   5.554   2.043   2.704
 5944SOL    HW218732   5.589   1.894   2.762
 5945SOL     OW18733   6.648   5.313   5.823
 5945SOL    HW118734   6.726   5.289   5.765
 5945SOL    HW218735   6.620   5.233   5.877
 5946SOL     OW18736   4.457   3.153   5.324
 5946SOL    HW118737   4.367   3.157   5.367
 5946SOL    HW218738   4.447   3.164   5.225
 5947SOL     OW18739   4.267   3.625   1.496
 5947SOL    HW118740   4.367   3.631   1.495
 5947SOL    HW218741   4.232   3.656   1.584
 5948SOL     OW18742   3.382   5.095   2.339
 5948SOL    HW118743   3.287   5.118   2.362
 5948SOL    HW218744   3.435   5.084   2.423
 5949SOL     OW18745   4.446   4.603   1.617
 5949SOL    HW118746   4.373   4.646   1.671
 5949SOL    HW218747   4.483   4.524   1.667
 5950SOL     OW18748   6.525   2.572   4.200
 5950SOL    HW118749   6.463   2.518   4.143
 5950SOL    HW218750   6.474   2.618   4.273
 5951SOL     OW18751   2.293   5.587   3.518
 5951SOL    HW118752   2.231   5.509   3.530
 5951SOL    HW218753   2.335   5.581   3.427
 5952SOL     OW18754   0.388   6.650   4.400
 5952SOL    HW118755   0.401   6.579   4.469
 5952SOL    HW218756   0.346   6.610   4.318
 5953SOL     OW18757   7.004   3.167   6.416
 5953SOL    HW118758   6.941   3.139   6.489
 5953SOL    HW218759   0.012   3.262   6.429
 5954SOL     OW18760   0.496   5.076   6.801
 5954SOL    HW118761   0.466   4.981   6.808
 5954SOL    HW218762   0.457   5.117   6.719
 5955SOL     OW18763   5.019   5.046   1.870
 5955SOL    HW118764   4.997   5.000   1.784
 5955SOL    HW218765   5.081   5.122   1.852
 5956SOL     OW18766   5.708   2.463   6.942
 5956SOL    HW118767   5.613   2.490   6.927
 5956SOL    HW218768   5.741   2.412   6.863
 5957SOL     OW18769   5.778   6.312   6.189
 5957SOL    HW118770   5.825   6.236   6.235
 5957SOL    HW218771   5.680   6.293   6.184
 5958SOL     OW18772   6.952   5.468   2.029
 5958SOL    HW118773   6.895   5.386   2.036
 5958SOL    HW218774   6.894   5.549   2.038
 5959SOL     OW18775   2.112   1.646   6.044
 5959SOL    HW118776   2.134   1.554   6.015
 5959SOL    HW218777   2.162   1.712   5.988
 5960SOL     OW18778   3.175   0.594   3.560
 5960SOL    HW118779   3.196   0.496   3.562
 5960SOL    HW218780   3.130   0.617   3.474
 5961SOL     OW18781   3.114   0.480   5.327
 5961SOL    HW118782   3.213   0.495   5.339
 5961SOL    HW218783   3.089   0.500   5.233
 5962SOL     OW18784   5.203   5.157   2.290
 5962SOL    HW118785   5.286   5.102   2.280
 5962SOL    HW218786   5.205   5.204   2.379
 5963SOL     OW18787   4.011   3.702   2.299
 5963SOL    HW118788   4.056   3.648   2.370
 5963SOL    HW218789   3.993   3.794   2.334
 5964SOL     OW18790   0.675   5.377   5.414
 5964SOL    HW118791   0.741   5.316   5.458
 5964SOL    HW218792   0.583   5.358   5.450
 5965SOL     OW18793   2.931   2.617   5.585
 5965SOL    HW118794   2.930   2.683   5.660
 5965SOL    HW218795   2.966   2.530   5.618
 5966SOL     OW18796   2.554   5.652   4.126
 5966SOL    HW118797   2.621   5.725   4.140
 5966SOL    HW218798   2.602   5.564   4.119
 5967SOL     OW18799   4.926   6.551   2.518
 5967SOL    HW118800   4.850   6.492   2.492
 5967SOL    HW218801   4.931   6.629   2.455
 5968SOL     OW18802   6.973   2.664   4.103
 5968SOL    HW118803   0.002   2.659   4.015
 5968SOL    HW218804   6.902   2.593   4.108
 5969SOL     OW18805   6.084   3.720   3.498
 5969SOL    HW118806   5.998   3.713   3.449
 5969SOL    HW218807   6.151   3.657   3.458
 5970SOL     OW18808   1.184   3.041   3.079
 5970SOL    HW118809   1.151   3.087   2.997
 5970SOL    HW218810   1.205   3.110   3.149
 5971SOL     OW18811   2.345   0.151   2.508
 5971SOL    HW118812   2.289   0.145   2.425
 5971SOL    HW218813   2.305   0.095   2.580
 5972SOL     OW18814   4.843   6.451   0.379
 5972SOL    HW118815   4.819   6.464   0.476
 5972SOL    HW218816   4.830   6.536   0.329
 5973SOL     OW18817   1.234   4.674   3.413
 5973SOL    HW118818   1.313   4.702   3.359
 5973SOL    HW218819   1.197   4.588   3.377
 5974SOL     OW18820   0.451   3.860   0.039
 5974SOL    HW118821   0.547   3.842   0.060
 5974SOL    HW218822   0.418   3.935   0.097
 5975SOL     OW18823   2.508   2.858   0.711
 5975SOL    HW118824   2.516   2.764   0.678
 5975SOL    HW218825   2.427   2.865   0.770
 5976SOL     OW18826   3.039   3.148   5.237
 5976SOL    HW118827   3.128   3.191   5.219
 5976SOL    HW218828   2.974   3.177   5.167
 5977SOL     OW18829   1.050   3.890   2.450
 5977SOL    HW118830   1.020   3.985   2.458
 5977SOL    HW218831   1.083   3.858   2.538
 5978SOL     OW18832   5.530   5.065   1.681
 5978SOL    HW118833   5.487   5.011   1.753
 5978SOL    HW218834   5.478   5.054   1.596
 5979SOL     OW18835   6.760   0.626   3.642
 5979SOL    HW118836   6.815   0.545   3.621
 5979SOL    HW218837   6.814   0.689   3.698
 5980SOL     OW18838   5.968   4.056   0.164
 5980SOL    HW118839   5.980   4.084   0.259
 5980SOL    HW218840   5.978   4.136   0.104
 5981SOL     OW18841   5.303   1.007   2.303
 5981SOL    HW118842   5.291   1.022   2.401
 5981SOL    HW218843   5.299   1.094   2.255
 5982SOL     OW18844   6.567   1.779   6.191
 5982SOL    HW118845   6.627   1.856   6.170
 5982SOL    HW218846   6.471   1.808   6.181
 5983SOL     OW18847   1.617   0.953   4.458
 5983SOL    HW118848   1.543   1.018   4.473
 5983SOL    HW218849   1.630   0.897   4.540
 5984SOL     OW18850   0.220   6.271   5.142
 5984SOL    HW118851   0.167   6.330   5.081
 5984SOL    HW218852   0.159   6.231   5.211
 5985SOL     OW18853   4.373   1.732   3.970
 5985SOL    HW118854   4.286   1.707   4.011
 5985SOL    HW218855   4.356   1.790   3.890
 5986SOL     OW18856   3.407   3.160   2.374
 5986SOL    HW118857   3.408   3.188   2.470
 5986SOL    HW218858   3.395   3.061   2.369
 5987SOL     OW18859   3.913   6.773   4.897
 5987SOL    HW118860   3.996   6.804   4.944
 5987SOL    HW218861   3.855   6.852   4.875
 5988SOL     OW18862   3.997   6.492   4.216
 5988SOL    HW118863   3.993   6.558   4.292
 5988SOL    HW218864   3.932   6.418   4.232
 5989SOL     OW18865   3.140   0.707   5.739
 5989SOL    HW118866   3.208   0.756   5.793
 5989SOL    HW218867   3.154   0.727   5.642
 5990SOL     OW18868   3.218   4.597   1.117
 5990SOL    HW118869   3.160   4.614   1.038
 5990SOL    HW218870   3.162   4.563   1.193
 5991SOL     OW18871   2.911   5.014   4.926
 5991SOL    HW118872   2.821   4.972   4.911
 5991SOL    HW218873   2.982   4.947   4.907
 5992SOL     OW18874   4.419   0.359   3.758
 5992SOL    HW118875   4.461   0.272   3.783
 5992SOL    HW218876   4.474   0.403   3.686
 5993SOL     OW18877   2.549   5.977   5.203
 5993SOL    HW118878   2.450   5.989   5.217
 5993SOL    HW218879   2.570   5.880   5.200
 5994SOL     OW18880   6.478   2.286   2.926
 5994SOL    HW118881   6.469   2.187   2.939
 5994SOL    HW218882   6.420   2.315   2.849
 5995SOL     OW18883   0.049   4.908   1.124
 5995SOL    HW118884   0.006   4.828   1.082
 5995SOL    HW218885   0.134   4.881   1.169
 5996SOL     OW18886   6.999   5.235   5.334
 5996SOL    HW118887   0.009   5.145   5.301
 5996SOL    HW218888   0.038   5.305   5.291
 5997SOL     OW18889   0.421   6.721   2.314
 5997SOL    HW118890   0.510   6.762   2.293
 5997SOL    HW218891   0.428   6.622   2.303
 5998SOL     OW18892   5.355   2.259   2.765
 5998SOL    HW118893   5.373   2.356   2.756
 5998SOL    HW218894   5.258   2.241   2.749
 5999SOL     OW18895   1.173   1.651   2.545
 5999SOL    HW118896   1.213   1.568   2.586
 5999SOL    HW218897   1.176   1.644   2.446
 6000SOL     OW18898   4.876   5.696   2.173
 6000SOL    HW118899   4.865   5.697   2.074
 6000SOL    HW218900   4.867   5.789   2.209
 6001SOL     OW18901   7.017   2.222   6.914
 6001SOL    HW118902   6.940   2.165   6.941
 6001SOL    HW218903   0.068   2.164   6.869
 6002SOL     OW18904   2.104   0.391   1.549
 6002SOL    HW118905   2.039   0.363   1.619
 6002SOL    HW218906   2.107   0.321   1.477
 6003SOL     OW18907   4.774   4.277   4.782
 6003SOL    HW118908   4.691   4.320   4.819
 6003SOL    HW218909   4.845   4.345   4.771
 6004SOL     OW18910   0.248   3.388   2.643
 6004SOL    HW118911   0.335   3.390   2.595
 6004SOL    HW218912   0.182   3.333   2.592
 6005SOL     OW18913   2.969   5.888   2.977
 6005SOL    HW118914   2.988   5.878   3.074
 6005SOL    HW218915   3.044   5.937   2.933
 6006SOL     OW18916   2.750   6.975   6.763
 6006SOL    HW118917   2.769   6.902   6.697
 6006SOL    HW218918   2.795   6.954   6.850
 6007SOL     OW18919   5.784   2.687   4.370
 6007SOL    HW118920   5.727   2.607   4.389
 6007SOL    HW218921   5.880   2.662   4.381
 6008SOL     OW18922   2.984   4.642   6.585
 6008SOL    HW118923   2.902   4.586   6.575
 6008SOL    HW218924   2.986   4.682   6.677
 6009SOL     OW18925   2.744   1.942   4.557
 6009SOL    HW118926   2.647   1.958   4.539
 6009SOL    HW218927   2.763   1.843   4.552
 6010SOL     OW18928   1.811   3.648   3.137
 6010SOL    HW118929   1.910   3.664   3.133
 6010SOL    HW218930   1.769   3.680   3.053
 6011SOL     OW18931   5.053   3.373   2.649
 6011SOL    HW118932   4.996   3.406   2.574
 6011SOL    HW218933   5.005   3.300   2.698
 6012SOL     OW18934   6.923   3.152   0.866
 6012SOL    HW118935   6.911   3.101   0.781
 6012SOL    HW218936   6.888   3.245   0.855
 6013SOL     OW18937   5.496   1.014   2.632
 6013SOL    HW118938   5.443   0.934   2.604
 6013SOL    HW218939   5.448   1.061   2.706
 6014SOL     OW18940   6.132   0.542   0.543
 6014SOL    HW118941   6.203   0.472   0.558
 6014SOL    HW218942   6.046   0.497   0.519
 6015SOL     OW18943   6.005   1.744   4.230
 6015SOL    HW118944   6.099   1.750   4.262
 6015SOL    HW218945   6.002   1.759   4.131
 6016SOL     OW18946   1.975   0.271   5.308
 6016SOL    HW118947   1.955   0.252   5.405
 6016SOL    HW218948   2.072   0.295   5.298
 6017SOL     OW18949   6.293   4.916   2.617
 6017SOL    HW118950   6.340   4.883   2.699
 6017SOL    HW218951   6.309   4.852   2.541
 6018SOL     OW18952   2.700   3.764   0.923
 6018SOL    HW118953   2.782   3.776   0.866
 6018SOL    HW218954   2.664   3.672   0.909
 6019SOL     OW18955   3.516   0.102   4.263
 6019SOL    HW118956   3.543   0.128   4.356
 6019SOL    HW218957   3.557   0.165   4.197
 6020SOL     OW18958   3.945   0.878   2.952
 6020SOL    HW118959   3.899   0.906   3.037
 6020SOL    HW218960   3.884   0.893   2.874
 6021SOL     OW18961   4.433   1.360   2.635
 6021SOL    HW118962   4.410   1.354   2.538
 6021SOL    HW218963   4.379   1.293   2.686
 6022SOL     OW18964   4.272   1.235   4.013
 6022SOL    HW118965   4.208   1.167   4.048
 6022SOL    HW218966   4.337   1.259   4.084
 6023SOL     OW18967   7.000   1.315   2.504
 6023SOL    HW118968   6.984   1.290   2.599
 6023SOL    HW218969   0.063   1.374   2.498
 6024SOL     OW18970   0.730   4.707   1.983
 6024SOL    HW118971   0.756   4.796   2.019
 6024SOL    HW218972   0.698   4.648   2.057
 6025SOL     OW18973   4.754   1.709   1.200
 6025SOL    HW118974   4.723   1.742   1.111
 6025SOL    HW218975   4.844   1.665   1.190
 6026SOL     OW18976   6.617   4.727   5.221
 6026SOL    HW118977   6.717   4.724   5.213
 6026SOL    HW218978   6.591   4.801   5.284
 6027SOL     OW18979   3.000   3.474   0.166
 6027SOL    HW118980   2.951   3.548   0.212
 6027SOL    HW218981   3.003   3.394   0.226
 6028SOL     OW18982   1.240   3.344   0.373
 6028SOL    HW118983   1.338   3.358   0.387
 6028SOL    HW218984   1.191   3.354   0.459
 6029SOL     OW18985   1.973   5.996   1.371
 6029SOL    HW118986   1.993   5.929   1.300
 6029SOL    HW218987   1.995   5.957   1.460
 6030SOL     OW18988   1.645   0.607   1.844
 6030SOL    HW118989   1.605   0.692   1.878
 6030SOL    HW218990   1.707   0.628   1.768
 6031SOL     OW18991   5.138   0.066   4.887
 6031SOL    HW118992   5.199   7.009   4.915
 6031SOL    HW218993   5.130   0.066   4.787
 6032SOL     OW18994   0.612   3.339   2.722
 6032SOL    HW118995   0.582   3.266   2.660
 6032SOL    HW218996   0.626   3.302   2.814
 6033SOL     OW18997   0.950   0.834   3.922
 6033SOL    HW118998   0.938   0.933   3.932
 6033SOL    HW218999   0.867   0.787   3.951
 6034SOL     OW19000   1.742   4.328   5.063
 6034SOL    HW119001   1.827   4.381   5.074
 6034SOL    HW219002   1.744   4.249   5.124
 6035SOL     OW19003   5.975   0.670   4.175
 6035SOL    HW119004   5.948   0.624   4.091
 6035SOL    HW219005   5.895   0.680   4.234
 6036SOL     OW19006   0.709   6.283   5.222
 6036SOL    HW119007   0.692   6.378   5.197
 6036SOL    HW219008   0.781   6.245   5.164
 6037SOL     OW19009   5.931   5.989   4.797
 6037SOL    HW119010   5.915   5.967   4.701
 6037SOL    HW219011   5.847   5.972   4.849
 6038SOL     OW19012   5.249   3.590   6.285
 6038SOL    HW119013   5.237   3.512   6.224
 6038SOL    HW219014   5.183   3.583   6.360
 6039SOL     OW19015   3.471   3.536   2.521
 6039SOL    HW119016   3.521   3.619   2.547
 6039SOL    HW219017   3.475   3.525   2.421
 6040SOL     OW19018   0.170   1.890   0.208
 6040SOL    HW119019   0.150   1.988   0.214
 6040SOL    HW219020   0.121   1.842   0.281
 6041SOL     OW19021   1.181   2.255   7.015
 6041SOL    HW119022   1.220   2.165   0.011
 6041SOL    HW219023   1.198   2.312   0.078
 6042SOL     OW19024   4.828   5.205   3.275
 6042SOL    HW119025   4.777   5.120   3.269
 6042SOL    HW219026   4.833   5.248   3.185
 6043SOL     OW19027   0.956   4.460   4.372
 6043SOL    HW119028   0.885   4.415   4.318
 6043SOL    HW219029   0.914   4.507   4.450
 6044SOL     OW19030   0.898   0.868   1.150
 6044SOL    HW119031   0.832   0.872   1.225
 6044SOL    HW219032   0.980   0.920   1.175
 6045SOL     OW19033   6.997   3.806   2.154
 6045SOL    HW119034   0.076   3.808   2.125
 6045SOL    HW219035   6.974   3.714   2.186
 6046SOL     OW19036   3.148   2.309   0.040
 6046SOL    HW119037   3.115   2.396   0.076
 6046SOL    HW219038   3.192   2.257   0.112
 6047SOL     OW19039   6.510   0.007   4.306
 6047SOL    HW119040   6.521   6.948   4.370
 6047SOL    HW219041   6.451   0.076   4.348
 6048SOL     OW19042   4.593   6.639   5.088
 6048SOL    HW119043   4.516   6.612   5.146
 6048SOL    HW219044   4.631   6.558   5.043
 6049SOL     OW19045   6.155   4.600   7.010
 6049SOL    HW119046   6.148   4.699   0.007
 6049SOL    HW219047   6.162   4.554   0.080
 6050SOL     OW19048   4.406   4.841   5.550
 6050SOL    HW119049   4.459   4.922   5.525
 6050SOL    HW219050   4.369   4.852   5.642
 6051SOL     OW19051   1.652   1.772   2.778
 6051SOL    HW119052   1.606   1.848   2.822
 6051SOL    HW219053   1.693   1.802   2.692
 6052SOL     OW19054   0.204   0.781   0.805
 6052SOL    HW119055   0.146   0.839   0.862
 6052SOL    HW219056   0.292   0.825   0.790
 6053SOL     OW19057   1.733   6.641   6.757
 6053SOL    HW119058   1.790   6.684   6.827
 6053SOL    HW219059   1.790   6.606   6.684
 6054SOL     OW19060   2.323   4.152   0.519
 6054SOL    HW119061   2.325   4.053   0.535
 6054SOL    HW219062   2.330   4.170   0.421
 6055SOL     OW19063   4.974   0.833   4.679
 6055SOL    HW119064   5.026   0.807   4.760
 6055SOL    HW219065   4.945   0.928   4.687
 6056SOL     OW19066   4.807   1.867   6.625
 6056SOL    HW119067   4.873   1.918   6.682
 6056SOL    HW219068   4.788   1.919   6.542
 6057SOL     OW19069   2.913   1.144   4.996
 6057SOL    HW119070   2.872   1.066   4.949
 6057SOL    HW219071   3.009   1.125   5.015
 6058SOL     OW19072   5.906   2.064   4.026
 6058SOL    HW119073   5.821   2.096   3.983
 6058SOL    HW219074   5.886   2.035   4.119
 6059SOL     OW19075   6.127   5.187   6.835
 6059SOL    HW119076   6.102   5.131   6.756
 6059SOL    HW219077   6.045   5.232   6.871
 6060SOL     OW19078   4.285   5.644   5.613
 6060SOL    HW119079   4.365   5.589   5.636
 6060SOL    HW219080   4.208   5.617   5.672
 6061SOL     OW19081   2.917   1.661   6.160
 6061SOL    HW119082   3.003   1.648   6.209
 6061SOL    HW219083   2.842   1.624   6.215
 6062SOL     OW19084   1.982   0.271   4.505
 6062SOL    HW119085   2.073   0.275   4.462
 6062SOL    HW219086   1.957   0.362   4.537
 6063SOL     OW19087   4.126   0.508   6.293
 6063SOL    HW119088   4.148   0.545   6.203
 6063SOL    HW219089   4.205   0.458   6.329
 6064SOL     OW19090   1.677   5.560   3.504
 6064SOL    HW119091   1.671   5.601   3.413
 6064SOL    HW219092   1.675   5.461   3.496
 6065SOL     OW19093   6.995   0.271   0.608
 6065SOL    HW119094   6.938   0.271   0.526
 6065SOL    HW219095   0.072   0.291   0.582
 6066SOL     OW19096   4.270   2.623   0.518
 6066SOL    HW119097   4.181   2.591   0.552
 6066SOL    HW219098   4.260   2.654   0.423
 6067SOL     OW19099   6.205   1.448   6.616
 6067SOL    HW119100   6.240   1.519   6.555
 6067SOL    HW219101   6.105   1.445   6.612
 6068SOL     OW19102   4.521   2.478   4.666
 6068SOL    HW119103   4.466   2.463   4.748
 6068SOL    HW219104   4.604   2.423   4.671
 6069SOL     OW19105   6.651   4.335   4.658
 6069SOL    HW119106   6.607   4.334   4.747
 6069SOL    HW219107   6.750   4.320   4.669
 6070SOL     OW19108   4.093   2.427   6.132
 6070SOL    HW119109   4.146   2.390   6.056
 6070SOL    HW219110   4.125   2.520   6.153
 6071SOL     OW19111   3.991   6.543   5.607
 6071SOL    HW119112   3.987   6.633   5.563
 6071SOL    HW219113   3.991   6.472   5.537
 6072SOL     OW19114   0.176   2.298   1.361
 6072SOL    HW119115   0.234   2.362   1.312
 6072SOL    HW219116   0.088   2.341   1.382
 6073SOL     OW19117   6.450   2.721   0.605
 6073SOL    HW119118   6.352   2.735   0.600
 6073SOL    HW219119   6.489   2.729   0.513
 6074SOL     OW19120   0.789   0.020   5.081
 6074SOL    HW119121   0.717   6.991   5.030
 6074SOL    HW219122   0.876   6.991   5.066
 6075SOL     OW19123   5.668   3.994   0.164
 6075SOL    HW119124   5.628   4.052   0.094
 6075SOL    HW219125   5.767   4.011   0.170
 6076SOL     OW19126   2.145   5.718   4.180
 6076SOL    HW119127   2.060   5.767   4.161
 6076SOL    HW219128   2.179   5.678   4.095
 6077SOL     OW19129   6.021   6.293   2.266
 6077SOL    HW119130   6.115   6.291   2.233
 6077SOL    HW219131   6.014   6.237   2.349
 6078SOL     OW19132   2.601   4.558   4.138
 6078SOL    HW119133   2.621   4.577   4.042
 6078SOL    HW219134   2.530   4.488   4.144
 6079SOL     OW19135   2.191   1.712   6.618
 6079SOL    HW119136   2.170   1.639   6.553
 6079SOL    HW219137   2.180   1.800   6.573
 6080SOL     OW19138   5.806   2.619   1.495
 6080SOL    HW119139   5.807   2.532   1.445
 6080SOL    HW219140   5.802   2.695   1.431
 6081SOL     OW19141   6.722   3.533   3.688
 6081SOL    HW119142   6.712   3.629   3.714
 6081SOL    HW219143   6.658   3.476   3.740
 6082SOL     OW19144   4.056   1.056   3.595
 6082SOL    HW119145   4.129   1.063   3.528
 6082SOL    HW219146   4.032   1.147   3.629
 6083SOL     OW19147   1.648   6.294   0.038
 6083SOL    HW119148   1.571   6.327   0.094
 6083SOL    HW219149   1.734   6.315   0.084
 6084SOL     OW19150   6.997   5.549   5.567
 6084SOL    HW119151   0.034   5.634   5.568
 6084SOL    HW219152   6.900   5.572   5.562
 6085SOL     OW19153   5.335   3.714   0.503
 6085SOL    HW119154   5.403   3.772   0.458
 6085SOL    HW219155   5.375   3.676   0.587
 6086SOL     OW19156   3.056   1.814   4.248
 6086SOL    HW119157   3.128   1.879   4.274
 6086SOL    HW219158   3.042   1.818   4.150
 6087SOL     OW19159   5.395   6.695   6.733
 6087SOL    HW119160   5.331   6.715   6.658
 6087SOL    HW219161   5.349   6.709   6.821
 6088SOL     OW19162   1.222   0.101   5.105
 6088SOL    HW119163   1.150   0.064   5.046
 6088SOL    HW219164   1.244   0.194   5.075
 6089SOL     OW19165   6.995   3.625   0.824
 6089SOL    HW119166   6.988   3.709   0.770
 6089SOL    HW219167   7.000   3.648   0.921
 6090SOL     OW19168   0.992   5.187   5.075
 6090SOL    HW119169   0.970   5.117   5.143
 6090SOL    HW219170   0.947   5.164   4.989
 6091SOL     OW19171   6.605   1.864   1.950
 6091SOL    HW119172   6.625   1.826   1.860
 6091SOL    HW219173   6.596   1.790   2.017
 6092SOL     OW19174   2.085   1.813   2.248
 6092SOL    HW119175   1.991   1.845   2.237
 6092SOL    HW219176   2.092   1.719   2.215
 6093SOL     OW19177   1.367   2.613   0.924
 6093SOL    HW119178   1.379   2.536   0.986
 6093SOL    HW219179   1.270   2.634   0.915
 6094SOL     OW19180   1.002   1.029   1.493
 6094SOL    HW119181   0.980   0.944   1.542
 6094SOL    HW219182   1.031   1.008   1.400
 6095SOL     OW19183   5.977   3.259   6.451
 6095SOL    HW119184   5.980   3.241   6.353
 6095SOL    HW219185   6.056   3.314   6.477
 6096SOL     OW19186   3.859   2.194   3.517
 6096SOL    HW119187   3.851   2.293   3.520
 6096SOL    HW219188   3.793   2.157   3.452
 6097SOL     OW19189   2.833   1.937   2.289
 6097SOL    HW119190   2.763   1.873   2.260
 6097SOL    HW219191   2.912   1.887   2.324
 6098SOL     OW19192   1.901   2.454   5.804
 6098SOL    HW119193   1.945   2.520   5.743
 6098SOL    HW219194   1.937   2.362   5.786
 6099SOL     OW19195   6.105   5.947   5.090
 6099SOL    HW119196   6.184   6.006   5.106
 6099SOL    HW219197   6.102   5.920   4.994
 6100SOL     OW19198   6.627   2.369   0.107
 6100SOL    HW119199   6.582   2.302   0.048
 6100SOL    HW219200   6.577   2.376   0.193
 6101SOL     OW19201   6.516   1.164   5.405
 6101SOL    HW119202   6.464   1.187   5.323
 6101SOL    HW219203   6.481   1.078   5.443
 6102SOL     OW19204   2.540   0.420   4.448
 6102SOL    HW119205   2.551   0.411   4.349
 6102SOL    HW219206   2.589   0.347   4.494
 6103SOL     OW19207   6.576   6.823   5.555
 6103SOL    HW119208   6.546   6.896   5.617
 6103SOL    HW219209   6.495   6.778   5.515
 6104SOL     OW19210   6.701   1.948   6.523
 6104SOL    HW119211   6.703   1.965   6.425
 6104SOL    HW219212   6.654   2.023   6.569
 6105SOL     OW19213   3.325   5.828   4.856
 6105SOL    HW119214   3.228   5.809   4.839
 6105SOL    HW219215   3.380   5.785   4.784
 6106SOL     OW19216   3.350   5.199   5.649
 6106SOL    HW119217   3.311   5.130   5.588
 6106SOL    HW219218   3.338   5.290   5.609
 6107SOL     OW19219   2.038   4.659   5.157
 6107SOL    HW119220   2.050   4.731   5.225
 6107SOL    HW219221   2.116   4.596   5.161
 6108SOL     OW19222   0.503   1.945   4.715
 6108SOL    HW119223   0.547   1.928   4.627
 6108SOL    HW219224   0.446   1.867   4.740
 6109SOL     OW19225   5.684   4.069   1.133
 6109SOL    HW119226   5.731   4.148   1.093
 6109SOL    HW219227   5.631   4.023   1.061
 6110SOL     OW19228   3.525   1.304   4.621
 6110SOL    HW119229   3.584   1.243   4.567
 6110SOL    HW219230   3.561   1.397   4.618
 6111SOL     OW19231   1.709   5.192   3.148
 6111SOL    HW119232   1.679   5.106   3.190
 6111SOL    HW219233   1.756   5.172   3.062
 6112SOL     OW19234   0.376   1.560   2.860
 6112SOL    HW119235   0.383   1.466   2.827
 6112SOL    HW219236   0.464   1.606   2.849
 6113SOL     OW19237   1.704   6.696   5.618
 6113SOL    HW119238   1.750   6.778   5.585
 6113SOL    HW219239   1.606   6.701   5.595
 6114SOL     OW19240   4.919   5.574   0.518
 6114SOL    HW119241   4.964   5.498   0.565
 6114SOL    HW219242   4.980   5.654   0.519
 6115SOL     OW19243   5.399   5.388   2.425
 6115SOL    HW119244   5.417   5.293   2.451
 6115SOL    HW219245   5.474   5.446   2.455
 6116SOL     OW19246   3.947   1.198   1.872
 6116SOL    HW119247   3.929   1.263   1.946
 6116SOL    HW219248   3.905   1.231   1.788
 6117SOL     OW19249   5.537   6.858   4.622
 6117SOL    HW119250   5.551   6.771   4.668
 6117SOL    HW219251   5.442   6.888   4.636
 6118SOL     OW19252   6.055   0.533   3.653
 6118SOL    HW119253   6.077   0.436   3.663
 6118SOL    HW219254   6.088   0.583   3.733
 6119SOL     OW19255   6.527   5.336   4.625
 6119SOL    HW119256   6.520   5.245   4.665
 6119SOL    HW219257   6.585   5.332   4.543
 6120SOL     OW19258   2.784   0.934   3.008
 6120SOL    HW119259   2.713   0.890   2.952
 6120SOL    HW219260   2.786   0.893   3.099
 6121SOL     OW19261   0.179   2.726   4.437
 6121SOL    HW119262   0.188   2.745   4.535
 6121SOL    HW219263   0.100   2.667   4.422
 6122SOL     OW19264   4.413   5.206   3.307
 6122SOL    HW119265   4.365   5.273   3.251
 6122SOL    HW219266   4.424   5.242   3.400
 6123SOL     OW19267   6.005   1.768   2.344
 6123SOL    HW119268   6.004   1.690   2.407
 6123SOL    HW219269   6.099   1.799   2.331
 6124SOL     OW19270   3.134   0.291   5.641
 6124SOL    HW119271   3.185   0.231   5.702
 6124SOL    HW219272   3.111   0.241   5.557
 6125SOL     OW19273   2.097   6.025   1.897
 6125SOL    HW119274   2.037   6.015   1.817
 6125SOL    HW219275   2.139   6.116   1.896
 6126SOL     OW19276   5.228   5.411   2.639
 6126SOL    HW119277   5.131   5.394   2.622
 6126SOL    HW219278   5.280   5.398   2.554
 6127SOL     OW19279   2.215   5.625   1.276
 6127SOL    HW119280   2.232   5.553   1.208
 6127SOL    HW219281   2.164   5.587   1.353
 6128SOL     OW19282   5.257   1.939   0.212
 6128SOL    HW119283   5.275   1.857   0.268
 6128SOL    HW219284   5.236   2.016   0.273
 6129SOL     OW19285   6.157   4.526   3.442
 6129SOL    HW119286   6.102   4.530   3.525
 6129SOL    HW219287   6.111   4.578   3.370
 6130SOL     OW19288   5.279   3.526   2.631
 6130SOL    HW119289   5.206   3.465   2.660
 6130SOL    HW219290   5.282   3.530   2.531
 6131SOL     OW19291   5.777   1.184   5.383
 6131SOL    HW119292   5.770   1.107   5.447
 6131SOL    HW219293   5.685   1.219   5.363
 6132SOL     OW19294   4.674   2.490   0.939
 6132SOL    HW119295   4.621   2.573   0.955
 6132SOL    HW219296   4.687   2.477   0.841
 6133SOL     OW19297   1.213   4.496   1.055
 6133SOL    HW119298   1.224   4.444   0.970
 6133SOL    HW219299   1.120   4.485   1.089
 6134SOL     OW19300   4.599   3.882   6.373
 6134SOL    HW119301   4.551   3.880   6.461
 6134SOL    HW219302   4.533   3.875   6.298
 6135SOL     OW19303   5.517   0.394   1.341
 6135SOL    HW119304   5.600   0.343   1.360
 6135SOL    HW219305   5.529   0.490   1.366
 6136SOL     OW19306   0.703   2.265   1.426
 6136SOL    HW119307   0.660   2.257   1.515
 6136SOL    HW219308   0.707   2.362   1.399
 6137SOL     OW19309   2.998   6.514   6.427
 6137SOL    HW119310   3.037   6.567   6.352
 6137SOL    HW219311   2.984   6.420   6.398
 6138SOL     OW19312   3.998   6.054   2.693
 6138SOL    HW119313   4.083   6.102   2.672
 6138SOL    HW219314   3.944   6.042   2.610
 6139SOL     OW19315   2.039   4.896   4.476
 6139SOL    HW119316   1.952   4.940   4.454
 6139SOL    HW219317   2.104   4.913   4.401
 6140SOL     OW19318   1.802   6.416   0.858
 6140SOL    HW119319   1.749   6.394   0.939
 6140SOL    HW219320   1.891   6.370   0.862
 6141SOL     OW19321   6.296   5.845   6.101
 6141SOL    HW119322   6.361   5.774   6.127
 6141SOL    HW219323   6.327   5.933   6.135
 6142SOL     OW19324   0.187   4.482   1.688
 6142SOL    HW119325   0.253   4.417   1.726
 6142SOL    HW219326   0.131   4.520   1.761
 6143SOL     OW19327   5.420   5.279   6.424
 6143SOL    HW119328   5.412   5.368   6.379
 6143SOL    HW219329   5.338   5.225   6.405
 6144SOL     OW19330   0.741   4.779   3.913
 6144SOL    HW119331   0.768   4.712   3.982
 6144SOL    HW219332   0.658   4.748   3.866
 6145SOL     OW19333   5.379   5.674   2.831
 6145SOL    HW119334   5.384   5.732   2.912
 6145SOL    HW219335   5.291   5.627   2.829
 6146SOL     OW19336   6.018   1.271   3.607
 6146SOL    HW119337   5.931   1.308   3.638
 6146SOL    HW219338   6.009   1.173   3.590
 6147SOL     OW19339   1.792   3.430   2.893
 6147SOL    HW119340   1.848   3.444   2.975
 6147SOL    HW219341   1.844   3.377   2.826
 6148SOL     OW19342   6.225   6.340   4.241
 6148SOL    HW119343   6.196   6.245   4.228
 6148SOL    HW219344   6.175   6.380   4.317
 6149SOL     OW19345   2.334   6.111   3.007
 6149SOL    HW119346   2.307   6.206   2.993
 6149SOL    HW219347   2.358   6.098   3.104
 6150SOL     OW19348   4.730   5.669   5.910
 6150SOL    HW119349   4.823   5.635   5.896
 6150SOL    HW219350   4.664   5.605   5.871
 6151SOL     OW19351   5.147   2.504   5.601
 6151SOL    HW119352   5.227   2.554   5.568
 6151SOL    HW219353   5.092   2.474   5.523
 6152SOL     OW19354   6.656   4.379   6.563
 6152SOL    HW119355   6.754   4.394   6.575
 6152SOL    HW219356   6.617   4.452   6.507
 6153SOL     OW19357   4.247   3.233   1.323
 6153SOL    HW119358   4.210   3.168   1.390
 6153SOL    HW219359   4.202   3.322   1.334
 6154SOL     OW19360   5.665   3.235   2.650
 6154SOL    HW119361   5.584   3.288   2.672
 6154SOL    HW219362   5.739   3.259   2.713
 6155SOL     OW19363   0.135   3.880   5.366
 6155SOL    HW119364   0.168   3.974   5.353
 6155SOL    HW219365   0.146   3.829   5.281
 6156SOL     OW19366   6.338   7.003   3.896
 6156SOL    HW119367   6.338   6.946   3.979
 6156SOL    HW219368   6.432   0.012   3.874
 6157SOL     OW19369   2.647   1.118   3.876
 6157SOL    HW119370   2.672   1.143   3.782
 6157SOL    HW219371   2.592   1.191   3.916
 6158SOL     OW19372   4.910   1.378   5.473
 6158SOL    HW119373   5.009   1.364   5.468
 6158SOL    HW219374   4.865   1.327   5.399
 6159SOL     OW19375   5.274   3.339   6.570
 6159SOL    HW119376   5.363   3.295   6.558
 6159SOL    HW219377   5.282   3.413   6.637
 6160SOL     OW19378   6.098   6.003   1.928
 6160SOL    HW119379   6.068   5.909   1.911
 6160SOL    HW219380   6.021   6.066   1.912
 6161SOL     OW19381   5.605   0.537   6.113
 6161SOL    HW119382   5.554   0.623   6.103
 6161SOL    HW219383   5.590   0.500   6.204
 6162SOL     OW19384   6.471   4.681   4.706
 6162SOL    HW119385   6.450   4.715   4.798
 6162SOL    HW219386   6.427   4.592   4.693
 6163SOL     OW19387   6.835   4.030   2.238
 6163SOL    HW119388   6.886   3.954   2.197
 6163SOL    HW219389   6.867   4.117   2.200
 6164SOL     OW19390   4.141   2.127   0.628
 6164SOL    HW119391   4.189   2.181   0.559
 6164SOL    HW219392   4.062   2.178   0.662
 6165SOL     OW19393   3.657   6.027   0.169
 6165SOL    HW119394   3.647   6.107   0.228
 6165SOL    HW219395   3.753   5.998   0.168
 6166SOL     OW19396   2.849   1.493   5.828
 6166SOL    HW119397   2.812   1.428   5.763
 6166SOL    HW219398   2.786   1.502   5.906
 6167SOL     OW19399   0.422   4.270   3.317
 6167SOL    HW119400   0.367   4.276   3.400
 6167SOL    HW219401   0.427   4.175   3.287
 6168SOL     OW19402   0.351   3.655   3.036
 6168SOL    HW119403   0.286   3.598   2.987
 6168SOL    HW219404   0.419   3.691   2.972
 6169SOL     OW19405   1.904   4.120   2.212
 6169SOL    HW119406   1.808   4.140   2.193
 6169SOL    HW219407   1.926   4.028   2.179
 6170SOL     OW19408   0.511   3.279   4.816
 6170SOL    HW119409   0.578   3.227   4.765
 6170SOL    HW219410   0.554   3.320   4.897
 6171SOL     OW19411   0.079   0.154   6.174
 6171SOL    HW119412   7.017   0.208   6.201
 6171SOL    HW219413   0.158   0.179   6.230
 6172SOL     OW19414   0.455   3.606   3.285
 6172SOL    HW119415   0.438   3.624   3.188
 6172SOL    HW219416   0.480   3.691   3.331
 6173SOL     OW19417   6.999   6.488   3.229
 6173SOL    HW119418   0.074   6.464   3.199
 6173SOL    HW219419   6.945   6.405   3.244
 6174SOL     OW19420   5.704   3.573   2.847
 6174SOL    HW119421   5.748   3.607   2.764
 6174SOL    HW219422   5.735   3.626   2.926
 6175SOL     OW19423   2.972   2.374   5.727
 6175SOL    HW119424   2.878   2.341   5.721
 6175SOL    HW219425   3.005   2.361   5.821
 6176SOL     OW19426   4.660   3.773   5.727
 6176SOL    HW119427   4.741   3.767   5.670
 6176SOL    HW219428   4.582   3.733   5.680
 6177SOL     OW19429   6.188   1.152   2.182
 6177SOL    HW119430   6.091   1.160   2.160
 6177SOL    HW219431   6.198   1.113   2.273
 6178SOL     OW19432   3.840   4.438   1.314
 6178SOL    HW119433   3.869   4.354   1.360
 6178SOL    HW219434   3.858   4.516   1.374
 6179SOL     OW19435   5.651   4.631   3.101
 6179SOL    HW119436   5.639   4.558   3.033
 6179SOL    HW219437   5.737   4.616   3.150
 6180SOL     OW19438   2.813   4.195   0.474
 6180SOL    HW119439   2.844   4.287   0.497
 6180SOL    HW219440   2.872   4.127   0.518
 6181SOL     OW19441   5.130   5.524   6.686
 6181SOL    HW119442   5.226   5.495   6.687
 6181SOL    HW219443   5.103   5.547   6.593
 6182SOL     OW19444   3.591   2.406   0.301
 6182SOL    HW119445   3.508   2.359   0.329
 6182SOL    HW219446   3.669   2.371   0.352
 6183SOL     OW19447   0.774   1.244   1.070
 6183SOL    HW119448   0.676   1.228   1.084
 6183SOL    HW219449   0.798   1.334   1.105
 6184SOL     OW19450   2.485   0.727   5.320
 6184SOL    HW119451   2.418   0.745   5.247
 6184SOL    HW219452   2.556   0.667   5.285
 6185SOL     OW19453   3.557   3.029   5.614
 6185SOL    HW119454   3.504   3.114   5.613
 6185SOL    HW219455   3.495   2.951   5.610
 6186SOL     OW19456   6.634   2.137   2.307
 6186SOL    HW119457   6.709   2.072   2.318
 6186SOL    HW219458   6.609   2.143   2.210
 6187SOL     OW19459   5.645   1.766   5.709
 6187SOL    HW119460   5.642   1.827   5.789
 6187SOL    HW219461   5.564   1.708   5.709
 6188SOL     OW19462   1.382   1.622   5.039
 6188SOL    HW119463   1.446   1.696   5.019
 6188SOL    HW219464   1.416   1.568   5.115
 6189SOL     OW19465   6.594   6.580   1.249
 6189SOL    HW119466   6.620   6.673   1.226
 6189SOL    HW219467   6.550   6.580   1.340
 6190SOL     OW19468   0.575   2.582   5.367
 6190SOL    HW119469   0.599   2.569   5.271
 6190SOL    HW219470   0.600   2.500   5.419
 6191SOL     OW19471   4.193   3.524   6.844
 6191SOL    HW119472   4.231   3.486   6.760
 6191SOL    HW219473   4.208   3.623   6.846
 6192SOL     OW19474   2.999   1.391   0.370
 6192SOL    HW119475   3.026   1.366   0.463
 6192SOL    HW219476   2.931   1.326   0.337
 6193SOL     OW19477   4.794   5.391   6.583
 6193SOL    HW119478   4.810   5.348   6.672
 6193SOL    HW219479   4.815   5.488   6.588
 6194SOL     OW19480   5.949   0.482   6.039
 6194SOL    HW119481   6.006   0.519   5.965
 6194SOL    HW219482   6.001   0.485   6.125
 6195SOL     OW19483   6.359   6.764   5.812
 6195SOL    HW119484   6.338   6.669   5.789
 6195SOL    HW219485   6.447   6.769   5.859
 6196SOL     OW19486   5.610   3.958   3.073
 6196SOL    HW119487   5.562   4.005   3.000
 6196SOL    HW219488   5.556   3.878   3.102
 6197SOL     OW19489   3.496   5.776   1.515
 6197SOL    HW119490   3.543   5.864   1.525
 6197SOL    HW219491   3.544   5.706   1.567
 6198SOL     OW19492   6.623   6.959   0.004
 6198SOL    HW119493   6.640   6.874   6.971
 6198SOL    HW219494   6.663   6.951   0.096
 6199SOL     OW19495   0.950   0.388   0.423
 6199SOL    HW119496   1.037   0.399   0.374
 6199SOL    HW219497   0.961   0.422   0.517
 6200SOL     OW19498   2.182   1.888   2.506
 6200SOL    HW119499   2.128   1.885   2.422
 6200SOL    HW219500   2.129   1.930   2.579
 6201SOL     OW19501   6.660   4.412   3.707
 6201SOL    HW119502   6.699   4.376   3.792
 6201SOL    HW219503   6.626   4.505   3.723
 6202SOL     OW19504   6.297   1.652   2.867
 6202SOL    HW119505   6.297   1.732   2.808
 6202SOL    HW219506   6.238   1.669   2.946
 6203SOL     OW19507   6.713   6.849   1.878
 6203SOL    HW119508   6.694   6.917   1.949
 6203SOL    HW219509   6.808   6.818   1.885
 6204SOL     OW19510   2.207   0.639   4.946
 6204SOL    HW119511   2.243   0.559   4.898
 6204SOL    HW219512   2.112   0.621   4.974
 6205SOL     OW19513   4.851   4.788   3.085
 6205SOL    HW119514   4.772   4.844   3.059
 6205SOL    HW219515   4.907   4.838   3.152
 6206SOL     OW19516   5.819   1.800   3.567
 6206SOL    HW119517   5.802   1.897   3.581
 6206SOL    HW219518   5.836   1.783   3.470
 6207SOL     OW19519   2.284   4.611   4.585
 6207SOL    HW119520   2.318   4.517   4.588
 6207SOL    HW219521   2.341   4.668   4.644
 6208SOL     OW19522   3.819   3.458   5.471
 6208SOL    HW119523   3.766   3.377   5.447
 6208SOL    HW219524   3.842   3.509   5.388
 6209SOL     OW19525   3.693   2.250   1.404
 6209SOL    HW119526   3.771   2.241   1.342
 6209SOL    HW219527   3.661   2.159   1.429
 6210SOL     OW19528   4.770   2.041   4.145
 6210SOL    HW119529   4.695   1.983   4.114
 6210SOL    HW219530   4.832   2.058   4.069
 6211SOL     OW19531   5.371   4.920   5.482
 6211SOL    HW119532   5.344   5.006   5.438
 6211SOL    HW219533   5.366   4.846   5.414
 6212SOL     OW19534   4.432   4.984   4.995
 6212SOL    HW119535   4.399   4.899   4.954
 6212SOL    HW219536   4.429   5.058   4.928
 6213SOL     OW19537   4.166   5.947   0.309
 6213SOL    HW119538   4.220   5.964   0.392
 6213SOL    HW219539   4.226   5.944   0.230
 6214SOL     OW19540   6.030   5.629   6.363
 6214SOL    HW119541   5.998   5.654   6.272
 6214SOL    HW219542   6.017   5.707   6.425
 6215SOL     OW19543   5.485   2.632   5.728
 6215SOL    HW119544   5.577   2.660   5.755
 6215SOL    HW219545   5.432   2.610   5.810
 6216SOL     OW19546   4.578   2.480   3.279
 6216SOL    HW119547   4.495   2.461   3.226
 6216SOL    HW219548   4.622   2.394   3.305
 6217SOL     OW19549   0.398   4.452   2.272
 6217SOL    HW119550   0.334   4.529   2.268
 6217SOL    HW219551   0.369   4.388   2.343
 6218SOL     OW19552   4.548   6.830   0.261
 6218SOL    HW119553   4.575   6.875   0.175
 6218SOL    HW219554   4.494   6.893   0.316
 6219SOL     OW19555   1.109   0.496   5.992
 6219SOL    HW119556   1.201   0.520   5.961
 6219SOL    HW219557   1.094   0.398   5.982
 6220SOL     OW19558   4.021   0.948   1.069
 6220SOL    HW119559   4.017   0.850   1.047
 6220SOL    HW219560   3.931   0.979   1.100
 6221SOL     OW19561   5.672   5.587   0.149
 6221SOL    HW119562   5.601   5.601   0.218
 6221SOL    HW219563   5.683   5.671   0.096
 6222SOL     OW19564   6.376   1.893   2.252
 6222SOL    HW119565   6.359   1.989   2.231
 6222SOL    HW219566   6.456   1.861   2.200
 6223SOL     OW19567   0.352   4.972   3.601
 6223SOL    HW119568   0.419   4.899   3.583
 6223SOL    HW219569   0.400   5.059   3.608
 6224SOL     OW19570   4.019   1.151   6.942
 6224SOL    HW119571   3.922   1.170   6.949
 6224SOL    HW219572   4.071   1.224   6.988
 6225SOL     OW19573   4.561   6.075   6.420
 6225SOL    HW119574   4.549   6.039   6.513
 6225SOL    HW219575   4.502   6.154   6.406
 6226SOL     OW19576   1.537   1.217   4.545
 6226SOL    HW119577   1.561   1.273   4.466
 6226SOL    HW219578   1.525   1.275   4.626
 6227SOL     OW19579   2.980   4.557   5.463
 6227SOL    HW119580   3.026   4.646   5.454
 6227SOL    HW219581   2.951   4.526   5.373
 6228SOL     OW19582   1.440   3.453   3.782
 6228SOL    HW119583   1.468   3.471   3.687
 6228SOL    HW219584   1.343   3.476   3.793
 6229SOL     OW19585   0.867   3.694   4.146
 6229SOL    HW119586   0.948   3.745   4.118
 6229SOL    HW219587   0.880   3.597   4.125
 6230SOL     OW19588   0.063   0.710   2.238
 6230SOL    HW119589   0.127   0.704   2.315
 6230SOL    HW219590   0.060   0.804   2.205
 6231SOL     OW19591   1.217   5.187   6.879
 6231SOL    HW119592   1.173   5.098   6.891
 6231SOL    HW219593   1.312   5.174   6.851
 6232SOL     OW19594   4.339   0.938   6.046
 6232SOL    HW119595   4.313   1.035   6.045
 6232SOL    HW219596   4.436   0.930   6.067
 6233SOL     OW19597   6.811   4.127   1.411
 6233SOL    HW119598   6.719   4.110   1.446
 6233SOL    HW219599   6.834   4.223   1.424
 6234SOL     OW19600   4.377   5.703   4.575
 6234SOL    HW119601   4.438   5.779   4.557
 6234SOL    HW219602   4.309   5.730   4.643
 6235SOL     OW19603   6.460   0.672   2.741
 6235SOL    HW119604   6.451   0.585   2.788
 6235SOL    HW219605   6.484   0.744   2.807
 6236SOL     OW19606   0.747   5.367   1.203
 6236SOL    HW119607   0.828   5.367   1.262
 6236SOL    HW219608   0.773   5.341   1.110
 6237SOL     OW19609   3.624   1.543   0.403
 6237SOL    HW119610   3.639   1.628   0.354
 6237SOL    HW219611   3.526   1.529   0.417
 6238SOL     OW19612   2.226   0.126   3.940
 6238SOL    HW119613   2.251   0.035   3.906
 6238SOL    HW219614   2.264   0.140   4.031
 6239SOL     OW19615   4.379   1.085   3.773
 6239SOL    HW119616   4.365   1.128   3.684
 6239SOL    HW219617   4.314   1.122   3.839
 6240SOL     OW19618   3.880   3.245   3.564
 6240SOL    HW119619   3.944   3.321   3.574
 6240SOL    HW219620   3.883   3.188   3.645
 6241SOL     OW19621   3.726   0.386   2.594
 6241SOL    HW119622   3.635   0.394   2.634
 6241SOL    HW219623   3.791   0.441   2.646
 6242SOL     OW19624   2.787   1.746   3.370
 6242SOL    HW119625   2.842   1.673   3.410
 6242SOL    HW219626   2.766   1.725   3.275
 6243SOL     OW19627   4.543   1.488   6.333
 6243SOL    HW119628   4.545   1.397   6.375
 6243SOL    HW219629   4.591   1.552   6.393
 6244SOL     OW19630   4.978   4.197   2.478
 6244SOL    HW119631   4.971   4.275   2.541
 6244SOL    HW219632   4.894   4.189   2.425
 6245SOL     OW19633   0.106   4.420   2.551
 6245SOL    HW119634   0.137   4.325   2.555
 6245SOL    HW219635   0.044   4.431   2.474
 6246SOL     OW19636   6.783   6.404   4.233
 6246SOL    HW119637   6.724   6.359   4.166
 6246SOL    HW219638   6.802   6.497   4.202
 6247SOL     OW19639   6.862   6.670   3.054
 6247SOL    HW119640   6.889   6.758   3.094
 6247SOL    HW219641   6.887   6.596   3.117
 6248SOL     OW19642   3.504   3.121   5.891
 6248SOL    HW119643   3.561   3.074   5.823
 6248SOL    HW219644   3.452   3.053   5.943
 6249SOL     OW19645   5.857   2.847   1.357
 6249SOL    HW119646   5.898   2.883   1.273
 6249SOL    HW219647   5.758   2.864   1.355
 6250SOL     OW19648   6.400   0.438   0.429
 6250SOL    HW119649   6.335   0.399   0.364
 6250SOL    HW219650   6.395   0.387   0.515
 6251SOL     OW19651   2.388   6.844   4.224
 6251SOL    HW119652   2.469   6.875   4.274
 6251SOL    HW219653   2.384   6.890   4.136
 6252SOL     OW19654   3.126   5.536   6.808
 6252SOL    HW119655   3.170   5.620   6.840
 6252SOL    HW219656   3.092   5.549   6.715
 6253SOL     OW19657   3.389   5.055   4.881
 6253SOL    HW119658   3.485   5.083   4.869
 6253SOL    HW219659   3.350   5.030   4.792
 6254SOL     OW19660   0.654   6.935   1.231
 6254SOL    HW119661   0.666   7.005   1.160
 6254SOL    HW219662   0.559   6.932   1.260
 6255SOL     OW19663   0.246   1.780   2.025
 6255SOL    HW119664   0.230   1.878   2.022
 6255SOL    HW219665   0.281   1.749   1.936
 6256SOL     OW19666   5.073   5.739   2.449
 6256SOL    HW119667   5.132   5.787   2.514
 6256SOL    HW219668   4.978   5.761   2.469
 6257SOL     OW19669   3.088   3.796   1.180
 6257SOL    HW119670   3.016   3.865   1.191
 6257SOL    HW219671   3.083   3.757   1.088
 6258SOL     OW19672   3.675   4.957   4.798
 6258SOL    HW119673   3.751   5.019   4.780
 6258SOL    HW219674   3.654   4.905   4.714
 6259SOL     OW19675   3.465   0.426   4.350
 6259SOL    HW119676   3.429   0.490   4.282
 6259SOL    HW219677   3.441   0.457   4.441
 6260SOL     OW19678   1.470   1.575   0.141
 6260SOL    HW119679   1.455   1.499   0.078
 6260SOL    HW219680   1.500   1.655   0.089
 6261SOL     OW19681   3.449   0.566   0.793
 6261SOL    HW119682   3.352   0.567   0.769
 6261SOL    HW219683   3.477   0.472   0.812
 6262SOL     OW19684   5.581   0.442   2.522
 6262SOL    HW119685   5.558   0.523   2.468
 6262SOL    HW219686   5.497   0.397   2.551
 6263SOL     OW19687   6.069   6.051   5.963
 6263SOL    HW119688   6.044   5.969   6.016
 6263SOL    HW219689   6.165   6.073   5.982
 6264SOL     OW19690   2.327   0.218   0.227
 6264SOL    HW119691   2.354   0.128   0.192
 6264SOL    HW219692   2.240   0.211   0.275
 6265SOL     OW19693   4.985   0.568   6.679
 6265SOL    HW119694   5.072   0.579   6.631
 6265SOL    HW219695   4.931   0.497   6.634
 6266SOL     OW19696   2.613   5.100   2.926
 6266SOL    HW119697   2.632   5.004   2.945
 6266SOL    HW219698   2.530   5.107   2.870
 6267SOL     OW19699   2.583   6.248   4.723
 6267SOL    HW119700   2.552   6.197   4.803
 6267SOL    HW219701   2.682   6.239   4.714
 6268SOL     OW19702   3.199   1.323   1.111
 6268SOL    HW119703   3.252   1.380   1.174
 6268SOL    HW219704   3.229   1.228   1.118
 6269SOL     OW19705   6.152   4.828   0.151
 6269SOL    HW119706   6.106   4.822   0.240
 6269SOL    HW219707   6.158   4.924   0.123
 6270SOL     OW19708   2.362   5.752   0.566
 6270SOL    HW119709   2.280   5.772   0.620
 6270SOL    HW219710   2.355   5.796   0.477
 6271SOL     OW19711   6.035   3.245   6.188
 6271SOL    HW119712   5.994   3.219   6.101
 6271SOL    HW219713   6.087   3.330   6.177
 6272SOL     OW19714   0.242   6.841   0.671
 6272SOL    HW119715   0.215   6.931   0.705
 6272SOL    HW219716   0.336   6.846   0.636
 6273SOL     OW19717   0.767   6.666   1.201
 6273SOL    HW119718   0.852   6.657   1.253
 6273SOL    HW219719   0.744   6.763   1.191
 6274SOL     OW19720   3.064   5.274   3.250
 6274SOL    HW119721   3.151   5.261   3.203
 6274SOL    HW219722   3.055   5.205   3.322
 6275SOL     OW19723   1.876   5.437   6.886
 6275SOL    HW119724   1.812   5.508   6.856
 6275SOL    HW219725   1.830   5.349   6.888
 6276SOL     OW19726   2.098   5.352   2.948
 6276SOL    HW119727   2.086   5.372   3.045
 6276SOL    HW219728   2.182   5.395   2.915
 6277SOL     OW19729   5.143   3.417   1.344
 6277SOL    HW119730   5.052   3.392   1.312
 6277SOL    HW219731   5.136   3.489   1.413
 6278SOL     OW19732   2.824   1.113   6.792
 6278SOL    HW119733   2.748   1.136   6.731
 6278SOL    HW219734   2.799   1.035   6.849
 6279SOL     OW19735   2.682   7.000   1.841
 6279SOL    HW119736   2.775   0.002   1.808
 6279SOL    HW219737   2.677   6.906   1.873
 6280SOL     OW19738   6.268   2.469   0.076
 6280SOL    HW119739   6.189   2.434   0.126
 6280SOL    HW219740   6.300   2.400   0.011
 6281SOL     OW19741   5.426   3.788   6.327
 6281SOL    HW119742   5.375   3.703   6.311
 6281SOL    HW219743   5.404   3.823   6.418
 6282SOL     OW19744   0.095   3.436   6.377
 6282SOL    HW119745   0.049   3.422   6.289
 6282SOL    HW219746   0.130   3.529   6.382
 6283SOL     OW19747   1.403   6.233   5.150
 6283SOL    HW119748   1.423   6.165   5.079
 6283SOL    HW219749   1.356   6.311   5.109
 6284SOL     OW19750   1.555   4.233   5.981
 6284SOL    HW119751   1.632   4.297   5.981
 6284SOL    HW219752   1.470   4.284   5.993
 6285SOL     OW19753   1.114   3.794   2.933
 6285SOL    HW119754   1.120   3.787   3.033
 6285SOL    HW219755   1.206   3.791   2.893
 6286SOL     OW19756   0.763   2.332   0.382
 6286SOL    HW119757   0.747   2.253   0.442
 6286SOL    HW219758   0.783   2.300   0.290
 6287SOL     OW19759   4.939   4.913   4.946
 6287SOL    HW119760   4.868   4.966   4.899
 6287SOL    HW219761   4.957   4.829   4.895
 6288SOL     OW19762   3.282   3.391   6.377
 6288SOL    HW119763   3.302   3.308   6.429
 6288SOL    HW219764   3.362   3.451   6.376
 6289SOL     OW19765   2.634   4.601   5.807
 6289SOL    HW119766   2.723   4.558   5.791
 6289SOL    HW219767   2.572   4.576   5.733
 6290SOL     OW19768   5.557   5.825   4.238
 6290SOL    HW119769   5.589   5.919   4.226
 6290SOL    HW219770   5.577   5.773   4.155
 6291SOL     OW19771   3.813   3.461   2.780
 6291SOL    HW119772   3.741   3.405   2.739
 6291SOL    HW219773   3.901   3.414   2.772
 6292SOL     OW19774   1.510   3.440   4.591
 6292SOL    HW119775   1.578   3.485   4.533
 6292SOL    HW219776   1.444   3.507   4.624
 6293SOL     OW19777   3.271   1.072   6.639
 6293SOL    HW119778   3.182   1.107   6.609
 6293SOL    HW219779   3.297   0.994   6.583
 6294SOL     OW19780   1.612   1.568   2.980
 6294SOL    HW119781   1.519   1.589   3.012
 6294SOL    HW219782   1.646   1.645   2.925
 6295SOL     OW19783   5.335   3.659   6.039
 6295SOL    HW119784   5.301   3.655   6.133
 6295SOL    HW219785   5.262   3.632   5.976
 6296SOL     OW19786   0.979   2.846   0.635
 6296SOL    HW119787   1.002   2.868   0.540
 6296SOL    HW219788   0.903   2.904   0.665
 6297SOL     OW19789   5.812   1.051   4.204
 6297SOL    HW119790   5.877   0.995   4.153
 6297SOL    HW219791   5.835   1.148   4.190
 6298SOL     OW19792   6.603   6.155   0.689
 6298SOL    HW119793   6.672   6.220   0.659
 6298SOL    HW219794   6.598   6.155   0.789
 6299SOL     OW19795   4.071   1.135   2.946
 6299SOL    HW119796   4.017   1.190   2.883
 6299SOL    HW219797   4.035   1.042   2.949
 6300SOL     OW19798   2.428   1.006   6.411
 6300SOL    HW119799   2.504   1.068   6.391
 6300SOL    HW219800   2.348   1.034   6.358
 6301SOL     OW19801   4.039   6.328   0.150
 6301SOL    HW119802   3.992   6.296   0.068
 6301SOL    HW219803   4.119   6.382   0.123
 6302SOL     OW19804   3.165   2.473   6.334
 6302SOL    HW119805   3.203   2.532   6.263
 6302SOL    HW219806   3.070   2.498   6.352
 6303SOL     OW19807   0.816   5.937   4.950
 6303SOL    HW119808   0.914   5.940   4.968
 6303SOL    HW219809   0.774   5.868   5.009
 6304SOL     OW19810   3.748   1.144   4.183
 6304SOL    HW119811   3.829   1.198   4.160
 6304SOL    HW219812   3.762   1.100   4.272
 6305SOL     OW19813   0.467   6.025   6.416
 6305SOL    HW119814   0.389   5.976   6.377
 6305SOL    HW219815   0.525   5.961   6.466
 6306SOL     OW19816   0.061   5.325   4.363
 6306SOL    HW119817   0.015   5.413   4.375
 6306SOL    HW219818   7.016   5.261   4.319
 6307SOL     OW19819   3.885   2.983   2.276
 6307SOL    HW119820   3.928   2.973   2.365
 6307SOL    HW219821   3.921   3.064   2.230
 6308SOL     OW19822   0.395   2.451   0.515
 6308SOL    HW119823   0.460   2.436   0.590
 6308SOL    HW219824   0.335   2.371   0.507
 6309SOL     OW19825   2.321   6.113   4.608
 6309SOL    HW119826   2.388   6.174   4.650
 6309SOL    HW219827   2.350   6.018   4.619
 6310SOL     OW19828   1.760   0.043   2.834
 6310SOL    HW119829   1.685   7.006   2.796
 6310SOL    HW219830   1.757   0.135   2.796
 6311SOL     OW19831   5.762   1.124   6.399
 6311SOL    HW119832   5.771   1.104   6.301
 6311SOL    HW219833   5.853   1.119   6.442
 6312SOL     OW19834   3.627   5.876   6.497
 6312SOL    HW119835   3.606   5.826   6.580
 6312SOL    HW219836   3.593   5.825   6.418
 6313SOL     OW19837   5.255   5.174   4.778
 6313SOL    HW119838   5.244   5.106   4.851
 6313SOL    HW219839   5.178   5.166   4.714
 6314SOL     OW19840   1.713   6.939   2.200
 6314SOL    HW119841   1.640   6.950   2.132
 6314SOL    HW219842   1.700   7.007   2.272
 6315SOL     OW19843   2.212   2.437   4.403
 6315SOL    HW119844   2.117   2.454   4.426
 6315SOL    HW219845   2.272   2.474   4.474
 6316SOL     OW19846   4.663   0.923   4.644
 6316SOL    HW119847   4.719   0.843   4.667
 6316SOL    HW219848   4.683   0.997   4.709
 6317SOL     OW19849   5.534   4.718   1.630
 6317SOL    HW119850   5.521   4.655   1.707
 6317SOL    HW219851   5.626   4.758   1.634
 6318SOL     OW19852   6.641   6.682   0.467
 6318SOL    HW119853   6.546   6.655   0.451
 6318SOL    HW219854   6.701   6.605   0.446
 6319SOL     OW19855   5.061   1.163   3.961
 6319SOL    HW119856   5.018   1.091   4.015
 6319SOL    HW219857   5.116   1.121   3.889
 6320SOL     OW19858   6.039   1.413   5.661
 6320SOL    HW119859   6.091   1.352   5.601
 6320SOL    HW219860   5.984   1.359   5.725
 6321SOL     OW19861   6.442   2.372   6.589
 6321SOL    HW119862   6.516   2.305   6.588
 6321SOL    HW219863   6.480   2.464   6.592
 6322SOL     OW19864   1.067   1.373   2.278
 6322SOL    HW119865   1.048   1.302   2.347
 6322SOL    HW219866   0.986   1.387   2.221
 6323SOL     OW19867   2.077   4.566   1.442
 6323SOL    HW119868   1.979   4.552   1.452
 6323SOL    HW219869   2.126   4.502   1.502
 6324SOL     OW19870   4.545   1.845   1.317
 6324SOL    HW119871   4.608   1.781   1.274
 6324SOL    HW219872   4.583   1.937   1.312
 6325SOL     OW19873   1.619   3.192   4.148
 6325SOL    HW119874   1.592   3.281   4.112
 6325SOL    HW219875   1.712   3.198   4.184
 6326SOL     OW19876   5.182   4.875   6.078
 6326SOL    HW119877   5.230   4.867   6.165
 6326SOL    HW219878   5.248   4.879   6.003
 6327SOL     OW19879   0.267   0.443   3.921
 6327SOL    HW119880   0.168   0.428   3.928
 6327SOL    HW219881   0.314   0.355   3.911
 6328SOL     OW19882   4.484   3.515   5.329
 6328SOL    HW119883   4.552   3.549   5.264
 6328SOL    HW219884   4.393   3.522   5.288
 6329SOL     OW19885   0.720   2.650   6.121
 6329SOL    HW119886   0.754   2.594   6.197
 6329SOL    HW219887   0.651   2.714   6.154
 6330SOL     OW19888   5.522   1.395   3.277
 6330SOL    HW119889   5.604   1.440   3.313
 6330SOL    HW219890   5.477   1.455   3.211
 6331SOL     OW19891   0.901   3.064   3.809
 6331SOL    HW119892   0.971   3.007   3.766
 6331SOL    HW219893   0.824   3.007   3.837
 6332SOL     OW19894   3.172   1.486   0.183
 6332SOL    HW119895   3.111   1.437   0.246
 6332SOL    HW219896   3.121   1.512   0.101
 6333SOL     OW19897   5.568   1.706   0.518
 6333SOL    HW119898   5.486   1.666   0.560
 6333SOL    HW219899   5.595   1.651   0.440
 6334SOL     OW19900   1.255   1.552   2.280
 6334SOL    HW119901   1.225   1.645   2.257
 6334SOL    HW219902   1.174   1.495   2.298
 6335SOL     OW19903   6.401   1.738   0.095
 6335SOL    HW119904   6.408   1.753   0.193
 6335SOL    HW219905   6.363   1.647   0.078
 6336SOL     OW19906   0.758   3.965   5.452
 6336SOL    HW119907   0.852   3.932   5.461
 6336SOL    HW219908   0.696   3.889   5.435
 6337SOL     OW19909   4.936   5.911   5.300
 6337SOL    HW119910   4.957   5.878   5.208
 6337SOL    HW219911   4.926   5.834   5.362
 6338SOL     OW19912   1.849   1.203   3.199
 6338SOL    HW119913   1.934   1.252   3.180
 6338SOL    HW219914   1.774   1.242   3.146
 6339SOL     OW19915   0.413   4.707   3.365
 6339SOL    HW119916   0.327   4.755   3.384
 6339SOL    HW219917   0.415   4.679   3.270
 6340SOL     OW19918   2.986   4.024   0.579
 6340SOL    HW119919   2.976   4.008   0.677
 6340SOL    HW219920   3.062   4.086   0.563
 6341SOL     OW19921   0.335   5.366   2.906
 6341SOL    HW119922   0.255   5.319   2.868
 6341SOL    HW219923   0.322   5.381   3.004
 6342SOL     OW19924   2.126   0.803   1.093
 6342SOL    HW119925   2.090   0.894   1.113
 6342SOL    HW219926   2.165   0.763   1.175
 6343SOL     OW19927   0.864   5.000   1.022
 6343SOL    HW119928   0.772   4.962   1.021
 6343SOL    HW219929   0.923   4.942   1.079
 6344SOL     OW19930   6.862   1.073   4.163
 6344SOL    HW119931   6.762   1.074   4.164
 6344SOL    HW219932   6.896   1.167   4.162
 6345SOL     OW19933   5.734   2.881   1.627
 6345SOL    HW119934   5.774   2.789   1.632
 6345SOL    HW219935   5.650   2.884   1.680
 6346SOL     OW19936   0.096   4.758   5.622
 6346SOL    HW119937   7.017   4.784   5.632
 6346SOL    HW219938   0.145   4.778   5.707
 6347SOL     OW19939   2.014   2.067   3.206
 6347SOL    HW119940   1.949   2.077   3.130
 6347SOL    HW219941   2.090   2.130   3.192
 6348SOL     OW19942   0.757   2.171   6.179
 6348SOL    HW119943   0.730   2.077   6.161
 6348SOL    HW219944   0.834   2.196   6.121
 6349SOL     OW19945   6.754   0.757   0.249
 6349SOL    HW119946   6.734   0.851   0.274
 6349SOL    HW219947   6.841   0.729   0.290
 6350SOL     OW19948   1.130   5.322   2.099
 6350SOL    HW119949   1.188   5.284   2.027
 6350SOL    HW219950   1.185   5.383   2.157
 6351SOL     OW19951   5.486   2.974   1.737
 6351SOL    HW119952   5.482   3.020   1.826
 6351SOL    HW219953   5.399   2.928   1.719
 6352SOL     OW19954   3.127   0.518   3.960
 6352SOL    HW119955   3.181   0.571   3.895
 6352SOL    HW219956   3.030   0.540   3.948
 6353SOL     OW19957   3.668   6.577   5.678
 6353SOL    HW119958   3.721   6.503   5.638
 6353SOL    HW219959   3.664   6.566   5.777
 6354SOL     OW19960   4.850   5.585   1.215
 6354SOL    HW119961   4.780   5.657   1.209
 6354SOL    HW219962   4.865   5.545   1.125
 6355SOL     OW19963   2.694   4.615   0.884
 6355SOL    HW119964   2.756   4.652   0.815
 6355SOL    HW219965   2.640   4.541   0.844
 6356SOL     OW19966   6.425   5.172   6.518
 6356SOL    HW119967   6.464   5.083   6.498
 6356SOL    HW219968   6.478   5.244   6.472
 6357SOL     OW19969   5.727   1.287   1.965
 6357SOL    HW119970   5.791   1.352   1.924
 6357SOL    HW219971   5.662   1.336   2.023
 6358SOL     OW19972   1.322   1.946   5.841
 6358SOL    HW119973   1.397   2.006   5.814
 6358SOL    HW219974   1.357   1.876   5.904
 6359SOL     OW19975   5.467   6.733   0.682
 6359SOL    HW119976   5.473   6.663   0.753
 6359SOL    HW219977   5.557   6.774   0.669
 6360SOL     OW19978   0.568   1.838   2.566
 6360SOL    HW119979   0.632   1.840   2.489
 6360SOL    HW219980   0.474   1.844   2.531
 6361SOL     OW19981   6.949   0.960   6.618
 6361SOL    HW119982   0.026   0.944   6.590
 6361SOL    HW219983   6.923   0.892   6.687
 6362SOL     OW19984   1.147   5.603   0.438
 6362SOL    HW119985   1.098   5.597   0.351
 6362SOL    HW219986   1.082   5.618   0.512
 6363SOL     OW19987   2.472   4.381   3.037
 6363SOL    HW119988   2.506   4.394   2.944
 6363SOL    HW219989   2.392   4.321   3.034
 6364SOL     OW19990   2.536   2.516   4.217
 6364SOL    HW119991   2.568   2.516   4.312
 6364SOL    HW219992   2.451   2.568   4.210
 6365SOL     OW19993   5.215   6.548   2.933
 6365SOL    HW119994   5.184   6.537   2.839
 6365SOL    HW219995   5.287   6.482   2.953
 6366SOL     OW19996   6.315   0.382   5.109
 6366SOL    HW119997   6.243   0.360   5.174
 6366SOL    HW219998   6.374   0.454   5.146
 6367SOL     OW19999   1.620   1.791   2.311
 6367SOL    HW120000   1.661   1.819   2.224
 6367SOL    HW220001   1.603   1.693   2.310
 6368SOL     OW20002   4.913   3.223   4.803
 6368SOL    HW120003   5.013   3.219   4.804
 6368SOL    HW220004   4.876   3.164   4.874
 6369SOL     OW20005   4.415   5.192   0.225
 6369SOL    HW120006   4.357   5.274   0.228
 6369SOL    HW220007   4.387   5.129   0.297
 6370SOL     OW20008   5.443   3.948   4.500
 6370SOL    HW120009   5.423   3.900   4.414
 6370SOL    HW220010   5.482   3.884   4.566
 6371SOL     OW20011   5.413   4.003   0.867
 6371SOL    HW120012   5.365   4.012   0.954
 6371SOL    HW220013   5.348   3.977   0.796
 6372SOL     OW20014   6.568   1.579   2.407
 6372SOL    HW120015   6.612   1.489   2.417
 6372SOL    HW220016   6.578   1.631   2.492
 6373SOL     OW20017   4.900   4.446   1.579
 6373SOL    HW120018   4.929   4.457   1.674
 6373SOL    HW220019   4.952   4.509   1.521
 6374SOL     OW20020   4.287   3.750   6.690
 6374SOL    HW120021   4.301   3.664   6.640
 6374SOL    HW220022   4.312   3.827   6.632
 6375SOL     OW20023   5.174   2.192   2.051
 6375SOL    HW120024   5.232   2.130   2.104
 6375SOL    HW220025   5.088   2.207   2.100
 6376SOL     OW20026   3.401   0.745   6.910
 6376SOL    HW120027   3.371   0.732   7.005
 6376SOL    HW220028   3.355   0.678   6.851
 6377SOL     OW20029   0.228   0.354   0.553
 6377SOL    HW120030   0.287   0.275   0.571
 6377SOL    HW220031   0.285   0.435   0.538
 6378SOL     OW20032   5.163   4.746   1.823
 6378SOL    HW120033   5.063   4.739   1.820
 6378SOL    HW220034   5.203   4.693   1.748
 6379SOL     OW20035   2.240   5.222   6.496
 6379SOL    HW120036   2.255   5.158   6.421
 6379SOL    HW220037   2.143   5.245   6.501
 6380SOL     OW20038   1.433   3.756   4.812
 6380SOL    HW120039   1.522   3.765   4.768
 6380SOL    HW220040   1.370   3.709   4.750
 6381SOL     OW20041   4.265   2.294   0.426
 6381SOL    HW120042   4.319   2.280   0.344
 6381SOL    HW220043   4.312   2.357   0.487
 6382SOL     OW20044   1.587   1.564   0.574
 6382SOL    HW120045   1.603   1.646   0.519
 6382SOL    HW220046   1.569   1.589   0.669
 6383SOL     OW20047   2.221   2.182   1.921
 6383SOL    HW120048   2.224   2.278   1.950
 6383SOL    HW220049   2.219   2.123   2.002
 6384SOL     OW20050   6.726   2.745   2.496
 6384SOL    HW120051   6.762   2.653   2.484
 6384SOL    HW220052   6.754   2.802   2.419
 6385SOL     OW20053   0.117   2.929   0.903
 6385SOL    HW120054   0.198   2.956   0.851
 6385SOL    HW220055   0.090   3.004   0.963
 6386SOL     OW20056   2.715   3.576   0.411
 6386SOL    HW120057   2.739   3.500   0.471
 6386SOL    HW220058   2.792   3.639   0.405
 6387SOL     OW20059   6.990   6.958   6.754
 6387SOL    HW120060   0.059   6.914   6.729
 6387SOL    HW220061   6.978   0.023   6.700
 6388SOL     OW20062   6.485   5.449   2.254
 6388SOL    HW120063   6.526   5.420   2.168
 6388SOL    HW220064   6.485   5.372   2.319
 6389SOL     OW20065   0.399   0.539   0.559
 6389SOL    HW120066   0.455   0.588   0.493
 6389SOL    HW220067   0.454   0.520   0.641
 6390SOL     OW20068   5.210   0.281   6.554
 6390SOL    HW120069   5.247   0.334   6.478
 6390SOL    HW220070   5.208   0.337   6.637
 6391SOL     OW20071   1.148   1.547   4.894
 6391SOL    HW120072   1.078   1.599   4.943
 6391SOL    HW220073   1.239   1.580   4.920
 6392SOL     OW20074   3.827   6.828   3.547
 6392SOL    HW120075   3.900   6.861   3.487
 6392SOL    HW220076   3.806   6.733   3.525
 6393SOL     OW20077   0.681   5.202   6.936
 6393SOL    HW120078   0.612   5.153   6.883
 6393SOL    HW220079   0.746   5.136   6.975
 6394SOL     OW20080   1.660   5.965   1.699
 6394SOL    HW120081   1.570   6.008   1.704
 6394SOL    HW220082   1.667   5.911   1.615
 6395SOL     OW20083   2.258   4.207   3.082
 6395SOL    HW120084   2.234   4.140   3.013
 6395SOL    HW220085   2.275   4.161   3.169
 6396SOL     OW20086   1.030   3.731   6.107
 6396SOL    HW120087   1.006   3.688   6.020
 6396SOL    HW220088   1.124   3.767   6.102
 6397SOL     OW20089   5.428   3.824   4.230
 6397SOL    HW120090   5.405   3.727   4.232
 6397SOL    HW220091   5.384   3.866   4.150
 6398SOL     OW20092   2.183   0.266   1.182
 6398SOL    HW120093   2.185   0.205   1.103
 6398SOL    HW220094   2.105   0.243   1.240
 6399SOL     OW20095   3.052   0.571   6.030
 6399SOL    HW120096   3.051   0.657   5.979
 6399SOL    HW220097   3.145   0.554   6.064
 6400SOL     OW20098   1.067   6.397   3.052
 6400SOL    HW120099   1.140   6.412   2.986
 6400SOL    HW220100   1.101   6.415   3.145
 6401SOL     OW20101   3.849   5.494   3.240
 6401SOL    HW120102   3.847   5.569   3.306
 6401SOL    HW220103   3.899   5.417   3.279
 6402SOL     OW20104   2.293   4.522   5.206
 6402SOL    HW120105   2.282   4.532   5.305
 6402SOL    HW220106   2.342   4.437   5.187
 6403SOL     OW20107   4.801   5.516   5.367
 6403SOL    HW120108   4.893   5.537   5.400
 6403SOL    HW220109   4.734   5.558   5.428
 6404SOL     OW20110   4.463   6.618   1.653
 6404SOL    HW120111   4.468   6.630   1.752
 6404SOL    HW220112   4.555   6.608   1.616
 6405SOL     OW20113   5.701   1.762   2.845
 6405SOL    HW120114   5.654   1.729   2.926
 6405SOL    HW220115   5.788   1.715   2.834
 6406SOL     OW20116   6.857   3.300   3.530
 6406SOL    HW120117   6.925   3.373   3.519
 6406SOL    HW220118   6.832   3.292   3.626
 6407SOL     OW20119   0.658   5.930   1.890
 6407SOL    HW120120   0.695   5.976   1.970
 6407SOL    HW220121   0.732   5.911   1.826
 6408SOL     OW20122   6.426   0.553   2.203
 6408SOL    HW120123   6.442   0.567   2.301
 6408SOL    HW220124   6.512   0.527   2.159
 6409SOL     OW20125   5.203   5.440   3.547
 6409SOL    HW120126   5.212   5.531   3.507
 6409SOL    HW220127   5.185   5.374   3.474
 6410SOL     OW20128   1.642   1.535   6.624
 6410SOL    HW120129   1.559   1.499   6.667
 6410SOL    HW220130   1.719   1.526   6.687
 6411SOL     OW20131   0.442   2.760   2.037
 6411SOL    HW120132   0.481   2.840   2.082
 6411SOL    HW220133   0.515   2.692   2.022
 6412SOL     OW20134   3.639   1.092   0.063
 6412SOL    HW120135   3.659   1.030   0.138
 6412SOL    HW220136   3.599   1.176   0.098
 6413SOL     OW20137   4.794   6.381   3.025
 6413SOL    HW120138   4.735   6.446   2.977
 6413SOL    HW220139   4.841   6.427   3.100
 6414SOL     OW20140   1.446   0.382   0.129
 6414SOL    HW120141   1.466   0.480   0.132
 6414SOL    HW220142   1.352   0.369   0.097
 6415SOL     OW20143   0.410   2.558   3.570
 6415SOL    HW120144   0.316   2.592   3.581
 6415SOL    HW220145   0.409   2.477   3.511
 6416SOL     OW20146   2.329   6.609   0.372
 6416SOL    HW120147   2.268   6.574   0.443
 6416SOL    HW220148   2.396   6.538   0.349
 6417SOL     OW20149   4.551   2.668   6.882
 6417SOL    HW120150   4.502   2.749   6.916
 6417SOL    HW220151   4.512   2.586   6.924
 6418SOL     OW20152   4.977   4.321   0.345
 6418SOL    HW120153   5.011   4.372   0.424
 6418SOL    HW220154   4.959   4.226   0.371
 6419SOL     OW20155   1.164   6.293   6.093
 6419SOL    HW120156   1.257   6.318   6.120
 6419SOL    HW220157   1.157   6.194   6.086
 6420SOL     OW20158   2.205   4.134   4.632
 6420SOL    HW120159   2.209   4.177   4.542
 6420SOL    HW220160   2.233   4.038   4.625
 6421SOL     OW20161   3.816   0.122   2.192
 6421SOL    HW120162   3.815   0.026   2.220
 6421SOL    HW220163   3.792   0.180   2.270
 6422SOL     OW20164   6.009   2.106   4.375
 6422SOL    HW120165   6.087   2.067   4.425
 6422SOL    HW220166   5.951   2.032   4.341
 6423SOL     OW20167   1.798   4.289   4.420
 6423SOL    HW120168   1.886   4.335   4.431
 6423SOL    HW220169   1.746   4.293   4.505
 6424SOL     OW20170   6.364   4.615   5.291
 6424SOL    HW120171   6.450   4.658   5.263
 6424SOL    HW220172   6.293   4.684   5.302
 6425SOL     OW20173   6.749   5.364   4.275
 6425SOL    HW120174   6.801   5.449   4.269
 6425SOL    HW220175   6.773   5.304   4.198
 6426SOL     OW20176   4.845   4.051   4.922
 6426SOL    HW120177   4.848   4.130   4.861
 6426SOL    HW220178   4.853   3.967   4.867
 6427SOL     OW20179   3.930   3.018   2.825
 6427SOL    HW120180   3.916   3.022   2.924
 6427SOL    HW220181   3.842   3.026   2.779
 6428SOL     OW20182   5.487   2.813   0.286
 6428SOL    HW120183   5.479   2.905   0.326
 6428SOL    HW220184   5.405   2.761   0.306
 6429SOL     OW20185   2.067   1.026   5.089
 6429SOL    HW120186   2.013   1.037   5.172
 6429SOL    HW220187   2.163   1.048   5.108
 6430SOL     OW20188   6.430   0.447   5.403
 6430SOL    HW120189   6.346   0.466   5.454
 6430SOL    HW220190   6.445   0.518   5.335
 6431SOL     OW20191   3.595   4.888   1.682
 6431SOL    HW120192   3.588   4.801   1.730
 6431SOL    HW220193   3.627   4.959   1.745
 6432SOL     OW20194   5.155   4.249   5.938
 6432SOL    HW120195   5.206   4.174   5.896
 6432SOL    HW220196   5.099   4.294   5.868
 6433SOL     OW20197   3.093   4.781   6.806
 6433SOL    HW120198   3.152   4.819   6.734
 6433SOL    HW220199   3.145   4.715   6.861
 6434SOL     OW20200   4.556   5.315   6.495
 6434SOL    HW120201   4.503   5.391   6.457
 6434SOL    HW220202   4.649   5.344   6.513
 6435SOL     OW20203   5.321   1.869   1.404
 6435SOL    HW120204   5.385   1.942   1.429
 6435SOL    HW220205   5.236   1.882   1.455
 6436SOL     OW20206   6.153   4.065   4.281
 6436SOL    HW120207   6.159   3.973   4.241
 6436SOL    HW220208   6.220   4.124   4.238
 6437SOL     OW20209   1.357   2.291   5.583
 6437SOL    HW120210   1.339   2.385   5.612
 6437SOL    HW220211   1.421   2.248   5.648
 6438SOL     OW20212   0.827   4.766   0.335
 6438SOL    HW120213   0.749   4.705   0.328
 6438SOL    HW220214   0.902   4.720   0.382
 6439SOL     OW20215   5.035   6.914   3.126
 6439SOL    HW120216   5.006   6.967   3.046
 6439SOL    HW220217   5.130   6.936   3.147
 6440SOL     OW20218   3.164   2.005   6.331
 6440SOL    HW120219   3.163   2.052   6.419
 6440SOL    HW220220   3.126   2.065   6.261
 6441SOL     OW20221   0.366   1.673   2.247
 6441SOL    HW120222   0.329   1.720   2.166
 6441SOL    HW220223   0.349   1.729   2.328
 6442SOL     OW20224   2.738   2.333   4.729
 6442SOL    HW120225   2.772   2.295   4.815
 6442SOL    HW220226   2.786   2.291   4.652
 6443SOL     OW20227   4.568   2.912   0.286
 6443SOL    HW120228   4.581   2.879   0.380
 6443SOL    HW220229   4.475   2.948   0.276
 6444SOL     OW20230   6.570   3.508   4.517
 6444SOL    HW120231   6.539   3.602   4.532
 6444SOL    HW220232   6.514   3.466   4.446
 6445SOL     OW20233   3.194   3.226   3.353
 6445SOL    HW120234   3.284   3.252   3.318
 6445SOL    HW220235   3.184   3.126   3.347
 6446SOL     OW20236   1.774   1.107   6.346
 6446SOL    HW120237   1.697   1.101   6.283
 6446SOL    HW220238   1.784   1.201   6.378
 6447SOL     OW20239   5.821   3.705   1.487
 6447SOL    HW120240   5.803   3.772   1.415
 6447SOL    HW220241   5.883   3.634   1.453
 6448SOL     OW20242   3.169   5.324   1.608
 6448SOL    HW120243   3.181   5.422   1.590
 6448SOL    HW220244   3.081   5.309   1.652
 6449SOL     OW20245   2.764   5.569   1.098
 6449SOL    HW120246   2.779   5.662   1.065
 6449SOL    HW220247   2.679   5.566   1.150
 6450SOL     OW20248   0.682   4.511   0.720
 6450SOL    HW120249   0.610   4.527   0.788
 6450SOL    HW220250   0.767   4.553   0.750
 6451SOL     OW20251   4.745   2.408   1.394
 6451SOL    HW120252   4.753   2.333   1.460
 6451SOL    HW220253   4.810   2.480   1.418
 6452SOL     OW20254   4.719   1.771   3.682
 6452SOL    HW120255   4.761   1.708   3.616
 6452SOL    HW220256   4.625   1.790   3.655
 6453SOL     OW20257   2.430   0.686   1.738
 6453SOL    HW120258   2.423   0.683   1.838
 6453SOL    HW220259   2.447   0.780   1.709
 6454SOL     OW20260   4.939   2.345   3.399
 6454SOL    HW120261   4.915   2.366   3.494
 6454SOL    HW220262   4.923   2.426   3.342
 6455SOL     OW20263   6.500   3.484   3.444
 6455SOL    HW120264   6.560   3.415   3.483
 6455SOL    HW220265   6.535   3.511   3.354
 6456SOL     OW20266   6.083   1.196   2.829
 6456SOL    HW120267   6.037   1.166   2.913
 6456SOL    HW220268   6.160   1.136   2.810
 6457SOL     OW20269   3.526   0.080   1.672
 6457SOL    HW120270   3.564   0.121   1.755
 6457SOL    HW220271   3.451   0.018   1.697
 6458SOL     OW20272   6.864   5.449   3.789
 6458SOL    HW120273   6.780   5.406   3.821
 6458SOL    HW220274   6.926   5.464   3.866
 6459SOL     OW20275   0.008   3.172   3.057
 6459SOL    HW120276   0.093   3.193   3.105
 6459SOL    HW220277   6.962   3.126   3.120
 6460SOL     OW20278   0.489   5.576   6.469
 6460SOL    HW120279   0.588   5.583   6.457
 6460SOL    HW220280   0.459   5.485   6.440
 6461SOL     OW20281   1.250   5.679   1.174
 6461SOL    HW120282   1.226   5.772   1.146
 6461SOL    HW220283   1.296   5.632   1.099
 6462SOL     OW20284   1.854   4.094   5.638
 6462SOL    HW120285   1.827   4.016   5.695
 6462SOL    HW220286   1.932   4.141   5.679
 6463SOL     OW20287   4.889   1.884   1.391
 6463SOL    HW120288   4.819   1.823   1.353
 6463SOL    HW220289   4.938   1.929   1.317
 6464SOL     OW20290   0.963   4.303   3.585
 6464SOL    HW120291   1.011   4.278   3.501
 6464SOL    HW220292   1.010   4.264   3.664
 6465SOL     OW20293   3.526   1.657   3.699
 6465SOL    HW120294   3.491   1.588   3.763
 6465SOL    HW220295   3.485   1.642   3.609
 6466SOL     OW20296   6.742   3.870   0.390
 6466SOL    HW120297   6.691   3.949   0.422
 6466SOL    HW220298   6.681   3.807   0.342
 6467SOL     OW20299   2.622   3.264   0.650
 6467SOL    HW120300   2.652   3.170   0.633
 6467SOL    HW220301   2.525   3.274   0.626
 6468SOL     OW20302   2.436   0.936   0.837
 6468SOL    HW120303   2.355   0.924   0.780
 6468SOL    HW220304   2.518   0.919   0.781
 6469SOL     OW20305   2.947   1.512   2.314
 6469SOL    HW120306   2.957   1.549   2.221
 6469SOL    HW220307   2.891   1.429   2.310
 6470SOL     OW20308   0.080   1.848   6.967
 6470SOL    HW120309   0.011   1.777   6.949
 6470SOL    HW220310   0.089   1.862   0.048
 6471SOL     OW20311   1.163   6.393   5.843
 6471SOL    HW120312   1.160   6.341   5.928
 6471SOL    HW220313   1.080   6.449   5.835
 6472SOL     OW20314   6.606   6.180   2.869
 6472SOL    HW120315   6.676   6.115   2.899
 6472SOL    HW220316   6.515   6.145   2.893
 6473SOL     OW20317   2.586   1.426   3.789
 6473SOL    HW120318   2.639   1.510   3.802
 6473SOL    HW220319   2.585   1.403   3.692
 6474SOL     OW20320   3.759   5.438   4.903
 6474SOL    HW120321   3.707   5.484   4.831
 6474SOL    HW220322   3.700   5.371   4.949
 6475SOL     OW20323   5.954   5.397   2.694
 6475SOL    HW120324   6.005   5.459   2.634
 6475SOL    HW220325   5.913   5.324   2.640
 6476SOL     OW20326   3.807   2.047   6.722
 6476SOL    HW120327   3.792   1.994   6.638
 6476SOL    HW220328   3.892   2.099   6.713
 6477SOL     OW20329   6.182   5.956   1.394
 6477SOL    HW120330   6.268   5.939   1.443
 6477SOL    HW220331   6.146   5.869   1.359
 6478SOL     OW20332   3.211   5.711   0.952
 6478SOL    HW120333   3.172   5.708   1.044
 6478SOL    HW220334   3.268   5.793   0.943
 6479SOL     OW20335   3.394   6.247   3.208
 6479SOL    HW120336   3.306   6.200   3.205
 6479SOL    HW220337   3.443   6.220   3.291
 6480SOL     OW20338   4.053   2.163   6.629
 6480SOL    HW120339   3.972   2.199   6.582
 6480SOL    HW220340   4.131   2.165   6.567
 6481SOL     OW20341   3.320   2.576   1.685
 6481SOL    HW120342   3.307   2.665   1.642
 6481SOL    HW220343   3.387   2.583   1.758
 6482SOL     OW20344   5.822   4.075   6.020
 6482SOL    HW120345   5.835   4.144   6.091
 6482SOL    HW220346   5.764   4.002   6.054
 6483SOL     OW20347   1.705   6.479   4.986
 6483SOL    HW120348   1.659   6.397   4.953
 6483SOL    HW220349   1.637   6.542   5.023
 6484SOL     OW20350   2.580   1.075   3.575
 6484SOL    HW120351   2.646   1.032   3.514
 6484SOL    HW220352   2.488   1.057   3.543
 6485SOL     OW20353   2.583   6.364   5.127
 6485SOL    HW120354   2.511   6.345   5.193
 6485SOL    HW220355   2.556   6.440   5.068
 6486SOL     OW20356   1.320   5.297   2.980
 6486SOL    HW120357   1.322   5.326   3.076
 6486SOL    HW220358   1.306   5.377   2.922
 6487SOL     OW20359   5.479   4.719   4.311
 6487SOL    HW120360   5.386   4.729   4.346
 6487SOL    HW220361   5.540   4.782   4.359
 6488SOL     OW20362   3.852   5.180   4.677
 6488SOL    HW120363   3.906   5.096   4.677
 6488SOL    HW220364   3.899   5.249   4.732
 6489SOL     OW20365   4.996   2.404   5.402
 6489SOL    HW120366   4.911   2.457   5.395
 6489SOL    HW220367   5.012   2.355   5.316
 6490SOL     OW20368   2.077   2.233   0.013
 6490SOL    HW120369   2.165   2.249   0.059
 6490SOL    HW220370   2.004   2.278   0.064
 6491SOL     OW20371   2.630   6.584   1.933
 6491SOL    HW120372   2.725   6.571   1.962
 6491SOL    HW220373   2.621   6.561   1.836
 6492SOL     OW20374   3.897   3.527   4.721
 6492SOL    HW120375   3.964   3.602   4.717
 6492SOL    HW220376   3.938   3.448   4.767
 6493SOL     OW20377   0.967   4.307   5.093
 6493SOL    HW120378   0.903   4.294   5.169
 6493SOL    HW220379   1.029   4.229   5.088
 6494SOL     OW20380   6.076   0.453   1.397
 6494SOL    HW120381   6.036   0.538   1.430
 6494SOL    HW220382   6.006   0.382   1.392
 6495SOL     OW20383   6.122   0.235   3.631
 6495SOL    HW120384   6.194   0.241   3.701
 6495SOL    HW220385   6.093   0.140   3.622
 6496SOL     OW20386   3.458   1.405   1.559
 6496SOL    HW120387   3.521   1.475   1.525
 6496SOL    HW220388   3.465   1.323   1.502
 6497SOL     OW20389   0.052   1.294   0.682
 6497SOL    HW120390   0.040   1.374   0.741
 6497SOL    HW220391   0.133   1.308   0.623
 6498SOL     OW20392   0.787   4.628   4.143
 6498SOL    HW120393   0.792   4.552   4.208
 6498SOL    HW220394   0.740   4.705   4.186
 6499SOL     OW20395   4.906   3.309   3.445
 6499SOL    HW120396   4.900   3.245   3.369
 6499SOL    HW220397   4.823   3.366   3.447
 6500SOL     OW20398   1.338   4.314   2.888
 6500SOL    HW120399   1.388   4.230   2.911
 6500SOL    HW220400   1.274   4.337   2.961
 6501SOL     OW20401   6.267   1.900   1.773
 6501SOL    HW120402   6.188   1.875   1.718
 6501SOL    HW220403   6.341   1.930   1.713
 6502SOL     OW20404   6.744   3.515   2.163
 6502SOL    HW120405   6.684   3.594   2.157
 6502SOL    HW220406   6.786   3.511   2.253
 6503SOL     OW20407   6.869   3.271   5.521
 6503SOL    HW120408   6.813   3.302   5.445
 6503SOL    HW220409   6.840   3.180   5.550
 6504SOL     OW20410   4.733   5.853   6.428
 6504SOL    HW120411   4.672   5.932   6.425
 6504SOL    HW220412   4.726   5.803   6.342
 6505SOL     OW20413   6.979   5.706   6.945
 6505SOL    HW120414   6.900   5.755   6.983
 6505SOL    HW220415   0.032   5.697   7.016
 6506SOL     OW20416   0.329   3.452   2.266
 6506SOL    HW120417   0.381   3.537   2.263
 6506SOL    HW220418   0.387   3.378   2.299
 6507SOL     OW20419   3.443   5.069   6.786
 6507SOL    HW120420   3.510   5.126   6.738
 6507SOL    HW220421   3.357   5.068   6.735
 6508SOL     OW20422   0.702   7.014   2.443
 6508SOL    HW120423   0.729   0.070   2.506
 6508SOL    HW220424   0.703   6.926   2.492
 6509SOL     OW20425   2.594   1.858   6.335
 6509SOL    HW120426   2.579   1.777   6.392
 6509SOL    HW220427   2.579   1.940   6.390
 6510SOL     OW20428   2.960   5.948   5.758
 6510SOL    HW120429   2.875   5.961   5.808
 6510SOL    HW220430   3.038   5.966   5.818
 6511SOL     OW20431   3.035   1.633   0.720
 6511SOL    HW120432   3.102   1.595   0.783
 6511SOL    HW220433   2.947   1.588   0.735
 6512SOL     OW20434   3.709   1.744   0.203
 6512SOL    HW120435   3.643   1.775   0.134
 6512SOL    HW220436   3.794   1.719   0.158
 6513SOL     OW20437   2.631   4.803   2.978
 6513SOL    HW120438   2.707   4.825   3.039
 6513SOL    HW220439   2.666   4.757   2.896
 6514SOL     OW20440   5.153   6.437   5.582
 6514SOL    HW120441   5.210   6.388   5.516
 6514SOL    HW220442   5.065   6.390   5.591
 6515SOL     OW20443   1.488   4.824   2.291
 6515SOL    HW120444   1.581   4.795   2.313
 6515SOL    HW220445   1.478   4.834   2.192
 6516SOL     OW20446   6.579   4.000   1.512
 6516SOL    HW120447   6.618   3.928   1.571
 6516SOL    HW220448   6.516   3.959   1.447
 6517SOL     OW20449   0.363   3.730   1.043
 6517SOL    HW120450   0.415   3.728   0.958
 6517SOL    HW220451   0.267   3.749   1.022
 6518SOL     OW20452   0.621   1.686   2.823
 6518SOL    HW120453   0.614   1.698   2.724
 6518SOL    HW220454   0.603   1.773   2.869
 6519SOL     OW20455   1.277   1.471   3.075
 6519SOL    HW120456   1.314   1.507   3.161
 6519SOL    HW220457   1.248   1.548   3.017
 6520SOL     OW20458   6.914   5.234   6.854
 6520SOL    HW120459   6.899   5.160   6.789
 6520SOL    HW220460   6.950   5.314   6.807
 6521SOL     OW20461   1.678   3.943   3.494
 6521SOL    HW120462   1.601   3.881   3.480
 6521SOL    HW220463   1.681   4.011   3.421
 6522SOL     OW20464   2.631   3.002   5.334
 6522SOL    HW120465   2.553   3.023   5.275
 6522SOL    HW220466   2.642   2.903   5.341
 6523SOL     OW20467   6.033   0.368   0.248
 6523SOL    HW120468   6.130   0.347   0.233
 6523SOL    HW220469   5.977   0.288   0.226
 6524SOL     OW20470   2.466   2.532   0.720
 6524SOL    HW120471   2.430   2.528   0.813
 6524SOL    HW220472   2.492   2.439   0.691
 6525SOL     OW20473   1.150   5.373   3.558
 6525SOL    HW120474   1.109   5.418   3.479
 6525SOL    HW220475   1.165   5.439   3.631
 6526SOL     OW20476   0.519   5.731   0.137
 6526SOL    HW120477   0.458   5.736   0.058
 6526SOL    HW220478   0.604   5.780   0.116
 6527SOL     OW20479   6.897   1.564   0.078
 6527SOL    HW120480   6.852   1.653   0.091
 6527SOL    HW220481   6.950   1.542   0.160
 6528SOL     OW20482   4.195   7.001   6.907
 6528SOL    HW120483   4.101   6.970   6.892
 6528SOL    HW220484   4.252   6.972   6.830
 6529SOL     OW20485   5.837   0.689   2.835
 6529SOL    HW120486   5.770   0.735   2.776
 6529SOL    HW220487   5.915   0.658   2.779
 6530SOL     OW20488   0.603   3.603   2.609
 6530SOL    HW120489   0.690   3.639   2.574
 6530SOL    HW220490   0.617   3.509   2.641
 6531SOL     OW20491   3.624   4.094   5.093
 6531SOL    HW120492   3.552   4.115   5.028
 6531SOL    HW220493   3.711   4.132   5.060
 6532SOL     OW20494   1.308   0.419   0.463
 6532SOL    HW120495   1.319   0.362   0.544
 6532SOL    HW220496   1.305   0.515   0.491
 6533SOL     OW20497   4.949   3.601   1.059
 6533SOL    HW120498   4.931   3.641   1.149
 6533SOL    HW220499   4.869   3.547   1.031
 6534SOL     OW20500   6.895   4.665   3.114
 6534SOL    HW120501   6.873   4.585   3.059
 6534SOL    HW220502   6.972   4.643   3.174
 6535SOL     OW20503   5.460   2.939   5.362
 6535SOL    HW120504   5.370   2.916   5.400
 6535SOL    HW220505   5.531   2.895   5.417
 6536SOL     OW20506   0.533   4.763   5.171
 6536SOL    HW120507   0.510   4.706   5.250
 6536SOL    HW220508   0.455   4.821   5.148
 6537SOL     OW20509   6.203   5.425   4.078
 6537SOL    HW120510   6.260   5.505   4.057
 6537SOL    HW220511   6.130   5.417   4.011
 6538SOL     OW20512   1.674   3.110   5.596
 6538SOL    HW120513   1.622   3.177   5.543
 6538SOL    HW220514   1.733   3.158   5.661
 6539SOL     OW20515   5.260   0.710   5.914
 6539SOL    HW120516   5.188   0.740   5.851
 6539SOL    HW220517   5.334   0.666   5.862
 6540SOL     OW20518   6.357   2.643   5.528
 6540SOL    HW120519   6.411   2.680   5.604
 6540SOL    HW220520   6.344   2.714   5.459
 6541SOL     OW20521   5.923   1.380   5.238
 6541SOL    HW120522   5.922   1.443   5.315
 6541SOL    HW220523   5.880   1.294   5.266
 6542SOL     OW20524   1.723   4.378   3.066
 6542SOL    HW120525   1.651   4.416   3.125
 6542SOL    HW220526   1.713   4.414   2.973
 6543SOL     OW20527   3.666   1.574   4.907
 6543SOL    HW120528   3.728   1.653   4.904
 6543SOL    HW220529   3.582   1.597   4.858
 6544SOL     OW20530   0.977   6.549   1.628
 6544SOL    HW120531   0.878   6.548   1.643
 6544SOL    HW220532   1.018   6.620   1.685
 6545SOL     OW20533   4.626   6.434   0.794
 6545SOL    HW120534   4.668   6.344   0.803
 6545SOL    HW220535   4.689   6.503   0.830
 6546SOL     OW20536   4.751   3.662   6.249
 6546SOL    HW120537   4.747   3.756   6.281
 6546SOL    HW220538   4.717   3.657   6.155
 6547SOL     OW20539   0.280   5.859   6.307
 6547SOL    HW120540   0.264   5.854   6.208
 6547SOL    HW220541   0.255   5.773   6.350
 6548SOL     OW20542   0.162   1.436   5.499
 6548SOL    HW120543   0.063   1.429   5.515
 6548SOL    HW220544   0.187   1.532   5.490
 6549SOL     OW20545   4.842   1.203   2.263
 6549SOL    HW120546   4.854   1.132   2.333
 6549SOL    HW220547   4.870   1.292   2.300
 6550SOL     OW20548   5.846   6.583   3.354
 6550SOL    HW120549   5.781   6.539   3.292
 6550SOL    HW220550   5.894   6.513   3.406
 6551SOL     OW20551   3.410   3.790   0.759
 6551SOL    HW120552   3.460   3.703   0.749
 6551SOL    HW220553   3.456   3.860   0.704
 6552SOL     OW20554   2.080   5.760   0.494
 6552SOL    HW120555   2.090   5.707   0.409
 6552SOL    HW220556   1.988   5.745   0.531
 6553SOL     OW20557   0.799   1.244   4.134
 6553SOL    HW120558   0.815   1.246   4.232
 6553SOL    HW220559   0.702   1.261   4.115
 6554SOL     OW20560   1.898   1.215   3.768
 6554SOL    HW120561   1.907   1.127   3.721
 6554SOL    HW220562   1.872   1.286   3.703
 6555SOL     OW20563   6.493   3.764   3.526
 6555SOL    HW120564   6.426   3.786   3.597
 6555SOL    HW220565   6.525   3.670   3.538
 6556SOL     OW20566   4.903   3.142   2.740
 6556SOL    HW120567   4.862   3.138   2.831
 6556SOL    HW220568   4.839   3.103   2.673
 6557SOL     OW20569   2.396   0.719   2.023
 6557SOL    HW120570   2.414   0.673   2.110
 6557SOL    HW220571   2.457   0.798   2.015
 6558SOL     OW20572   5.643   5.669   6.599
 6558SOL    HW120573   5.639   5.620   6.512
 6558SOL    HW220574   5.573   5.739   6.601
 6559SOL     OW20575   0.212   2.279   6.151
 6559SOL    HW120576   0.203   2.337   6.070
 6559SOL    HW220577   0.308   2.256   6.165
 6560SOL     OW20578   5.371   4.593   0.481
 6560SOL    HW120579   5.344   4.522   0.416
 6560SOL    HW220580   5.327   4.679   0.457
 6561SOL     OW20581   3.514   4.557   7.012
 6561SOL    HW120582   3.511   4.649   6.972
 6561SOL    HW220583   3.486   4.490   6.943
 6562SOL     OW20584   5.481   2.697   1.180
 6562SOL    HW120585   5.510   2.755   1.257
 6562SOL    HW220586   5.527   2.608   1.187
 6563SOL     OW20587   5.297   5.639   5.217
 6563SOL    HW120588   5.353   5.603   5.142
 6563SOL    HW220589   5.207   5.666   5.181
 6564SOL     OW20590   6.097   3.396   2.956
 6564SOL    HW120591   6.138   3.319   3.005
 6564SOL    HW220592   6.169   3.454   2.919
 6565SOL     OW20593   5.453   0.614   3.246
 6565SOL    HW120594   5.525   0.633   3.313
 6565SOL    HW220595   5.493   0.607   3.155
 6566SOL     OW20596   4.659   6.088   2.765
 6566SOL    HW120597   4.576   6.039   2.738
 6566SOL    HW220598   4.652   6.115   2.861
 6567SOL     OW20599   4.143   0.756   1.268
 6567SOL    HW120600   4.227   0.707   1.294
 6567SOL    HW220601   4.161   0.813   1.189
 6568SOL     OW20602   4.185   1.590   1.201
 6568SOL    HW120603   4.133   1.672   1.179
 6568SOL    HW220604   4.136   1.538   1.272
 6569SOL     OW20605   0.245   4.316   5.446
 6569SOL    HW120606   0.261   4.410   5.475
 6569SOL    HW220607   0.332   4.266   5.446
 6570SOL     OW20608   4.142   0.320   2.003
 6570SOL    HW120609   4.084   0.238   1.999
 6570SOL    HW220610   4.123   0.371   2.087
 6571SOL     OW20611   3.455   5.153   2.807
 6571SOL    HW120612   3.479   5.236   2.857
 6571SOL    HW220613   3.374   5.111   2.849
 6572SOL     OW20614   1.240   5.666   4.102
 6572SOL    HW120615   1.172   5.726   4.059
 6572SOL    HW220616   1.194   5.586   4.141
 6573SOL     OW20617   1.410   1.017   3.460
 6573SOL    HW120618   1.374   1.025   3.553
 6573SOL    HW220619   1.470   1.094   3.441
 6574SOL     OW20620   1.935   5.330   1.748
 6574SOL    HW120621   1.952   5.329   1.650
 6574SOL    HW220622   1.963   5.243   1.788
 6575SOL     OW20623   6.833   1.165   3.157
 6575SOL    HW120624   6.756   1.221   3.128
 6575SOL    HW220625   6.915   1.222   3.164
 6576SOL     OW20626   4.602   6.019   0.840
 6576SOL    HW120627   4.679   6.075   0.869
 6576SOL    HW220628   4.621   5.923   0.859
 6577SOL     OW20629   3.093   1.005   3.742
 6577SOL    HW120630   3.087   1.100   3.710
 6577SOL    HW220631   3.047   0.997   3.831
 6578SOL     OW20632   1.655   4.851   1.852
 6578SOL    HW120633   1.689   4.895   1.768
 6578SOL    HW220634   1.644   4.753   1.836
 6579SOL     OW20635   6.598   1.135   4.205
 6579SOL    HW120636   6.637   1.207   4.263
 6579SOL    HW220637   6.546   1.176   4.131
 6580SOL     OW20638   2.310   1.503   6.757
 6580SOL    HW120639   2.263   1.589   6.736
 6580SOL    HW220640   2.254   1.448   6.819
 6581SOL     OW20641   0.496   2.107   0.848
 6581SOL    HW120642   0.480   2.204   0.865
 6581SOL    HW220643   0.452   2.053   0.919
 6582SOL     OW20644   6.739   1.202   3.442
 6582SOL    HW120645   6.810   1.179   3.510
 6582SOL    HW220646   6.775   1.188   3.350
 6583SOL     OW20647   3.639   5.431   6.825
 6583SOL    HW120648   3.563   5.487   6.793
 6583SOL    HW220649   3.719   5.490   6.842
 6584SOL     OW20650   3.672   2.560   0.530
 6584SOL    HW120651   3.607   2.545   0.605
 6584SOL    HW220652   3.637   2.516   0.447
 6585SOL     OW20653   5.972   6.638   1.206
 6585SOL    HW120654   6.016   6.583   1.277
 6585SOL    HW220655   5.875   6.650   1.229
 6586SOL     OW20656   6.872   1.765   6.577
 6586SOL    HW120657   6.808   1.842   6.572
 6586SOL    HW220658   6.831   1.685   6.534
 6587SOL     OW20659   1.869   4.681   5.475
 6587SOL    HW120660   1.809   4.760   5.487
 6587SOL    HW220661   1.957   4.700   5.518
 6588SOL     OW20662   6.704   3.041   0.683
 6588SOL    HW120663   6.718   2.992   0.769
 6588SOL    HW220664   6.746   2.990   0.608
 6589SOL     OW20665   6.768   0.369   2.297
 6589SOL    HW120666   6.805   0.292   2.246
 6589SOL    HW220667   6.738   0.440   2.234
 6590SOL     OW20668   1.317   6.786   3.587
 6590SOL    HW120669   1.345   6.796   3.682
 6590SOL    HW220670   1.389   6.822   3.527
 6591SOL     OW20671   5.723   4.432   4.179
 6591SOL    HW120672   5.748   4.473   4.266
 6591SOL    HW220673   5.648   4.483   4.138
 6592SOL     OW20674   6.080   0.036   3.271
 6592SOL    HW120675   6.180   0.029   3.273
 6592SOL    HW220676   6.052   0.126   3.304
 6593SOL     OW20677   2.996   2.160   2.160
 6593SOL    HW120678   2.936   2.225   2.113
 6593SOL    HW220679   2.943   2.079   2.186
 6594SOL     OW20680   5.224   0.409   6.288
 6594SOL    HW120681   5.171   0.474   6.233
 6594SOL    HW220682   5.218   0.318   6.247
 6595SOL     OW20683   1.025   2.373   5.378
 6595SOL    HW120684   1.108   2.399   5.329
 6595SOL    HW220685   1.038   2.283   5.421
 6596SOL     OW20686   5.952   6.680   2.518
 6596SOL    HW120687   5.930   6.670   2.615
 6596SOL    HW220688   6.044   6.646   2.501
 6597SOL     OW20689   0.986   4.506   2.116
 6597SOL    HW120690   1.021   4.569   2.046
 6597SOL    HW220691   0.935   4.558   2.185
 6598SOL     OW20692   1.504   4.467   4.201
 6598SOL    HW120693   1.436   4.538   4.182
 6598SOL    HW220694   1.564   4.497   4.275
 6599SOL     OW20695   6.082   5.366   6.313
 6599SOL    HW120696   6.017   5.314   6.368
 6599SOL    HW220697   6.065   5.464   6.325
 6600SOL     OW20698   4.503   6.993   5.198
 6600SOL    HW120699   4.572   7.002   5.126
 6600SOL    HW220700   4.430   6.933   5.167
 6601SOL     OW20701   1.606   2.469   1.733
 6601SOL    HW120702   1.634   2.438   1.642
 6601SOL    HW220703   1.632   2.565   1.745
 6602SOL     OW20704   1.157   6.031   1.883
 6602SOL    HW120705   1.104   5.956   1.922
 6602SOL    HW220706   1.147   6.030   1.783
 6603SOL     OW20707   0.506   3.749   2.829
 6603SOL    HW120708   0.530   3.681   2.760
 6603SOL    HW220709   0.587   3.803   2.852
 6604SOL     OW20710   2.351   6.152   2.571
 6604SOL    HW120711   2.446   6.176   2.552
 6604SOL    HW220712   2.289   6.210   2.517
 6605SOL     OW20713   6.583   5.119   0.966
 6605SOL    HW120714   6.593   5.114   1.066
 6605SOL    HW220715   6.596   5.213   0.936
 6606SOL     OW20716   1.803   3.232   3.118
 6606SOL    HW120717   1.740   3.266   3.188
 6606SOL    HW220718   1.762   3.244   3.028
 6607SOL     OW20719   5.969   3.924   3.218
 6607SOL    HW120720   5.972   3.974   3.304
 6607SOL    HW220721   6.060   3.890   3.196
 6608SOL     OW20722   1.394   5.911   5.972
 6608SOL    HW120723   1.473   5.933   5.914
 6608SOL    HW220724   1.416   5.833   6.030
 6609SOL     OW20725   4.556   1.809   6.040
 6609SOL    HW120726   4.503   1.737   6.085
 6609SOL    HW220727   4.507   1.840   5.958
 6610SOL     OW20728   2.769   5.082   0.914
 6610SOL    HW120729   2.827   5.004   0.937
 6610SOL    HW220730   2.802   5.163   0.962
 6611SOL     OW20731   4.135   1.955   4.402
 6611SOL    HW120732   4.193   1.878   4.376
 6611SOL    HW220733   4.052   1.922   4.446
 6612SOL     OW20734   0.279   0.628   6.117
 6612SOL    HW120735   0.337   0.666   6.190
 6612SOL    HW220736   0.336   0.608   6.037
 6613SOL     OW20737   4.402   6.598   0.268
 6613SOL    HW120738   4.472   6.669   0.282
 6613SOL    HW220739   4.388   6.549   0.353
 6614SOL     OW20740   4.301   5.751   0.873
 6614SOL    HW120741   4.237   5.780   0.803
 6614SOL    HW220742   4.318   5.827   0.937
 6615SOL     OW20743   3.467   4.776   6.505
 6615SOL    HW120744   3.473   4.835   6.424
 6615SOL    HW220745   3.479   4.681   6.476
 6616SOL     OW20746   4.092   1.082   5.484
 6616SOL    HW120747   4.185   1.118   5.492
 6616SOL    HW220748   4.034   1.150   5.439
 6617SOL     OW20749   4.089   0.555   4.128
 6617SOL    HW120750   4.074   0.465   4.168
 6617SOL    HW220751   4.180   0.558   4.087
 6618SOL     OW20752   6.761   2.644   3.826
 6618SOL    HW120753   6.681   2.585   3.822
 6618SOL    HW220754   6.735   2.738   3.806
 6619SOL     OW20755   4.691   6.015   4.167
 6619SOL    HW120756   4.728   6.075   4.237
 6619SOL    HW220757   4.607   6.055   4.129
 6620SOL     OW20758   0.365   3.375   3.423
 6620SOL    HW120759   0.323   3.420   3.502
 6620SOL    HW220760   0.397   3.445   3.358
 6621SOL     OW20761   4.065   3.328   4.788
 6621SOL    HW120762   4.081   3.337   4.886
 6621SOL    HW220763   4.140   3.370   4.737
 6622SOL     OW20764   0.801   5.386   0.619
 6622SOL    HW120765   0.770   5.352   0.708
 6622SOL    HW220766   0.844   5.312   0.568
 6623SOL     OW20767   3.354   3.486   5.717
 6623SOL    HW120768   3.258   3.460   5.717
 6623SOL    HW220769   3.382   3.513   5.810
 6624SOL     OW20770   1.854   1.840   3.588
 6624SOL    HW120771   1.785   1.790   3.639
 6624SOL    HW220772   1.809   1.902   3.523
 6625SOL     OW20773   6.002   3.958   5.852
 6625SOL    HW120774   6.079   3.950   5.915
 6625SOL    HW220775   5.920   3.987   5.902
 6626SOL     OW20776   2.702   6.124   5.399
 6626SOL    HW120777   2.639   6.128   5.476
 6626SOL    HW220778   2.651   6.110   5.314
 6627SOL     OW20779   1.951   5.894   4.496
 6627SOL    HW120780   1.868   5.899   4.439
 6627SOL    HW220781   1.949   5.811   4.551
 6628SOL     OW20782   4.146   5.989   4.843
 6628SOL    HW120783   4.160   5.893   4.819
 6628SOL    HW220784   4.073   6.027   4.786
 6629SOL     OW20785   4.977   6.084   6.209
 6629SOL    HW120786   4.954   6.055   6.302
 6629SOL    HW220787   4.893   6.102   6.158
 6630SOL     OW20788   1.695   0.724   1.402
 6630SOL    HW120789   1.744   0.802   1.363
 6630SOL    HW220790   1.601   0.751   1.423
 6631SOL     OW20791   1.268   3.884   6.070
 6631SOL    HW120792   1.233   3.957   6.011
 6631SOL    HW220793   1.318   3.817   6.015
 6632SOL     OW20794   1.086   1.228   1.080
 6632SOL    HW120795   0.987   1.235   1.090
 6632SOL    HW220796   1.110   1.230   0.982
 6633SOL     OW20797   3.612   5.206   5.647
 6633SOL    HW120798   3.632   5.216   5.745
 6633SOL    HW220799   3.516   5.183   5.635
 6634SOL     OW20800   4.103   1.696   4.035
 6634SOL    HW120801   4.082   1.794   4.026
 6634SOL    HW220802   4.053   1.645   3.966
 6635SOL     OW20803   5.340   5.031   3.800
 6635SOL    HW120804   5.403   4.957   3.825
 6635SOL    HW220805   5.303   5.014   3.709
 6636SOL     OW20806   4.097   0.840   6.768
 6636SOL    HW120807   4.143   0.764   6.722
 6636SOL    HW220808   4.087   0.916   6.704
 6637SOL     OW20809   1.235   1.811   1.813
 6637SOL    HW120810   1.182   1.890   1.783
 6637SOL    HW220811   1.317   1.843   1.862
 6638SOL     OW20812   3.182   3.415   3.785
 6638SOL    HW120813   3.113   3.437   3.716
 6638SOL    HW220814   3.139   3.362   3.859
 6639SOL     OW20815   4.958   2.581   1.446
 6639SOL    HW120816   5.048   2.625   1.451
 6639SOL    HW220817   4.929   2.553   1.538
 6640SOL     OW20818   1.586   3.289   5.088
 6640SOL    HW120819   1.565   3.317   4.994
 6640SOL    HW220820   1.537   3.204   5.109
 6641SOL     OW20821   5.034   1.864   1.152
 6641SOL    HW120822   5.129   1.836   1.142
 6641SOL    HW220823   4.974   1.785   1.140
 6642SOL     OW20824   0.813   5.836   0.410
 6642SOL    HW120825   0.830   5.740   0.389
 6642SOL    HW220826   0.841   5.893   0.333
 6643SOL     OW20827   3.940   5.791   6.452
 6643SOL    HW120828   3.866   5.826   6.395
 6643SOL    HW220829   4.020   5.851   6.445
 6644SOL     OW20830   1.749   6.559   3.516
 6644SOL    HW120831   1.838   6.604   3.524
 6644SOL    HW220832   1.759   6.472   3.468
 6645SOL     OW20833   5.746   2.679   0.644
 6645SOL    HW120834   5.674   2.659   0.710
 6645SOL    HW220835   5.705   2.696   0.554
 6646SOL     OW20836   4.295   6.915   6.160
 6646SOL    HW120837   4.362   6.852   6.120
 6646SOL    HW220838   4.257   6.973   6.088
 6647SOL     OW20839   4.493   5.253   1.102
 6647SOL    HW120840   4.590   5.259   1.076
 6647SOL    HW220841   4.474   5.319   1.174
 6648SOL     OW20842   2.764   6.250   6.216
 6648SOL    HW120843   2.733   6.302   6.296
 6648SOL    HW220844   2.859   6.222   6.230
 6649SOL     OW20845   5.232   3.174   6.848
 6649SOL    HW120846   5.280   3.089   6.869
 6649SOL    HW220847   5.298   3.243   6.819
 6650SOL     OW20848   2.191   2.015   5.037
 6650SOL    HW120849   2.200   1.974   4.946
 6650SOL    HW220850   2.266   1.983   5.095
 6651SOL     OW20851   6.598   1.397   6.685
 6651SOL    HW120852   6.598   1.479   6.627
 6651SOL    HW220853   6.671   1.404   6.753
 6652SOL     OW20854   0.250   4.488   0.624
 6652SOL    HW120855   0.227   4.393   0.607
 6652SOL    HW220856   0.198   4.547   0.561
 6653SOL     OW20857   5.570   4.715   0.634
 6653SOL    HW120858   5.498   4.697   0.567
 6653SOL    HW220859   5.528   4.729   0.724
 6654SOL     OW20860   6.744   4.456   2.992
 6654SOL    HW120861   6.688   4.467   3.075
 6654SOL    HW220862   6.684   4.448   2.912
 6655SOL     OW20863   0.039   5.161   2.219
 6655SOL    HW120864   6.990   5.147   2.292
 6655SOL    HW220865   0.131   5.140   2.254
 6656SOL     OW20866   4.328   1.403   3.216
 6656SOL    HW120867   4.327   1.497   3.251
 6656SOL    HW220868   4.413   1.386   3.168
 6657SOL     OW20869   5.258   2.375   3.506
 6657SOL    HW120870   5.278   2.472   3.518
 6657SOL    HW220871   5.196   2.363   3.428
 6658SOL     OW20872   6.565   5.851   5.623
 6658SOL    HW120873   6.474   5.831   5.587
 6658SOL    HW220874   6.610   5.919   5.565
 6659SOL     OW20875   0.792   5.027   2.459
 6659SOL    HW120876   0.760   5.094   2.526
 6659SOL    HW220877   0.755   5.051   2.369
 6660SOL     OW20878   6.769   6.168   3.807
 6660SOL    HW120879   6.704   6.176   3.732
 6660SOL    HW220880   6.856   6.134   3.772
 6661SOL     OW20881   3.529   5.663   3.972
 6661SOL    HW120882   3.599   5.596   3.948
 6661SOL    HW220883   3.476   5.629   4.050
 6662SOL     OW20884   4.028   6.706   2.324
 6662SOL    HW120885   3.952   6.750   2.276
 6662SOL    HW220886   3.998   6.617   2.360
 6663SOL     OW20887   1.215   4.057   5.841
 6663SOL    HW120888   1.123   4.073   5.805
 6663SOL    HW220889   1.250   4.141   5.882
 6664SOL     OW20890   3.121   0.122   0.940
 6664SOL    HW120891   3.158   0.214   0.928
 6664SOL    HW220892   3.033   0.127   0.988
 6665SOL     OW20893   2.333   0.537   6.014
 6665SOL    HW120894   2.314   0.467   5.945
 6665SOL    HW220895   2.318   0.628   5.975
 6666SOL     OW20896   3.730   6.563   5.280
 6666SOL    HW120897   3.773   6.515   5.204
 6666SOL    HW220898   3.777   6.649   5.297
 6667SOL     OW20899   6.857   6.294   0.210
 6667SOL    HW120900   6.776   6.349   0.193
 6667SOL    HW220901   6.880   6.242   0.128
 6668SOL     OW20902   0.509   4.869   0.491
 6668SOL    HW120903   0.527   4.938   0.421
 6668SOL    HW220904   0.593   4.850   0.542
 6669SOL     OW20905   1.384   1.204   3.077
 6669SOL    HW120906   1.316   1.132   3.088
 6669SOL    HW220907   1.338   1.291   3.057
 6670SOL     OW20908   4.235   2.243   1.071
 6670SOL    HW120909   4.146   2.200   1.083
 6670SOL    HW220910   4.300   2.204   1.137
 6671SOL     OW20911   4.699   5.720   0.611
 6671SOL    HW120912   4.624   5.725   0.545
 6671SOL    HW220913   4.773   5.665   0.572
 6672SOL     OW20914   1.998   2.125   1.041
 6672SOL    HW120915   2.026   2.182   0.963
 6672SOL    HW220916   1.923   2.169   1.089
 6673SOL     OW20917   6.302   3.232   3.541
 6673SOL    HW120918   6.223   3.205   3.485
 6673SOL    HW220919   6.372   3.273   3.483
 6674SOL     OW20920   0.384   1.989   0.039
 6674SOL    HW120921   0.302   1.964   0.091
 6674SOL    HW220922   0.390   2.089   0.033
 6675SOL     OW20923   5.551   1.616   6.522
 6675SOL    HW120924   5.549   1.516   6.531
 6675SOL    HW220925   5.475   1.655   6.573
 6676SOL     OW20926   1.460   3.780   3.388
 6676SOL    HW120927   1.379   3.748   3.339
 6676SOL    HW220928   1.524   3.821   3.324
 6677SOL     OW20929   0.315   1.531   6.851
 6677SOL    HW120930   0.321   1.623   6.814
 6677SOL    HW220931   0.405   1.501   6.884
 6678SOL     OW20932   2.156   4.161   0.081
 6678SOL    HW120933   2.154   4.116   7.010
 6678SOL    HW220934   2.161   4.093   0.154
 6679SOL     OW20935   1.826   0.834   3.905
 6679SOL    HW120936   1.756   0.774   3.943
 6679SOL    HW220937   1.800   0.859   3.811
 6680SOL     OW20938   5.830   7.017   1.194
 6680SOL    HW120939   5.878   7.014   1.282
 6680SOL    HW220940   5.787   0.089   1.182
 6681SOL     OW20941   3.079   6.290   1.767
 6681SOL    HW120942   3.025   6.217   1.809
 6681SOL    HW220943   3.154   6.316   1.827
 6682SOL     OW20944   3.196   4.625   6.131
 6682SOL    HW120945   3.108   4.579   6.120
 6682SOL    HW220946   3.187   4.700   6.197
 6683SOL     OW20947   6.636   3.952   6.584
 6683SOL    HW120948   6.727   3.987   6.563
 6683SOL    HW220949   6.600   3.999   6.664
 6684SOL     OW20950   2.984   6.321   0.726
 6684SOL    HW120951   3.052   6.311   0.798
 6684SOL    HW220952   2.977   6.418   0.700
 6685SOL     OW20953   5.053   3.413   6.859
 6685SOL    HW120954   5.123   3.341   6.851
 6685SOL    HW220955   5.089   3.488   6.915
 6686SOL     OW20956   4.621   4.960   3.870
 6686SOL    HW120957   4.619   4.861   3.859
 6686SOL    HW220958   4.715   4.994   3.864
 6687SOL     OW20959   6.705   2.314   1.816
 6687SOL    HW120960   6.737   2.391   1.761
 6687SOL    HW220961   6.734   2.327   1.911
 6688SOL     OW20962   4.665   5.285   0.467
 6688SOL    HW120963   4.631   5.222   0.396
 6688SOL    HW220964   4.763   5.299   0.455
 6689SOL     OW20965   1.934   4.617   5.802
 6689SOL    HW120966   1.930   4.542   5.736
 6689SOL    HW220967   2.022   4.615   5.850
 6690SOL     OW20968   0.746   6.937   5.726
 6690SOL    HW120969   0.736   6.900   5.633
 6690SOL    HW220970   0.662   6.921   5.778
 6691SOL     OW20971   2.534   2.552   2.960
 6691SOL    HW120972   2.585   2.504   2.889
 6691SOL    HW220973   2.552   2.509   3.049
 6692SOL     OW20974   4.586   5.013   1.705
 6692SOL    HW120975   4.635   4.934   1.667
 6692SOL    HW220976   4.647   5.092   1.706
 6693SOL     OW20977   4.726   1.957   4.505
 6693SOL    HW120978   4.762   1.887   4.444
 6693SOL    HW220979   4.651   2.006   4.459
 6694SOL     OW20980   3.296   4.251   1.386
 6694SOL    HW120981   3.227   4.273   1.455
 6694SOL    HW220982   3.378   4.306   1.402
 6695SOL     OW20983   2.697   2.167   6.111
 6695SOL    HW120984   2.613   2.113   6.103
 6695SOL    HW220985   2.749   2.135   6.190
 6696SOL     OW20986   4.099   3.579   4.391
 6696SOL    HW120987   4.080   3.483   4.409
 6696SOL    HW220988   4.104   3.594   4.292
 6697SOL     OW20989   4.430   2.355   2.850
 6697SOL    HW120990   4.440   2.417   2.772
 6697SOL    HW220991   4.335   2.356   2.881
 6698SOL     OW20992   3.377   3.964   0.978
 6698SOL    HW120993   3.470   3.959   1.016
 6698SOL    HW220994   3.365   3.891   0.911
 6699SOL     OW20995   1.453   4.459   5.668
 6699SOL    HW120996   1.477   4.365   5.690
 6699SOL    HW220997   1.398   4.461   5.584
 6700SOL     OW20998   5.599   6.816   6.995
 6700SOL    HW120999   5.570   6.740   0.037
 6700SOL    HW221000   5.690   6.796   6.958
 6701SOL     OW21001   5.985   0.724   1.372
 6701SOL    HW121002   5.895   0.681   1.360
 6701SOL    HW221003   6.040   0.708   1.290
 6702SOL     OW21004   2.760   2.525   0.727
 6702SOL    HW121005   2.660   2.529   0.736
 6702SOL    HW221006   2.801   2.593   0.787
 6703SOL     OW21007   0.275   1.181   6.940
 6703SOL    HW121008   0.319   1.169   0.012
 6703SOL    HW221009   0.213   1.259   6.944
 6704SOL     OW21010   2.761   0.481   5.477
 6704SOL    HW121011   2.822   0.532   5.537
 6704SOL    HW221012   2.708   0.416   5.531
 6705SOL     OW21013   6.390   3.939   2.133
 6705SOL    HW121014   6.291   3.937   2.142
 6705SOL    HW221015   6.415   3.946   2.036
 6706SOL     OW21016   0.161   6.780   1.793
 6706SOL    HW121017   0.199   6.805   1.704
 6706SOL    HW221018   0.124   6.862   1.838
 6707SOL     OW21019   5.471   0.524   2.103
 6707SOL    HW121020   5.427   0.592   2.045
 6707SOL    HW221021   5.405   0.489   2.169
 6708SOL     OW21022   1.073   4.120   1.357
 6708SOL    HW121023   1.171   4.140   1.357
 6708SOL    HW221024   1.044   4.095   1.264
 6709SOL     OW21025   2.053   5.268   2.681
 6709SOL    HW121026   2.075   5.310   2.769
 6709SOL    HW221027   2.070   5.170   2.685
 6710SOL     OW21028   4.080   1.068   0.802
 6710SOL    HW121029   4.064   1.057   0.900
 6710SOL    HW221030   4.129   1.153   0.785
 6711SOL     OW21031   3.472   5.717   6.289
 6711SOL    HW121032   3.532   5.658   6.343
 6711SOL    HW221033   3.392   5.665   6.259
 6712SOL     OW21034   5.817   3.900   1.685
 6712SOL    HW121035   5.803   3.818   1.631
 6712SOL    HW221036   5.865   3.969   1.631
 6713SOL     OW21037   1.687   6.292   4.526
 6713SOL    HW121038   1.634   6.339   4.597
 6713SOL    HW221039   1.727   6.208   4.563
 6714SOL     OW21040   5.185   1.334   0.883
 6714SOL    HW121041   5.171   1.260   0.948
 6714SOL    HW221042   5.250   1.305   0.813
 6715SOL     OW21043   1.436   1.133   0.286
 6715SOL    HW121044   1.442   1.206   0.354
 6715SOL    HW221045   1.379   1.059   0.322
 6716SOL     OW21046   6.796   5.420   2.826
 6716SOL    HW121047   6.831   5.467   2.907
 6716SOL    HW221048   6.732   5.481   2.778
 6717SOL     OW21049   4.647   1.720   5.439
 6717SOL    HW121050   4.675   1.791   5.504
 6717SOL    HW221051   4.650   1.631   5.484
 6718SOL     OW21052   3.257   0.546   1.819
 6718SOL    HW121053   3.222   0.461   1.859
 6718SOL    HW221054   3.224   0.555   1.725
 6719SOL     OW21055   1.938   0.664   0.099
 6719SOL    HW121056   1.966   0.572   0.069
 6719SOL    HW221057   1.934   0.666   0.199
 6720SOL     OW21058   1.362   0.622   6.043
 6720SOL    HW121059   1.417   0.696   6.005
 6720SOL    HW221060   1.418   0.570   6.108
 6721SOL     OW21061   0.254   1.593   0.457
 6721SOL    HW121062   0.297   1.553   0.376
 6721SOL    HW221063   0.309   1.669   0.491
 6722SOL     OW21064   6.441   3.094   0.616
 6722SOL    HW121065   6.536   3.072   0.639
 6722SOL    HW221066   6.430   3.090   0.517
 6723SOL     OW21067   1.788   2.460   6.409
 6723SOL    HW121068   1.778   2.526   6.334
 6723SOL    HW221069   1.699   2.444   6.452
 6724SOL     OW21070   1.852   3.733   5.841
 6724SOL    HW121071   1.775   3.705   5.898
 6724SOL    HW221072   1.856   3.675   5.760
 6725SOL     OW21073   5.236   2.667   3.823
 6725SOL    HW121074   5.144   2.641   3.854
 6725SOL    HW221075   5.237   2.677   3.724
 6726SOL     OW21076   0.046   1.010   5.350
 6726SOL    HW121077   0.059   1.101   5.310
 6726SOL    HW221078   0.059   1.015   5.449
 6727SOL     OW21079   0.930   5.039   5.890
 6727SOL    HW121080   0.995   5.106   5.925
 6727SOL    HW221081   0.922   4.963   5.954
 6728SOL     OW21082   3.877   2.012   3.805
 6728SOL    HW121083   3.797   1.979   3.754
 6728SOL    HW221084   3.932   2.071   3.745
 6729SOL     OW21085   4.781   1.499   1.990
 6729SOL    HW121086   4.828   1.492   2.078
 6729SOL    HW221087   4.751   1.593   1.976
 6730SOL     OW21088   0.352   1.413   1.781
 6730SOL    HW121089   0.256   1.411   1.809
 6730SOL    HW221090   0.360   1.455   1.691
 6731SOL     OW21091   3.516   6.680   6.704
 6731SOL    HW121092   3.575   6.638   6.774
 6731SOL    HW221093   3.455   6.611   6.666
 6732SOL     OW21094   6.856   6.127   4.787
 6732SOL    HW121095   6.837   6.097   4.880
 6732SOL    HW221096   6.774   6.117   4.731
 6733SOL     OW21097   4.682   5.062   6.306
 6733SOL    HW121098   4.646   5.134   6.364
 6733SOL    HW221099   4.687   5.094   6.212
 6734SOL     OW21100   6.151   1.174   4.591
 6734SOL    HW121101   6.194   1.261   4.615
 6734SOL    HW221102   6.058   1.191   4.558
 6735SOL     OW21103   5.862   3.001   3.475
 6735SOL    HW121104   5.887   2.919   3.526
 6735SOL    HW221105   5.813   3.064   3.535
 6736SOL     OW21106   3.571   4.042   0.601
 6736SOL    HW121107   3.596   3.958   0.554
 6736SOL    HW221108   3.479   4.071   0.571
 6737SOL     OW21109   0.493   4.028   1.222
 6737SOL    HW121110   0.542   4.012   1.136
 6737SOL    HW221111   0.397   4.050   1.202
 6738SOL     OW21112   1.943   5.760   3.656
 6738SOL    HW121113   1.925   5.661   3.662
 6738SOL    HW221114   1.858   5.810   3.673
 6739SOL     OW21115   6.615   6.739   4.940
 6739SOL    HW121116   6.515   6.735   4.942
 6739SOL    HW221117   6.649   6.685   4.862
 6740SOL     OW21118   0.493   6.886   3.703
 6740SOL    HW121119   0.467   6.957   3.638
 6740SOL    HW221120   0.589   6.899   3.730
 6741SOL     OW21121   4.222   2.019   5.946
 6741SOL    HW121122   4.308   1.978   5.917
 6741SOL    HW221123   4.191   1.976   6.030
 6742SOL     OW21124   5.775   4.596   3.355
 6742SOL    HW121125   5.754   4.694   3.350
 6742SOL    HW221126   5.767   4.565   3.450
 6743SOL     OW21127   4.593   4.040   0.952
 6743SOL    HW121128   4.516   4.094   0.919
 6743SOL    HW221129   4.618   3.972   0.884
 6744SOL     OW21130   0.168   6.003   5.833
 6744SOL    HW121131   0.229   5.932   5.869
 6744SOL    HW221132   0.143   6.066   5.906
 6745SOL     OW21133   6.762   5.765   4.807
 6745SOL    HW121134   6.787   5.723   4.895
 6745SOL    HW221135   6.845   5.786   4.756
 6746SOL     OW21136   1.861   1.356   2.269
 6746SOL    HW121137   1.885   1.271   2.222
 6746SOL    HW221138   1.781   1.397   2.225
 6747SOL     OW21139   1.419   6.391   6.162
 6747SOL    HW121140   1.362   6.438   6.230
 6747SOL    HW221141   1.488   6.336   6.209
 6748SOL     OW21142   2.322   1.317   4.697
 6748SOL    HW121143   2.291   1.398   4.748
 6748SOL    HW221144   2.244   1.277   4.649
 6749SOL     OW21145   3.694   4.822   1.025
 6749SOL    HW121146   3.743   4.876   0.957
 6749SOL    HW221147   3.661   4.882   1.098
 6750SOL     OW21148   3.102   0.910   4.673
 6750SOL    HW121149   3.156   0.989   4.702
 6750SOL    HW221150   3.156   0.856   4.608
 6751SOL     OW21151   4.171   0.263   3.877
 6751SOL    HW121152   4.185   0.218   3.965
 6751SOL    HW221153   4.256   0.306   3.848
 6752SOL     OW21154   2.368   5.942   2.162
 6752SOL    HW121155   2.439   5.977   2.223
 6752SOL    HW221156   2.278   5.971   2.196
 6753SOL     OW21157   4.197   2.924   5.404
 6753SOL    HW121158   4.118   2.965   5.359
 6753SOL    HW221159   4.185   2.928   5.503
 6754SOL     OW21160   6.123   1.979   1.410
 6754SOL    HW121161   6.215   1.966   1.372
 6754SOL    HW221162   6.114   1.928   1.495
 6755SOL     OW21163   2.313   5.520   6.471
 6755SOL    HW121164   2.258   5.446   6.510
 6755SOL    HW221165   2.329   5.502   6.374
 6756SOL     OW21166   2.476   2.577   5.321
 6756SOL    HW121167   2.416   2.656   5.311
 6756SOL    HW221168   2.440   2.500   5.267
 6757SOL     OW21169   3.620   0.445   0.473
 6757SOL    HW121170   3.630   0.353   0.510
 6757SOL    HW221171   3.537   0.450   0.417
 6758SOL     OW21172   6.003   2.360   2.486
 6758SOL    HW121173   5.959   2.450   2.483
 6758SOL    HW221174   5.932   2.289   2.483
 6759SOL     OW21175   0.527   3.390   2.994
 6759SOL    HW121176   0.550   3.296   3.019
 6759SOL    HW221177   0.430   3.395   2.970
 6760SOL     OW21178   5.442   2.520   2.780
 6760SOL    HW121179   5.416   2.591   2.846
 6760SOL    HW221180   5.474   2.562   2.696
 6761SOL     OW21181   5.077   2.238   4.611
 6761SOL    HW121182   5.023   2.300   4.668
 6761SOL    HW221183   5.024   2.212   4.530
 6762SOL     OW21184   6.873   5.585   4.215
 6762SOL    HW121185   6.925   5.663   4.249
 6762SOL    HW221186   6.783   5.616   4.184
 6763SOL     OW21187   4.788   5.338   4.989
 6763SOL    HW121188   4.773   5.335   4.890
 6763SOL    HW221189   4.744   5.258   5.031
 6764SOL     OW21190   1.906   5.696   0.953
 6764SOL    HW121191   1.819   5.725   0.913
 6764SOL    HW221192   1.901   5.599   0.977
 6765SOL     OW21193   6.445   4.871   2.831
 6765SOL    HW121194   6.512   4.830   2.893
 6765SOL    HW221195   6.367   4.904   2.885
 6766SOL     OW21196   4.888   0.366   0.519
 6766SOL    HW121197   4.850   0.458   0.510
 6766SOL    HW221198   4.912   0.350   0.615
 6767SOL     OW21199   2.916   1.169   0.720
 6767SOL    HW121200   3.002   1.199   0.678
 6767SOL    HW221201   2.864   1.114   0.655
 6768SOL     OW21202   1.504   0.904   0.809
 6768SOL    HW121203   1.441   0.974   0.776
 6768SOL    HW221204   1.558   0.942   0.884
 6769SOL     OW21205   4.097   2.690   1.634
 6769SOL    HW121206   4.076   2.787   1.632
 6769SOL    HW221207   4.016   2.637   1.610
 6770SOL     OW21208   6.770   0.209   1.909
 6770SOL    HW121209   6.672   0.193   1.899
 6770SOL    HW221210   6.798   0.190   2.003
 6771SOL     OW21211   3.982   2.162   3.020
 6771SOL    HW121212   4.064   2.167   3.078
 6771SOL    HW221213   3.902   2.146   3.077
 6772SOL     OW21214   2.847   1.913   2.679
 6772SOL    HW121215   2.765   1.925   2.624
 6772SOL    HW221216   2.899   1.834   2.646
 6773SOL     OW21217   0.066   4.177   2.140
 6773SOL    HW121218   0.125   4.158   2.061
 6773SOL    HW221219   0.098   4.124   2.218
 6774SOL     OW21220   0.718   2.415   6.858
 6774SOL    HW121221   0.785   2.377   6.794
 6774SOL    HW221222   0.648   2.464   6.808
 6775SOL     OW21223   2.596   4.526   1.219
 6775SOL    HW121224   2.522   4.491   1.161
 6775SOL    HW221225   2.584   4.624   1.233
 6776SOL     OW21226   5.935   5.398   6.903
 6776SOL    HW121227   5.940   5.442   6.813
 6776SOL    HW221228   5.840   5.376   6.925
 6777SOL     OW21229   4.836   4.470   6.154
 6777SOL    HW121230   4.761   4.446   6.215
 6777SOL    HW221231   4.874   4.559   6.181
 6778SOL     OW21232   0.784   5.133   2.964
 6778SOL    HW121233   0.707   5.160   3.021
 6778SOL    HW221234   0.867   5.178   2.996
 6779SOL     OW21235   0.322   4.828   0.264
 6779SOL    HW121236   0.410   4.820   0.310
 6779SOL    HW221237   0.334   4.815   0.166
 6780SOL     OW21238   0.496   2.912   2.617
 6780SOL    HW121239   0.465   2.933   2.710
 6780SOL    HW221240   0.431   2.951   2.551
 6781SOL     OW21241   5.327   6.044   5.919
 6781SOL    HW121242   5.246   6.000   5.959
 6781SOL    HW221243   5.352   6.123   5.974
 6782SOL     OW21244   6.946   1.332   2.801
 6782SOL    HW121245   6.958   1.430   2.783
 6782SOL    HW221246   6.852   1.306   2.781
 6783SOL     OW21247   6.979   6.403   6.825
 6783SOL    HW121248   6.998   6.465   6.749
 6783SOL    HW221249   6.941   6.318   6.790
 6784SOL     OW21250   3.950   4.042   0.318
 6784SOL    HW121251   4.000   4.117   0.361
 6784SOL    HW221252   4.016   3.973   0.285
 6785SOL     OW21253   5.853   5.723   1.878
 6785SOL    HW121254   5.836   5.738   1.976
 6785SOL    HW221255   5.897   5.634   1.866
 6786SOL     OW21256   1.339   2.847   6.275
 6786SOL    HW121257   1.280   2.768   6.293
 6786SOL    HW221258   1.338   2.908   6.354
 6787SOL     OW21259   1.633   3.780   2.065
 6787SOL    HW121260   1.554   3.825   2.104
 6787SOL    HW221261   1.604   3.700   2.011
 6788SOL     OW21262   3.051   3.633   1.393
 6788SOL    HW121263   3.056   3.698   1.317
 6788SOL    HW221264   3.001   3.675   1.469
 6789SOL     OW21265   1.191   6.955   2.353
 6789SOL    HW121266   1.219   6.967   2.448
 6789SOL    HW221267   1.111   7.013   2.335
 6790SOL     OW21268   1.678   2.903   6.969
 6790SOL    HW121269   1.731   2.976   7.013
 6790SOL    HW221270   1.686   2.911   6.870
 6791SOL     OW21271   4.607   3.063   6.993
 6791SOL    HW121272   4.534   3.000   0.003
 6791SOL    HW221273   4.654   3.097   0.056
 6792SOL     OW21274   6.073   6.661   0.165
 6792SOL    HW121275   6.113   6.583   0.118
 6792SOL    HW221276   6.014   6.712   0.103
 6793SOL     OW21277   1.463   2.374   1.050
 6793SOL    HW121278   1.380   2.334   1.087
 6793SOL    HW221279   1.476   2.344   0.956
 6794SOL     OW21280   4.966   1.054   4.416
 6794SOL    HW121281   4.985   1.146   4.383
 6794SOL    HW221282   5.052   1.006   4.434
 6795SOL     OW21283   2.793   5.774   0.626
 6795SOL    HW121284   2.812   5.676   0.616
 6795SOL    HW221285   2.862   5.815   0.685
 6796SOL     OW21286   5.311   1.341   2.804
 6796SOL    HW121287   5.386   1.390   2.848
 6796SOL    HW221288   5.233   1.403   2.791
 6797SOL     OW21289   5.906   3.777   2.115
 6797SOL    HW121290   5.882   3.739   2.025
 6797SOL    HW221291   5.824   3.785   2.171
 6798SOL     OW21292   5.455   5.776   2.129
 6798SOL    HW121293   5.357   5.758   2.133
 6798SOL    HW221294   5.489   5.756   2.037
 6799SOL     OW21295   5.143   5.741   0.487
 6799SOL    HW121296   5.203   5.685   0.543
 6799SOL    HW221297   5.194   5.820   0.451
 6800SOL     OW21298   2.014   4.630   0.372
 6800SOL    HW121299   1.921   4.635   0.409
 6800SOL    HW221300   2.041   4.534   0.361
 6801SOL     OW21301   1.597   2.733   2.010
 6801SOL    HW121302   1.586   2.799   2.085
 6801SOL    HW221303   1.685   2.749   1.964
 6802SOL     OW21304   2.059   6.488   1.328
 6802SOL    HW121305   2.060   6.495   1.228
 6802SOL    HW221306   2.094   6.398   1.356
 6803SOL     OW21307   5.166   1.965   6.325
 6803SOL    HW121308   5.141   1.936   6.232
 6803SOL    HW221309   5.258   2.005   6.324
 6804SOL     OW21310   1.961   5.794   3.365
 6804SOL    HW121311   1.971   5.780   3.464
 6804SOL    HW221312   1.943   5.706   3.321
 6805SOL     OW21313   6.215   0.330   4.796
 6805SOL    HW121314   6.228   0.371   4.886
 6805SOL    HW221315   6.241   0.234   4.799
 6806SOL     OW21316   4.022   1.133   4.717
 6806SOL    HW121317   4.067   1.081   4.644
 6806SOL    HW221318   4.036   1.231   4.701
 6807SOL     OW21319   3.035   3.006   0.122
 6807SOL    HW121320   3.094   3.072   0.075
 6807SOL    HW221321   2.945   3.047   0.138
 6808SOL     OW21322   0.206   2.792   5.106
 6808SOL    HW121323   0.156   2.854   5.045
 6808SOL    HW221324   0.226   2.838   5.192
 6809SOL     OW21325   2.437   3.854   6.606
 6809SOL    HW121326   2.469   3.930   6.661
 6809SOL    HW221327   2.486   3.853   6.518
 6810SOL     OW21328   0.187   0.676   2.476
 6810SOL    HW121329   0.264   0.636   2.525
 6810SOL    HW221330   0.179   0.773   2.499
 6811SOL     OW21331   6.191   4.907   0.900
 6811SOL    HW121332   6.247   4.990   0.899
 6811SOL    HW221333   6.231   4.839   0.839
 6812SOL     OW21334   4.098   3.305   2.999
 6812SOL    HW121335   4.082   3.302   2.900
 6812SOL    HW221336   4.195   3.321   3.016
 6813SOL     OW21337   4.851   2.175   0.850
 6813SOL    HW121338   4.810   2.243   0.911
 6813SOL    HW221339   4.784   2.146   0.783
 6814SOL     OW21340   2.583   3.561   1.310
 6814SOL    HW121341   2.542   3.542   1.399
 6814SOL    HW221342   2.520   3.532   1.238
 6815SOL     OW21343   2.640   0.387   1.704
 6815SOL    HW121344   2.716   0.447   1.729
 6815SOL    HW221345   2.620   0.325   1.780
 6816SOL     OW21346   6.601   4.780   6.778
 6816SOL    HW121347   6.525   4.749   6.722
 6816SOL    HW221348   6.639   4.864   6.739
 6817SOL     OW21349   6.797   1.843   5.582
 6817SOL    HW121350   6.822   1.822   5.487
 6817SOL    HW221351   6.868   1.898   5.624
 6818SOL     OW21352   3.491   6.631   2.103
 6818SOL    HW121353   3.486   6.582   2.189
 6818SOL    HW221354   3.470   6.569   2.027
 6819SOL     OW21355   3.231   0.692   3.811
 6819SOL    HW121356   3.199   0.656   3.724
 6819SOL    HW221357   3.293   0.769   3.794
 6820SOL     OW21358   1.346   4.212   3.214
 6820SOL    HW121359   1.395   4.292   3.248
 6820SOL    HW221360   1.277   4.184   3.282
 6821SOL     OW21361   2.477   2.344   4.777
 6821SOL    HW121362   2.575   2.336   4.755
 6821SOL    HW221363   2.465   2.414   4.847
 6822SOL     OW21364   5.561   1.895   5.932
 6822SOL    HW121365   5.649   1.929   5.963
 6822SOL    HW221366   5.490   1.964   5.951
 6823SOL     OW21367   3.286   3.311   3.027
 6823SOL    HW121368   3.250   3.392   3.073
 6823SOL    HW221369   3.219   3.276   2.962
 6824SOL     OW21370   0.600   4.238   6.455
 6824SOL    HW121371   0.591   4.195   6.365
 6824SOL    HW221372   0.675   4.193   6.505
 6825SOL     OW21373   5.162   0.129   2.257
 6825SOL    HW121374   5.155   0.083   2.169
 6825SOL    HW221375   5.110   0.078   2.325
 6826SOL     OW21376   2.129   3.336   2.699
 6826SOL    HW121377   2.200   3.298   2.640
 6826SOL    HW221378   2.102   3.267   2.767
 6827SOL     OW21379   5.430   5.835   6.636
 6827SOL    HW121380   5.385   5.793   6.715
 6827SOL    HW221381   5.361   5.876   6.577
 6828SOL     OW21382   1.146   2.419   1.536
 6828SOL    HW121383   1.220   2.429   1.602
 6828SOL    HW221384   1.059   2.408   1.584
 6829SOL     OW21385   5.108   6.188   3.616
 6829SOL    HW121386   5.192   6.241   3.631
 6829SOL    HW221387   5.072   6.158   3.704
 6830SOL     OW21388   5.296   1.670   3.423
 6830SOL    HW121389   5.393   1.694   3.424
 6830SOL    HW221390   5.286   1.571   3.432
 6831SOL     OW21391   0.931   0.870   5.580
 6831SOL    HW121392   0.862   0.834   5.643
 6831SOL    HW221393   0.925   0.821   5.493
 6832SOL     OW21394   2.994   4.807   2.319
 6832SOL    HW121395   2.944   4.796   2.233
 6832SOL    HW221396   3.092   4.800   2.302
 6833SOL     OW21397   3.616   4.698   6.716
 6833SOL    HW121398   3.574   4.725   6.629
 6833SOL    HW221399   3.598   4.767   6.785
 6834SOL     OW21400   4.076   6.509   1.918
 6834SOL    HW121401   4.097   6.600   1.880
 6834SOL    HW221402   3.978   6.502   1.934
 6835SOL     OW21403   3.831   6.777   4.547
 6835SOL    HW121404   3.801   6.814   4.635
 6835SOL    HW221405   3.754   6.730   4.504
 6836SOL     OW21406   3.604   6.387   0.189
 6836SOL    HW121407   3.538   6.448   0.232
 6836SOL    HW221408   3.664   6.348   0.259
 6837SOL     OW21409   1.852   3.581   1.831
 6837SOL    HW121410   1.875   3.504   1.771
 6837SOL    HW221411   1.934   3.637   1.846
 6838SOL     OW21412   2.234   1.327   6.969
 6838SOL    HW121413   2.164   1.362   0.014
 6838SOL    HW221414   2.190   1.270   6.899
 6839SOL     OW21415   4.506   1.386   0.701
 6839SOL    HW121416   4.571   1.317   0.732
 6839SOL    HW221417   4.421   1.376   0.752
 6840SOL     OW21418   1.971   1.458   6.691
 6840SOL    HW121419   1.963   1.372   6.742
 6840SOL    HW221420   1.996   1.437   6.596
 6841SOL     OW21421   6.698   2.850   6.338
 6841SOL    HW121422   6.751   2.891   6.412
 6841SOL    HW221423   6.605   2.833   6.369
 6842SOL     OW21424   2.146   5.052   1.946
 6842SOL    HW121425   2.238   5.060   1.984
 6842SOL    HW221426   2.078   5.060   2.019
 6843SOL     OW21427   4.925   6.717   6.731
 6843SOL    HW121428   4.831   6.704   6.762
 6843SOL    HW221429   4.952   6.639   6.673
 6844SOL     OW21430   5.323   0.779   4.650
 6844SOL    HW121431   5.390   0.706   4.643
 6844SOL    HW221432   5.253   0.755   4.717
 6845SOL     OW21433   4.775   2.924   2.983
 6845SOL    HW121434   4.755   2.942   2.886
 6845SOL    HW221435   4.757   2.828   3.003
 6846SOL     OW21436   2.938   3.717   0.298
 6846SOL    HW121437   2.926   3.803   0.248
 6846SOL    HW221438   2.969   3.737   0.391
 6847SOL     OW21439   5.804   4.186   4.106
 6847SOL    HW121440   5.756   4.129   4.039
 6847SOL    HW221441   5.762   4.277   4.107
 6848SOL     OW21442   5.019   4.569   3.494
 6848SOL    HW121443   4.963   4.548   3.414
 6848SOL    HW221444   5.075   4.490   3.517
 6849SOL     OW21445   3.728   3.798   6.472
 6849SOL    HW121446   3.813   3.763   6.430
 6849SOL    HW221447   3.750   3.842   6.559
 6850SOL     OW21448   4.027   1.359   3.384
 6850SOL    HW121449   4.076   1.446   3.394
 6850SOL    HW221450   4.079   1.297   3.325
 6851SOL     OW21451   1.747   3.019   3.298
 6851SOL    HW121452   1.792   3.092   3.246
 6851SOL    HW221453   1.814   2.976   3.359
 6852SOL     OW21454   2.770   5.284   0.366
 6852SOL    HW121455   2.783   5.244   0.457
 6852SOL    HW221456   2.845   5.347   0.347
 6853SOL     OW21457   5.126   2.654   6.718
 6853SOL    HW121458   5.044   2.688   6.765
 6853SOL    HW221459   5.144   2.710   6.637
 6854SOL     OW21460   5.501   6.270   6.169
 6854SOL    HW121461   5.449   6.201   6.219
 6854SOL    HW221462   5.437   6.331   6.122
 6855SOL     OW21463   3.727   4.999   3.349
 6855SOL    HW121464   3.747   4.907   3.314
 6855SOL    HW221465   3.636   5.000   3.391
 6856SOL     OW21466   1.186   1.763   0.124
 6856SOL    HW121467   1.232   1.824   0.188
 6856SOL    HW221468   1.251   1.727   0.058
 6857SOL     OW21469   1.058   3.863   5.467
 6857SOL    HW121470   1.131   3.817   5.517
 6857SOL    HW221471   1.083   3.958   5.450
 6858SOL     OW21472   2.920   4.080   1.505
 6858SOL    HW121473   2.895   4.174   1.527
 6858SOL    HW221474   3.019   4.069   1.513
 6859SOL     OW21475   0.668   1.256   2.673
 6859SOL    HW121476   0.681   1.249   2.575
 6859SOL    HW221477   0.570   1.270   2.693
 6860SOL     OW21478   0.764   6.631   1.859
 6860SOL    HW121479   0.753   6.682   1.774
 6860SOL    HW221480   0.821   6.684   1.923
 6861SOL     OW21481   4.853   2.506   5.087
 6861SOL    HW121482   4.937   2.454   5.099
 6861SOL    HW221483   4.870   2.603   5.105
 6862SOL     OW21484   0.582   5.087   5.614
 6862SOL    HW121485   0.634   5.116   5.694
 6862SOL    HW221486   0.632   5.113   5.531
 6863SOL     OW21487   6.650   0.084   5.248
 6863SOL    HW121488   6.699   0.003   5.278
 6863SOL    HW221489   6.629   0.075   5.150
 6864SOL     OW21490   1.689   3.840   5.408
 6864SOL    HW121491   1.693   3.875   5.501
 6864SOL    HW221492   1.733   3.905   5.346
 6865SOL     OW21493   2.067   0.016   4.651
 6865SOL    HW121494   2.056   0.084   4.578
 6865SOL    HW221495   1.977   7.007   4.685
 6866SOL     OW21496   0.440   4.370   1.728
 6866SOL    HW121497   0.499   4.298   1.764
 6866SOL    HW221498   0.467   4.458   1.766
 6867SOL     OW21499   2.210   3.501   0.462
 6867SOL    HW121500   2.269   3.539   0.534
 6867SOL    HW221501   2.256   3.508   0.374
 6868SOL     OW21502   2.417   4.846   4.717
 6868SOL    HW121503   2.430   4.880   4.810
 6868SOL    HW221504   2.322   4.860   4.689
 6869SOL     OW21505   3.612   0.217   6.045
 6869SOL    HW121506   3.663   0.170   6.117
 6869SOL    HW221507   3.666   0.216   5.961
 6870SOL     OW21508   0.006   2.874   0.541
 6870SOL    HW121509   0.024   2.960   0.590
 6870SOL    HW221510   0.091   2.821   0.535
 6871SOL     OW21511   0.548   3.913   2.527
 6871SOL    HW121512   0.556   3.999   2.577
 6871SOL    HW221513   0.508   3.843   2.586
 6872SOL     OW21514   2.428   2.762   1.147
 6872SOL    HW121515   2.520   2.745   1.182
 6872SOL    HW221516   2.417   2.859   1.126
 6873SOL     OW21517   0.943   4.034   4.846
 6873SOL    HW121518   1.009   4.080   4.905
 6873SOL    HW221519   0.984   3.951   4.809
 6874SOL     OW21520   5.561   6.047   2.965
 6874SOL    HW121521   5.490   6.100   3.009
 6874SOL    HW221522   5.607   5.989   3.033
 6875SOL     OW21523   1.291   2.767   1.177
 6875SOL    HW121524   1.268   2.839   1.112
 6875SOL    HW221525   1.374   2.720   1.148
 6876SOL     OW21526   4.516   5.552   3.300
 6876SOL    HW121527   4.555   5.493   3.371
 6876SOL    HW221528   4.582   5.559   3.224
 6877SOL     OW21529   1.394   3.489   2.350
 6877SOL    HW121530   1.464   3.424   2.319
 6877SOL    HW221531   1.401   3.501   2.448
 6878SOL     OW21532   2.191   0.401   4.102
 6878SOL    HW121533   2.151   0.365   4.018
 6878SOL    HW221534   2.275   0.452   4.081
 6879SOL     OW21535   2.171   1.963   0.532
 6879SOL    HW121536   2.197   2.009   0.617
 6879SOL    HW221537   2.223   1.878   0.523
 6880SOL     OW21538   1.678   5.325   6.679
 6880SOL    HW121539   1.646   5.259   6.612
 6880SOL    HW221540   1.776   5.340   6.668
 6881SOL     OW21541   1.139   3.170   0.788
 6881SOL    HW121542   1.058   3.137   0.837
 6881SOL    HW221543   1.210   3.100   0.791
 6882SOL     OW21544   3.012   6.371   0.085
 6882SOL    HW121545   3.078   6.337   0.019
 6882SOL    HW221546   2.967   6.294   0.131
 6883SOL     OW21547   4.856   0.145   6.815
 6883SOL    HW121548   4.923   0.072   6.834
 6883SOL    HW221549   4.841   0.199   6.898
 6884SOL     OW21550   2.196   4.022   2.878
 6884SOL    HW121551   2.134   3.987   2.949
 6884SOL    HW221552   2.207   3.953   2.806
 6885SOL     OW21553   5.609   6.102   4.269
 6885SOL    HW121554   5.577   6.162   4.343
 6885SOL    HW221555   5.586   6.144   4.181
 6886SOL     OW21556   4.730   1.638   6.484
 6886SOL    HW121557   4.726   1.733   6.516
 6886SOL    HW221558   4.822   1.616   6.453
 6887SOL     OW21559   5.252   5.885   6.433
 6887SOL    HW121560   5.155   5.886   6.457
 6887SOL    HW221561   5.265   5.838   6.346
 6888SOL     OW21562   5.967   5.196   6.467
 6888SOL    HW121563   5.870   5.175   6.455
 6888SOL    HW221564   6.003   5.143   6.543
 6889SOL     OW21565   0.835   2.639   0.001
 6889SOL    HW121566   0.918   2.674   6.976
 6889SOL    HW221567   0.800   2.562   6.965
 6890SOL     OW21568   4.295   5.413   2.795
 6890SOL    HW121569   4.388   5.444   2.814
 6890SOL    HW221570   4.298   5.331   2.738
 6891SOL     OW21571   2.037   1.557   1.033
 6891SOL    HW121572   1.970   1.576   0.962
 6891SOL    HW221573   2.012   1.605   1.117
 6892SOL     OW21574   3.373   0.870   4.169
 6892SOL    HW121575   3.366   0.913   4.259
 6892SOL    HW221576   3.457   0.901   4.125
 6893SOL     OW21577   6.692   2.585   6.960
 6893SOL    HW121578   6.782   2.542   6.956
 6893SOL    HW221579   6.628   2.524   7.008
 6894SOL     OW21580   5.381   5.359   0.849
 6894SOL    HW121581   5.369   5.291   0.776
 6894SOL    HW221582   5.469   5.345   0.894
 6895SOL     OW21583   1.133   6.345   1.764
 6895SOL    HW121584   1.196   6.388   1.830
 6895SOL    HW221585   1.063   6.412   1.737
 6896SOL     OW21586   4.740   2.196   4.811
 6896SOL    HW121587   4.701   2.172   4.900
 6896SOL    HW221588   4.765   2.113   4.762
 6897SOL     OW21589   5.365   3.652   5.128
 6897SOL    HW121590   5.449   3.657   5.183
 6897SOL    HW221591   5.297   3.713   5.167
 6898SOL     OW21592   2.198   1.326   1.076
 6898SOL    HW121593   2.164   1.411   1.035
 6898SOL    HW221594   2.255   1.348   1.154
 6899SOL     OW21595   6.133   5.993   2.850
 6899SOL    HW121596   6.183   6.030   2.772
 6899SOL    HW221597   6.129   6.061   2.922
 6900SOL     OW21598   6.603   4.293   5.662
 6900SOL    HW121599   6.519   4.270   5.612
 6900SOL    HW221600   6.646   4.373   5.620
 6901SOL     OW21601   4.402   4.239   6.733
 6901SOL    HW121602   4.337   4.279   6.798
 6901SOL    HW221603   4.394   4.285   6.645
 6902SOL     OW21604   0.623   5.855   6.551
 6902SOL    HW121605   0.568   5.771   6.554
 6902SOL    HW221606   0.697   5.848   6.619
 6903SOL     OW21607   2.274   5.121   4.569
 6903SOL    HW121608   2.219   5.068   4.634
 6903SOL    HW221609   2.256   5.090   4.476
 6904SOL     OW21610   0.005   6.415   4.990
 6904SOL    HW121611   6.934   6.377   4.963
 6904SOL    HW221612   7.008   6.496   5.047
 6905SOL     OW21613   5.090   5.915   6.023
 6905SOL    HW121614   5.041   5.967   5.954
 6905SOL    HW221615   5.055   5.937   6.114
 6906SOL     OW21616   3.816   1.538   3.612
 6906SOL    HW121617   3.728   1.517   3.655
 6906SOL    HW221618   3.800   1.590   3.528
 6907SOL     OW21619   6.198   1.752   0.923
 6907SOL    HW121620   6.113   1.771   0.971
 6907SOL    HW221621   6.181   1.754   0.824
 6908SOL     OW21622   2.937   4.455   0.155
 6908SOL    HW121623   2.999   4.439   0.233
 6908SOL    HW221624   2.970   4.405   0.075
 6909SOL     OW21625   6.129   5.641   2.134
 6909SOL    HW121626   6.149   5.549   2.098
 6909SOL    HW221627   6.030   5.652   2.143
 6910SOL     OW21628   1.412   2.941   3.698
 6910SOL    HW121629   1.444   2.982   3.612
 6910SOL    HW221630   1.397   2.843   3.685
 6911SOL     OW21631   2.642   6.858   5.764
 6911SOL    HW121632   2.689   6.885   5.848
 6911SOL    HW221633   2.553   6.903   5.760
 6912SOL     OW21634   2.224   3.419   5.864
 6912SOL    HW121635   2.304   3.474   5.889
 6912SOL    HW221636   2.226   3.402   5.765
 6913SOL     OW21637   4.536   6.055   5.982
 6913SOL    HW121638   4.478   5.990   6.032
 6913SOL    HW221639   4.603   6.094   6.044
 6914SOL     OW21640   6.597   3.693   1.517
 6914SOL    HW121641   6.503   3.660   1.525
 6914SOL    HW221642   6.653   3.624   1.472
 6915SOL     OW21643   0.855   3.465   2.794
 6915SOL    HW121644   0.850   3.549   2.848
 6915SOL    HW221645   0.763   3.425   2.787
 6916SOL     OW21646   4.357   6.236   0.036
 6916SOL    HW121647   4.318   6.328   0.036
 6916SOL    HW221648   4.284   6.170   0.054
 6917SOL     OW21649   5.759   5.608   1.452
 6917SOL    HW121650   5.735   5.511   1.448
 6917SOL    HW221651   5.849   5.622   1.411
 6918SOL     OW21652   2.095   3.038   1.691
 6918SOL    HW121653   2.073   3.073   1.782
 6918SOL    HW221654   2.144   3.109   1.640
 6919SOL     OW21655   6.323   6.239   2.887
 6919SOL    HW121656   6.282   6.216   2.975
 6919SOL    HW221657   6.323   6.338   2.875
 6920SOL     OW21658   5.475   0.646   5.346
 6920SOL    HW121659   5.377   0.653   5.325
 6920SOL    HW221660   5.488   0.659   5.445
 6921SOL     OW21661   3.907   0.136   4.202
 6921SOL    HW121662   3.828   0.185   4.164
 6921SOL    HW221663   3.931   0.060   4.142
 6922SOL     OW21664   1.184   5.701   5.822
 6922SOL    HW121665   1.121   5.769   5.786
 6922SOL    HW221666   1.239   5.742   5.895
 6923SOL     OW21667   6.204   0.089   2.520
 6923SOL    HW121668   6.263   0.019   2.560
 6923SOL    HW221669   6.259   0.169   2.495
 6924SOL     OW21670   3.679   6.545   0.749
 6924SOL    HW121671   3.648   6.639   0.754
 6924SOL    HW221672   3.658   6.507   0.659
 6925SOL     OW21673   5.965   6.072   6.315
 6925SOL    HW121674   5.987   6.024   6.230
 6925SOL    HW221675   6.004   6.022   6.392
 6926SOL     OW21676   2.802   2.065   0.117
 6926SOL    HW121677   2.718   2.040   0.165
 6926SOL    HW221678   2.881   2.021   0.160
 6927SOL     OW21679   4.857   0.944   0.453
 6927SOL    HW121680   4.791   0.986   0.391
 6927SOL    HW221681   4.808   0.889   0.521
 6928SOL     OW21682   4.497   4.977   1.105
 6928SOL    HW121683   4.524   4.942   1.015
 6928SOL    HW221684   4.494   5.077   1.103
 6929SOL     OW21685   6.230   5.673   1.245
 6929SOL    HW121686   6.299   5.628   1.188
 6929SOL    HW221687   6.274   5.738   1.307
 6930SOL     OW21688   0.870   0.594   0.699
 6930SOL    HW121689   0.947   0.533   0.679
 6930SOL    HW221690   0.839   0.636   0.614
 6931SOL     OW21691   2.703   2.781   1.234
 6931SOL    HW121692   2.734   2.874   1.251
 6931SOL    HW221693   2.782   2.723   1.212
 6932SOL     OW21694   4.514   5.292   7.005
 6932SOL    HW121695   4.502   5.262   0.082
 6932SOL    HW221696   4.508   5.213   6.944
 6933SOL     OW21697   3.026   5.236   6.246
 6933SOL    HW121698   3.004   5.174   6.170
 6933SOL    HW221699   2.964   5.314   6.244
 6934SOL     OW21700   5.216   3.971   6.678
 6934SOL    HW121701   5.156   3.899   6.645
 6934SOL    HW221702   5.176   4.060   6.657
 6935SOL     OW21703   5.457   5.283   1.395
 6935SOL    HW121704   5.433   5.357   1.333
 6935SOL    HW221705   5.384   5.214   1.396
 6936SOL     OW21706   1.066   1.837   4.719
 6936SOL    HW121707   1.080   1.895   4.639
 6936SOL    HW221708   1.148   1.839   4.776
 6937SOL     OW21709   5.319   5.449   0.255
 6937SOL    HW121710   5.376   5.526   0.285
 6937SOL    HW221711   5.377   5.381   0.210
 6938SOL     OW21712   1.180   0.551   4.822
 6938SOL    HW121713   1.261   0.596   4.786
 6938SOL    HW221714   1.120   0.619   4.864
 6939SOL     OW21715   6.085   4.596   3.697
 6939SOL    HW121716   6.072   4.692   3.671
 6939SOL    HW221717   6.009   4.566   3.755
 6940SOL     OW21718   3.635   6.799   0.825
 6940SOL    HW121719   3.627   6.852   0.910
 6940SOL    HW221720   3.685   6.853   0.757
 6941SOL     OW21721   3.498   3.438   2.277
 6941SOL    HW121722   3.461   3.345   2.280
 6941SOL    HW221723   3.598   3.434   2.265
 6942SOL     OW21724   5.959   6.990   1.839
 6942SOL    HW121725   6.029   6.927   1.872
 6942SOL    HW221726   5.943   0.044   1.907
 6943SOL     OW21727   4.562   4.855   6.440
 6943SOL    HW121728   4.476   4.816   6.405
 6943SOL    HW221729   4.595   4.924   6.377
 6944SOL     OW21730   1.185   4.100   4.949
 6944SOL    HW121731   1.215   4.193   4.969
 6944SOL    HW221732   1.238   4.064   4.872
 6945SOL     OW21733   5.439   2.425   0.931
 6945SOL    HW121734   5.376   2.388   0.999
 6945SOL    HW221735   5.528   2.380   0.939
 6946SOL     OW21736   4.495   5.929   2.448
 6946SOL    HW121737   4.449   5.905   2.363
 6946SOL    HW221738   4.514   5.846   2.500
 6947SOL     OW21739   4.826   5.373   5.635
 6947SOL    HW121740   4.902   5.310   5.621
 6947SOL    HW221741   4.746   5.341   5.584
 6948SOL     OW21742   0.419   4.768   7.012
 6948SOL    HW121743   0.508   4.751   0.037
 6948SOL    HW221744   0.430   4.770   6.913
 6949SOL     OW21745   2.557   1.823   3.985
 6949SOL    HW121746   2.497   1.749   4.016
 6949SOL    HW221747   2.613   1.855   4.062
 6950SOL     OW21748   0.729   0.206   4.887
 6950SOL    HW121749   0.739   0.144   4.964
 6950SOL    HW221750   0.748   0.300   4.917
 6951SOL     OW21751   0.046   5.262   6.470
 6951SOL    HW121752   0.028   5.347   6.519
 6951SOL    HW221753   0.048   5.280   6.371
 6952SOL     OW21754   3.582   5.318   3.021
 6952SOL    HW121755   3.600   5.413   2.997
 6952SOL    HW221756   3.667   5.265   3.014
 6953SOL     OW21757   4.926   1.228   1.275
 6953SOL    HW121758   4.868   1.274   1.208
 6953SOL    HW221759   5.010   1.197   1.231
 6954SOL     OW21760   6.514   3.568   0.279
 6954SOL    HW121761   6.566   3.626   0.217
 6954SOL    HW221762   6.526   3.472   0.254
 6955SOL     OW21763   4.935   6.794   2.223
 6955SOL    HW121764   5.024   6.772   2.263
 6955SOL    HW221765   4.913   6.728   2.151
 6956SOL     OW21766   5.479   5.504   2.171
 6956SOL    HW121767   5.446   5.474   2.261
 6956SOL    HW221768   5.443   5.595   2.152
 6957SOL     OW21769   5.292   5.506   6.283
 6957SOL    HW121770   5.270   5.461   6.197
 6957SOL    HW221771   5.212   5.504   6.343
 6958SOL     OW21772   3.040   3.192   3.958
 6958SOL    HW121773   3.000   3.144   3.879
 6958SOL    HW221774   2.978   3.265   3.987
 6959SOL     OW21775   1.152   4.223   2.720
 6959SOL    HW121776   1.232   4.248   2.775
 6959SOL    HW221777   1.092   4.163   2.773
 6960SOL     OW21778   2.826   4.779   0.696
 6960SOL    HW121779   2.858   4.691   0.661
 6960SOL    HW221780   2.898   4.822   0.751
 6961SOL     OW21781   4.433   2.102   5.659
 6961SOL    HW121782   4.472   2.189   5.687
 6961SOL    HW221783   4.405   2.106   5.563
 6962SOL     OW21784   2.918   6.809   6.393
 6962SOL    HW121785   2.931   6.801   6.492
 6962SOL    HW221786   2.926   6.905   6.366
 6963SOL     OW21787   5.133   6.487   0.819
 6963SOL    HW121788   5.184   6.490   0.734
 6963SOL    HW221789   5.186   6.441   0.890
 6964SOL     OW21790   1.601   0.242   5.696
 6964SOL    HW121791   1.662   0.315   5.667
 6964SOL    HW221792   1.582   0.182   5.619
 6965SOL     OW21793   0.602   1.583   6.924
 6965SOL    HW121794   0.688   1.534   6.910
 6965SOL    HW221795   0.621   1.681   6.930
 6966SOL     OW21796   1.295   0.104   1.680
 6966SOL    HW121797   1.233   0.111   1.758
 6966SOL    HW221798   1.381   0.151   1.701
 6967SOL     OW21799   4.417   1.201   5.856
 6967SOL    HW121800   4.469   1.151   5.786
 6967SOL    HW221801   4.344   1.252   5.812
 6968SOL     OW21802   3.793   6.504   2.462
 6968SOL    HW121803   3.780   6.600   2.487
 6968SOL    HW221804   3.889   6.479   2.472
 6969SOL     OW21805   1.845   1.806   1.785
 6969SOL    HW121806   1.780   1.733   1.804
 6969SOL    HW221807   1.921   1.770   1.730
 6970SOL     OW21808   3.537   4.584   5.963
 6970SOL    HW121809   3.496   4.504   5.919
 6970SOL    HW221810   3.569   4.559   6.054
 6971SOL     OW21811   0.190   4.296   0.293
 6971SOL    HW121812   0.188   4.264   0.388
 6971SOL    HW221813   0.128   4.374   0.284
 6972SOL     OW21814   5.315   3.547   2.058
 6972SOL    HW121815   5.394   3.564   1.999
 6972SOL    HW221816   5.269   3.464   2.029
 6973SOL     OW21817   1.301   3.431   3.493
 6973SOL    HW121818   1.345   3.460   3.409
 6973SOL    HW221819   1.224   3.492   3.513
 6974SOL     OW21820   3.615   3.782   2.509
 6974SOL    HW121821   3.530   3.829   2.486
 6974SOL    HW221822   3.674   3.844   2.561
 6975SOL     OW21823   3.068   5.745   4.776
 6975SOL    HW121824   3.078   5.685   4.696
 6975SOL    HW221825   3.017   5.696   4.847
 6976SOL     OW21826   5.020   4.004   6.114
 6976SOL    HW121827   5.045   4.005   6.211
 6976SOL    HW221828   5.093   4.046   6.061
 6977SOL     OW21829   4.024   4.720   1.160
 6977SOL    HW121830   3.983   4.722   1.069
 6977SOL    HW221831   4.108   4.774   1.160
 6978SOL     OW21832   5.579   3.948   2.126
 6978SOL    HW121833   5.621   3.976   2.040
 6978SOL    HW221834   5.496   3.896   2.106
 6979SOL     OW21835   1.301   4.055   1.790
 6979SOL    HW121836   1.332   4.078   1.882
 6979SOL    HW221837   1.348   3.972   1.759
 6980SOL     OW21838   1.817   6.014   3.076
 6980SOL    HW121839   1.747   5.970   3.131
 6980SOL    HW221840   1.894   6.041   3.134
 6981SOL     OW21841   3.698   3.179   6.757
 6981SOL    HW121842   3.677   3.204   6.851
 6981SOL    HW221843   3.635   3.226   6.695
 6982SOL     OW21844   1.672   0.695   3.531
 6982SOL    HW121845   1.634   0.604   3.547
 6982SOL    HW221846   1.738   0.716   3.603
 6983SOL     OW21847   4.829   0.361   4.326
 6983SOL    HW121848   4.846   0.388   4.420
 6983SOL    HW221849   4.786   0.436   4.276
 6984SOL     OW21850   0.554   2.768   3.144
 6984SOL    HW121851   0.470   2.818   3.123
 6984SOL    HW221852   0.561   2.756   3.243
 6985SOL     OW21853   6.401   3.086   0.352
 6985SOL    HW121854   6.357   3.158   0.299
 6985SOL    HW221855   6.420   3.008   0.292
 6986SOL     OW21856   3.961   4.863   5.588
 6986SOL    HW121857   4.004   4.773   5.601
 6986SOL    HW221858   3.940   4.903   5.677
 6987SOL     OW21859   0.710   1.879   6.099
 6987SOL    HW121860   0.745   1.891   6.006
 6987SOL    HW221861   0.740   1.790   6.133
 6988SOL     OW21862   3.420   1.332   6.668
 6988SOL    HW121863   3.350   1.261   6.656
 6988SOL    HW221864   3.401   1.382   6.753
 6989SOL     OW21865   0.141   5.241   2.746
 6989SOL    HW121866   0.079   5.315   2.718
 6989SOL    HW221867   0.126   5.161   2.689
 6990SOL     OW21868   3.578   2.500   1.452
 6990SOL    HW121869   3.611   2.409   1.428
 6990SOL    HW221870   3.579   2.511   1.551
 6991SOL     OW21871   6.111   3.974   2.097
 6991SOL    HW121872   6.091   4.000   2.191
 6991SOL    HW221873   6.043   3.907   2.066
 6992SOL     OW21874   0.581   6.214   0.349
 6992SOL    HW121875   0.593   6.118   0.373
 6992SOL    HW221876   0.561   6.267   0.432
 6993SOL     OW21877   4.693   1.100   1.707
 6993SOL    HW121878   4.653   1.160   1.776
 6993SOL    HW221879   4.658   1.125   1.616
 6994SOL     OW21880   2.279   0.183   3.458
 6994SOL    HW121881   2.286   0.273   3.414
 6994SOL    HW221882   2.212   0.187   3.532
 6995SOL     OW21883   0.221   4.061   1.178
 6995SOL    HW121884   0.166   4.062   1.261
 6995SOL    HW221885   0.193   3.984   1.120
 6996SOL     OW21886   0.887   1.412   0.104
 6996SOL    HW121887   0.926   1.490   0.152
 6996SOL    HW221888   0.908   1.328   0.154
 6997SOL     OW21889   5.793   5.125   5.455
 6997SOL    HW121890   5.695   5.137   5.468
 6997SOL    HW221891   5.840   5.212   5.468
 6998SOL     OW21892   6.461   1.211   0.298
 6998SOL    HW121893   6.371   1.246   0.320
 6998SOL    HW221894   6.507   1.182   0.382
 6999SOL     OW21895   0.612   3.508   0.645
 6999SOL    HW121896   0.524   3.554   0.641
 6999SOL    HW221897   0.626   3.470   0.736
 7000SOL     OW21898   6.907   0.006   3.357
 7000SOL    HW121899   6.837   6.959   3.388
 7000SOL    HW221900   6.922   7.013   3.259
 7001SOL     OW21901   0.522   1.792   4.207
 7001SOL    HW121902   0.473   1.862   4.155
 7001SOL    HW221903   0.596   1.835   4.260
 7002SOL     OW21904   6.997   5.458   2.639
 7002SOL    HW121905   6.934   5.451   2.716
 7002SOL    HW221906   6.945   5.459   2.553
 7003SOL     OW21907   6.563   4.803   1.170
 7003SOL    HW121908   6.590   4.789   1.075
 7003SOL    HW221909   6.600   4.891   1.203
 7004SOL     OW21910   2.198   6.262   0.198
 7004SOL    HW121911   2.132   6.190   0.214
 7004SOL    HW221912   2.287   6.235   0.235
 7005SOL     OW21913   1.168   6.879   6.936
 7005SOL    HW121914   1.116   6.830   6.865
 7005SOL    HW221915   1.216   6.813   6.993
 7006SOL     OW21916   1.109   0.157   4.443
 7006SOL    HW121917   1.070   0.104   4.368
 7006SOL    HW221918   1.168   0.229   4.406
 7007SOL     OW21919   2.940   7.016   5.659
 7007SOL    HW121920   3.015   0.035   5.604
 7007SOL    HW221921   2.920   6.922   5.630
 7008SOL     OW21922   5.878   3.954   3.541
 7008SOL    HW121923   5.941   3.933   3.616
 7008SOL    HW221924   5.894   4.047   3.508
 7009SOL     OW21925   4.469   5.425   1.522
 7009SOL    HW121926   4.441   5.329   1.521
 7009SOL    HW221927   4.517   5.445   1.608
 7010SOL     OW21928   5.527   4.306   2.044
 7010SOL    HW121929   5.602   4.332   2.106
 7010SOL    HW221930   5.565   4.259   1.964
 7011SOL     OW21931   3.194   5.916   6.995
 7011SOL    HW121932   3.106   5.885   6.959
 7011SOL    HW221933   3.186   5.935   0.075
 7012SOL     OW21934   6.875   2.112   0.270
 7012SOL    HW121935   6.811   2.036   0.280
 7012SOL    HW221936   6.872   2.169   0.352
 7013SOL     OW21937   2.535   1.392   6.939
 7013SOL    HW121938   2.514   1.311   6.884
 7013SOL    HW221939   2.479   1.469   6.908
 7014SOL     OW21940   6.425   3.097   1.571
 7014SOL    HW121941   6.500   3.043   1.611
 7014SOL    HW221942   6.343   3.039   1.565
 7015SOL     OW21943   5.430   6.122   0.884
 7015SOL    HW121944   5.441   6.062   0.964
 7015SOL    HW221945   5.518   6.164   0.861
 7016SOL     OW21946   3.214   4.810   0.525
 7016SOL    HW121947   3.210   4.869   0.605
 7016SOL    HW221948   3.135   4.827   0.466
 7017SOL     OW21949   4.690   5.295   4.098
 7017SOL    HW121950   4.633   5.373   4.125
 7017SOL    HW221951   4.751   5.323   4.024
 7018SOL     OW21952   4.959   3.030   4.248
 7018SOL    HW121953   4.940   3.092   4.324
 7018SOL    HW221954   4.988   2.941   4.283
 7019SOL     OW21955   4.904   4.729   1.913
 7019SOL    HW121956   4.898   4.822   1.876
 7019SOL    HW221957   4.814   4.701   1.947
 7020SOL     OW21958   0.699   2.839   6.452
 7020SOL    HW121959   0.666   2.800   6.366
 7020SOL    HW221960   0.797   2.822   6.461
 7021SOL     OW21961   0.817   2.037   5.381
 7021SOL    HW121962   0.768   2.007   5.300
 7021SOL    HW221963   0.907   2.073   5.354
 7022SOL     OW21964   3.665   1.749   0.704
 7022SOL    HW121965   3.566   1.762   0.700
 7022SOL    HW221966   3.708   1.789   0.623
 7023SOL     OW21967   0.408   1.981   1.100
 7023SOL    HW121968   0.342   1.910   1.124
 7023SOL    HW221969   0.420   2.043   1.177
 7024SOL     OW21970   3.937   3.269   3.872
 7024SOL    HW121971   3.941   3.174   3.903
 7024SOL    HW221972   3.846   3.306   3.887
 7025SOL     OW21973   4.043   6.566   0.515
 7025SOL    HW121974   4.069   6.662   0.522
 7025SOL    HW221975   3.948   6.559   0.485
 7026SOL     OW21976   3.884   2.345   1.202
 7026SOL    HW121977   3.810   2.360   1.136
 7026SOL    HW221978   3.926   2.432   1.227
 7027SOL     OW21979   1.870   5.040   1.633
 7027SOL    HW121980   1.944   4.978   1.659
 7027SOL    HW221981   1.904   5.107   1.568
 7028SOL     OW21982   3.379   0.240   3.281
 7028SOL    HW121983   3.308   0.187   3.237
 7028SOL    HW221984   3.388   0.329   3.236
 7029SOL     OW21985   3.246   3.493   5.055
 7029SOL    HW121986   3.179   3.506   5.128
 7029SOL    HW221987   3.335   3.525   5.085
 7030SOL     OW21988   6.178   1.517   5.229
 7030SOL    HW121989   6.140   1.604   5.198
 7030SOL    HW221990   6.109   1.445   5.219
 7031SOL     OW21991   4.330   6.998   0.509
 7031SOL    HW121992   4.350   0.067   0.555
 7031SOL    HW221993   4.357   6.922   0.567
 7032SOL     OW21994   3.719   6.348   4.719
 7032SOL    HW121995   3.788   6.419   4.717
 7032SOL    HW221996   3.663   6.357   4.802
 7033SOL     OW21997   1.518   1.852   5.295
 7033SOL    HW121998   1.476   1.806   5.373
 7033SOL    HW221999   1.452   1.858   5.220
 7034SOL     OW22000   6.678   1.648   3.373
 7034SOL    HW122001   6.757   1.630   3.432
 7034SOL    HW222002   6.599   1.595   3.405
 7035SOL     OW22003   1.665   0.501   0.763
 7035SOL    HW122004   1.672   0.562   0.684
 7035SOL    HW222005   1.640   0.553   0.844
 7036SOL     OW22006   6.994   1.162   1.642
 7036SOL    HW122007   0.004   1.066   1.650
 7036SOL    HW222008   7.002   1.207   1.732
 7037SOL     OW22009   0.908   0.686   6.049
 7037SOL    HW122010   0.827   0.631   6.029
 7037SOL    HW222011   0.990   0.636   6.022
 7038SOL     OW22012   1.459   3.265   6.551
 7038SOL    HW122013   1.417   3.178   6.523
 7038SOL    HW222014   1.551   3.247   6.585
 7039SOL     OW22015   0.226   6.242   2.820
 7039SOL    HW122016   0.223   6.280   2.913
 7039SOL    HW222017   0.255   6.146   2.824
 7040SOL     OW22018   4.612   2.485   5.237
 7040SOL    HW122019   4.691   2.466   5.179
 7040SOL    HW222020   4.584   2.580   5.226
 7041SOL     OW22021   1.649   0.404   3.415
 7041SOL    HW122022   1.687   0.329   3.469
 7041SOL    HW222023   1.566   0.439   3.459
 7042SOL     OW22024   4.555   6.099   5.509
 7042SOL    HW122025   4.484   6.052   5.560
 7042SOL    HW222026   4.521   6.189   5.479
 7043SOL     OW22027   1.919   4.804   2.427
 7043SOL    HW122028   1.991   4.873   2.424
 7043SOL    HW222029   1.835   4.845   2.463
 7044SOL     OW22030   4.960   6.406   4.051
 7044SOL    HW122031   5.058   6.425   4.058
 7044SOL    HW222032   4.943   6.310   4.075
 7045SOL     OW22033   6.337   5.857   2.462
 7045SOL    HW122034   6.303   5.937   2.413
 7045SOL    HW222035   6.369   5.789   2.396
 7046SOL     OW22036   2.946   2.191   4.554
 7046SOL    HW122037   2.958   2.118   4.622
 7046SOL    HW222038   3.028   2.248   4.551
 7047SOL     OW22039   0.938   7.006   0.533
 7047SOL    HW122040   1.016   0.020   0.478
 7047SOL    HW222041   0.892   0.066   0.574
 7048SOL     OW22042   6.513   5.890   4.907
 7048SOL    HW122043   6.598   5.842   4.885
 7048SOL    HW222044   6.442   5.860   4.844
 7049SOL     OW22045   3.732   1.230   2.728
 7049SOL    HW122046   3.820   1.274   2.717
 7049SOL    HW222047   3.741   1.152   2.790
 7050SOL     OW22048   4.136   3.829   0.898
 7050SOL    HW122049   4.114   3.919   0.861
 7050SOL    HW222050   4.203   3.839   0.972
 7051SOL     OW22051   0.446   0.681   1.475
 7051SOL    HW122052   0.400   0.605   1.521
 7051SOL    HW222053   0.395   0.706   1.393
 7052SOL     OW22054   5.412   0.077   2.440
 7052SOL    HW122055   5.388   0.158   2.493
 7052SOL    HW222056   5.458   0.105   2.355
 7053SOL     OW22057   1.781   2.577   3.357
 7053SOL    HW122058   1.739   2.657   3.313
 7053SOL    HW222059   1.880   2.590   3.363
 7054SOL     OW22060   6.962   0.449   0.218
 7054SOL    HW122061   6.912   0.403   0.290
 7054SOL    HW222062   6.901   0.468   0.141
 7055SOL     OW22063   2.305   0.732   6.764
 7055SOL    HW122064   2.283   0.647   6.812
 7055SOL    HW222065   2.277   0.724   6.668
 7056SOL     OW22066   0.026   5.688   1.175
 7056SOL    HW122067   6.987   5.632   1.236
 7056SOL    HW222068   0.079   5.628   1.114
 7057SOL     OW22069   3.311   4.898   5.105
 7057SOL    HW122070   3.314   4.959   5.184
 7057SOL    HW222071   3.358   4.941   5.028
 7058SOL     OW22072   5.139   2.786   5.687
 7058SOL    HW122073   5.056   2.812   5.736
 7058SOL    HW222074   5.143   2.687   5.679
 7059SOL     OW22075   1.751   0.664   5.201
 7059SOL    HW122076   1.796   0.647   5.289
 7059SOL    HW222077   1.675   0.601   5.189
 7060SOL     OW22078   3.494   0.660   2.249
 7060SOL    HW122079   3.421   0.624   2.190
 7060SOL    HW222080   3.582   0.634   2.211
 7061SOL     OW22081   0.600   2.430   2.960
 7061SOL    HW122082   0.608   2.506   2.895
 7061SOL    HW222083   0.631   2.345   2.916
 7062SOL     OW22084   3.918   1.459   3.143
 7062SOL    HW122085   3.935   1.453   3.242
 7062SOL    HW222086   3.886   1.551   3.121
 7063SOL     OW22087   0.862   1.011   1.793
 7063SOL    HW122088   0.813   0.984   1.876
 7063SOL    HW222089   0.897   0.930   1.747
 7064SOL     OW22090   4.401   2.057   5.132
 7064SOL    HW122091   4.420   1.962   5.108
 7064SOL    HW222092   4.352   2.101   5.057
 7065SOL     OW22093   3.666   4.072   5.761
 7065SOL    HW122094   3.697   4.019   5.682
 7065SOL    HW222095   3.595   4.137   5.732
 7066SOL     OW22096   3.898   0.326   6.784
 7066SOL    HW122097   3.919   0.387   6.860
 7066SOL    HW222098   3.982   0.283   6.751
 7067SOL     OW22099   1.994   3.657   0.059
 7067SOL    HW122100   1.991   3.574   0.003
 7067SOL    HW222101   1.909   3.708   0.048
 7068SOL     OW22102   4.810   3.909   4.260
 7068SOL    HW122103   4.808   3.812   4.285
 7068SOL    HW222104   4.822   3.964   4.342
 7069SOL     OW22105   5.806   0.352   6.562
 7069SOL    HW122106   5.744   0.401   6.624
 7069SOL    HW222107   5.899   0.385   6.574
 7070SOL     OW22108   0.430   6.476   5.137
 7070SOL    HW122109   0.349   6.483   5.195
 7070SOL    HW222110   0.435   6.383   5.100
 7071SOL     OW22111   4.987   5.931   6.471
 7071SOL    HW122112   4.889   5.936   6.491
 7071SOL    HW222113   5.033   6.009   6.512
 7072SOL     OW22114   0.296   3.994   6.387
 7072SOL    HW122115   0.377   3.969   6.440
 7072SOL    HW222116   0.260   4.082   6.420
 7073SOL     OW22117   5.694   1.302   2.986
 7073SOL    HW122118   5.761   1.309   3.059
 7073SOL    HW222119   5.655   1.210   2.984
 7074SOL     OW22120   5.324   4.269   2.660
 7074SOL    HW122121   5.301   4.365   2.645
 7074SOL    HW222122   5.317   4.220   2.573
 7075SOL     OW22123   3.282   5.591   3.764
 7075SOL    HW122124   3.223   5.511   3.750
 7075SOL    HW222125   3.377   5.561   3.771
 7076SOL     OW22126   5.818   2.557   2.393
 7076SOL    HW122127   5.849   2.646   2.362
 7076SOL    HW222128   5.742   2.526   2.335
 7077SOL     OW22129   3.839   5.663   0.966
 7077SOL    HW122130   3.870   5.569   0.955
 7077SOL    HW222131   3.829   5.705   0.876
 7078SOL     OW22132   5.194   0.469   0.058
 7078SOL    HW122133   5.168   0.387   0.109
 7078SOL    HW222134   5.113   0.507   0.013
 7079SOL     OW22135   1.495   6.819   4.403
 7079SOL    HW122136   1.476   6.721   4.403
 7079SOL    HW222137   1.446   6.863   4.327
 7080SOL     OW22138   4.272   1.511   5.285
 7080SOL    HW122139   4.297   1.568   5.363
 7080SOL    HW222140   4.234   1.568   5.213
 7081SOL     OW22141   1.360   0.835   7.012
 7081SOL    HW122142   1.408   0.921   0.012
 7081SOL    HW222143   1.261   0.852   7.013
 7082SOL     OW22144   6.365   4.520   2.654
 7082SOL    HW122145   6.348   4.441   2.595
 7082SOL    HW222146   6.293   4.587   2.640
 7083SOL     OW22147   6.738   3.133   2.985
 7083SOL    HW122148   6.816   3.087   2.943
 7083SOL    HW222149   6.764   3.169   3.074
 7084SOL     OW22150   0.582   5.434   0.004
 7084SOL    HW122151   0.609   5.352   6.971
 7084SOL    HW222152   0.595   5.419   0.102
 7085SOL     OW22153   0.925   3.220   2.154
 7085SOL    HW122154   0.919   3.250   2.249
 7085SOL    HW222155   0.942   3.300   2.095
 7086SOL     OW22156   5.701   1.120   3.858
 7086SOL    HW122157   5.634   1.061   3.904
 7086SOL    HW222158   5.727   1.194   3.920
 7087SOL     OW22159   5.314   3.205   3.253
 7087SOL    HW122160   5.284   3.285   3.305
 7087SOL    HW222161   5.379   3.234   3.183
 7088SOL     OW22162   6.297   2.320   4.573
 7088SOL    HW122163   6.200   2.339   4.560
 7088SOL    HW222164   6.309   2.247   4.639
 7089SOL     OW22165   3.226   5.717   1.984
 7089SOL    HW122166   3.227   5.626   1.943
 7089SOL    HW222167   3.317   5.758   1.975
 7090SOL     OW22168   4.627   2.098   1.434
 7090SOL    HW122169   4.719   2.131   1.457
 7090SOL    HW222170   4.571   2.096   1.516
 7091SOL     OW22171   7.011   6.550   6.594
 7091SOL    HW122172   0.054   6.610   6.541
 7091SOL    HW222173   7.009   6.460   6.551
 7092SOL     OW22174   4.360   1.588   6.154
 7092SOL    HW122175   4.294   1.644   6.205
 7092SOL    HW222176   4.433   1.558   6.216
 7093SOL     OW22177   3.545   3.331   1.170
 7093SOL    HW122178   3.481   3.255   1.160
 7093SOL    HW222179   3.609   3.312   1.245
 7094SOL     OW22180   3.049   0.018   5.166
 7094SOL    HW122181   2.992   6.967   5.211
 7094SOL    HW222182   3.022   0.109   5.198
 7095SOL     OW22183   2.499   4.688   5.102
 7095SOL    HW122184   2.452   4.747   5.037
 7095SOL    HW222185   2.436   4.615   5.131
 7096SOL     OW22186   7.014   0.873   1.160
 7096SOL    HW122187   0.035   0.940   1.097
 7096SOL    HW222188   6.934   0.912   1.205
 7097SOL     OW22189   4.810   0.974   1.363
 7097SOL    HW122190   4.775   0.983   1.456
 7097SOL    HW222191   4.853   1.059   1.335
 7098SOL     OW22192   0.910   6.733   4.128
 7098SOL    HW122193   0.899   6.635   4.148
 7098SOL    HW222194   0.820   6.777   4.129
 7099SOL     OW22195   2.994   2.134   4.187
 7099SOL    HW122196   3.074   2.099   4.236
 7099SOL    HW222197   2.935   2.184   4.251
 7100SOL     OW22198   5.834   3.908   1.325
 7100SOL    HW122199   5.769   3.946   1.259
 7100SOL    HW222200   5.862   3.980   1.390
 7101SOL     OW22201   2.365   6.133   5.460
 7101SOL    HW122202   2.360   6.070   5.538
 7101SOL    HW222203   2.335   6.087   5.377
 7102SOL     OW22204   5.350   0.973   1.814
 7102SOL    HW122205   5.437   1.021   1.795
 7102SOL    HW222206   5.367   0.897   1.876
 7103SOL     OW22207   4.824   4.118   2.705
 7103SOL    HW122208   4.918   4.146   2.724
 7103SOL    HW222209   4.812   4.108   2.606
 7104SOL     OW22210   5.045   4.021   3.676
 7104SOL    HW122211   5.142   3.995   3.674
 7104SOL    HW222212   4.992   3.947   3.715
 7105SOL     OW22213   3.342   4.111   4.235
 7105SOL    HW122214   3.436   4.078   4.243
 7105SOL    HW222215   3.328   4.152   4.144
 7106SOL     OW22216   2.923   2.669   0.889
 7106SOL    HW122217   2.934   2.761   0.926
 7106SOL    HW222218   2.993   2.609   0.928
 7107SOL     OW22219   3.814   0.776   6.496
 7107SOL    HW122220   3.734   0.718   6.479
 7107SOL    HW222221   3.790   0.846   6.563
 7108SOL     OW22222   4.361   0.723   1.994
 7108SOL    HW122223   4.440   0.663   2.008
 7108SOL    HW222224   4.349   0.782   2.074
 7109SOL     OW22225   2.272   6.164   6.193
 7109SOL    HW122226   2.340   6.174   6.266
 7109SOL    HW222227   2.282   6.238   6.127
 7110SOL     OW22228   3.309   6.319   4.196
 7110SOL    HW122229   3.382   6.387   4.190
 7110SOL    HW222230   3.247   6.329   4.118
 7111SOL     OW22231   6.929   0.160   4.622
 7111SOL    HW122232   6.962   0.104   4.698
 7111SOL    HW222233   7.002   0.223   4.594
 7112SOL     OW22234   1.894   5.144   4.596
 7112SOL    HW122235   1.939   5.097   4.673
 7112SOL    HW222236   1.943   5.228   4.575
 7113SOL     OW22237   3.973   5.296   5.589
 7113SOL    HW122238   3.877   5.278   5.611
 7113SOL    HW222239   3.979   5.376   5.529
 7114SOL     OW22240   5.222   5.264   0.439
 7114SOL    HW122241   5.262   5.338   0.385
 7114SOL    HW222242   5.283   5.241   0.515
 7115SOL     OW22243   6.335   3.689   7.014
 7115SOL    HW122244   6.278   3.769   0.015
 7115SOL    HW222245   6.393   3.707   6.935
 7116SOL     OW22246   6.593   4.118   4.085
 7116SOL    HW122247   6.501   4.149   4.111
 7116SOL    HW222248   6.643   4.092   4.168
 7117SOL     OW22249   5.854   0.022   3.089
 7117SOL    HW122250   5.876   0.019   2.992
 7117SOL    HW222251   5.939   0.024   3.143
 7118SOL     OW22252   4.206   4.249   5.312
 7118SOL    HW122253   4.116   4.210   5.294
 7118SOL    HW222254   4.221   4.328   5.252
 7119SOL     OW22255   3.798   6.232   5.391
 7119SOL    HW122256   3.874   6.297   5.384
 7119SOL    HW222257   3.774   6.199   5.300
 7120SOL     OW22258   5.111   0.809   0.021
 7120SOL    HW122259   5.206   0.794   7.014
 7120SOL    HW222260   5.107   0.850   0.112
 7121SOL     OW22261   1.446   6.090   2.407
 7121SOL    HW122262   1.511   6.145   2.460
 7121SOL    HW222263   1.475   5.994   2.408
 7122SOL     OW22264   2.674   0.936   6.617
 7122SOL    HW122265   2.628   0.875   6.552
 7122SOL    HW222266   2.649   1.031   6.597
 7123SOL     OW22267   5.188   5.368   6.079
 7123SOL    HW122268   5.206   5.390   5.983
 7123SOL    HW222269   5.125   5.290   6.083
 7124SOL     OW22270   1.636   2.400   1.450
 7124SOL    HW122271   1.669   2.306   1.454
 7124SOL    HW222272   1.540   2.401   1.423
 7125SOL     OW22273   1.121   6.281   1.090
 7125SOL    HW122274   1.083   6.334   1.166
 7125SOL    HW222275   1.210   6.319   1.064
 7126SOL     OW22276   3.337   5.481   1.078
 7126SOL    HW122277   3.382   5.469   1.166
 7126SOL    HW222278   3.316   5.578   1.064
 7127SOL     OW22279   2.420   6.919   4.929
 7127SOL    HW122280   2.516   6.929   4.903
 7127SOL    HW222281   2.366   6.896   4.849
 7128SOL     OW22282   4.456   3.826   6.115
 7128SOL    HW122283   4.366   3.786   6.130
 7128SOL    HW222284   4.460   3.865   6.023
 7129SOL     OW22285   0.570   0.091   0.785
 7129SOL    HW122286   0.629   0.153   0.732
 7129SOL    HW222287   0.605   7.015   0.778
 7130SOL     OW22288   3.254   6.708   4.143
 7130SOL    HW122289   3.314   6.651   4.087
 7130SOL    HW222290   3.307   6.756   4.213
 7131SOL     OW22291   3.451   1.122   2.921
 7131SOL    HW122292   3.444   1.214   2.883
 7131SOL    HW222293   3.380   1.064   2.880
 7132SOL     OW22294   5.431   4.450   0.982
 7132SOL    HW122295   5.440   4.399   0.896
 7132SOL    HW222296   5.368   4.402   1.043
 7133SOL     OW22297   4.549   5.488   2.817
 7133SOL    HW122298   4.636   5.496   2.769
 7133SOL    HW222299   4.538   5.564   2.880
 7134SOL     OW22300   5.626   5.250   0.944
 7134SOL    HW122301   5.630   5.158   0.906
 7134SOL    HW222302   5.713   5.274   0.986
 7135SOL     OW22303   1.973   2.708   1.128
 7135SOL    HW122304   2.072   2.694   1.122
 7135SOL    HW222305   1.931   2.628   1.172
 7136SOL     OW22306   1.766   2.047   1.693
 7136SOL    HW122307   1.784   1.950   1.706
 7136SOL    HW222308   1.734   2.087   1.779
 7137SOL     OW22309   2.698   1.802   1.506
 7137SOL    HW122310   2.670   1.806   1.602
 7137SOL    HW222311   2.796   1.820   1.498
 7138SOL     OW22312   0.930   2.243   0.976
 7138SOL    HW122313   0.889   2.227   0.886
 7138SOL    HW222314   0.911   2.164   1.035
 7139SOL     OW22315   6.437   6.028   0.921
 7139SOL    HW122316   6.346   6.070   0.916
 7139SOL    HW222317   6.501   6.092   0.962
 7140SOL     OW22318   6.867   3.650   0.487
 7140SOL    HW122319   6.801   3.724   0.474
 7140SOL    HW222320   6.818   3.566   0.508
 7141SOL     OW22321   3.559   0.750   0.970
 7141SOL    HW122322   3.496   0.700   0.911
 7141SOL    HW222323   3.510   0.779   1.053
 7142SOL     OW22324   3.297   0.049   4.875
 7142SOL    HW122325   3.335   0.004   4.956
 7142SOL    HW222326   3.372   0.081   4.817
 7143SOL     OW22327   3.270   4.537   6.574
 7143SOL    HW122328   3.174   4.556   6.557
 7143SOL    HW222329   3.281   4.495   6.664
 7144SOL     OW22330   6.642   0.551   5.587
 7144SOL    HW122331   6.579   0.502   5.527
 7144SOL    HW222332   6.638   0.510   5.678
 7145SOL     OW22333   4.989   2.169   6.471
 7145SOL    HW122334   4.999   2.077   6.433
 7145SOL    HW222335   5.055   2.182   6.545
 7146SOL     OW22336   1.794   2.296   5.071
 7146SOL    HW122337   1.779   2.242   5.154
 7146SOL    HW222338   1.891   2.293   5.046
 7147SOL     OW22339   6.160   6.589   2.015
 7147SOL    HW122340   6.163   6.495   1.979
 7147SOL    HW222341   6.116   6.589   2.105
 7148SOL     OW22342   6.637   6.947   0.891
 7148SOL    HW122343   6.658   0.022   0.923
 7148SOL    HW222344   6.546   6.921   0.921
 7149SOL     OW22345   6.207   4.668   5.626
 7149SOL    HW122346   6.262   4.600   5.577
 7149SOL    HW222347   6.110   4.655   5.604
 7150SOL     OW22348   3.646   3.332   6.998
 7150SOL    HW122349   3.613   3.403   6.935
 7150SOL    HW222350   3.733   3.360   0.020
 7151SOL     OW22351   3.721   1.188   0.988
 7151SOL    HW122352   3.657   1.118   0.957
 7151SOL    HW222353   3.772   1.155   1.067
 7152SOL     OW22354   6.240   1.184   6.438
 7152SOL    HW122355   6.223   1.253   6.509
 7152SOL    HW222356   6.336   1.155   6.444
 7153SOL     OW22357   3.406   5.874   0.893
 7153SOL    HW122358   3.477   5.824   0.942
 7153SOL    HW222359   3.449   5.932   0.823
 7154SOL     OW22360   4.278   1.703   1.939
 7154SOL    HW122361   4.300   1.781   1.998
 7154SOL    HW222362   4.325   1.713   1.851
 7155SOL     OW22363   2.887   1.545   2.037
 7155SOL    HW122364   2.902   1.639   2.005
 7155SOL    HW222365   2.860   1.488   1.960
 7156SOL     OW22366   6.154   3.470   6.525
 7156SOL    HW122367   6.240   3.428   6.495
 7156SOL    HW222368   6.147   3.464   6.625
 7157SOL     OW22369   6.674   4.660   6.430
 7157SOL    HW122370   6.773   4.649   6.432
 7157SOL    HW222371   6.641   4.658   6.335
 7158SOL     OW22372   4.342   6.769   4.000
 7158SOL    HW122373   4.419   6.744   3.942
 7158SOL    HW222374   4.305   6.686   4.044
 7159SOL     OW22375   0.777   6.289   2.825
 7159SOL    HW122376   0.828   6.362   2.779
 7159SOL    HW222377   0.814   6.201   2.798
 7160SOL     OW22378   0.035   0.093   3.561
 7160SOL    HW122379   7.013   0.049   3.642
 7160SOL    HW222380   7.008   0.057   3.479
 7161SOL     OW22381   3.950   3.039   3.401
 7161SOL    HW122382   3.872   2.981   3.426
 7161SOL    HW222383   3.939   3.128   3.444
 7162SOL     OW22384   0.548   5.840   1.270
 7162SOL    HW122385   0.612   5.763   1.265
 7162SOL    HW222386   0.523   5.857   1.365
 7163SOL     OW22387   7.005   1.629   2.297
 7163SOL    HW122388   6.945   1.616   2.218
 7163SOL    HW222389   6.967   1.701   2.356
 7164SOL     OW22390   2.076   1.156   6.372
 7164SOL    HW122391   2.090   1.187   6.466
 7164SOL    HW222392   2.011   1.081   6.370
 7165SOL     OW22393   5.594   1.544   0.304
 7165SOL    HW122394   5.645   1.463   0.333
 7165SOL    HW222395   5.508   1.517   0.260
 7166SOL     OW22396   6.636   6.379   6.417
 7166SOL    HW122397   6.616   6.366   6.320
 7166SOL    HW222398   6.641   6.477   6.437
 7167SOL     OW22399   5.781   2.576   4.639
 7167SOL    HW122400   5.832   2.649   4.594
 7167SOL    HW222401   5.690   2.569   4.598
 7168SOL     OW22402   3.065   1.336   1.980
 7168SOL    HW122403   3.024   1.425   2.001
 7168SOL    HW222404   3.010   1.264   2.022
 7169SOL     OW22405   1.523   3.656   6.903
 7169SOL    HW122406   1.591   3.629   6.970
 7169SOL    HW222407   1.456   3.583   6.891
 7170SOL     OW22408   3.850   1.458   0.602
 7170SOL    HW122409   3.827   1.399   0.679
 7170SOL    HW222410   3.769   1.469   0.544
 7171SOL     OW22411   6.944   4.785   0.572
 7171SOL    HW122412   6.941   4.885   0.570
 7171SOL    HW222413   0.007   4.753   0.523
 7172SOL     OW22414   1.435   1.614   4.136
 7172SOL    HW122415   1.417   1.550   4.211
 7172SOL    HW222416   1.518   1.585   4.087
 7173SOL     OW22417   4.799   5.459   6.148
 7173SOL    HW122418   4.853   5.498   6.074
 7173SOL    HW222419   4.731   5.526   6.178
 7174SOL     OW22420   6.693   4.092   1.859
 7174SOL    HW122421   6.677   4.170   1.919
 7174SOL    HW222422   6.790   4.089   1.834
 7175SOL     OW22423   6.036   3.467   6.800
 7175SOL    HW122424   6.092   3.511   6.870
 7175SOL    HW222425   5.939   3.487   6.817
 7176SOL     OW22426   0.948   0.677   5.388
 7176SOL    HW122427   0.857   0.637   5.398
 7176SOL    HW222428   1.017   0.605   5.397
 7177SOL     OW22429   1.511   5.625   3.690
 7177SOL    HW122430   1.539   5.609   3.785
 7177SOL    HW222431   1.583   5.594   3.629
 7178SOL     OW22432   1.739   0.306   5.163
 7178SOL    HW122433   1.831   0.287   5.199
 7178SOL    HW222434   1.672   0.293   5.237
 7179SOL     OW22435   3.144   5.691   6.255
 7179SOL    HW122436   3.121   5.784   6.285
 7179SOL    HW222437   3.168   5.693   6.158
 7180SOL     OW22438   1.712   4.171   1.227
 7180SOL    HW122439   1.810   4.190   1.236
 7180SOL    HW222440   1.667   4.185   1.315
 7181SOL     OW22441   2.244   1.752   5.459
 7181SOL    HW122442   2.230   1.735   5.557
 7181SOL    HW222443   2.158   1.781   5.417
 7182SOL     OW22444   1.863   1.773   4.599
 7182SOL    HW122445   1.918   1.690   4.611
 7182SOL    HW222446   1.862   1.825   4.684
 7183SOL     OW22447   0.967   6.895   1.949
 7183SOL    HW122448   0.907   6.909   2.028
 7183SOL    HW222449   1.022   6.977   1.935
 7184SOL     OW22450   6.344   6.871   4.131
 7184SOL    HW122451   6.404   6.934   4.181
 7184SOL    HW222452   6.290   6.817   4.196
 7185SOL     OW22453   4.019   1.275   4.365
 7185SOL    HW122454   3.937   1.288   4.420
 7185SOL    HW222455   4.100   1.291   4.422
 7186SOL     OW22456   0.073   0.349   6.436
 7186SOL    HW122457   0.168   0.362   6.465
 7186SOL    HW222458   0.054   0.409   6.357
 7187SOL     OW22459   3.319   2.905   4.238
 7187SOL    HW122460   3.332   2.806   4.231
 7187SOL    HW222461   3.263   2.937   4.161
 7188SOL     OW22462   3.660   4.080   6.958
 7188SOL    HW122463   3.562   4.089   6.940
 7188SOL    HW222464   3.685   3.983   6.958
 7189SOL     OW22465   6.437   2.720   6.066
 7189SOL    HW122466   6.516   2.755   6.015
 7189SOL    HW222467   6.358   2.779   6.051
 7190SOL     OW22468   5.996   5.373   1.538
 7190SOL    HW122469   5.985   5.449   1.602
 7190SOL    HW222470   5.908   5.351   1.497
 7191SOL     OW22471   0.146   5.037   4.099
 7191SOL    HW122472   0.189   4.947   4.092
 7191SOL    HW222473   0.173   5.093   4.020
 7192SOL     OW22474   1.856   4.343   6.709
 7192SOL    HW122475   1.871   4.261   6.654
 7192SOL    HW222476   1.930   4.409   6.692
 7193SOL     OW22477   2.647   2.150   2.362
 7193SOL    HW122478   2.719   2.085   2.387
 7193SOL    HW222479   2.654   2.231   2.420
 7194SOL     OW22480   2.915   2.827   6.298
 7194SOL    HW122481   2.858   2.880   6.235
 7194SOL    HW222482   3.004   2.871   6.307
 7195SOL     OW22483   0.135   4.496   5.223
 7195SOL    HW122484   0.090   4.440   5.153
 7195SOL    HW222485   0.200   4.439   5.273
 7196SOL     OW22486   3.404   4.030   1.690
 7196SOL    HW122487   3.458   4.085   1.755
 7196SOL    HW222488   3.466   3.972   1.636
 7197SOL     OW22489   2.780   4.160   5.833
 7197SOL    HW122490   2.804   4.167   5.736
 7197SOL    HW222491   2.690   4.201   5.848
 7198SOL     OW22492   0.515   0.726   1.757
 7198SOL    HW122493   0.552   0.703   1.667
 7198SOL    HW222494   0.447   0.799   1.747
 7199SOL     OW22495   0.073   1.014   2.329
 7199SOL    HW122496   0.112   0.968   2.409
 7199SOL    HW222497   6.996   1.040   2.348
 7200SOL     OW22498   0.988   2.547   0.989
 7200SOL    HW122499   1.004   2.524   1.085
 7200SOL    HW222500   0.976   2.463   0.936
 7201SOL     OW22501   5.590   5.644   4.049
 7201SOL    HW122502   5.499   5.674   4.023
 7201SOL    HW222503   5.589   5.547   4.072
 7202SOL     OW22504   4.610   0.715   5.612
 7202SOL    HW122505   4.682   0.653   5.580
 7202SOL    HW222506   4.604   0.794   5.551
 7203SOL     OW22507   0.315   1.685   1.175
 7203SOL    HW122508   0.223   1.647   1.181
 7203SOL    HW222509   0.358   1.684   1.266
 7204SOL     OW22510   6.271   6.886   1.683
 7204SOL    HW122511   6.199   6.954   1.689
 7204SOL    HW222512   6.267   6.826   1.763
 7205SOL     OW22513   3.075   1.755   4.512
 7205SOL    HW122514   2.984   1.734   4.546
 7205SOL    HW222515   3.078   1.741   4.413
 7206SOL     OW22516   2.091   3.455   0.697
 7206SOL    HW122517   2.108   3.537   0.751
 7206SOL    HW222518   2.149   3.456   0.616
 7207SOL     OW22519   1.714   0.971   3.654
 7207SOL    HW122520   1.721   0.968   3.554
 7207SOL    HW222521   1.631   1.021   3.680
 7208SOL     OW22522   2.870   0.266   4.170
 7208SOL    HW122523   2.844   0.263   4.073
 7208SOL    HW222524   2.968   0.283   4.178
 7209SOL     OW22525   3.309   2.114   2.337
 7209SOL    HW122526   3.276   2.171   2.262
 7209SOL    HW222527   3.259   2.137   2.420
 7210SOL     OW22528   2.710   1.343   3.241
 7210SOL    HW122529   2.689   1.371   3.334
 7210SOL    HW222530   2.628   1.303   3.199
 7211SOL     OW22531   3.589   5.620   4.759
 7211SOL    HW122532   3.566   5.608   4.855
 7211SOL    HW222533   3.507   5.647   4.708
 7212SOL     OW22534   6.902   4.083   5.864
 7212SOL    HW122535   6.820   4.025   5.857
 7212SOL    HW222536   6.975   4.043   5.809
 7213SOL     OW22537   3.987   1.917   0.554
 7213SOL    HW122538   4.026   1.998   0.597
 7213SOL    HW222539   4.023   1.835   0.598
 7214SOL     OW22540   0.143   0.904   6.427
 7214SOL    HW122541   0.216   0.927   6.363
 7214SOL    HW222542   0.058   0.887   6.378
 7215SOL     OW22543   6.791   3.007   2.660
 7215SOL    HW122544   6.793   2.924   2.603
 7215SOL    HW222545   6.883   3.044   2.668
 7216SOL     OW22546   3.417   6.402   2.713
 7216SOL    HW122547   3.496   6.369   2.661
 7216SOL    HW222548   3.418   6.502   2.714
 7217SOL     OW22549   1.531   3.048   3.481
 7217SOL    HW122550   1.551   3.131   3.533
 7217SOL    HW222551   1.604   3.033   3.414
 7218SOL     OW22552   6.206   4.413   4.422
 7218SOL    HW122553   6.185   4.494   4.475
 7218SOL    HW222554   6.303   4.390   4.434
 7219SOL     OW22555   3.429   5.931   2.329
 7219SOL    HW122556   3.435   5.845   2.380
 7219SOL    HW222557   3.417   5.911   2.231
 7220SOL     OW22558   5.893   4.665   5.168
 7220SOL    HW122559   5.878   4.731   5.094
 7220SOL    HW222560   5.834   4.687   5.245
 7221SOL     OW22561   3.733   5.871   4.388
 7221SOL    HW122562   3.642   5.914   4.389
 7221SOL    HW222563   3.775   5.885   4.298
 7222SOL     OW22564   0.343   6.029   4.562
 7222SOL    HW122565   0.429   6.031   4.611
 7222SOL    HW222566   0.297   5.941   4.578
 7223SOL     OW22567   0.062   3.765   1.778
 7223SOL    HW122568   0.126   3.764   1.854
 7223SOL    HW222569   6.986   3.757   1.814
 7224SOL     OW22570   3.860   1.978   3.210
 7224SOL    HW122571   3.936   1.965   3.274
 7224SOL    HW222572   3.801   2.052   3.242
 7225SOL     OW22573   1.230   6.858   0.768
 7225SOL    HW122574   1.292   6.887   0.695
 7225SOL    HW222575   1.251   6.909   0.852
 7226SOL     OW22576   6.267   6.304   1.036
 7226SOL    HW122577   6.348   6.335   1.086
 7226SOL    HW222578   6.246   6.209   1.061
 7227SOL     OW22579   2.386   1.121   2.103
 7227SOL    HW122580   2.323   1.160   2.036
 7227SOL    HW222581   2.472   1.172   2.102
 7228SOL     OW22582   6.880   3.354   2.620
 7228SOL    HW122583   6.882   3.438   2.565
 7228SOL    HW222584   6.806   3.361   2.687
 7229SOL     OW22585   6.973   0.390   4.885
 7229SOL    HW122586   7.009   0.433   4.968
 7229SOL    HW222587   6.922   0.308   4.910
 7230SOL     OW22588   2.105   5.389   4.267
 7230SOL    HW122589   2.081   5.465   4.207
 7230SOL    HW222590   2.059   5.306   4.236
 7231SOL     OW22591   4.800   1.379   6.207
 7231SOL    HW122592   4.744   1.459   6.229
 7231SOL    HW222593   4.796   1.313   6.282
 7232SOL     OW22594   5.461   6.925   3.336
 7232SOL    HW122595   5.559   6.936   3.326
 7232SOL    HW222596   5.441   6.838   3.383
 7233SOL     OW22597   6.576   1.248   4.728
 7233SOL    HW122598   6.615   1.331   4.767
 7233SOL    HW222599   6.623   1.226   4.642
 7234SOL     OW22600   5.046   4.264   2.751
 7234SOL    HW122601   5.019   4.360   2.744
 7234SOL    HW222602   5.146   4.258   2.747
 7235SOL     OW22603   0.186   6.235   1.365
 7235SOL    HW122604   0.210   6.278   1.452
 7235SOL    HW222605   0.268   6.202   1.320
 7236SOL     OW22606   2.127   2.459   3.264
 7236SOL    HW122607   2.100   2.412   3.348
 7236SOL    HW222608   2.127   2.394   3.188
 7237SOL     OW22609   5.333   1.038   0.165
 7237SOL    HW122610   5.412   1.086   0.128
 7237SOL    HW222611   5.356   0.942   0.180
 7238SOL     OW22612   3.999   2.885   0.668
 7238SOL    HW122613   4.072   2.952   0.679
 7238SOL    HW222614   3.915   2.919   0.711
 7239SOL     OW22615   0.135   2.722   2.565
 7239SOL    HW122616   0.124   2.753   2.470
 7239SOL    HW222617   0.127   2.800   2.626
 7240SOL     OW22618   6.732   1.998   6.114
 7240SOL    HW122619   6.730   2.069   6.184
 7240SOL    HW222620   6.824   1.990   6.076
 7241SOL     OW22621   2.904   1.830   1.956
 7241SOL    HW122622   2.949   1.917   1.939
 7241SOL    HW222623   2.836   1.841   2.029
 7242SOL     OW22624   6.315   5.320   4.868
 7242SOL    HW122625   6.348   5.268   4.789
 7242SOL    HW222626   6.327   5.266   4.951
 7243SOL     OW22627   6.195   3.921   6.828
 7243SOL    HW122628   6.115   3.981   6.817
 7243SOL    HW222629   6.202   3.893   6.923
 7244SOL     OW22630   0.076   6.587   7.017
 7244SOL    HW122631   0.029   6.530   6.949
 7244SOL    HW222632   0.055   6.555   0.091
 7245SOL     OW22633   1.180   3.081   7.008
 7245SOL    HW122634   1.167   2.981   7.006
 7245SOL    HW222635   1.138   3.121   6.927
 7246SOL     OW22636   3.139   0.312   4.164
 7246SOL    HW122637   3.207   0.238   4.155
 7246SOL    HW222638   3.153   0.378   4.091
 7247SOL     OW22639   2.682   2.747   5.396
 7247SOL    HW122640   2.775   2.712   5.388
 7247SOL    HW222641   2.618   2.678   5.363
 7248SOL     OW22642   3.477   0.876   4.623
 7248SOL    HW122643   3.572   0.894   4.646
 7248SOL    HW222644   3.418   0.903   4.699
 7249SOL     OW22645   3.807   5.435   1.755
 7249SOL    HW122646   3.743   5.395   1.820
 7249SOL    HW222647   3.848   5.518   1.795
 7250SOL     OW22648   5.128   5.941   5.680
 7250SOL    HW122649   5.216   5.987   5.673
 7250SOL    HW222650   5.064   5.998   5.732
 7251SOL     OW22651   0.372   5.667   5.451
 7251SOL    HW122652   0.321   5.588   5.486
 7251SOL    HW222653   0.469   5.652   5.465
 7252SOL     OW22654   3.343   4.035   2.082
 7252SOL    HW122655   3.298   3.987   2.006
 7252SOL    HW222656   3.402   4.107   2.045
 7253SOL     OW22657   1.534   5.575   5.436
 7253SOL    HW122658   1.437   5.595   5.421
 7253SOL    HW222659   1.589   5.619   5.364
 7254SOL     OW22660   4.863   3.798   3.756
 7254SOL    HW122661   4.895   3.738   3.682
 7254SOL    HW222662   4.807   3.871   3.718
 7255SOL     OW22663   5.395   3.386   6.850
 7255SOL    HW122664   5.413   3.469   6.797
 7255SOL    HW222665   5.389   3.409   6.947
 7256SOL     OW22666   3.253   6.333   6.242
 7256SOL    HW122667   3.259   6.234   6.227
 7256SOL    HW222668   3.344   6.368   6.265
 7257SOL     OW22669   0.905   1.026   4.537
 7257SOL    HW122670   0.950   1.079   4.466
 7257SOL    HW222671   0.863   0.944   4.497
 7258SOL     OW22672   6.053   1.897   3.290
 7258SOL    HW122673   5.970   1.877   3.239
 7258SOL    HW222674   6.129   1.911   3.227
 7259SOL     OW22675   0.969   4.032   2.837
 7259SOL    HW122676   1.021   3.952   2.865
 7259SOL    HW222677   0.928   4.075   2.918
 7260SOL     OW22678   5.284   3.336   0.848
 7260SOL    HW122679   5.297   3.363   0.943
 7260SOL    HW222680   5.285   3.237   0.841
 7261SOL     OW22681   0.143   4.219   0.553
 7261SOL    HW122682   0.171   4.124   0.569
 7261SOL    HW222683   0.043   4.223   0.548
 7262SOL     OW22684   6.325   1.892   6.187
 7262SOL    HW122685   6.311   1.901   6.089
 7262SOL    HW222686   6.282   1.969   6.234
 7263SOL     OW22687   0.298   5.368   6.950
 7263SOL    HW122688   0.308   5.287   7.008
 7263SOL    HW222689   0.369   5.434   6.973
 7264SOL     OW22690   5.733   1.140   0.288
 7264SOL    HW122691   5.676   1.178   0.215
 7264SOL    HW222692   5.742   1.207   0.362
 7265SOL     OW22693   4.286   5.890   5.219
 7265SOL    HW122694   4.253   5.798   5.238
 7265SOL    HW222695   4.293   5.903   5.120
 7266SOL     OW22696   0.016   0.404   3.952
 7266SOL    HW122697   6.982   0.323   3.922
 7266SOL    HW222698   6.978   0.457   4.015
 7267SOL     OW22699   6.141   5.586   5.088
 7267SOL    HW122700   6.172   5.492   5.099
 7267SOL    HW222701   6.213   5.640   5.043
 7268SOL     OW22702   6.292   6.064   4.292
 7268SOL    HW122703   6.331   6.120   4.365
 7268SOL    HW222704   6.244   5.986   4.332
 7269SOL     OW22705   2.555   5.162   5.343
 7269SOL    HW122706   2.579   5.185   5.248
 7269SOL    HW222707   2.494   5.082   5.344
 7270SOL     OW22708   0.767   1.562   3.782
 7270SOL    HW122709   0.745   1.510   3.865
 7270SOL    HW222710   0.806   1.650   3.807
 7271SOL     OW22711   0.695   4.242   3.443
 7271SOL    HW122712   0.750   4.326   3.439
 7271SOL    HW222713   0.605   4.260   3.403
 7272SOL     OW22714   6.129   5.617   2.499
 7272SOL    HW122715   6.195   5.692   2.487
 7272SOL    HW222716   6.059   5.644   2.565
 7273SOL     OW22717   6.943   2.739   5.661
 7273SOL    HW122718   6.942   2.817   5.599
 7273SOL    HW222719   6.978   2.767   5.750
 7274SOL     OW22720   0.525   4.389   0.117
 7274SOL    HW122721   0.501   4.406   0.022
 7274SOL    HW222722   0.501   4.295   0.141
 7275SOL     OW22723   6.407   6.998   2.948
 7275SOL    HW122724   6.490   6.995   2.891
 7275SOL    HW222725   6.327   7.010   2.890
 7276SOL     OW22726   4.540   6.641   3.849
 7276SOL    HW122727   4.483   6.594   3.782
 7276SOL    HW222728   4.619   6.583   3.872
 7277SOL     OW22729   4.634   0.398   5.614
 7277SOL    HW122730   4.710   0.391   5.549
 7277SOL    HW222731   4.557   0.445   5.571
 7278SOL     OW22732   3.521   4.159   2.453
 7278SOL    HW122733   3.521   4.222   2.376
 7278SOL    HW222734   3.427   4.135   2.477
 7279SOL     OW22735   3.936   5.951   0.154
 7279SOL    HW122736   3.982   5.927   0.068
 7279SOL    HW222737   4.004   5.980   0.221
 7280SOL     OW22738   4.581   0.086   5.631
 7280SOL    HW122739   4.518   0.145   5.682
 7280SOL    HW222740   4.670   0.130   5.624
 7281SOL     OW22741   3.848   1.830   6.290
 7281SOL    HW122742   3.866   1.921   6.252
 7281SOL    HW222743   3.930   1.774   6.283
 7282SOL     OW22744   5.830   5.679   2.147
 7282SOL    HW122745   5.831   5.745   2.222
 7282SOL    HW222746   5.777   5.599   2.174
 7283SOL     OW22747   2.754   0.978   3.390
 7283SOL    HW122748   2.734   0.919   3.312
 7283SOL    HW222749   2.851   0.969   3.414
 7284SOL     OW22750   6.762   3.331   5.256
 7284SOL    HW122751   6.807   3.267   5.193
 7284SOL    HW222752   6.670   3.351   5.223
 7285SOL     OW22753   4.751   5.846   1.939
 7285SOL    HW122754   4.673   5.886   1.891
 7285SOL    HW222755   4.786   5.768   1.886
 7286SOL     OW22756   2.373   2.430   0.976
 7286SOL    HW122757   2.463   2.388   0.993
 7286SOL    HW222758   2.346   2.483   1.057
 7287SOL     OW22759   6.571   0.565   6.559
 7287SOL    HW122760   6.549   0.496   6.628
 7287SOL    HW222761   6.591   0.652   6.604
 7288SOL     OW22762   3.935   6.977   6.512
 7288SOL    HW122763   3.969   6.926   6.434
 7288SOL    HW222764   3.838   6.999   6.498
 7289SOL     OW22765   5.850   1.703   3.184
 7289SOL    HW122766   5.770   1.724   3.128
 7289SOL    HW222767   5.823   1.648   3.263
 7290SOL     OW22768   2.652   5.134   5.029
 7290SOL    HW122769   2.729   5.196   5.011
 7290SOL    HW222770   2.568   5.173   4.990
 7291SOL     OW22771   2.307   6.307   1.017
 7291SOL    HW122772   2.313   6.332   1.114
 7291SOL    HW222773   2.299   6.208   1.008
 7292SOL     OW22774   2.715   6.770   3.390
 7292SOL    HW122775   2.728   6.866   3.415
 7292SOL    HW222776   2.803   6.723   3.390
 7293SOL     OW22777   1.489   1.868   4.988
 7293SOL    HW122778   1.473   1.834   4.895
 7293SOL    HW222779   1.579   1.911   4.992
 7294SOL     OW22780   2.547   5.183   0.207
 7294SOL    HW122781   2.606   5.205   0.285
 7294SOL    HW222782   2.549   5.085   0.191
 7295SOL     OW22783   0.329   1.831   0.580
 7295SOL    HW122784   0.360   1.923   0.556
 7295SOL    HW222785   0.299   1.830   0.676
 7296SOL     OW22786   3.008   4.902   0.870
 7296SOL    HW122787   3.063   4.878   0.950
 7296SOL    HW222788   3.059   4.967   0.814
 7297SOL     OW22789   4.532   6.548   0.537
 7297SOL    HW122790   4.578   6.505   0.615
 7297SOL    HW222791   4.472   6.620   0.569
 7298SOL     OW22792   5.610   4.102   4.751
 7298SOL    HW122793   5.635   4.110   4.654
 7298SOL    HW222794   5.629   4.187   4.798
 7299SOL     OW22795   6.732   2.697   0.743
 7299SOL    HW122796   6.760   2.757   0.818
 7299SOL    HW222797   6.675   2.748   0.679
 7300SOL     OW22798   4.857   5.799   0.922
 7300SOL    HW122799   4.761   5.772   0.915
 7300SOL    HW222800   4.915   5.717   0.927
 7301SOL     OW22801   6.763   0.174   5.962
 7301SOL    HW122802   6.748   0.264   6.003
 7301SOL    HW222803   6.749   0.104   6.031
 7302SOL     OW22804   0.101   1.148   0.201
 7302SOL    HW122805   0.198   1.128   0.189
 7302SOL    HW222806   0.078   1.141   0.298
 7303SOL     OW22807   3.717   0.459   6.620
 7303SOL    HW122808   3.807   0.417   6.636
 7303SOL    HW222809   3.685   0.433   6.529
 7304SOL     OW22810   4.521   3.450   6.036
 7304SOL    HW122811   4.541   3.387   6.111
 7304SOL    HW222812   4.567   3.538   6.053
 7305SOL     OW22813   5.516   1.958   0.096
 7305SOL    HW122814   5.423   1.931   0.121
 7305SOL    HW222815   5.533   2.052   0.125
 7306SOL     OW22816   5.039   3.950   1.443
 7306SOL    HW122817   5.017   3.934   1.347
 7306SOL    HW222818   4.956   3.941   1.498
 7307SOL     OW22819   3.003   6.648   1.794
 7307SOL    HW122820   3.103   6.653   1.796
 7307SOL    HW222821   2.970   6.604   1.877
 7308SOL     OW22822   6.768   3.610   4.185
 7308SOL    HW122823   6.843   3.615   4.118
 7308SOL    HW222824   6.747   3.515   4.205
 7309SOL     OW22825   5.205   6.383   0.542
 7309SOL    HW122826   5.220   6.308   0.478
 7309SOL    HW222827   5.256   6.464   0.511
 7310SOL     OW22828   2.544   5.679   1.200
 7310SOL    HW122829   2.461   5.694   1.147
 7310SOL    HW222830   2.554   5.751   1.269
 7311SOL     OW22831   2.633   2.307   2.125
 7311SOL    HW122832   2.643   2.247   2.204
 7311SOL    HW222833   2.723   2.327   2.087
 7312SOL     OW22834   6.995   2.226   5.439
 7312SOL    HW122835   7.000   2.308   5.496
 7312SOL    HW222836   0.057   2.167   5.459
 7313SOL     OW22837   4.353   2.400   6.462
 7313SOL    HW122838   4.354   2.388   6.363
 7313SOL    HW222839   4.385   2.492   6.485
 7314SOL     OW22840   6.611   3.685   5.119
 7314SOL    HW122841   6.546   3.670   5.194
 7314SOL    HW222842   6.672   3.761   5.142
 7315SOL     OW22843   6.015   6.974   4.006
 7315SOL    HW122844   5.973   0.027   4.063
 7315SOL    HW222845   6.115   6.978   4.017
 7316SOL     OW22846   3.783   2.979   5.497
 7316SOL    HW122847   3.712   2.992   5.567
 7316SOL    HW222848   3.873   2.991   5.540
 7317SOL     OW22849   3.798   0.950   2.709
 7317SOL    HW122850   3.857   0.919   2.635
 7317SOL    HW222851   3.702   0.936   2.683
 7318SOL     OW22852   0.697   1.633   1.649
 7318SOL    HW122853   0.653   1.574   1.716
 7318SOL    HW222854   0.649   1.720   1.644
 7319SOL     OW22855   5.990   4.294   0.010
 7319SOL    HW122856   6.065   4.303   0.076
 7319SOL    HW222857   6.028   4.293   6.935
 7320SOL     OW22858   0.479   3.660   2.379
 7320SOL    HW122859   0.546   3.679   2.308
 7320SOL    HW222860   0.526   3.645   2.466
 7321SOL     OW22861   2.564   1.296   4.539
 7321SOL    HW122862   2.559   1.240   4.457
 7321SOL    HW222863   2.481   1.283   4.593
 7322SOL     OW22864   1.208   3.703   3.229
 7322SOL    HW122865   1.218   3.802   3.221
 7322SOL    HW222866   1.139   3.682   3.299
 7323SOL     OW22867   1.719   2.022   3.394
 7323SOL    HW122868   1.718   1.961   3.315
 7323SOL    HW222869   1.732   2.116   3.364
 7324SOL     OW22870   5.632   0.966   3.505
 7324SOL    HW122871   5.672   0.874   3.507
 7324SOL    HW222872   5.537   0.962   3.537
 7325SOL     OW22873   4.038   6.358   6.211
 7325SOL    HW122874   3.943   6.348   6.241
 7325SOL    HW222875   4.079   6.268   6.197
 7326SOL     OW22876   2.567   6.251   5.671
 7326SOL    HW122877   2.506   6.210   5.739
 7326SOL    HW222878   2.662   6.233   5.697
 7327SOL     OW22879   1.053   3.235   5.974
 7327SOL    HW122880   1.023   3.296   6.047
 7327SOL    HW222881   1.024   3.141   5.996
 7328SOL     OW22882   3.310   0.040   6.953
 7328SOL    HW122883   3.387   0.056   6.891
 7328SOL    HW222884   3.314   0.105   0.011
 7329SOL     OW22885   4.441   3.376   0.984
 7329SOL    HW122886   4.351   3.419   0.985
 7329SOL    HW222887   4.453   3.320   1.066
 7330SOL     OW22888   3.480   1.870   6.686
 7330SOL    HW122889   3.436   1.825   6.609
 7330SOL    HW222890   3.575   1.889   6.664
 7331SOL     OW22891   5.202   0.771   2.174
 7331SOL    HW122892   5.252   0.841   2.225
 7331SOL    HW222893   5.115   0.752   2.220
 7332SOL     OW22894   2.573   6.189   6.973
 7332SOL    HW122895   2.649   6.123   6.978
 7332SOL    HW222896   2.573   6.231   6.882
 7333SOL     OW22897   0.783   4.619   3.011
 7333SOL    HW122898   0.688   4.611   2.982
 7333SOL    HW222899   0.821   4.705   2.978
 7334SOL     OW22900   3.868   5.737   5.255
 7334SOL    HW122901   3.775   5.708   5.279
 7334SOL    HW222902   3.894   5.815   5.312
 7335SOL     OW22903   1.543   2.462   2.383
 7335SOL    HW122904   1.465   2.518   2.354
 7335SOL    HW222905   1.626   2.518   2.381
 7336SOL     OW22906   1.692   5.808   3.974
 7336SOL    HW122907   1.689   5.850   3.884
 7336SOL    HW222908   1.658   5.714   3.968
 7337SOL     OW22909   1.143   3.070   2.076
 7337SOL    HW122910   1.141   2.973   2.100
 7337SOL    HW222911   1.066   3.117   2.119
 7338SOL     OW22912   6.793   2.548   1.685
 7338SOL    HW122913   6.764   2.578   1.593
 7338SOL    HW222914   6.802   2.628   1.744
 7339SOL     OW22915   6.413   6.078   4.030
 7339SOL    HW122916   6.358   6.061   4.112
 7339SOL    HW222917   6.352   6.097   3.953
 7340SOL     OW22918   2.401   0.293   6.927
 7340SOL    HW122919   2.478   0.238   6.893
 7340SOL    HW222920   2.360   0.246   7.006
 7341SOL     OW22921   6.339   2.020   0.368
 7341SOL    HW122922   6.312   2.097   0.426
 7341SOL    HW222923   6.294   2.028   0.279
 7342SOL     OW22924   6.756   6.715   2.800
 7342SOL    HW122925   6.768   6.718   2.899
 7342SOL    HW222926   6.838   6.676   2.758
 7343SOL     OW22927   5.050   2.855   0.483
 7343SOL    HW122928   5.023   2.859   0.579
 7343SOL    HW222929   4.972   2.883   0.426
 7344SOL     OW22930   1.153   6.084   5.787
 7344SOL    HW122931   1.152   6.067   5.886
 7344SOL    HW222932   1.240   6.053   5.749
 7345SOL     OW22933   3.990   3.343   5.974
 7345SOL    HW122934   4.006   3.352   5.876
 7345SOL    HW222935   3.922   3.272   5.991
 7346SOL     OW22936   3.801   5.618   2.675
 7346SOL    HW122937   3.735   5.670   2.729
 7346SOL    HW222938   3.892   5.627   2.715
 7347SOL     OW22939   6.621   2.012   0.356
 7347SOL    HW122940   6.622   2.109   0.378
 7347SOL    HW222941   6.530   1.974   0.372
 7348SOL     OW22942   1.745   4.378   2.801
 7348SOL    HW122943   1.724   4.410   2.709
 7348SOL    HW222944   1.810   4.303   2.796
 7349SOL     OW22945   3.933   0.580   1.296
 7349SOL    HW122946   4.013   0.639   1.290
 7349SOL    HW222947   3.865   0.607   1.228
 7350SOL     OW22948   2.806   0.409   5.080
 7350SOL    HW122949   2.882   0.448   5.030
 7350SOL    HW222950   2.784   0.319   5.042
 7351SOL     OW22951   4.385   5.184   3.725
 7351SOL    HW122952   4.417   5.134   3.806
 7351SOL    HW222953   4.313   5.131   3.680
 7352SOL     OW22954   0.444   2.465   3.253
 7352SOL    HW122955   0.351   2.500   3.249
 7352SOL    HW222956   0.500   2.512   3.186
 7353SOL     OW22957   6.054   0.158   6.846
 7353SOL    HW122958   6.056   0.258   6.843
 7353SOL    HW222959   6.141   0.124   6.883
 7354SOL     OW22960   1.222   1.916   3.120
 7354SOL    HW122961   1.130   1.941   3.150
 7354SOL    HW222962   1.219   1.832   3.067
 7355SOL     OW22963   0.328   1.719   6.318
 7355SOL    HW122964   0.243   1.736   6.367
 7355SOL    HW222965   0.358   1.802   6.272
 7356SOL     OW22966   4.201   3.529   6.064
 7356SOL    HW122967   4.255   3.551   5.983
 7356SOL    HW222968   4.121   3.476   6.037
 7357SOL     OW22969   4.975   5.410   1.707
 7357SOL    HW122970   4.964   5.446   1.614
 7357SOL    HW222971   5.046   5.341   1.708
 7358SOL     OW22972   5.818   2.197   2.753
 7358SOL    HW122973   5.885   2.133   2.791
 7358SOL    HW222974   5.842   2.290   2.780
 7359SOL     OW22975   4.661   0.886   6.143
 7359SOL    HW122976   4.672   0.815   6.212
 7359SOL    HW222977   4.745   0.940   6.136
 7360SOL     OW22978   2.508   3.222   5.475
 7360SOL    HW122979   2.562   3.166   5.412
 7360SOL    HW222980   2.458   3.292   5.424
 7361SOL     OW22981   4.831   0.037   2.273
 7361SOL    HW122982   4.894   0.051   2.350
 7361SOL    HW222983   4.872   6.993   2.206
 7362SOL     OW22984   4.204   5.509   6.683
 7362SOL    HW122985   4.153   5.434   6.725
 7362SOL    HW222986   4.302   5.498   6.702
 7363SOL     OW22987   3.902   0.877   0.662
 7363SOL    HW122988   3.809   0.912   0.666
 7363SOL    HW222989   3.961   0.931   0.722
 7364SOL     OW22990   4.461   0.174   1.781
 7364SOL    HW122991   4.550   0.210   1.753
 7364SOL    HW222992   4.419   0.237   1.846
 7365SOL     OW22993   6.224   4.732   2.347
 7365SOL    HW122994   6.314   4.769   2.323
 7365SOL    HW222995   6.180   4.696   2.265
 7366SOL     OW22996   2.403   1.385   3.969
 7366SOL    HW122997   2.473   1.393   3.898
 7366SOL    HW222998   2.383   1.476   4.006
 7367SOL     OW22999   5.168   1.082   6.356
 7367SOL    HW123000   5.157   0.986   6.382
 7367SOL    HW223001   5.231   1.088   6.278
 7368SOL     OW23002   3.989   3.054   2.550
 7368SOL    HW123003   3.903   3.091   2.584
 7368SOL    HW223004   4.029   2.993   2.619
 7369SOL     OW23005   4.736   2.628   0.456
 7369SOL    HW123006   4.684   2.612   0.373
 7369SOL    HW223007   4.821   2.575   0.453
 7370SOL     OW23008   2.233   1.549   4.820
 7370SOL    HW123009   2.254   1.645   4.798
 7370SOL    HW223010   2.187   1.544   4.908
 7371SOL     OW23011   4.247   6.887   3.729
 7371SOL    HW123012   4.338   6.870   3.693
 7371SOL    HW223013   4.252   6.958   3.800
 7372SOL     OW23014   3.888   0.170   4.988
 7372SOL    HW123015   3.856   0.261   5.013
 7372SOL    HW223016   3.928   0.172   4.897
 7373SOL     OW23017   4.946   2.562   4.522
 7373SOL    HW123018   4.885   2.563   4.443
 7373SOL    HW223019   4.920   2.488   4.583
 7374SOL     OW23020   0.565   1.492   4.798
 7374SOL    HW123021   0.528   1.421   4.738
 7374SOL    HW223022   0.644   1.457   4.847
 7375SOL     OW23023   1.886   2.957   2.114
 7375SOL    HW123024   1.817   3.023   2.084
 7375SOL    HW223025   1.889   2.880   2.049
 7376SOL     OW23026   0.588   4.006   0.966
 7376SOL    HW123027   0.645   4.079   0.928
 7376SOL    HW223028   0.512   3.987   0.904
 7377SOL     OW23029   3.070   5.952   0.218
 7377SOL    HW123030   3.104   6.025   0.277
 7377SOL    HW223031   2.976   5.971   0.192
 7378SOL     OW23032   1.489   6.409   3.953
 7378SOL    HW123033   1.504   6.311   3.960
 7378SOL    HW223034   1.475   6.448   4.044
 7379SOL     OW23035   4.371   0.834   1.096
 7379SOL    HW123036   4.374   0.759   1.163
 7379SOL    HW223037   4.460   0.880   1.095
 7380SOL     OW23038   5.613   3.958   3.447
 7380SOL    HW123039   5.562   4.008   3.516
 7380SOL    HW223040   5.709   3.950   3.476
 7381SOL     OW23041   3.919   1.193   0.203
 7381SOL    HW123042   3.879   1.102   0.194
 7381SOL    HW223043   3.934   1.213   0.300
 7382SOL     OW23044   6.947   1.438   6.116
 7382SOL    HW123045   6.988   1.487   6.193
 7382SOL    HW223046   6.855   1.472   6.100
 7383SOL     OW23047   1.756   6.790   1.809
 7383SOL    HW123048   1.788   6.697   1.826
 7383SOL    HW223049   1.809   6.854   1.865
 7384SOL     OW23050   0.642   0.122   1.069
 7384SOL    HW123051   0.573   0.188   1.099
 7384SOL    HW223052   0.629   0.102   0.972
 7385SOL     OW23053   4.356   5.003   2.738
 7385SOL    HW123054   4.325   4.980   2.830
 7385SOL    HW223055   4.285   4.980   2.672
 7386SOL     OW23056   6.163   3.077   0.978
 7386SOL    HW123057   6.176   3.045   0.884
 7386SOL    HW223058   6.249   3.111   1.015
 7387SOL     OW23059   6.395   4.509   5.525
 7387SOL    HW123060   6.486   4.536   5.557
 7387SOL    HW223061   6.372   4.560   5.442
 7388SOL     OW23062   1.756   6.318   2.241
 7388SOL    HW123063   1.674   6.275   2.205
 7388SOL    HW223064   1.837   6.270   2.207
 7389SOL     OW23065   6.769   2.867   0.447
 7389SOL    HW123066   6.864   2.855   0.476
 7389SOL    HW223067   6.743   2.791   0.387
 7390SOL     OW23068   2.660   2.346   2.550
 7390SOL    HW123069   2.605   2.412   2.499
 7390SOL    HW223070   2.604   2.307   2.624
 7391SOL     OW23071   3.352   3.158   2.687
 7391SOL    HW123072   3.266   3.127   2.728
 7391SOL    HW223073   3.413   3.080   2.675
 7392SOL     OW23074   4.091   5.269   6.784
 7392SOL    HW123075   4.168   5.207   6.766
 7392SOL    HW223076   4.021   5.220   6.837
 7393SOL     OW23077   5.988   5.418   4.459
 7393SOL    HW123078   5.903   5.421   4.510
 7393SOL    HW223079   5.969   5.427   4.361
 7394SOL     OW23080   2.089   2.437   6.396
 7394SOL    HW123081   1.992   2.443   6.371
 7394SOL    HW223082   2.099   2.383   6.479
 7395SOL     OW23083   2.693   4.177   0.898
 7395SOL    HW123084   2.731   4.106   0.957
 7395SOL    HW223085   2.767   4.234   0.862
 7396SOL     OW23086   2.511   5.329   1.707
 7396SOL    HW123087   2.551   5.284   1.786
 7396SOL    HW223088   2.529   5.275   1.625
 7397SOL     OW23089   5.482   3.806   3.851
 7397SOL    HW123090   5.502   3.719   3.896
 7397SOL    HW223091   5.390   3.835   3.875
 7398SOL     OW23092   1.990   4.513   2.880
 7398SOL    HW123093   2.045   4.491   2.961
 7398SOL    HW223094   1.998   4.438   2.814
 7399SOL     OW23095   5.384   1.739   4.812
 7399SOL    HW123096   5.428   1.816   4.858
 7399SOL    HW223097   5.424   1.727   4.721
 7400SOL     OW23098   5.455   2.403   5.320
 7400SOL    HW123099   5.463   2.318   5.371
 7400SOL    HW223100   5.421   2.475   5.380
 7401SOL     OW23101   1.042   2.886   3.631
 7401SOL    HW123102   1.119   2.885   3.567
 7401SOL    HW223103   0.975   2.818   3.602
 7402SOL     OW23104   2.904   5.921   5.485
 7402SOL    HW123105   2.836   5.984   5.447
 7402SOL    HW223106   2.917   5.940   5.582
 7403SOL     OW23107   1.340   2.952   4.492
 7403SOL    HW123108   1.405   2.876   4.490
 7403SOL    HW223109   1.380   3.031   4.446
 7404SOL     OW23110   3.228   3.538   1.054
 7404SOL    HW123111   3.298   3.578   1.112
 7404SOL    HW223112   3.264   3.457   1.009
 7405SOL     OW23113   2.876   5.723   5.314
 7405SOL    HW123114   2.894   5.801   5.375
 7405SOL    HW223115   2.835   5.757   5.230
 7406SOL     OW23116   0.604   0.699   4.897
 7406SOL    HW123117   0.512   0.723   4.865
 7406SOL    HW223118   0.653   0.783   4.924
 7407SOL     OW23119   0.990   6.436   6.225
 7407SOL    HW123120   0.903   6.390   6.208
 7407SOL    HW223121   1.065   6.379   6.189
 7408SOL     OW23122   3.417   3.640   5.449
 7408SOL    HW123123   3.487   3.667   5.515
 7408SOL    HW223124   3.352   3.578   5.493
 7409SOL     OW23125   6.186   4.270   0.597
 7409SOL    HW123126   6.148   4.349   0.549
 7409SOL    HW223127   6.139   4.259   0.685
 7410SOL     OW23128   6.966   0.321   1.724
 7410SOL    HW123129   6.887   0.288   1.776
 7410SOL    HW223130   0.031   0.312   1.778
 7411SOL     OW23131   1.137   2.166   5.501
 7411SOL    HW123132   1.220   2.216   5.527
 7411SOL    HW223133   1.151   2.125   5.411
 7412SOL     OW23134   4.268   0.241   6.885
 7412SOL    HW123135   4.235   0.147   6.889
 7412SOL    HW223136   4.287   0.273   6.978
 7413SOL     OW23137   4.047   6.293   2.898
 7413SOL    HW123138   3.980   6.231   2.858
 7413SOL    HW223139   4.137   6.247   2.899
 7414SOL     OW23140   2.305   2.101   4.179
 7414SOL    HW123141   2.361   2.153   4.242
 7414SOL    HW223142   2.348   2.101   4.088
 7415SOL     OW23143   4.202   6.081   6.805
 7415SOL    HW123144   4.111   6.100   6.770
 7415SOL    HW223145   4.252   6.023   6.740
 7416SOL     OW23146   0.931   1.918   2.521
 7416SOL    HW123147   0.946   1.914   2.620
 7416SOL    HW223148   0.997   1.858   2.475
 7417SOL     OW23149   0.862   1.822   3.821
 7417SOL    HW123150   0.767   1.837   3.847
 7417SOL    HW223151   0.870   1.824   3.722
 7418SOL     OW23152   1.650   3.569   6.454
 7418SOL    HW123153   1.605   3.481   6.436
 7418SOL    HW223154   1.590   3.625   6.511
 7419SOL     OW23155   6.580   3.906   3.907
 7419SOL    HW123156   6.585   3.990   3.962
 7419SOL    HW223157   6.486   3.892   3.877
 7420SOL     OW23158   6.506   0.170   1.888
 7420SOL    HW123159   6.478   0.122   1.805
 7420SOL    HW223160   6.427   0.215   1.929
 7421SOL     OW23161   5.114   3.825   1.730
 7421SOL    HW123162   5.111   3.924   1.719
 7421SOL    HW223163   5.031   3.794   1.777
 7422SOL     OW23164   5.699   2.663   1.877
 7422SOL    HW123165   5.606   2.681   1.846
 7422SOL    HW223166   5.711   2.701   1.969
 7423SOL     OW23167   5.387   1.699   5.981
 7423SOL    HW123168   5.455   1.770   5.964
 7423SOL    HW223169   5.395   1.628   5.911
 7424SOL     OW23170   0.684   1.169   4.422
 7424SOL    HW123171   0.669   1.071   4.423
 7424SOL    HW223172   0.775   1.190   4.458
 7425SOL     OW23173   5.517   6.944   0.414
 7425SOL    HW123174   5.596   6.939   0.353
 7425SOL    HW223175   5.546   6.924   0.508
 7426SOL     OW23176   3.574   2.781   5.865
 7426SOL    HW123177   3.635   2.777   5.786
 7426SOL    HW223178   3.513   2.702   5.865
 7427SOL     OW23179   3.851   1.777   4.176
 7427SOL    HW123180   3.888   1.861   4.136
 7427SOL    HW223181   3.877   1.698   4.120
 7428SOL     OW23182   4.383   5.914   5.638
 7428SOL    HW123183   4.383   5.845   5.566
 7428SOL    HW223184   4.290   5.949   5.651
 7429SOL     OW23185   1.705   0.198   2.324
 7429SOL    HW123186   1.623   0.255   2.313
 7429SOL    HW223187   1.771   0.221   2.252
 7430SOL     OW23188   6.256   5.207   3.029
 7430SOL    HW123189   6.180   5.257   2.988
 7430SOL    HW223190   6.234   5.109   3.032
 7431SOL     OW23191   1.750   2.017   4.514
 7431SOL    HW123192   1.806   1.942   4.547
 7431SOL    HW223193   1.683   1.983   4.447
 7432SOL     OW23194   1.931   0.205   3.155
 7432SOL    HW123195   1.949   0.190   3.252
 7432SOL    HW223196   1.843   0.253   3.145
 7433SOL     OW23197   2.169   0.448   6.500
 7433SOL    HW123198   2.119   0.404   6.574
 7433SOL    HW223199   2.196   0.539   6.528
 7434SOL     OW23200   4.036   5.922   5.723
 7434SOL    HW123201   4.068   5.919   5.629
 7434SOL    HW223202   4.023   5.829   5.757
 7435SOL     OW23203   4.790   5.993   3.223
 7435SOL    HW123204   4.777   5.909   3.276
 7435SOL    HW223205   4.702   6.041   3.216
 7436SOL     OW23206   5.564   3.102   6.661
 7436SOL    HW123207   5.533   3.031   6.598
 7436SOL    HW223208   5.571   3.064   6.753
 7437SOL     OW23209   4.205   6.140   1.223
 7437SOL    HW123210   4.125   6.196   1.241
 7437SOL    HW223211   4.262   6.184   1.154
 7438SOL     OW23212   2.679   0.551   0.099
 7438SOL    HW123213   2.713   0.538   0.006
 7438SOL    HW223214   2.591   0.599   0.095
 7439SOL     OW23215   0.895   4.739   6.322
 7439SOL    HW123216   0.874   4.828   6.363
 7439SOL    HW223217   0.847   4.667   6.372
 7440SOL     OW23218   5.288   3.389   4.126
 7440SOL    HW123219   5.201   3.341   4.132
 7440SOL    HW223220   5.331   3.370   4.038
 7441SOL     OW23221   6.051   6.560   1.713
 7441SOL    HW123222   6.052   6.493   1.788
 7441SOL    HW223223   6.112   6.528   1.640
 7442SOL     OW23224   5.219   0.737   5.200
 7442SOL    HW123225   5.181   0.653   5.162
 7442SOL    HW223226   5.146   0.791   5.242
 7443SOL     OW23227   0.204   0.273   2.091
 7443SOL    HW123228   0.130   0.339   2.102
 7443SOL    HW223229   0.212   0.217   2.173
 7444SOL     OW23230   0.486   6.377   6.570
 7444SOL    HW123231   0.415   6.400   6.502
 7444SOL    HW223232   0.457   6.296   6.621
 7445SOL     OW23233   4.584   5.667   1.633
 7445SOL    HW123234   4.569   5.614   1.716
 7445SOL    HW223235   4.682   5.673   1.614
 7446SOL     OW23236   4.925   3.912   0.311
 7446SOL    HW123237   4.946   3.946   0.402
 7446SOL    HW223238   4.923   3.812   0.311
 7447SOL     OW23239   1.108   4.914   1.593
 7447SOL    HW123240   1.129   4.999   1.545
 7447SOL    HW223241   1.089   4.842   1.526
 7448SOL     OW23242   4.869   5.079   5.865
 7448SOL    HW123243   4.783   5.080   5.814
 7448SOL    HW223244   4.858   5.132   5.949
 7449SOL     OW23245   0.420   4.377   6.893
 7449SOL    HW123246   0.441   4.420   6.805
 7449SOL    HW223247   0.420   4.278   6.883
 7450SOL     OW23248   5.431   1.554   5.667
 7450SOL    HW123249   5.365   1.608   5.615
 7450SOL    HW223250   5.405   1.458   5.663
 7451SOL     OW23251   5.413   5.145   2.550
 7451SOL    HW123252   5.455   5.160   2.640
 7451SOL    HW223253   5.469   5.082   2.497
 7452SOL     OW23254   5.671   5.274   5.114
 7452SOL    HW123255   5.598   5.206   5.103
 7452SOL    HW223256   5.760   5.231   5.101
 7453SOL     OW23257   4.245   5.600   7.006
 7453SOL    HW123258   4.276   5.546   6.928
 7453SOL    HW223259   4.266   5.697   6.990
 7454SOL     OW23260   3.778   2.254   0.433
 7454SOL    HW123261   3.713   2.182   0.457
 7454SOL    HW223262   3.847   2.217   0.371
 7455SOL     OW23263   6.683   2.897   3.362
 7455SOL    HW123264   6.637   2.833   3.300
 7455SOL    HW223265   6.614   2.948   3.414
 7456SOL     OW23266   2.973   2.140   5.524
 7456SOL    HW123267   3.028   2.208   5.573
 7456SOL    HW223268   2.975   2.161   5.426
 7457SOL     OW23269   2.829   0.109   3.126
 7457SOL    HW123270   2.785   0.126   3.037
 7457SOL    HW223271   2.895   0.181   3.144
 7458SOL     OW23272   1.386   6.044   5.626
 7458SOL    HW123273   1.364   5.954   5.589
 7458SOL    HW223274   1.447   6.092   5.563
 7459SOL     OW23275   6.002   1.004   3.020
 7459SOL    HW123276   6.020   1.025   3.116
 7459SOL    HW223277   6.070   0.938   2.987
 7460SOL     OW23278   1.399   6.979   0.971
 7460SOL    HW123279   1.328   0.029   0.988
 7460SOL    HW223280   1.487   0.007   0.959
 7461SOL     OW23281   1.074   5.529   6.037
 7461SOL    HW123282   1.016   5.451   6.012
 7461SOL    HW223283   1.101   5.578   5.954
 7462SOL     OW23284   1.326   4.881   1.012
 7462SOL    HW123285   1.287   4.970   0.989
 7462SOL    HW223286   1.285   4.848   1.097
 7463SOL     OW23287   3.820   4.380   0.391
 7463SOL    HW123288   3.773   4.462   0.357
 7463SOL    HW223289   3.765   4.299   0.370
 7464SOL     OW23290   6.369   6.127   5.692
 7464SOL    HW123291   6.273   6.152   5.699
 7464SOL    HW223292   6.380   6.057   5.621
 7465SOL     OW23293   2.243   4.855   0.055
 7465SOL    HW123294   2.327   4.815   0.018
 7465SOL    HW223295   2.180   4.875   6.998
 7466SOL     OW23296   0.693   6.567   4.852
 7466SOL    HW123297   0.617   6.628   4.832
 7466SOL    HW223298   0.683   6.483   4.798
 7467SOL     OW23299   0.189   3.542   5.882
 7467SOL    HW123300   0.248   3.623   5.884
 7467SOL    HW223301   0.236   3.465   5.925
 7468SOL     OW23302   6.072   3.468   5.955
 7468SOL    HW123303   5.981   3.429   5.953
 7468SOL    HW223304   6.084   3.529   5.876
 7469SOL     OW23305   0.046   2.434   1.077
 7469SOL    HW123306   0.076   2.356   1.021
 7469SOL    HW223307   0.075   2.519   1.034
 7470SOL     OW23308   5.318   3.398   3.760
 7470SOL    HW123309   5.342   3.363   3.670
 7470SOL    HW223310   5.219   3.391   3.774
 7471SOL     OW23311   5.265   5.783   6.184
 7471SOL    HW123312   5.206   5.824   6.114
 7471SOL    HW223313   5.256   5.683   6.181
 7472SOL     OW23314   5.963   6.198   5.370
 7472SOL    HW123315   5.889   6.228   5.430
 7472SOL    HW223316   5.936   6.114   5.323
 7473SOL     OW23317   3.807   5.972   3.837
 7473SOL    HW123318   3.758   5.899   3.884
 7473SOL    HW223319   3.906   5.960   3.850
 7474SOL     OW23320   6.733   2.134   5.285
 7474SOL    HW123321   6.674   2.115   5.363
 7474SOL    HW223322   6.819   2.174   5.317
 7475SOL     OW23323   4.656   2.285   1.125
 7475SOL    HW123324   4.664   2.340   1.209
 7475SOL    HW223325   4.646   2.346   1.046
 7476SOL     OW23326   2.080   1.333   3.275
 7476SOL    HW123327   2.130   1.274   3.211
 7476SOL    HW223328   2.136   1.412   3.298
 7477SOL     OW23329   0.958   4.569   5.431
 7477SOL    HW123330   0.868   4.535   5.403
 7477SOL    HW223331   1.022   4.561   5.355
 7478SOL     OW23332   0.515   1.585   5.416
 7478SOL    HW123333   0.549   1.496   5.447
 7478SOL    HW223334   0.422   1.576   5.382
 7479SOL     OW23335   6.374   3.001   6.909
 7479SOL    HW123336   6.472   2.984   6.922
 7479SOL    HW223337   6.359   3.097   6.886
 7480SOL     OW23338   3.794   5.056   2.372
 7480SOL    HW123339   3.756   5.140   2.411
 7480SOL    HW223340   3.730   5.018   2.305
 7481SOL     OW23341   0.412   4.108   6.853
 7481SOL    HW123342   0.408   4.070   6.945
 7481SOL    HW223343   0.481   4.059   6.799
 7482SOL     OW23344   4.158   2.210   2.558
 7482SOL    HW123345   4.156   2.231   2.461
 7482SOL    HW223346   4.093   2.138   2.579
 7483SOL     OW23347   4.205   2.288   5.874
 7483SOL    HW123348   4.169   2.195   5.882
 7483SOL    HW223349   4.192   2.321   5.781
 7484SOL     OW23350   2.895   6.614   3.989
 7484SOL    HW123351   2.981   6.603   3.939
 7484SOL    HW223352   2.825   6.652   3.928
 7485SOL     OW23353   2.580   7.005   4.333
 7485SOL    HW123354   2.559   0.064   4.394
 7485SOL    HW223355   2.676   7.009   4.306
 7486SOL     OW23356   2.214   6.222   0.588
 7486SOL    HW123357   2.150   6.146   0.571
 7486SOL    HW223358   2.180   6.305   0.545
 7487SOL     OW23359   3.805   6.336   3.776
 7487SOL    HW123360   3.728   6.272   3.775
 7487SOL    HW223361   3.825   6.364   3.870
 7488SOL     OW23362   0.925   5.546   3.867
 7488SOL    HW123363   0.859   5.540   3.791
 7488SOL    HW223364   0.931   5.457   3.912
 7489SOL     OW23365   6.404   3.416   6.482
 7489SOL    HW123366   6.444   3.505   6.500
 7489SOL    HW223367   6.466   3.363   6.423
 7490SOL     OW23368   1.044   2.171   2.296
 7490SOL    HW123369   1.082   2.156   2.387
 7490SOL    HW223370   0.949   2.203   2.305
 7491SOL     OW23371   4.319   3.013   0.216
 7491SOL    HW123372   4.224   3.021   0.245
 7491SOL    HW223373   4.362   3.103   0.218
 7492SOL     OW23374   1.781   0.403   4.144
 7492SOL    HW123375   1.714   0.459   4.193
 7492SOL    HW223376   1.760   0.306   4.158
 7493SOL     OW23377   6.535   4.413   5.169
 7493SOL    HW123378   6.623   4.448   5.198
 7493SOL    HW223379   6.463   4.478   5.194
 7494SOL     OW23380   6.089   1.430   2.961
 7494SOL    HW123381   6.083   1.347   2.906
 7494SOL    HW223382   6.183   1.445   2.990
 7495SOL     OW23383   1.839   3.507   4.857
 7495SOL    HW123384   1.819   3.527   4.953
 7495SOL    HW223385   1.789   3.425   4.829
 7496SOL     OW23386   5.377   4.091   2.434
 7496SOL    HW123387   5.354   4.000   2.470
 7496SOL    HW223388   5.374   4.088   2.334
 7497SOL     OW23389   0.359   6.624   0.419
 7497SOL    HW123390   0.347   6.662   0.327
 7497SOL    HW223391   0.276   6.578   0.447
 7498SOL     OW23392   3.038   0.350   3.077
 7498SOL    HW123393   3.090   0.273   3.114
 7498SOL    HW223394   3.080   0.381   2.992
 7499SOL     OW23395   4.006   1.790   3.518
 7499SOL    HW123396   4.054   1.715   3.474
 7499SOL    HW223397   3.908   1.771   3.518
 7500SOL     OW23398   3.826   6.520   2.791
 7500SOL    HW123399   3.868   6.540   2.880
 7500SOL    HW223400   3.817   6.421   2.780
 7501SOL     OW23401   6.057   2.343   4.504
 7501SOL    HW123402   5.981   2.350   4.568
 7501SOL    HW223403   6.045   2.263   4.446
 7502SOL     OW23404   4.095   0.334   4.265
 7502SOL    HW123405   4.044   0.390   4.330
 7502SOL    HW223406   4.056   0.242   4.261
 7503SOL     OW23407   1.506   6.269   1.322
 7503SOL    HW123408   1.479   6.292   1.416
 7503SOL    HW223409   1.593   6.220   1.324
 7504SOL     OW23410   6.280   6.612   3.282
 7504SOL    HW123411   6.223   6.636   3.203
 7504SOL    HW223412   6.264   6.678   3.356
 7505SOL     OW23413   0.951   6.693   5.229
 7505SOL    HW123414   0.875   6.711   5.292
 7505SOL    HW223415   1.015   6.629   5.271
 7506SOL     OW23416   2.398   1.654   3.621
 7506SOL    HW123417   2.435   1.733   3.572
 7506SOL    HW223418   2.472   1.608   3.670
 7507SOL     OW23419   6.266   4.064   4.558
 7507SOL    HW123420   6.216   4.085   4.475
 7507SOL    HW223421   6.248   3.969   4.585
 7508SOL     OW23422   1.750   5.902   6.894
 7508SOL    HW123423   1.810   5.822   6.900
 7508SOL    HW223424   1.662   5.876   6.855
 7509SOL     OW23425   4.851   4.212   0.628
 7509SOL    HW123426   4.917   4.147   0.592
 7509SOL    HW223427   4.885   4.248   0.715
 7510SOL     OW23428   3.889   3.733   4.014
 7510SOL    HW123429   3.873   3.817   3.963
 7510SOL    HW223430   3.950   3.752   4.091
 7511SOL     OW23431   3.491   5.657   3.218
 7511SOL    HW123432   3.580   5.693   3.189
 7511SOL    HW223433   3.418   5.713   3.178
 7512SOL     OW23434   3.329   6.626   6.356
 7512SOL    HW123435   3.321   6.587   6.448
 7512SOL    HW223436   3.244   6.612   6.306
 7513SOL     OW23437   0.773   2.481   3.178
 7513SOL    HW123438   0.717   2.463   3.097
 7513SOL    HW223439   0.863   2.512   3.149
 7514SOL     OW23440   2.337   4.288   2.728
 7514SOL    HW123441   2.247   4.277   2.685
 7514SOL    HW223442   2.356   4.208   2.785
 7515SOL     OW23443   0.373   4.603   4.496
 7515SOL    HW123444   0.463   4.584   4.536
 7515SOL    HW223445   0.377   4.689   4.444
 7516SOL     OW23446   1.296   5.853   5.355
 7516SOL    HW123447   1.223   5.918   5.378
 7516SOL    HW223448   1.311   5.854   5.256
 7517SOL     OW23449   0.319   1.419   0.237
 7517SOL    HW123450   0.379   1.340   0.218
 7517SOL    HW223451   0.342   1.493   0.174
 7518SOL     OW23452   4.781   2.969   3.714
 7518SOL    HW123453   4.747   2.878   3.736
 7518SOL    HW223454   4.731   3.005   3.634
 7519SOL     OW23455   3.570   6.402   4.960
 7519SOL    HW123456   3.535   6.486   4.919
 7519SOL    HW223457   3.528   6.388   5.050
 7520SOL     OW23458   1.770   1.855   1.312
 7520SOL    HW123459   1.848   1.793   1.309
 7520SOL    HW223460   1.728   1.860   1.221
 7521SOL     OW23461   4.272   1.379   5.603
 7521SOL    HW123462   4.215   1.388   5.522
 7521SOL    HW223463   4.368   1.394   5.579
 7522SOL     OW23464   1.859   6.721   2.194
 7522SOL    HW123465   1.788   6.791   2.191
 7522SOL    HW223466   1.819   6.633   2.221
 7523SOL     OW23467   5.457   1.286   6.257
 7523SOL    HW123468   5.547   1.329   6.248
 7523SOL    HW223469   5.396   1.347   6.308
 7524SOL     OW23470   0.131   3.443   4.800
 7524SOL    HW123471   0.169   3.361   4.843
 7524SOL    HW223472   0.072   3.491   4.865
 7525SOL     OW23473   4.338   5.826   6.387
 7525SOL    HW123474   4.407   5.860   6.452
 7525SOL    HW223475   4.251   5.870   6.405
 7526SOL     OW23476   2.443   3.232   1.698
 7526SOL    HW123477   2.393   3.286   1.765
 7526SOL    HW223478   2.470   3.289   1.621
 7527SOL     OW23479   3.838   5.697   3.832
 7527SOL    HW123480   3.754   5.673   3.784
 7527SOL    HW223481   3.914   5.698   3.767
 7528SOL     OW23482   6.740   3.173   6.535
 7528SOL    HW123483   6.677   3.167   6.457
 7528SOL    HW223484   6.702   3.122   6.612
 7529SOL     OW23485   6.526   2.877   3.941
 7529SOL    HW123486   6.591   2.862   4.015
 7529SOL    HW223487   6.435   2.893   3.980
 7530SOL     OW23488   6.314   2.140   2.159
 7530SOL    HW123489   6.366   2.169   2.078
 7530SOL    HW223490   6.301   2.219   2.220
 7531SOL     OW23491   4.091   2.028   3.563
 7531SOL    HW123492   4.027   2.103   3.548
 7531SOL    HW223493   4.041   1.942   3.571
 7532SOL     OW23494   4.251   5.272   6.383
 7532SOL    HW123495   4.151   5.267   6.390
 7532SOL    HW223496   4.286   5.335   6.452
 7533SOL     OW23497   4.749   3.536   1.681
 7533SOL    HW123498   4.709   3.576   1.598
 7533SOL    HW223499   4.709   3.446   1.696
 7534SOL     OW23500   4.468   6.908   4.425
 7534SOL    HW123501   4.385   6.937   4.377
 7534SOL    HW223502   4.514   6.838   4.371
 7535SOL     OW23503   0.614   5.489   4.014
 7535SOL    HW123504   0.610   5.428   4.093
 7535SOL    HW223505   0.706   5.528   4.007
 7536SOL     OW23506   4.784   5.483   4.391
 7536SOL    HW123507   4.733   5.401   4.364
 7536SOL    HW223508   4.796   5.542   4.312
 7537SOL     OW23509   2.884   6.226   3.102
 7537SOL    HW123510   2.845   6.288   3.033
 7537SOL    HW223511   2.918   6.279   3.179
 7538SOL     OW23512   1.208   4.166   0.889
 7538SOL    HW123513   1.191   4.081   0.839
 7538SOL    HW223514   1.179   4.244   0.833
 7539SOL     OW23515   0.595   5.981   3.811
 7539SOL    HW123516   0.690   6.002   3.833
 7539SOL    HW223517   0.562   5.907   3.870
 7540SOL     OW23518   6.010   5.132   3.746
 7540SOL    HW123519   5.947   5.184   3.689
 7540SOL    HW223520   5.962   5.053   3.784
 7541SOL     OW23521   1.296   4.078   0.007
 7541SOL    HW123522   1.198   4.077   7.003
 7541SOL    HW223523   1.314   4.016   0.083
 7542SOL     OW23524   6.008   5.853   6.135
 7542SOL    HW123525   5.978   5.758   6.130
 7542SOL    HW223526   6.105   5.857   6.156
 7543SOL     OW23527   2.888   1.090   5.940
 7543SOL    HW123528   2.888   1.117   5.844
 7543SOL    HW223529   2.925   0.998   5.949
 7544SOL     OW23530   0.191   2.855   4.153
 7544SOL    HW123531   0.125   2.799   4.202
 7544SOL    HW223532   0.182   2.950   4.182
 7545SOL     OW23533   0.820   5.007   0.024
 7545SOL    HW123534   0.898   4.992   6.980
 7545SOL    HW223535   0.780   4.919   0.049
 7546SOL     OW23536   3.388   2.923   1.730
 7546SOL    HW123537   3.304   2.898   1.683
 7546SOL    HW223538   3.387   2.885   1.823
 7547SOL     OW23539   4.412   0.150   2.331
 7547SOL    HW123540   4.403   0.201   2.245
 7547SOL    HW223541   4.449   0.211   2.402
 7548SOL     OW23542   4.566   2.197   6.486
 7548SOL    HW123543   4.641   2.239   6.435
 7548SOL    HW223544   4.479   2.235   6.454
 7549SOL     OW23545   4.290   2.689   5.311
 7549SOL    HW123546   4.249   2.780   5.310
 7549SOL    HW223547   4.219   2.621   5.332
 7550SOL     OW23548   2.163   4.068   4.268
 7550SOL    HW123549   2.215   4.146   4.304
 7550SOL    HW223550   2.070   4.097   4.247
 7551SOL     OW23551   5.868   2.467   5.681
 7551SOL    HW123552   5.917   2.525   5.617
 7551SOL    HW223553   5.932   2.428   5.747
 7552SOL     OW23554   2.662   5.871   4.822
 7552SOL    HW123555   2.663   5.771   4.824
 7552SOL    HW223556   2.740   5.904   4.768
 7553SOL     OW23557   5.670   6.099   5.763
 7553SOL    HW123558   5.632   6.180   5.807
 7553SOL    HW223559   5.632   6.017   5.805
 7554SOL     OW23560   5.195   0.865   0.998
 7554SOL    HW123561   5.151   0.842   0.912
 7554SOL    HW223562   5.146   0.822   1.074
 7555SOL     OW23563   3.665   4.849   5.874
 7555SOL    HW123564   3.612   4.781   5.925
 7555SOL    HW223565   3.638   4.846   5.778
 7556SOL     OW23566   0.176   0.045   1.043
 7556SOL    HW123567   0.196   0.122   0.983
 7556SOL    HW223568   0.223   0.059   1.131
 7557SOL     OW23569   4.977   0.586   6.962
 7557SOL    HW123570   5.015   0.678   6.975
 7557SOL    HW223571   4.979   0.563   6.865
 7558SOL     OW23572   1.621   2.131   4.230
 7558SOL    HW123573   1.577   2.041   4.236
 7558SOL    HW223574   1.612   2.166   4.137
 7559SOL     OW23575   4.478   2.150   4.768
 7559SOL    HW123576   4.404   2.213   4.793
 7559SOL    HW223577   4.566   2.192   4.789
 7560SOL     OW23578   0.443   0.819   5.971
 7560SOL    HW123579   0.532   0.833   6.013
 7560SOL    HW223580   0.428   0.888   5.900
 7561SOL     OW23581   5.815   1.998   4.630
 7561SOL    HW123582   5.716   1.986   4.623
 7561SOL    HW223583   5.848   2.055   4.555
 7562SOL     OW23584   1.647   4.653   3.996
 7562SOL    HW123585   1.580   4.697   4.055
 7562SOL    HW223586   1.689   4.576   4.044
 7563SOL     OW23587   3.573   5.534   2.227
 7563SOL    HW123588   3.485   5.509   2.268
 7563SOL    HW223589   3.640   5.551   2.298
 7564SOL     OW23590   4.436   1.562   4.522
 7564SOL    HW123591   4.522   1.611   4.538
 7564SOL    HW223592   4.435   1.525   4.430
 7565SOL     OW23593   5.450   3.596   6.700
 7565SOL    HW123594   5.505   3.558   6.627
 7565SOL    HW223595   5.441   3.695   6.687
 7566SOL     OW23596   3.815   3.989   1.381
 7566SOL    HW123597   3.872   4.070   1.368
 7566SOL    HW223598   3.733   3.997   1.324
 7567SOL     OW23599   1.731   0.455   4.904
 7567SOL    HW123600   1.724   0.401   4.989
 7567SOL    HW223601   1.639   0.474   4.870
 7568SOL     OW23602   6.327   5.520   1.558
 7568SOL    HW123603   6.332   5.594   1.491
 7568SOL    HW223604   6.259   5.453   1.529
 7569SOL     OW23605   4.644   3.577   6.899
 7569SOL    HW123606   4.659   3.596   6.996
 7569SOL    HW223607   4.619   3.661   6.852
 7570SOL     OW23608   6.233   2.843   3.275
 7570SOL    HW123609   6.273   2.882   3.192
 7570SOL    HW223610   6.194   2.753   3.254
 7571SOL     OW23611   4.511   2.122   3.074
 7571SOL    HW123612   4.504   2.204   3.017
 7571SOL    HW223613   4.539   2.148   3.166
 7572SOL     OW23614   4.824   6.200   2.181
 7572SOL    HW123615   4.881   6.231   2.257
 7572SOL    HW223616   4.883   6.172   2.105
 7573SOL     OW23617   4.896   6.307   5.628
 7573SOL    HW123618   4.871   6.319   5.725
 7573SOL    HW223619   4.879   6.212   5.601
 7574SOL     OW23620   6.697   1.369   4.298
 7574SOL    HW123621   6.766   1.435   4.328
 7574SOL    HW223622   6.639   1.412   4.228
 7575SOL     OW23623   6.857   6.691   2.320
 7575SOL    HW123624   6.765   6.656   2.303
 7575SOL    HW223625   6.920   6.659   2.249
 7576SOL     OW23626   5.588   3.024   0.490
 7576SOL    HW123627   5.682   3.036   0.456
 7576SOL    HW223628   5.589   3.025   0.590
 7577SOL     OW23629   1.419   0.351   0.737
 7577SOL    HW123630   1.496   0.412   0.756
 7577SOL    HW223631   1.453   0.260   0.712
 7578SOL     OW23632   0.210   5.928   3.183
 7578SOL    HW123633   0.159   6.014   3.182
 7578SOL    HW223634   0.197   5.883   3.271
 7579SOL     OW23635   6.755   1.032   0.272
 7579SOL    HW123636   6.708   1.067   0.353
 7579SOL    HW223637   6.796   1.107   0.221
 7580SOL     OW23638   2.404   4.830   3.723
 7580SOL    HW123639   2.447   4.906   3.675
 7580SOL    HW223640   2.426   4.836   3.821
 7581SOL     OW23641   6.449   0.877   2.436
 7581SOL    HW123642   6.444   0.780   2.458
 7581SOL    HW223643   6.491   0.890   2.347
 7582SOL     OW23644   3.289   1.115   4.676
 7582SOL    HW123645   3.254   1.152   4.590
 7582SOL    HW223646   3.359   1.177   4.713
 7583SOL     OW23647   5.118   3.102   3.530
 7583SOL    HW123648   5.079   3.123   3.620
 7583SOL    HW223649   5.120   3.186   3.475
 7584SOL     OW23650   0.161   0.392   2.756
 7584SOL    HW123651   0.227   0.443   2.701
 7584SOL    HW223652   0.069   0.406   2.720
 7585SOL     OW23653   0.954   1.640   0.239
 7585SOL    HW123654   0.979   1.613   0.333
 7585SOL    HW223655   1.033   1.683   0.195
 7586SOL     OW23656   1.242   2.034   2.848
 7586SOL    HW123657   1.300   1.971   2.795
 7586SOL    HW223658   1.258   2.019   2.946
 7587SOL     OW23659   3.219   0.845   0.759
 7587SOL    HW123660   3.196   0.931   0.805
 7587SOL    HW223661   3.273   0.865   0.677
 7588SOL     OW23662   1.818   2.675   4.474
 7588SOL    HW123663   1.734   2.663   4.422
 7588SOL    HW223664   1.809   2.752   4.536
 7589SOL     OW23665   0.142   0.839   3.067
 7589SOL    HW123666   0.109   0.753   3.106
 7589SOL    HW223667   0.202   0.885   3.132
 7590SOL     OW23668   0.194   1.570   6.540
 7590SOL    HW123669   0.266   1.514   6.580
 7590SOL    HW223670   0.130   1.511   6.490
 7591SOL     OW23671   4.164   3.255   5.563
 7591SOL    HW123672   4.103   3.327   5.594
 7591SOL    HW223673   4.259   3.284   5.574
 7592SOL     OW23674   6.737   6.378   5.145
 7592SOL    HW123675   6.651   6.327   5.149
 7592SOL    HW223676   6.776   6.385   5.237
 7593SOL     OW23677   1.047   1.580   5.793
 7593SOL    HW123678   0.966   1.608   5.846
 7593SOL    HW223679   1.127   1.577   5.854
 7594SOL     OW23680   0.614   4.325   0.539
 7594SOL    HW123681   0.630   4.402   0.601
 7594SOL    HW223682   0.569   4.251   0.589
 7595SOL     OW23683   6.921   2.774   6.171
 7595SOL    HW123684   6.826   2.801   6.185
 7595SOL    HW223685   6.958   2.734   6.255
 7596SOL     OW23686   3.021   0.664   5.077
 7596SOL    HW123687   3.030   0.701   5.170
 7596SOL    HW223688   2.945   0.710   5.031
 7597SOL     OW23689   1.604   4.466   2.275
 7597SOL    HW123690   1.505   4.460   2.260
 7597SOL    HW223691   1.635   4.560   2.262
 7598SOL     OW23692   6.480   1.276   3.402
 7598SOL    HW123693   6.473   1.374   3.421
 7598SOL    HW223694   6.575   1.246   3.414
 7599SOL     OW23695   3.937   3.593   1.001
 7599SOL    HW123696   3.898   3.681   0.973
 7599SOL    HW223697   3.915   3.575   1.097
 7600SOL     OW23698   1.407   0.388   4.354
 7600SOL    HW123699   1.470   0.459   4.324
 7600SOL    HW223700   1.384   0.402   4.451
 7601SOL     OW23701   3.790   5.876   1.971
 7601SOL    HW123702   3.831   5.790   1.943
 7601SOL    HW223703   3.772   5.874   2.069
 7602SOL     OW23704   6.839   1.518   0.752
 7602SOL    HW123705   6.795   1.607   0.739
 7602SOL    HW223706   6.850   1.474   0.663
 7603SOL     OW23707   2.401   0.467   5.138
 7603SOL    HW123708   2.496   0.439   5.124
 7603SOL    HW223709   2.353   0.468   5.050
 7604SOL     OW23710   0.627   2.887   4.776
 7604SOL    HW123711   0.634   2.972   4.724
 7604SOL    HW223712   0.536   2.848   4.766
 7605SOL     OW23713   2.324   6.835   0.507
 7605SOL    HW123714   2.327   6.756   0.446
 7605SOL    HW223715   2.370   6.913   0.464
 7606SOL     OW23716   6.694   1.570   3.734
 7606SOL    HW123717   6.666   1.475   3.720
 7606SOL    HW223718   6.774   1.590   3.678
 7607SOL     OW23719   2.632   5.637   5.779
 7607SOL    HW123720   2.699   5.566   5.759
 7607SOL    HW223721   2.541   5.597   5.783
 7608SOL     OW23722   6.048   2.691   5.988
 7608SOL    HW123723   6.067   2.602   5.947
 7608SOL    HW223724   6.031   2.680   6.086
 7609SOL     OW23725   1.010   1.593   4.647
 7609SOL    HW123726   1.018   1.692   4.661
 7609SOL    HW223727   1.065   1.546   4.715
 7610SOL     OW23728   3.699   4.503   5.635
 7610SOL    HW123729   3.685   4.507   5.536
 7610SOL    HW223730   3.639   4.570   5.680
 7611SOL     OW23731   4.662   3.564   1.229
 7611SOL    HW123732   4.701   3.573   1.137
 7611SOL    HW223733   4.719   3.502   1.283
 7612SOL     OW23734   2.335   1.688   3.191
 7612SOL    HW123735   2.360   1.784   3.204
 7612SOL    HW223736   2.299   1.651   3.276
 7613SOL     OW23737   0.271   1.260   2.393
 7613SOL    HW123738   0.331   1.278   2.314
 7613SOL    HW223739   0.202   1.193   2.367
 7614SOL     OW23740   5.096   3.648   0.845
 7614SOL    HW123741   5.099   3.567   0.787
 7614SOL    HW223742   5.043   3.629   0.927
 7615SOL     OW23743   5.749   3.638   4.591
 7615SOL    HW123744   5.683   3.709   4.616
 7615SOL    HW223745   5.839   3.679   4.579
 7616SOL     OW23746   6.236   6.768   3.526
 7616SOL    HW123747   6.146   6.768   3.569
 7616SOL    HW223748   6.285   6.684   3.550
 7617SOL     OW23749   5.488   5.418   3.597
 7617SOL    HW123750   5.561   5.438   3.532
 7617SOL    HW223751   5.399   5.439   3.555
 7618SOL     OW23752   2.743   3.128   0.299
 7618SOL    HW123753   2.726   3.066   0.223
 7618SOL    HW223754   2.698   3.092   0.381
 7619SOL     OW23755   0.875   2.223   4.187
 7619SOL    HW123756   0.821   2.258   4.264
 7619SOL    HW223757   0.818   2.161   4.132
 7620SOL     OW23758   4.047   3.870   1.375
 7620SOL    HW123759   4.044   3.772   1.395
 7620SOL    HW223760   3.955   3.908   1.377
 7621SOL     OW23761   0.671   4.770   0.906
 7621SOL    HW123762   0.589   4.815   0.941
 7621SOL    HW223763   0.689   4.801   0.813
 7622SOL     OW23764   2.847   3.468   1.298
 7622SOL    HW123765   2.755   3.505   1.289
 7622SOL    HW223766   2.907   3.536   1.341
 7623SOL     OW23767   4.825   4.543   1.247
 7623SOL    HW123768   4.726   4.536   1.255
 7623SOL    HW223769   4.867   4.542   1.338
 7624SOL     OW23770   0.497   3.008   2.165
 7624SOL    HW123771   0.537   3.029   2.076
 7624SOL    HW223772   0.565   3.024   2.236
 7625SOL     OW23773   5.341   1.569   0.651
 7625SOL    HW123774   5.254   1.553   0.605
 7625SOL    HW223775   5.386   1.482   0.669
 7626SOL     OW23776   5.603   0.894   5.268
 7626SOL    HW123777   5.573   0.804   5.298
 7626SOL    HW223778   5.566   0.964   5.329
 7627SOL     OW23779   3.370   2.189   6.616
 7627SOL    HW123780   3.458   2.162   6.577
 7627SOL    HW223781   3.362   2.153   6.709
 7628SOL     OW23782   3.489   2.949   6.988
 7628SOL    HW123783   3.415   2.899   0.015
 7628SOL    HW223784   3.532   3.010   0.037
 7629SOL     OW23785   5.969   3.092   3.871
 7629SOL    HW123786   5.923   3.180   3.880
 7629SOL    HW223787   6.063   3.106   3.843
 7630SOL     OW23788   1.422   6.682   5.555
 7630SOL    HW123789   1.412   6.746   5.479
 7630SOL    HW223790   1.383   6.594   5.531
 7631SOL     OW23791   1.795   0.038   5.580
 7631SOL    HW123792   1.893   0.022   5.567
 7631SOL    HW223793   1.782   0.095   5.661
 7632SOL     OW23794   4.953   5.256   0.412
 7632SOL    HW123795   4.925   5.281   0.320
 7632SOL    HW223796   5.050   5.276   0.424
 7633SOL     OW23797   6.224   1.323   1.095
 7633SOL    HW123798   6.199   1.338   0.999
 7633SOL    HW223799   6.153   1.270   1.141
 7634SOL     OW23800   0.107   2.179   0.219
 7634SOL    HW123801   0.012   2.148   0.227
 7634SOL    HW223802   0.111   2.261   0.162
 7635SOL     OW23803   2.527   4.565   6.261
 7635SOL    HW123804   2.606   4.540   6.206
 7635SOL    HW223805   2.459   4.611   6.202
 7636SOL     OW23806   0.568   3.622   4.632
 7636SOL    HW123807   0.650   3.643   4.579
 7636SOL    HW223808   0.497   3.587   4.572
 7637SOL     OW23809   0.686   6.309   4.428
 7637SOL    HW123810   0.631   6.374   4.376
 7637SOL    HW223811   0.781   6.312   4.396
 7638SOL     OW23812   0.573   5.761   1.586
 7638SOL    HW123813   0.539   5.681   1.635
 7638SOL    HW223814   0.523   5.842   1.617
 7639SOL     OW23815   1.585   1.035   0.088
 7639SOL    HW123816   1.539   1.087   0.161
 7639SOL    HW223817   1.627   0.953   0.127
 7640SOL     OW23818   3.207   0.793   6.664
 7640SOL    HW123819   3.276   0.767   6.596
 7640SOL    HW223820   3.117   0.764   6.632
 7641SOL     OW23821   0.743   3.945   3.134
 7641SOL    HW123822   0.743   3.892   3.049
 7641SOL    HW223823   0.650   3.978   3.152
 7642SOL     OW23824   6.169   0.662   3.864
 7642SOL    HW123825   6.195   0.732   3.797
 7642SOL    HW223826   6.244   0.650   3.929
 7643SOL     OW23827   5.483   3.406   2.823
 7643SOL    HW123828   5.570   3.455   2.815
 7643SOL    HW223829   5.419   3.441   2.755
 7644SOL     OW23830   5.403   3.825   1.784
 7644SOL    HW123831   5.303   3.813   1.780
 7644SOL    HW223832   5.438   3.838   1.692
 7645SOL     OW23833   3.215   4.007   5.982
 7645SOL    HW123834   3.295   4.058   6.013
 7645SOL    HW223835   3.132   4.057   6.005
 7646SOL     OW23836   0.509   2.367   2.494
 7646SOL    HW123837   0.471   2.449   2.537
 7646SOL    HW223838   0.558   2.392   2.411
 7647SOL     OW23839   6.689   2.778   5.474
 7647SOL    HW123840   6.633   2.821   5.403
 7647SOL    HW223841   6.785   2.804   5.462
 7648SOL     OW23842   2.391   1.621   1.713
 7648SOL    HW123843   2.470   1.560   1.704
 7648SOL    HW223844   2.361   1.623   1.809
 7649SOL     OW23845   4.867   1.154   5.286
 7649SOL    HW123846   4.948   1.171   5.229
 7649SOL    HW223847   4.793   1.118   5.229
 7650SOL     OW23848   4.048   1.847   0.243
 7650SOL    HW123849   4.001   1.918   0.296
 7650SOL    HW223850   4.045   1.760   0.294
 7651SOL     OW23851   2.555   4.820   5.969
 7651SOL    HW123852   2.629   4.888   5.967
 7651SOL    HW223853   2.590   4.733   5.934
 7652SOL     OW23854   6.466   1.239   3.972
 7652SOL    HW123855   6.383   1.278   3.931
 7652SOL    HW223856   6.497   1.162   3.917
 7653SOL     OW23857   0.700   1.508   6.373
 7653SOL    HW123858   0.795   1.536   6.356
 7653SOL    HW223859   0.670   1.546   6.460
 7654SOL     OW23860   5.797   2.427   6.233
 7654SOL    HW123861   5.708   2.473   6.225
 7654SOL    HW223862   5.798   2.369   6.314
 7655SOL     OW23863   3.028   0.982   3.395
 7655SOL    HW123864   3.098   1.054   3.401
 7655SOL    HW223865   3.062   0.899   3.440
 7656SOL     OW23866   6.714   3.218   6.859
 7656SOL    HW123867   6.696   3.127   6.823
 7656SOL    HW223868   6.787   3.261   6.807
 7657SOL     OW23869   1.468   4.004   4.527
 7657SOL    HW123870   1.407   4.022   4.450
 7657SOL    HW223871   1.559   3.980   4.492
 7658SOL     OW23872   2.563   1.398   1.074
 7658SOL    HW123873   2.637   1.338   1.106
 7658SOL    HW223874   2.593   1.493   1.078
 7659SOL     OW23875   4.464   3.705   5.556
 7659SOL    HW123876   4.483   3.650   5.474
 7659SOL    HW223877   4.412   3.786   5.530
 7660SOL     OW23878   0.148   5.705   4.702
 7660SOL    HW123879   0.082   5.779   4.690
 7660SOL    HW223880   0.222   5.716   4.635
 7661SOL     OW23881   4.767   2.555   5.804
 7661SOL    HW123882   4.819   2.557   5.890
 7661SOL    HW223883   4.671   2.537   5.824
 7662SOL     OW23884   0.522   1.454   1.980
 7662SOL    HW123885   0.465   1.438   1.900
 7662SOL    HW223886   0.598   1.388   1.982
 7663SOL     OW23887   6.230   5.351   5.229
 7663SOL    HW123888   6.328   5.340   5.216
 7663SOL    HW223889   6.205   5.319   5.320
 7664SOL     OW23890   3.596   2.077   2.294
 7664SOL    HW123891   3.513   2.101   2.342
 7664SOL    HW223892   3.601   2.128   2.208
 7665SOL     OW23893   4.334   1.069   4.746
 7665SOL    HW123894   4.239   1.046   4.766
 7665SOL    HW223895   4.394   0.996   4.777
 7666SOL     OW23896   5.713   5.120   4.085
 7666SOL    HW123897   5.712   5.026   4.049
 7666SOL    HW223898   5.805   5.142   4.118
 7667SOL     OW23899   4.712   6.028   1.260
 7667SOL    HW123900   4.727   5.955   1.194
 7667SOL    HW223901   4.661   5.993   1.338
 7668SOL     OW23902   2.249   4.996   1.067
 7668SOL    HW123903   2.341   5.027   1.043
 7668SOL    HW223904   2.253   4.951   1.157
 7669SOL     OW23905   2.752   6.706   5.556
 7669SOL    HW123906   2.708   6.749   5.478
 7669SOL    HW223907   2.718   6.748   5.641
 7670SOL     OW23908   0.316   6.707   0.153
 7670SOL    HW123909   0.339   6.624   0.102
 7670SOL    HW223910   0.244   6.757   0.104
 7671SOL     OW23911   4.356   0.169   0.912
 7671SOL    HW123912   4.333   0.179   0.815
 7671SOL    HW223913   4.312   0.243   0.963
 7672SOL     OW23914   4.957   4.536   3.009
 7672SOL    HW123915   4.914   4.621   3.040
 7672SOL    HW223916   4.886   4.471   2.982
 7673SOL     OW23917   1.077   6.005   4.376
 7673SOL    HW123918   1.165   6.053   4.370
 7673SOL    HW223919   1.088   5.912   4.340
 7674SOL     OW23920   3.595   6.230   4.478
 7674SOL    HW123921   3.647   6.304   4.521
 7674SOL    HW223922   3.498   6.241   4.499
 7675SOL     OW23923   4.089   6.819   3.037
 7675SOL    HW123924   4.154   6.778   2.973
 7675SOL    HW223925   4.041   6.894   2.991
 7676SOL     OW23926   2.931   2.924   5.319
 7676SOL    HW123927   2.838   2.955   5.337
 7676SOL    HW223928   2.982   2.996   5.271
 7677SOL     OW23929   5.755   4.892   1.093
 7677SOL    HW123930   5.659   4.915   1.112
 7677SOL    HW223931   5.783   4.938   1.009
 7678SOL     OW23932   1.504   1.055   5.409
 7678SOL    HW123933   1.458   0.970   5.434
 7678SOL    HW223934   1.546   1.044   5.318
 7679SOL     OW23935   1.964   5.255   5.266
 7679SOL    HW123936   1.976   5.315   5.187
 7679SOL    HW223937   2.052   5.242   5.312
 7680SOL     OW23938   1.968   0.069   5.096
 7680SOL    HW123939   2.005   0.114   5.015
 7680SOL    HW223940   1.962   0.135   5.171
 7681SOL     OW23941   2.676   3.506   6.646
 7681SOL    HW123942   2.613   3.553   6.708
 7681SOL    HW223943   2.737   3.573   6.604
 7682SOL     OW23944   3.164   1.915   2.222
 7682SOL    HW123945   3.237   1.874   2.277
 7682SOL    HW223946   3.177   2.014   2.217
 7683SOL     OW23947   1.023   0.614   4.463
 7683SOL    HW123948   1.079   0.571   4.393
 7683SOL    HW223949   1.033   0.564   4.549
 7684SOL     OW23950   4.240   2.213   1.904
 7684SOL    HW123951   4.156   2.164   1.880
 7684SOL    HW223952   4.232   2.308   1.874
 7685SOL     OW23953   2.231   0.510   6.905
 7685SOL    HW123954   2.144   0.494   6.951
 7685SOL    HW223955   2.293   0.434   6.924
 7686SOL     OW23956   5.887   0.060   4.561
 7686SOL    HW123957   5.831   0.020   4.633
 7686SOL    HW223958   5.921   7.005   4.501
 7687SOL     OW23959   5.198   4.995   5.004
 7687SOL    HW123960   5.101   4.989   4.981
 7687SOL    HW223961   5.229   4.908   5.041
 7688SOL     OW23962   0.798   4.945   6.494
 7688SOL    HW123963   0.847   5.031   6.503
 7688SOL    HW223964   0.797   4.898   6.583
 7689SOL     OW23965   4.526   0.294   1.466
 7689SOL    HW123966   4.568   0.314   1.554
 7689SOL    HW223967   4.430   0.325   1.467
 7690SOL     OW23968   6.400   5.789   1.432
 7690SOL    HW123969   6.452   5.844   1.367
 7690SOL    HW223970   6.453   5.780   1.517
 7691SOL     OW23971   4.735   4.387   2.859
 7691SOL    HW123972   4.809   4.342   2.807
 7691SOL    HW223973   4.652   4.389   2.803
 7692SOL     OW23974   2.301   6.914   2.205
 7692SOL    HW123975   2.257   6.999   2.179
 7692SOL    HW223976   2.246   6.836   2.174
 7693SOL     OW23977   2.644   1.898   0.800
 7693SOL    HW123978   2.724   1.843   0.778
 7693SOL    HW223979   2.594   1.920   0.716
 7694SOL     OW23980   5.721   2.170   5.410
 7694SOL    HW123981   5.729   2.263   5.376
 7694SOL    HW223982   5.677   2.170   5.500
 7695SOL     OW23983   5.344   0.294   2.586
 7695SOL    HW123984   5.244   0.293   2.591
 7695SOL    HW223985   5.381   0.226   2.650
 7696SOL     OW23986   0.424   2.939   6.547
 7696SOL    HW123987   0.499   2.883   6.512
 7696SOL    HW223988   0.363   2.965   6.472
 7697SOL     OW23989   4.575   6.726   2.673
 7697SOL    HW123990   4.541   6.819   2.679
 7697SOL    HW223991   4.650   6.721   2.607
 7698SOL     OW23992   6.230   2.105   6.741
 7698SOL    HW123993   6.259   2.093   6.646
 7698SOL    HW223994   6.275   2.037   6.798
 7699SOL     OW23995   3.805   5.507   5.873
 7699SOL    HW123996   3.834   5.432   5.934
 7699SOL    HW223997   3.756   5.575   5.927
 7700SOL     OW23998   4.938   5.364   2.591
 7700SOL    HW123999   4.900   5.272   2.599
 7700SOL    HW224000   4.913   5.402   2.502
 7701SOL     OW24001   0.229   2.903   6.139
 7701SOL    HW124002   0.168   2.826   6.118
 7701SOL    HW224003   0.220   2.972   6.067
 7702SOL     OW24004   4.610   0.383   4.915
 7702SOL    HW124005   4.531   0.332   4.950
 7702SOL    HW224006   4.599   0.398   4.817
 7703SOL     OW24007   6.288   6.808   5.268
 7703SOL    HW124008   6.322   6.902   5.262
 7703SOL    HW224009   6.292   6.776   5.362
 7704SOL     OW24010   6.565   2.100   4.453
 7704SOL    HW124011   6.549   2.016   4.402
 7704SOL    HW224012   6.540   2.179   4.397
 7705SOL     OW24013   1.829   4.945   0.553
 7705SOL    HW124014   1.845   4.996   0.638
 7705SOL    HW224015   1.782   5.004   0.487
 7706SOL     OW24016   3.676   2.820   2.190
 7706SOL    HW124017   3.735   2.894   2.222
 7706SOL    HW224018   3.725   2.733   2.199
 7707SOL     OW24019   6.524   4.945   6.227
 7707SOL    HW124020   6.525   4.938   6.327
 7707SOL    HW224021   6.471   4.870   6.189
 7708SOL     OW24022   2.347   0.041   4.494
 7708SOL    HW124023   2.347   6.961   4.471
 7708SOL    HW224024   2.268   0.085   4.452
 7709SOL     OW24025   0.288   5.087   1.355
 7709SOL    HW124026   0.251   5.095   1.447
 7709SOL    HW224027   0.332   4.998   1.344
 7710SOL     OW24028   0.817   3.843   1.004
 7710SOL    HW124029   0.906   3.880   1.032
 7710SOL    HW224030   0.751   3.917   0.995
 7711SOL     OW24031   0.066   4.923   4.945
 7711SOL    HW124032   0.068   5.021   4.926
 7711SOL    HW224033   0.018   4.907   5.032
 7712SOL     OW24034   6.554   4.329   5.924
 7712SOL    HW124035   6.608   4.312   5.842
 7712SOL    HW224036   6.466   4.283   5.916
 7713SOL     OW24037   2.287   4.595   0.170
 7713SOL    HW124038   2.230   4.514   0.184
 7713SOL    HW224039   2.313   4.601   0.074
 7714SOL     OW24040   6.613   0.832   5.542
 7714SOL    HW124041   6.650   0.739   5.551
 7714SOL    HW224042   6.640   0.870   5.453
 7715SOL     OW24043   2.924   2.802   5.795
 7715SOL    HW124044   2.937   2.894   5.832
 7715SOL    HW224045   2.834   2.767   5.822
 7716SOL     OW24046   1.396   5.532   5.689
 7716SOL    HW124047   1.449   5.550   5.606
 7716SOL    HW224048   1.331   5.607   5.704
 7717SOL     OW24049   1.085   1.698   6.619
 7717SOL    HW124050   1.165   1.645   6.647
 7717SOL    HW224051   1.017   1.696   6.692
 7718SOL     OW24052   1.455   3.792   2.906
 7718SOL    HW124053   1.438   3.785   2.807
 7718SOL    HW224054   1.544   3.751   2.927
 7719SOL     OW24055   1.916   4.186   4.733
 7719SOL    HW124056   1.915   4.154   4.828
 7719SOL    HW224057   2.010   4.182   4.698
 7720SOL     OW24058   5.644   1.780   6.773
 7720SOL    HW124059   5.553   1.813   6.797
 7720SOL    HW224060   5.666   1.806   6.679
 7721SOL     OW24061   0.514   0.803   2.198
 7721SOL    HW124062   0.455   0.850   2.264
 7721SOL    HW224063   0.554   0.723   2.242
 7722SOL     OW24064   2.336   6.080   3.271
 7722SOL    HW124065   2.305   6.169   3.305
 7722SOL    HW224066   2.410   6.045   3.329
 7723SOL     OW24067   4.895   4.379   0.857
 7723SOL    HW124068   4.861   4.471   0.835
 7723SOL    HW224069   4.835   4.337   0.926
 7724SOL     OW24070   2.305   4.052   1.950
 7724SOL    HW124071   2.346   4.021   2.035
 7724SOL    HW224072   2.359   4.019   1.873
 7725SOL     OW24073   5.419   3.243   3.545
 7725SOL    HW124074   5.425   3.156   3.496
 7725SOL    HW224075   5.383   3.314   3.484
 7726SOL     OW24076   0.304   3.236   6.269
 7726SOL    HW124077   0.277   3.144   6.298
 7726SOL    HW224078   0.257   3.303   6.326
 7727SOL     OW24079   5.289   2.043   2.289
 7727SOL    HW124080   5.343   2.003   2.363
 7727SOL    HW224081   5.290   1.982   2.210
 7728SOL     OW24082   2.045   3.563   4.452
 7728SOL    HW124083   2.072   3.606   4.365
 7728SOL    HW224084   2.054   3.630   4.526
 7729SOL     OW24085   6.511   2.284   4.262
 7729SOL    HW124086   6.416   2.254   4.262
 7729SOL    HW224087   6.561   2.235   4.191
 7730SOL     OW24088   6.491   4.302   4.891
 7730SOL    HW124089   6.477   4.331   4.986
 7730SOL    HW224090   6.503   4.203   4.888
 7731SOL     OW24091   6.412   6.667   6.924
 7731SOL    HW124092   6.490   6.680   6.863
 7731SOL    HW224093   6.434   6.705   7.014
 7732SOL     OW24094   4.063   0.114   6.214
 7732SOL    HW124095   4.138   0.115   6.280
 7732SOL    HW224096   4.101   0.105   6.122
 7733SOL     OW24097   6.445   6.072   2.168
 7733SOL    HW124098   6.525   6.116   2.127
 7733SOL    HW224099   6.437   5.978   2.134
 7734SOL     OW24100   3.433   3.647   5.175
 7734SOL    HW124101   3.380   3.725   5.142
 7734SOL    HW224102   3.425   3.640   5.274
 7735SOL     OW24103   0.058   6.092   0.770
 7735SOL    HW124104   7.009   6.068   0.841
 7735SOL    HW224105   0.109   6.173   0.799
 7736SOL     OW24106   2.653   3.183   0.990
 7736SOL    HW124107   2.651   3.083   0.991
 7736SOL    HW224108   2.743   3.214   1.021
 7737SOL     OW24109   3.901   4.686   1.441
 7737SOL    HW124110   3.938   4.717   1.353
 7737SOL    HW224111   3.804   4.709   1.446
 7738SOL     OW24112   2.637   6.655   6.754
 7738SOL    HW124113   2.730   6.680   6.727
 7738SOL    HW224114   2.627   6.666   6.852
 7739SOL     OW24115   1.265   1.903   0.333
 7739SOL    HW124116   1.229   1.880   0.423
 7739SOL    HW224117   1.286   2.001   0.329
 7740SOL     OW24118   1.976   0.716   4.618
 7740SOL    HW124119   2.013   0.782   4.552
 7740SOL    HW224120   1.967   0.760   4.707
 7741SOL     OW24121   1.688   4.190   6.259
 7741SOL    HW124122   1.734   4.258   6.202
 7741SOL    HW224123   1.670   4.108   6.205
 7742SOL     OW24124   4.202   1.607   4.281
 7742SOL    HW124125   4.160   1.625   4.192
 7742SOL    HW224126   4.300   1.595   4.269
 7743SOL     OW24127   4.762   1.926   5.654
 7743SOL    HW124128   4.702   1.958   5.726
 7743SOL    HW224129   4.854   1.911   5.691
 7744SOL     OW24130   0.424   6.463   4.594
 7744SOL    HW124131   0.355   6.486   4.663
 7744SOL    HW224132   0.480   6.386   4.626
 7745SOL     OW24133   2.307   6.977   0.800
 7745SOL    HW124134   2.350   0.049   0.812
 7745SOL    HW224135   2.298   6.957   0.702
 7746SOL     OW24136   1.209   6.122   0.876
 7746SOL    HW124137   1.289   6.137   0.818
 7746SOL    HW224138   1.215   6.181   0.957
 7747SOL     OW24139   1.093   6.202   0.414
 7747SOL    HW124140   1.085   6.261   0.335
 7747SOL    HW224141   1.159   6.241   0.479
 7748SOL     OW24142   4.200   2.453   5.512
 7748SOL    HW124143   4.225   2.412   5.424
 7748SOL    HW224144   4.272   2.516   5.542
 7749SOL     OW24145   3.665   3.347   3.835
 7749SOL    HW124146   3.597   3.291   3.883
 7749SOL    HW224147   3.630   3.371   3.745
 7750SOL     OW24148   6.016   4.271   5.456
 7750SOL    HW124149   5.976   4.188   5.417
 7750SOL    HW224150   6.067   4.320   5.385
 7751SOL     OW24151   6.784   0.862   5.320
 7751SOL    HW124152   6.804   0.784   5.260
 7751SOL    HW224153   6.865   0.884   5.375
 7752SOL     OW24154   6.227   5.676   5.349
 7752SOL    HW124155   6.273   5.610   5.289
 7752SOL    HW224156   6.163   5.730   5.295
 7753SOL     OW24157   2.574   1.025   4.421
 7753SOL    HW124158   2.537   1.035   4.513
 7753SOL    HW224159   2.584   0.928   4.399
 7754SOL     OW24160   5.728   0.740   1.617
 7754SOL    HW124161   5.632   0.754   1.643
 7754SOL    HW224162   5.752   0.804   1.544
 7755SOL     OW24163   0.998   5.852   5.684
 7755SOL    HW124164   0.901   5.875   5.679
 7755SOL    HW224165   1.051   5.935   5.702
 7756SOL     OW24166   3.927   5.408   2.209
 7756SOL    HW124167   3.976   5.491   2.183
 7756SOL    HW224168   3.858   5.430   2.278
 7757SOL     OW24169   4.565   6.263   5.753
 7757SOL    HW124170   4.547   6.195   5.824
 7757SOL    HW224171   4.585   6.215   5.667
 7758SOL     OW24172   2.309   1.905   5.675
 7758SOL    HW124173   2.383   1.907   5.607
 7758SOL    HW224174   2.274   1.998   5.688
 7759SOL     OW24175   2.056   1.194   4.276
 7759SOL    HW124176   2.151   1.168   4.292
 7759SOL    HW224177   2.028   1.166   4.184
 7760SOL     OW24178   5.121   2.941   2.214
 7760SOL    HW124179   5.067   2.995   2.279
 7760SOL    HW224180   5.206   2.989   2.194
 7761SOL     OW24181   3.418   6.591   0.010
 7761SOL    HW124182   3.494   6.566   6.967
 7761SOL    HW224183   3.449   6.589   0.105
 7762SOL     OW24184   3.770   1.400   0.101
 7762SOL    HW124185   3.699   1.362   0.041
 7762SOL    HW224186   3.812   1.326   0.154
 7763SOL     OW24187   1.700   1.741   0.431
 7763SOL    HW124188   1.761   1.760   0.508
 7763SOL    HW224189   1.753   1.729   0.348
 7764SOL     OW24190   3.462   2.880   2.395
 7764SOL    HW124191   3.372   2.869   2.351
 7764SOL    HW224192   3.534   2.866   2.327
 7765SOL     OW24193   6.748   2.331   2.888
 7765SOL    HW124194   6.756   2.431   2.884
 7765SOL    HW224195   6.653   2.305   2.873
 7766SOL     OW24196   6.593   2.155   6.946
 7766SOL    HW124197   6.683   2.111   6.950
 7766SOL    HW224198   6.521   2.086   6.950
 7767SOL     OW24199   4.290   5.773   4.211
 7767SOL    HW124200   4.239   5.749   4.294
 7767SOL    HW224201   4.379   5.811   4.237
 7768SOL     OW24202   3.952   4.837   2.205
 7768SOL    HW124203   3.867   4.826   2.257
 7768SOL    HW224204   3.942   4.795   2.115
 7769SOL     OW24205   5.430   2.019   1.163
 7769SOL    HW124206   5.372   1.944   1.131
 7769SOL    HW224207   5.423   2.026   1.262
 7770SOL     OW24208   2.911   5.033   1.383
 7770SOL    HW124209   2.874   4.943   1.361
 7770SOL    HW224210   2.910   5.047   1.482
 7771SOL     OW24211   2.646   2.459   6.116
 7771SOL    HW124212   2.602   2.464   6.206
 7771SOL    HW224213   2.650   2.363   6.086
 7772SOL     OW24214   4.727   0.584   4.212
 7772SOL    HW124215   4.737   0.674   4.256
 7772SOL    HW224216   4.743   0.593   4.114
 7773SOL     OW24217   4.276   3.604   5.798
 7773SOL    HW124218   4.353   3.583   5.738
 7773SOL    HW224219   4.272   3.703   5.814
 7774SOL     OW24220   4.832   1.816   6.000
 7774SOL    HW124221   4.733   1.822   6.007
 7774SOL    HW224222   4.857   1.739   5.942
 7775SOL     OW24223   3.190   6.729   2.193
 7775SOL    HW124224   3.167   6.803   2.129
 7775SOL    HW224225   3.242   6.659   2.145
 7776SOL     OW24226   3.655   3.548   6.825
 7776SOL    HW124227   3.625   3.623   6.884
 7776SOL    HW224228   3.747   3.567   6.791
 7777SOL     OW24229   2.234   0.720   6.519
 7777SOL    HW124230   2.135   0.707   6.510
 7777SOL    HW224231   2.275   0.731   6.429
 7778SOL     OW24232   5.491   0.406   0.100
 7778SOL    HW124233   5.586   0.435   0.093
 7778SOL    HW224234   5.432   0.473   0.055
 7779SOL     OW24235   3.976   2.607   0.662
 7779SOL    HW124236   3.983   2.705   0.682
 7779SOL    HW224237   3.888   2.588   0.620
 7780SOL     OW24238   2.335   5.895   4.988
 7780SOL    HW124239   2.319   5.947   5.072
 7780SOL    HW224240   2.249   5.854   4.957
 7781SOL     OW24241   1.234   4.599   4.913
 7781SOL    HW124242   1.289   4.672   4.872
 7781SOL    HW224243   1.153   4.584   4.857
 7782SOL     OW24244   2.458   4.093   6.114
 7782SOL    HW124245   2.496   4.151   6.186
 7782SOL    HW224246   2.358   4.098   6.115
 7783SOL     OW24247   2.525   5.456   6.630
 7783SOL    HW124248   2.600   5.470   6.565
 7783SOL    HW224249   2.439   5.486   6.588
 7784SOL     OW24250   0.455   2.655   6.967
 7784SOL    HW124251   0.422   2.749   6.956
 7784SOL    HW224252   0.512   2.648   0.031
 7785SOL     OW24253   2.245   6.384   4.133
 7785SOL    HW124254   2.293   6.297   4.123
 7785SOL    HW224255   2.215   6.395   4.228
 7786SOL     OW24256   3.129   4.313   5.257
 7786SOL    HW124257   3.180   4.334   5.340
 7786SOL    HW224258   3.062   4.384   5.239
 7787SOL     OW24259   2.122   2.855   5.026
 7787SOL    HW124260   2.218   2.879   5.041
 7787SOL    HW224261   2.067   2.938   5.021
 7788SOL     OW24262   0.883   1.695   0.883
 7788SOL    HW124263   0.897   1.617   0.822
 7788SOL    HW224264   0.947   1.689   0.959
 7789SOL     OW24265   2.445   0.971   1.749
 7789SOL    HW124266   2.499   0.994   1.830
 7789SOL    HW224267   2.506   0.964   1.670
 7790SOL     OW24268   5.343   3.160   2.787
 7790SOL    HW124269   5.399   3.238   2.812
 7790SOL    HW224270   5.274   3.143   2.858
 7791SOL     OW24271   1.795   5.031   4.348
 7791SOL    HW124272   1.700   5.015   4.318
 7791SOL    HW224273   1.794   5.068   4.441
 7792SOL     OW24274   2.795   5.750   6.256
 7792SOL    HW124275   2.722   5.748   6.324
 7792SOL    HW224276   2.756   5.767   6.166
 7793SOL     OW24277   1.402   1.148   5.977
 7793SOL    HW124278   1.328   1.083   5.964
 7793SOL    HW224279   1.451   1.126   6.062
 7794SOL     OW24280   5.244   5.554   4.440
 7794SOL    HW124281   5.311   5.560   4.514
 7794SOL    HW224282   5.255   5.631   4.378
 7795SOL     OW24283   2.202   4.539   5.456
 7795SOL    HW124284   2.146   4.459   5.433
 7795SOL    HW224285   2.156   4.595   5.524
 7796SOL     OW24286   3.475   4.080   3.144
 7796SOL    HW124287   3.496   4.072   3.047
 7796SOL    HW224288   3.406   4.012   3.169
 7797SOL     OW24289   0.184   6.817   2.953
 7797SOL    HW124290   0.152   6.836   3.045
 7797SOL    HW224291   0.105   6.805   2.892
 7798SOL     OW24292   3.466   5.848   0.379
 7798SOL    HW124293   3.391   5.798   0.422
 7798SOL    HW224294   3.489   5.805   0.292
 7799SOL     OW24295   0.510   4.599   1.298
 7799SOL    HW124296   0.483   4.529   1.233
 7799SOL    HW224297   0.462   4.584   1.385
 7800SOL     OW24298   0.311   5.434   1.802
 7800SOL    HW124299   0.407   5.462   1.798
 7800SOL    HW224300   0.297   5.370   1.877
 7801SOL     OW24301   2.627   1.912   6.695
 7801SOL    HW124302   2.710   1.893   6.641
 7801SOL    HW224303   2.565   1.967   6.640
 7802SOL     OW24304   5.585   2.479   1.631
 7802SOL    HW124305   5.667   2.531   1.605
 7802SOL    HW224306   5.528   2.536   1.691
 7803SOL     OW24307   4.137   4.090   5.583
 7803SOL    HW124308   4.159   4.180   5.620
 7803SOL    HW224309   4.071   4.100   5.509
 7804SOL     OW24310   5.022   1.926   5.618
 7804SOL    HW124311   5.085   2.002   5.635
 7804SOL    HW224312   5.074   1.844   5.594
 7805SOL     OW24313   5.210   3.231   1.998
 7805SOL    HW124314   5.134   3.266   2.052
 7805SOL    HW224315   5.285   3.204   2.059
 7806SOL     OW24316   5.529   2.917   6.478
 7806SOL    HW124317   5.472   2.877   6.406
 7806SOL    HW224318   5.588   2.987   6.439
 7807SOL     OW24319   0.024   3.842   6.079
 7807SOL    HW124320   7.001   3.762   6.036
 7807SOL    HW224321   6.971   3.910   6.098
 7808SOL     OW24322   0.922   0.780   4.716
 7808SOL    HW124323   0.916   0.857   4.652
 7808SOL    HW224324   0.870   0.703   4.679
 7809SOL     OW24325   2.995   5.594   4.555
 7809SOL    HW124326   2.943   5.535   4.617
 7809SOL    HW224327   2.933   5.657   4.508
 7810SOL     OW24328   2.734   0.586   6.035
 7810SOL    HW124329   2.828   0.619   6.046
 7810SOL    HW224330   2.708   0.531   6.114
 7811SOL     OW24331   5.525   4.530   4.506
 7811SOL    HW124332   5.540   4.581   4.422
 7811SOL    HW224333   5.564   4.438   4.496
 7812SOL     OW24334   1.530   1.413   3.643
 7812SOL    HW124335   1.524   1.350   3.566
 7812SOL    HW224336   1.513   1.363   3.728
 7813SOL     OW24337   6.605   2.851   7.001
 7813SOL    HW124338   6.645   2.760   6.991
 7813SOL    HW224339   6.663   2.907   0.043
 7814SOL     OW24340   6.825   3.769   3.344
 7814SOL    HW124341   6.828   3.831   3.266
 7814SOL    HW224342   6.809   3.822   3.428
 7815SOL     OW24343   6.281   1.529   6.206
 7815SOL    HW124344   6.330   1.545   6.292
 7815SOL    HW224345   6.222   1.607   6.185
 7816SOL     OW24346   1.095   4.122   5.458
 7816SOL    HW124347   1.084   4.183   5.380
 7816SOL    HW224348   1.076   4.172   5.542
 7817SOL     OW24349   5.280   4.323   4.561
 7817SOL    HW124350   5.269   4.422   4.564
 7817SOL    HW224351   5.209   4.280   4.616
 7818SOL     OW24352   5.551   6.316   1.757
 7818SOL    HW124353   5.647   6.310   1.731
 7818SOL    HW224354   5.494   6.316   1.674
 7819SOL     OW24355   6.914   2.372   1.328
 7819SOL    HW124356   6.908   2.467   1.357
 7819SOL    HW224357   6.937   2.368   1.231
 7820SOL     OW24358   1.782   1.354   6.464
 7820SOL    HW124359   1.736   1.432   6.505
 7820SOL    HW224360   1.873   1.381   6.434
 7821SOL     OW24361   3.051   5.087   1.148
 7821SOL    HW124362   2.980   5.146   1.109
 7821SOL    HW224363   3.036   5.077   1.246
 7822SOL     OW24364   1.642   5.686   5.205
 7822SOL    HW124365   1.639   5.786   5.212
 7822SOL    HW224366   1.554   5.653   5.171
 7823SOL     OW24367   1.578   4.555   4.938
 7823SOL    HW124368   1.665   4.565   4.890
 7823SOL    HW224369   1.548   4.460   4.933
 7824SOL     OW24370   0.731   2.831   5.040
 7824SOL    HW124371   0.695   2.858   4.951
 7824SOL    HW224372   0.825   2.863   5.049
 7825SOL     OW24373   2.811   1.516   6.609
 7825SOL    HW124374   2.903   1.527   6.572
 7825SOL    HW224375   2.816   1.508   6.709
 7826SOL     OW24376   6.943   2.486   6.919
 7826SOL    HW124377   6.977   2.555   6.856
 7826SOL    HW224378   6.961   2.395   6.882
 7827SOL     OW24379   0.054   6.080   4.402
 7827SOL    HW124380   6.976   6.098   4.375
 7827SOL    HW224381   0.073   6.123   4.490
 7828SOL     OW24382   0.659   3.986   6.797
 7828SOL    HW124383   0.655   3.906   6.857
 7828SOL    HW224384   0.700   4.063   6.845
 7829SOL     OW24385   3.722   2.321   0.922
 7829SOL    HW124386   3.742   2.238   0.975
 7829SOL    HW224387   3.800   2.383   0.927
 7830SOL     OW24388   2.828   4.716   4.254
 7830SOL    HW124389   2.911   4.733   4.201
 7830SOL    HW224390   2.762   4.665   4.198
 7831SOL     OW24391   1.356   1.629   0.398
 7831SOL    HW124392   1.317   1.720   0.383
 7831SOL    HW224393   1.423   1.608   0.327
 7832SOL     OW24394   5.771   0.676   4.468
 7832SOL    HW124395   5.824   0.591   4.471
 7832SOL    HW224396   5.698   0.672   4.537
 7833SOL     OW24397   2.305   1.067   4.297
 7833SOL    HW124398   2.373   1.140   4.307
 7833SOL    HW224399   2.351   0.979   4.291
 7834SOL     OW24400   6.065   3.456   4.336
 7834SOL    HW124401   6.086   3.359   4.350
 7834SOL    HW224402   5.966   3.469   4.337
 7835SOL     OW24403   4.380   1.869   4.824
 7835SOL    HW124404   4.341   1.809   4.754
 7835SOL    HW224405   4.368   1.965   4.796
 7836SOL     OW24406   3.820   4.238   4.988
 7836SOL    HW124407   3.917   4.214   4.981
 7836SOL    HW224408   3.805   4.328   4.949
 7837SOL     OW24409   5.927   5.796   6.568
 7837SOL    HW124410   5.968   5.884   6.591
 7837SOL    HW224411   5.831   5.796   6.595
 7838SOL     OW24412   5.680   5.556   1.098
 7838SOL    HW124413   5.749   5.592   1.161
 7838SOL    HW224414   5.720   5.482   1.044
 7839SOL     OW24415   5.983   4.094   3.817
 7839SOL    HW124416   5.937   4.055   3.896
 7839SOL    HW224417   6.058   4.153   3.848
 7840SOL     OW24418   2.092   2.978   3.869
 7840SOL    HW124419   2.028   3.046   3.905
 7840SOL    HW224420   2.050   2.888   3.870
 7841SOL     OW24421   4.797   2.291   6.336
 7841SOL    HW124422   4.818   2.263   6.242
 7841SOL    HW224423   4.857   2.241   6.399
 7842SOL     OW24424   1.836   1.573   2.074
 7842SOL    HW124425   1.922   1.523   2.068
 7842SOL    HW224426   1.762   1.518   2.035
 7843SOL     OW24427   0.226   6.501   3.056
 7843SOL    HW124428   0.302   6.556   3.091
 7843SOL    HW224429   0.170   6.557   2.994
 7844SOL     OW24430   3.439   1.347   2.797
 7844SOL    HW124431   3.528   1.308   2.773
 7844SOL    HW224432   3.415   1.418   2.730
 7845SOL     OW24433   6.568   2.633   0.963
 7845SOL    HW124434   6.571   2.633   0.863
 7845SOL    HW224435   6.656   2.600   0.998
 7846SOL     OW24436   1.103   2.567   0.511
 7846SOL    HW124437   1.058   2.520   0.435
 7846SOL    HW224438   1.057   2.654   0.528
 7847SOL     OW24439   5.583   3.363   4.995
 7847SOL    HW124440   5.483   3.374   4.994
 7847SOL    HW224441   5.624   3.421   4.925
 7848SOL     OW24442   3.467   4.842   0.878
 7848SOL    HW124443   3.395   4.898   0.919
 7848SOL    HW224444   3.550   4.849   0.932
 7849SOL     OW24445   4.589   4.268   6.250
 7849SOL    HW124446   4.591   4.222   6.161
 7849SOL    HW224447   4.647   4.219   6.314
 7850SOL     OW24448   0.121   0.791   3.919
 7850SOL    HW124449   0.105   0.791   3.820
 7850SOL    HW224450   0.168   0.876   3.945
 7851SOL     OW24451   0.600   4.181   1.872
 7851SOL    HW124452   0.551   4.164   1.958
 7851SOL    HW224453   0.690   4.222   1.893
 7852SOL     OW24454   1.543   2.386   6.499
 7852SOL    HW124455   1.522   2.414   6.592
 7852SOL    HW224456   1.459   2.387   6.445
 7853SOL     OW24457   4.083   2.967   1.611
 7853SOL    HW124458   4.004   2.973   1.672
 7853SOL    HW224459   4.167   2.988   1.662
 7854SOL     OW24460   5.312   2.613   6.288
 7854SOL    HW124461   5.324   2.617   6.189
 7854SOL    HW224462   5.276   2.701   6.320
 7855SOL     OW24463   4.887   6.926   4.329
 7855SOL    HW124464   4.819   6.988   4.289
 7855SOL    HW224465   4.841   6.858   4.386
 7856SOL     OW24466   2.112   6.209   4.755
 7856SOL    HW124467   2.189   6.185   4.695
 7856SOL    HW224468   2.144   6.213   4.850
 7857SOL     OW24469   5.316   3.711   0.993
 7857SOL    HW124470   5.299   3.730   1.090
 7857SOL    HW224471   5.229   3.694   0.947
 7858SOL     OW24472   0.948   5.352   5.728
 7858SOL    HW124473   0.849   5.346   5.728
 7858SOL    HW224474   0.985   5.287   5.661
 7859SOL     OW24475   5.240   2.690   0.364
 7859SOL    HW124476   5.190   2.693   0.278
 7859SOL    HW224477   5.180   2.717   0.439
 7860SOL     OW24478   2.884   0.591   4.496
 7860SOL    HW124479   2.968   0.554   4.537
 7860SOL    HW224480   2.886   0.575   4.397
 7861SOL     OW24481   2.899   6.119   0.894
 7861SOL    HW124482   2.925   6.195   0.835
 7861SOL    HW224483   2.888   6.153   0.988
 7862SOL     OW24484   2.767   6.194   0.604
 7862SOL    HW124485   2.695   6.250   0.643
 7862SOL    HW224486   2.855   6.218   0.646
 7863SOL     OW24487   6.827   4.469   3.467
 7863SOL    HW124488   6.874   4.388   3.434
 7863SOL    HW224489   6.766   4.444   3.543
 7864SOL     OW24490   2.126   6.807   5.030
 7864SOL    HW124491   2.194   6.818   4.958
 7864SOL    HW224492   2.082   6.896   5.047
 7865SOL     OW24493   5.900   5.817   3.720
 7865SOL    HW124494   5.898   5.801   3.622
 7865SOL    HW224495   5.943   5.739   3.766
 7866SOL     OW24496   0.932   6.952   5.485
 7866SOL    HW124497   0.938   6.974   5.583
 7866SOL    HW224498   0.919   6.854   5.474
 7867SOL     OW24499   5.350   6.294   3.655
 7867SOL    HW124500   5.396   6.227   3.713
 7867SOL    HW224501   5.417   6.362   3.625
 7868SOL     OW24502   3.492   6.705   1.161
 7868SOL    HW124503   3.504   6.751   1.249
 7868SOL    HW224504   3.575   6.656   1.137
 7869SOL     OW24505   5.506   4.342   5.958
 7869SOL    HW124506   5.585   4.339   5.896
 7869SOL    HW224507   5.457   4.255   5.952
 7870SOL     OW24508   5.352   6.032   5.059
 7870SOL    HW124509   5.323   6.089   4.981
 7870SOL    HW224510   5.280   6.033   5.129
 7871SOL     OW24511   5.025   1.582   1.863
 7871SOL    HW124512   4.936   1.540   1.879
 7871SOL    HW224513   5.040   1.592   1.765
 7872SOL     OW24514   1.847   5.991   2.398
 7872SOL    HW124515   1.809   5.903   2.428
 7872SOL    HW224516   1.803   6.018   2.312
 7873SOL     OW24517   6.359   0.936   0.204
 7873SOL    HW124518   6.386   1.028   0.176
 7873SOL    HW224519   6.403   0.915   0.292
 7874SOL     OW24520   5.699   2.377   0.964
 7874SOL    HW124521   5.745   2.351   0.879
 7874SOL    HW224522   5.765   2.417   1.027
 7875SOL     OW24523   4.971   4.020   6.765
 7875SOL    HW124524   4.929   3.934   6.736
 7875SOL    HW224525   4.905   4.094   6.754
 7876SOL     OW24526   1.045   0.305   2.128
 7876SOL    HW124527   0.946   0.314   2.116
 7876SOL    HW224528   1.089   0.391   2.101
 7877SOL     OW24529   6.954   2.200   3.421
 7877SOL    HW124530   6.908   2.285   3.395
 7877SOL    HW224531   6.963   2.196   3.521
 7878SOL     OW24532   4.201   4.936   3.624
 7878SOL    HW124533   4.135   4.903   3.556
 7878SOL    HW224534   4.277   4.870   3.630
 7879SOL     OW24535   2.483   4.830   3.364
 7879SOL    HW124536   2.483   4.900   3.436
 7879SOL    HW224537   2.462   4.873   3.276
 7880SOL     OW24538   1.390   4.130   2.019
 7880SOL    HW124539   1.455   4.167   2.086
 7880SOL    HW224540   1.368   4.036   2.042
 7881SOL     OW24541   5.006   4.307   3.996
 7881SOL    HW124542   4.958   4.302   3.908
 7881SOL    HW224543   4.969   4.238   4.058
 7882SOL     OW24544   1.625   2.772   0.813
 7882SOL    HW124545   1.553   2.710   0.845
 7882SOL    HW224546   1.674   2.809   0.892
 7883SOL     OW24547   1.330   1.290   5.347
 7883SOL    HW124548   1.380   1.218   5.395
 7883SOL    HW224549   1.358   1.291   5.251
 7884SOL     OW24550   0.628   3.278   4.343
 7884SOL    HW124551   0.707   3.335   4.364
 7884SOL    HW224552   0.547   3.311   4.392
 7885SOL     OW24553   5.704   6.073   0.285
 7885SOL    HW124554   5.690   6.155   0.229
 7885SOL    HW224555   5.799   6.070   0.316
 7886SOL     OW24556   4.606   5.015   0.010
 7886SOL    HW124557   4.644   4.953   6.959
 7886SOL    HW224558   4.523   4.975   0.049
 7887SOL     OW24559   4.962   1.685   0.046
 7887SOL    HW124560   4.947   1.662   0.142
 7887SOL    HW224561   4.985   1.602   7.012
 7888SOL     OW24562   4.867   0.796   4.315
 7888SOL    HW124563   4.918   0.715   4.344
 7888SOL    HW224564   4.886   0.871   4.378
 7889SOL     OW24565   0.669   6.820   2.243
 7889SOL    HW124566   0.690   6.899   2.300
 7889SOL    HW224567   0.683   6.845   2.147
 7890SOL     OW24568   1.541   3.432   3.012
 7890SOL    HW124569   1.628   3.433   2.964
 7890SOL    HW224570   1.515   3.338   3.033
 7891SOL     OW24571   2.113   5.046   2.452
 7891SOL    HW124572   2.149   5.002   2.534
 7891SOL    HW224573   2.159   5.134   2.439
 7892SOL     OW24574   1.671   2.341   5.890
 7892SOL    HW124575   1.693   2.323   5.985
 7892SOL    HW224576   1.737   2.407   5.853
 7893SOL     OW24577   6.455   6.334   1.221
 7893SOL    HW124578   6.517   6.412   1.229
 7893SOL    HW224579   6.457   6.281   1.306
 7894SOL     OW24580   2.887   6.770   1.261
 7894SOL    HW124581   2.838   6.709   1.199
 7894SOL    HW224582   2.922   6.718   1.339
 7895SOL     OW24583   6.992   1.636   4.451
 7895SOL    HW124584   0.069   1.670   4.451
 7895SOL    HW224585   6.991   1.541   4.419
 7896SOL     OW24586   4.717   3.016   5.740
 7896SOL    HW124587   4.700   3.088   5.807
 7896SOL    HW224588   4.682   3.045   5.651
 7897SOL     OW24589   2.860   3.080   6.503
 7897SOL    HW124590   2.862   3.162   6.560
 7897SOL    HW224591   2.867   3.106   6.407
 7898SOL     OW24592   4.393   2.418   3.892
 7898SOL    HW124593   4.323   2.391   3.825
 7898SOL    HW224594   4.427   2.336   3.939
 7899SOL     OW24595   5.728   2.009   2.997
 7899SOL    HW124596   5.683   2.098   3.010
 7899SOL    HW224597   5.682   1.957   2.926
 7900SOL     OW24598   1.727   5.256   0.786
 7900SOL    HW124599   1.792   5.269   0.711
 7900SOL    HW224600   1.659   5.187   0.760
 7901SOL     OW24601   6.054   6.282   6.925
 7901SOL    HW124602   6.104   6.353   6.976
 7901SOL    HW224603   6.000   6.324   6.852
 7902SOL     OW24604   4.373   3.396   0.018
 7902SOL    HW124605   4.308   3.442   6.975
 7902SOL    HW224606   4.456   3.374   6.984
 7903SOL     OW24607   7.011   1.622   6.767
 7903SOL    HW124608   6.964   1.689   6.710
 7903SOL    HW224609   0.080   1.596   6.724
 7904SOL     OW24610   6.878   0.897   2.546
 7904SOL    HW124611   6.967   0.882   2.589
 7904SOL    HW224612   6.856   0.818   2.488
 7905SOL     OW24613   4.188   1.130   1.199
 7905SOL    HW124614   4.152   1.043   1.167
 7905SOL    HW224615   4.255   1.165   1.132
 7906SOL     OW24616   6.127   5.702   7.004
 7906SOL    HW124617   6.159   5.624   6.951
 7906SOL    HW224618   6.029   5.715   6.990
 7907SOL     OW24619   6.813   2.484   2.493
 7907SOL    HW124620   6.846   2.415   2.429
 7907SOL    HW224621   6.882   2.499   2.564
 7908SOL     OW24622   6.416   2.351   3.997
 7908SOL    HW124623   6.329   2.310   4.025
 7908SOL    HW224624   6.403   2.402   3.912
 7909SOL     OW24625   4.642   4.605   5.053
 7909SOL    HW124626   4.662   4.632   4.958
 7909SOL    HW224627   4.723   4.561   5.093
 7910SOL     OW24628   5.628   3.052   5.609
 7910SOL    HW124629   5.626   2.952   5.610
 7910SOL    HW224630   5.607   3.087   5.700
 7911SOL     OW24631   5.838   4.698   0.196
 7911SOL    HW124632   5.863   4.604   0.172
 7911SOL    HW224633   5.816   4.702   0.293
 7912SOL     OW24634   6.216   4.913   6.013
 7912SOL    HW124635   6.232   5.009   5.991
 7912SOL    HW224636   6.137   4.905   6.075
 7913SOL     OW24637   6.570   5.537   6.000
 7913SOL    HW124638   6.571   5.453   5.945
 7913SOL    HW224639   6.661   5.578   6.002
 7914SOL     OW24640   6.406   4.542   1.453
 7914SOL    HW124641   6.414   4.445   1.475
 7914SOL    HW224642   6.474   4.594   1.504
 7915SOL     OW24643   3.595   1.504   3.280
 7915SOL    HW124644   3.626   1.419   3.238
 7915SOL    HW224645   3.501   1.523   3.252
 7916SOL     OW24646   5.420   3.815   5.540
 7916SOL    HW124647   5.401   3.717   5.536
 7916SOL    HW224648   5.341   3.865   5.505
 7917SOL     OW24649   3.296   3.679   4.041
 7917SOL    HW124650   3.319   3.638   3.953
 7917SOL    HW224651   3.288   3.608   4.111
 7918SOL     OW24652   6.169   2.019   2.999
 7918SOL    HW124653   6.125   2.059   2.919
 7918SOL    HW224654   6.144   1.922   3.006
 7919SOL     OW24655   5.923   5.255   1.840
 7919SOL    HW124656   5.873   5.198   1.906
 7919SOL    HW224657   5.962   5.197   1.769
 7920SOL     OW24658   0.980   5.286   1.601
 7920SOL    HW124659   0.903   5.247   1.652
 7920SOL    HW224660   1.065   5.262   1.647
 7921SOL     OW24661   2.683   6.880   1.386
 7921SOL    HW124662   2.767   6.847   1.342
 7921SOL    HW224663   2.620   6.804   1.400
 7922SOL     OW24664   0.806   5.440   6.645
 7922SOL    HW124665   0.844   5.513   6.587
 7922SOL    HW224666   0.866   5.426   6.724
 7923SOL     OW24667   1.558   1.935   3.145
 7923SOL    HW124668   1.495   1.981   3.207
 7923SOL    HW224669   1.585   1.847   3.184
 7924SOL     OW24670   2.374   6.885   3.893
 7924SOL    HW124671   2.307   6.813   3.872
 7924SOL    HW224672   2.399   6.933   3.809
 7925SOL     OW24673   6.498   1.105   6.475
 7925SOL    HW124674   6.508   1.046   6.395
 7925SOL    HW224675   6.549   1.190   6.460
 7926SOL     OW24676   3.936   0.161   1.733
 7926SOL    HW124677   4.031   0.173   1.702
 7926SOL    HW224678   3.935   0.108   1.818
 7927SOL     OW24679   4.771   5.296   4.726
 7927SOL    HW124680   4.728   5.208   4.707
 7927SOL    HW224681   4.705   5.370   4.709
 7928SOL     OW24682   1.726   5.431   1.312
 7928SOL    HW124683   1.670   5.439   1.229
 7928SOL    HW224684   1.803   5.494   1.306
 7929SOL     OW24685   3.571   3.824   4.099
 7929SOL    HW124686   3.606   3.733   4.123
 7929SOL    HW224687   3.471   3.821   4.093
 7930SOL     OW24688   4.812   5.973   3.905
 7930SOL    HW124689   4.749   5.939   3.835
 7930SOL    HW224690   4.773   5.955   3.995
 7931SOL     OW24691   2.315   1.698   0.514
 7931SOL    HW124692   2.350   1.684   0.421
 7931SOL    HW224693   2.300   1.609   0.557
 7932SOL     OW24694   2.458   0.195   0.833
 7932SOL    HW124695   2.557   0.182   0.834
 7932SOL    HW224696   2.432   0.262   0.902
 7933SOL     OW24697   1.746   1.088   6.889
 7933SOL    HW124698   1.673   1.098   6.956
 7933SOL    HW224699   1.712   1.111   6.798
 7934SOL     OW24700   2.709   3.527   6.143
 7934SOL    HW124701   2.635   3.526   6.210
 7934SOL    HW224702   2.673   3.549   6.053
 7935SOL     OW24703   4.563   6.341   1.448
 7935SOL    HW124704   4.491   6.384   1.393
 7935SOL    HW224705   4.571   6.245   1.422
 7936SOL     OW24706   4.356   5.877   3.236
 7936SOL    HW124707   4.378   5.973   3.253
 7936SOL    HW224708   4.414   5.819   3.293
 7937SOL     OW24709   6.353   6.496   5.728
 7937SOL    HW124710   6.265   6.449   5.740
 7937SOL    HW224711   6.380   6.492   5.632
 7938SOL     OW24712   5.021   5.223   4.649
 7938SOL    HW124713   5.040   5.263   4.560
 7938SOL    HW224714   4.932   5.255   4.682
 7939SOL     OW24715   1.192   1.116   5.188
 7939SOL    HW124716   1.158   1.178   5.117
 7939SOL    HW224717   1.229   1.170   5.264
 7940SOL     OW24718   1.552   5.936   1.189
 7940SOL    HW124719   1.606   5.938   1.105
 7940SOL    HW224720   1.455   5.932   1.166
 7941SOL     OW24721   0.613   0.482   0.730
 7941SOL    HW124722   0.712   0.499   0.726
 7941SOL    HW224723   0.583   0.483   0.825
 7942SOL     OW24724   0.648   0.846   1.350
 7942SOL    HW124725   0.658   0.946   1.350
 7942SOL    HW224726   0.573   0.820   1.411
 7943SOL     OW24727   5.129   1.488   1.412
 7943SOL    HW124728   5.196   1.532   1.473
 7943SOL    HW224729   5.045   1.471   1.462
 7944SOL     OW24730   0.980   4.482   1.744
 7944SOL    HW124731   1.024   4.555   1.796
 7944SOL    HW224732   0.966   4.402   1.803
 7945SOL     OW24733   5.169   6.725   2.354
 7945SOL    HW124734   5.212   6.770   2.433
 7945SOL    HW224735   5.175   6.626   2.365
 7946SOL     OW24736   1.407   2.500   5.953
 7946SOL    HW124737   1.434   2.550   6.035
 7946SOL    HW224738   1.483   2.498   5.888
 7947SOL     OW24739   4.061   3.508   6.355
 7947SOL    HW124740   4.106   3.499   6.266
 7947SOL    HW224741   3.990   3.438   6.363
 7948SOL     OW24742   6.998   5.966   0.507
 7948SOL    HW124743   0.007   5.872   0.486
 7948SOL    HW224744   0.020   5.993   0.594
 7949SOL     OW24745   5.479   4.544   4.091
 7949SOL    HW124746   5.398   4.485   4.087
 7949SOL    HW224747   5.465   4.614   4.160
 7950SOL     OW24748   3.447   4.931   4.147
 7950SOL    HW124749   3.372   4.865   4.155
 7950SOL    HW224750   3.423   5.014   4.197
 7951SOL     OW24751   3.303   3.266   0.986
 7951SOL    HW124752   3.205   3.252   0.976
 7951SOL    HW224753   3.338   3.211   1.062
 7952SOL     OW24754   5.485   3.125   1.022
 7952SOL    HW124755   5.412   3.060   1.042
 7952SOL    HW224756   5.463   3.213   1.063
 7953SOL     OW24757   1.993   2.677   3.182
 7953SOL    HW124758   2.053   2.756   3.196
 7953SOL    HW224759   2.036   2.595   3.220
 7954SOL     OW24760   3.925   4.829   5.017
 7954SOL    HW124761   3.889   4.831   4.923
 7954SOL    HW224762   4.025   4.825   5.013
 7955SOL     OW24763   0.892   6.711   6.198
 7955SOL    HW124764   0.793   6.701   6.191
 7955SOL    HW224765   0.936   6.623   6.179
 7956SOL     OW24766   5.696   6.681   4.096
 7956SOL    HW124767   5.617   6.738   4.119
 7956SOL    HW224768   5.748   6.724   4.022
 7957SOL     OW24769   1.028   2.439   1.272
 7957SOL    HW124770   1.003   2.342   1.275
 7957SOL    HW224771   1.051   2.470   1.365
 7958SOL     OW24772   2.856   5.228   2.940
 7958SOL    HW124773   2.870   5.226   2.841
 7958SOL    HW224774   2.771   5.180   2.961
 7959SOL     OW24775   5.913   4.940   0.880
 7959SOL    HW124776   6.010   4.917   0.891
 7959SOL    HW224777   5.901   4.999   0.800
 7960SOL     OW24778   2.728   2.100   0.994
 7960SOL    HW124779   2.708   2.007   0.962
 7960SOL    HW224780   2.735   2.100   1.094
 7961SOL     OW24781   1.990   5.428   6.633
 7961SOL    HW124782   1.982   5.348   6.573
 7961SOL    HW224783   1.974   5.400   6.728
 7962SOL     OW24784   0.834   0.984   2.212
 7962SOL    HW124785   0.734   0.989   2.221
 7962SOL    HW224786   0.873   1.074   2.226
 7963SOL     OW24787   0.515   0.440   5.230
 7963SOL    HW124788   0.552   0.492   5.308
 7963SOL    HW224789   0.505   0.344   5.256
 7964SOL     OW24790   5.864   5.778   3.447
 7964SOL    HW124791   5.852   5.746   3.353
 7964SOL    HW224792   5.894   5.874   3.446
 7965SOL     OW24793   5.414   1.940   6.790
 7965SOL    HW124794   5.468   2.017   6.756
 7965SOL    HW224795   5.323   1.973   6.818
 7966SOL     OW24796   0.052   4.931   3.746
 7966SOL    HW124797   0.012   4.847   3.781
 7966SOL    HW224798   0.141   4.911   3.705
 7967SOL     OW24799   3.183   6.165   2.404
 7967SOL    HW124800   3.277   6.134   2.416
 7967SOL    HW224801   3.177   6.262   2.427
 7968SOL     OW24802   2.051   2.276   2.564
 7968SOL    HW124803   2.094   2.297   2.476
 7968SOL    HW224804   2.048   2.177   2.577
 7969SOL     OW24805   2.848   2.059   3.385
 7969SOL    HW124806   2.776   1.990   3.380
 7969SOL    HW224807   2.893   2.067   3.296
 7970SOL     OW24808   0.802   4.203   3.055
 7970SOL    HW124809   0.725   4.266   3.068
 7970SOL    HW224810   0.789   4.123   3.114
 7971SOL     OW24811   2.767   1.528   1.361
 7971SOL    HW124812   2.858   1.563   1.337
 7971SOL    HW224813   2.698   1.574   1.305
 7972SOL     OW24814   0.523   4.624   1.819
 7972SOL    HW124815   0.597   4.650   1.882
 7972SOL    HW224816   0.501   4.702   1.761
 7973SOL     OW24817   4.802   3.131   3.248
 7973SOL    HW124818   4.776   3.091   3.160
 7973SOL    HW224819   4.766   3.073   3.322
 7974SOL     OW24820   5.249   0.295   4.126
 7974SOL    HW124821   5.205   0.376   4.163
 7974SOL    HW224822   5.180   0.231   4.093
 7975SOL     OW24823   3.192   1.179   4.449
 7975SOL    HW124824   3.160   1.265   4.409
 7975SOL    HW224825   3.120   1.110   4.442
 7976SOL     OW24826   0.975   5.657   6.257
 7976SOL    HW124827   1.007   5.752   6.265
 7976SOL    HW224828   1.029   5.611   6.186
 7977SOL     OW24829   5.611   5.964   1.649
 7977SOL    HW124830   5.609   6.020   1.731
 7977SOL    HW224831   5.701   5.971   1.606
 7978SOL     OW24832   4.678   3.213   5.953
 7978SOL    HW124833   4.731   3.247   6.032
 7978SOL    HW224834   4.664   3.288   5.889
 7979SOL     OW24835   3.437   6.858   4.352
 7979SOL    HW124836   3.379   6.895   4.424
 7979SOL    HW224837   3.478   6.933   4.300
 7980SOL     OW24838   3.469   6.278   0.871
 7980SOL    HW124839   3.487   6.376   0.864
 7980SOL    HW224840   3.540   6.234   0.926
 7981SOL     OW24841   1.179   5.057   2.983
 7981SOL    HW124842   1.101   5.084   3.040
 7981SOL    HW224843   1.228   5.139   2.952
 7982SOL     OW24844   6.564   3.216   0.870
 7982SOL    HW124845   6.553   3.130   0.820
 7982SOL    HW224846   6.619   3.280   0.816
 7983SOL     OW24847   5.089   2.227   2.745
 7983SOL    HW124848   5.031   2.303   2.776
 7983SOL    HW224849   5.046   2.140   2.771
 7984SOL     OW24850   0.403   2.181   2.179
 7984SOL    HW124851   0.501   2.168   2.168
 7984SOL    HW224852   0.376   2.156   2.272
 7985SOL     OW24853   0.055   1.623   1.935
 7985SOL    HW124854   0.118   1.673   1.995
 7985SOL    HW224855   6.978   1.643   1.961
 7986SOL     OW24856   3.795   0.957   6.695
 7986SOL    HW124857   3.857   1.035   6.693
 7986SOL    HW224858   3.819   0.897   6.771
 7987SOL     OW24859   0.658   3.119   4.634
 7987SOL    HW124860   0.608   3.173   4.567
 7987SOL    HW224861   0.755   3.119   4.612
 7988SOL     OW24862   2.964   1.688   4.869
 7988SOL    HW124863   2.922   1.734   4.948
 7988SOL    HW224864   3.003   1.601   4.898
 7989SOL     OW24865   2.976   2.651   5.332
 7989SOL    HW124866   2.961   2.625   5.427
 7989SOL    HW224867   2.972   2.751   5.324
 7990SOL     OW24868   1.215   2.269   4.919
 7990SOL    HW124869   1.286   2.228   4.861
 7990SOL    HW224870   1.219   2.369   4.911
 7991SOL     OW24871   0.648   3.022   5.686
 7991SOL    HW124872   0.651   2.923   5.684
 7991SOL    HW224873   0.611   3.053   5.774
 7992SOL     OW24874   2.699   0.917   0.590
 7992SOL    HW124875   2.641   0.844   0.552
 7992SOL    HW224876   2.714   0.987   0.521
 7993SOL     OW24877   1.947   6.427   6.990
 7993SOL    HW124878   1.896   6.503   6.950
 7993SOL    HW224879   2.044   6.450   6.994
 7994SOL     OW24880   5.958   0.975   3.494
 7994SOL    HW124881   6.002   0.887   3.478
 7994SOL    HW224882   5.862   0.961   3.518
 7995SOL     OW24883   3.103   5.038   3.388
 7995SOL    HW124884   3.158   4.978   3.330
 7995SOL    HW224885   3.149   5.052   3.475
 7996SOL     OW24886   3.958   6.808   5.544
 7996SOL    HW124887   3.860   6.824   5.546
 7996SOL    HW224888   4.006   6.893   5.568
 7997SOL     OW24889   5.693   2.443   1.295
 7997SOL    HW124890   5.727   2.501   1.221
 7997SOL    HW224891   5.704   2.347   1.270
 7998SOL     OW24892   6.155   5.105   0.091
 7998SOL    HW124893   6.121   5.128   0.000
 7998SOL    HW224894   6.178   5.189   0.141
 7999SOL     OW24895   2.202   0.419   5.496
 7999SOL    HW124896   2.258   0.489   5.540
 7999SOL    HW224897   2.256   0.371   5.426
 8000SOL     OW24898   6.105   7.016   5.429
 8000SOL    HW124899   6.107   0.054   5.512
 8000SOL    HW224900   6.166   6.937   5.440
 8001SOL     OW24901   1.627   6.987   1.340
 8001SOL    HW124902   1.664   6.992   1.247
 8001SOL    HW224903   1.686   6.929   1.396
 8002SOL     OW24904   5.968   2.891   4.996
 8002SOL    HW124905   6.007   2.806   4.960
 8002SOL    HW224906   5.880   2.871   5.041
 8003SOL     OW24907   3.488   4.878   3.140
 8003SOL    HW124908   3.568   4.911   3.088
 8003SOL    HW224909   3.492   4.913   3.233
 8004SOL     OW24910   2.084   3.799   2.669
 8004SOL    HW124911   1.998   3.833   2.708
 8004SOL    HW224912   2.081   3.811   2.570
 8005SOL     OW24913   3.065   0.673   1.556
 8005SOL    HW124914   2.983   0.616   1.571
 8005SOL    HW224915   3.143   0.613   1.539
 8006SOL     OW24916   3.128   5.976   0.598
 8006SOL    HW124917   3.053   5.951   0.659
 8006SOL    HW224918   3.168   5.893   0.559
 8007SOL     OW24919   0.449   0.286   4.435
 8007SOL    HW124920   0.509   0.339   4.495
 8007SOL    HW224921   0.394   0.223   4.489
 8008SOL     OW24922   6.064   6.895   0.774
 8008SOL    HW124923   5.968   6.895   0.747
 8008SOL    HW224924   6.084   6.978   0.827
 8009SOL     OW24925   6.949   6.662   3.765
 8009SOL    HW124926   0.029   6.648   3.786
 8009SOL    HW224927   6.915   6.584   3.713
 8010SOL     OW24928   2.043   2.518   6.761
 8010SOL    HW124929   2.131   2.525   6.809
 8010SOL    HW224930   2.045   2.575   6.679
 8011SOL     OW24931   3.362   2.331   0.443
 8011SOL    HW124932   3.291   2.399   0.462
 8011SOL    HW224933   3.355   2.256   0.508
 8012SOL     OW24934   2.536   6.523   1.679
 8012SOL    HW124935   2.491   6.436   1.661
 8012SOL    HW224936   2.589   6.551   1.599
 8013SOL     OW24937   6.428   4.037   4.904
 8013SOL    HW124938   6.380   4.009   4.986
 8013SOL    HW224939   6.369   4.026   4.824
 8014SOL     OW24940   2.192   6.722   0.151
 8014SOL    HW124941   2.205   6.643   0.091
 8014SOL    HW224942   2.252   6.713   0.231
 8015SOL     OW24943   2.353   2.936   0.177
 8015SOL    HW124944   2.261   2.907   0.151
 8015SOL    HW224945   2.407   2.952   0.095
 8016SOL     OW24946   4.070   6.846   0.495
 8016SOL    HW124947   3.992   6.904   0.471
 8016SOL    HW224948   4.147   6.903   0.523
 8017SOL     OW24949   5.843   4.811   4.917
 8017SOL    HW124950   5.848   4.904   4.881
 8017SOL    HW224951   5.901   4.750   4.862
 8018SOL     OW24952   5.535   1.945   4.883
 8018SOL    HW124953   5.544   1.980   4.977
 8018SOL    HW224954   5.615   1.891   4.860
 8019SOL     OW24955   2.967   5.893   0.791
 8019SOL    HW124956   3.041   5.837   0.828
 8019SOL    HW224957   2.967   5.982   0.837
 8020SOL     OW24958   5.061   5.148   0.032
 8020SOL    HW124959   5.080   5.169   6.953
 8020SOL    HW224960   5.001   5.218   0.070
 8021SOL     OW24961   0.857   0.581   0.993
 8021SOL    HW124962   0.837   0.490   1.030
 8021SOL    HW224963   0.838   0.581   0.894
 8022SOL     OW24964   4.197   6.541   3.169
 8022SOL    HW124965   4.181   6.444   3.187
 8022SOL    HW224966   4.151   6.568   3.084
 8023SOL     OW24967   5.893   6.408   2.966
 8023SOL    HW124968   5.901   6.500   2.928
 8023SOL    HW224969   5.889   6.342   2.891
 8024SOL     OW24970   4.673   5.076   5.122
 8024SOL    HW124971   4.736   5.012   5.166
 8024SOL    HW224972   4.602   5.025   5.074
 8025SOL     OW24973   4.093   5.754   6.750
 8025SOL    HW124974   4.054   5.747   6.659
 8025SOL    HW224975   4.164   5.684   6.761
 8026SOL     OW24976   1.372   2.998   0.784
 8026SOL    HW124977   1.463   2.966   0.808
 8026SOL    HW224978   1.344   2.957   0.697
 8027SOL     OW24979   4.841   1.911   5.193
 8027SOL    HW124980   4.782   1.940   5.268
 8027SOL    HW224981   4.868   1.990   5.139
 8028SOL     OW24982   5.500   4.657   6.898
 8028SOL    HW124983   5.590   4.613   6.901
 8028SOL    HW224984   5.491   4.721   6.975
 8029SOL     OW24985   4.023   4.042   0.754
 8029SOL    HW124986   3.960   3.976   0.714
 8029SOL    HW224987   3.972   4.123   0.783
 8030SOL     OW24988   5.984   4.314   6.509
 8030SOL    HW124989   5.903   4.348   6.462
 8030SOL    HW224990   5.975   4.330   6.607
 8031SOL     OW24991   3.771   5.371   1.462
 8031SOL    HW124992   3.750   5.458   1.417
 8031SOL    HW224993   3.688   5.335   1.504
 8032SOL     OW24994   5.543   3.929   5.759
 8032SOL    HW124995   5.494   3.871   5.693
 8032SOL    HW224996   5.557   3.877   5.844
 8033SOL     OW24997   6.117   2.584   6.892
 8033SOL    HW124998   6.038   2.604   6.950
 8033SOL    HW224999   6.178   2.521   6.941
 8034SOL     OW25000   5.524   0.023   4.955
 8034SOL    HW125001   5.588   0.031   4.879
 8034SOL    HW225002   5.498   0.114   4.988
 8035SOL     OW25003   5.503   0.060   6.556
 8035SOL    HW125004   5.423   0.061   6.616
 8035SOL    HW225005   5.576   0.114   6.597
 8036SOL     OW25006   1.738   4.597   2.007
 8036SOL    HW125007   1.769   4.501   2.003
 8036SOL    HW225008   1.651   4.605   1.959
 8037SOL     OW25009   1.596   2.828   1.342
 8037SOL    HW125010   1.595   2.749   1.280
 8037SOL    HW225011   1.690   2.858   1.356
 8038SOL     OW25012   0.269   2.437   4.446
 8038SOL    HW125013   0.245   2.532   4.426
 8038SOL    HW225014   0.351   2.411   4.395
 8039SOL     OW25015   2.429   6.978   3.275
 8039SOL    HW125016   2.491   7.015   3.343
 8039SOL    HW225017   2.344   6.949   3.319
 8040SOL     OW25018   0.138   5.952   1.116
 8040SOL    HW125019   0.230   5.988   1.129
 8040SOL    HW225020   0.139   5.853   1.130
 8041SOL     OW25021   4.429   1.223   0.397
 8041SOL    HW125022   4.494   1.289   0.362
 8041SOL    HW225023   4.339   1.240   0.357
 8042SOL     OW25024   3.097   3.105   1.629
 8042SOL    HW125025   3.157   3.065   1.698
 8042SOL    HW225026   3.002   3.084   1.651
 8043SOL     OW25027   2.299   6.731   1.646
 8043SOL    HW125028   2.346   6.652   1.685
 8043SOL    HW225029   2.245   6.776   1.717
 8044SOL     OW25030   2.941   3.767   1.622
 8044SOL    HW125031   2.953   3.695   1.690
 8044SOL    HW225032   3.013   3.835   1.633
 8045SOL     OW25033   5.314   2.739   2.907
 8045SOL    HW125034   5.389   2.800   2.933
 8045SOL    HW225035   5.250   2.729   2.984
 8046SOL     OW25036   6.521   5.133   6.030
 8046SOL    HW125037   6.423   5.150   6.030
 8046SOL    HW225038   6.541   5.053   6.088
 8047SOL     OW25039   3.418   6.228   4.827
 8047SOL    HW125040   3.481   6.163   4.786
 8047SOL    HW225041   3.468   6.292   4.885
 8048SOL     OW25042   6.468   0.126   5.459
 8048SOL    HW125043   6.414   0.209   5.478
 8048SOL    HW225044   6.526   0.142   5.378
 8049SOL     OW25045   1.437   6.230   0.731
 8049SOL    HW125046   1.484   6.318   0.730
 8049SOL    HW225047   1.501   6.157   0.707
 8050SOL     OW25048   1.904   2.942   1.248
 8050SOL    HW125049   1.884   2.988   1.162
 8050SOL    HW225050   1.929   2.847   1.229
 8051SOL     OW25051   4.672   0.798   3.680
 8051SOL    HW125052   4.605   0.844   3.738
 8051SOL    HW225053   4.641   0.800   3.585
 8052SOL     OW25054   2.757   1.393   2.868
 8052SOL    HW125055   2.833   1.453   2.843
 8052SOL    HW225056   2.788   1.326   2.935
 8053SOL     OW25057   3.751   3.592   2.349
 8053SOL    HW125058   3.825   3.637   2.299
 8053SOL    HW225059   3.685   3.660   2.379
 8054SOL     OW25060   4.185   6.513   4.770
 8054SOL    HW125061   4.217   6.607   4.781
 8054SOL    HW225062   4.086   6.510   4.784
 8055SOL     OW25063   1.726   6.654   6.293
 8055SOL    HW125064   1.678   6.664   6.206
 8055SOL    HW225065   1.810   6.707   6.291
 8056SOL     OW25066   4.264   1.618   2.661
 8056SOL    HW125067   4.314   1.657   2.584
 8056SOL    HW225068   4.325   1.561   2.716
 8057SOL     OW25069   3.170   6.637   2.876
 8057SOL    HW125070   3.256   6.667   2.835
 8057SOL    HW225071   3.141   6.703   2.945
 8058SOL     OW25072   2.900   1.238   2.484
 8058SOL    HW125073   2.808   1.217   2.517
 8058SOL    HW225074   2.945   1.153   2.456
 8059SOL     OW25075   2.976   1.560   4.175
 8059SOL    HW125076   2.998   1.647   4.219
 8059SOL    HW225077   2.887   1.565   4.131
 8060SOL     OW25078   0.201   1.175   4.416
 8060SOL    HW125079   0.179   1.083   4.385
 8060SOL    HW225080   0.244   1.226   4.342
 8061SOL     OW25081   6.923   5.150   2.487
 8061SOL    HW125082   6.883   5.066   2.524
 8061SOL    HW225083   0.005   5.140   2.483
 8062SOL     OW25084   1.990   4.055   3.329
 8062SOL    HW125085   1.940   4.134   3.292
 8062SOL    HW225086   2.037   4.082   3.413
 8063SOL     OW25087   3.282   3.050   6.780
 8063SOL    HW125088   3.366   2.995   6.774
 8063SOL    HW225089   3.272   3.084   6.873
 8064SOL     OW25090   6.921   3.695   0.191
 8064SOL    HW125091   6.830   3.723   0.158
 8064SOL    HW225092   6.935   3.732   0.283
 8065SOL     OW25093   4.915   0.366   4.873
 8065SOL    HW125094   4.949   0.278   4.840
 8065SOL    HW225095   4.830   0.352   4.923
 8066SOL     OW25096   1.855   0.665   1.650
 8066SOL    HW125097   1.789   0.688   1.578
 8066SOL    HW225098   1.947   0.694   1.622
 8067SOL     OW25099   5.002   2.438   2.358
 8067SOL    HW125100   5.055   2.375   2.414
 8067SOL    HW225101   4.923   2.390   2.320
 8068SOL     OW25102   1.006   4.226   4.667
 8068SOL    HW125103   1.017   4.201   4.571
 8068SOL    HW225104   0.962   4.151   4.717
 8069SOL     OW25105   1.119   6.733   1.787
 8069SOL    HW125106   1.049   6.783   1.837
 8069SOL    HW225107   1.193   6.795   1.762
 8070SOL     OW25108   3.892   6.811   1.074
 8070SOL    HW125109   3.972   6.861   1.041
 8070SOL    HW225110   3.813   6.872   1.074
 8071SOL     OW25111   3.784   6.316   6.700
 8071SOL    HW125112   3.692   6.356   6.695
 8071SOL    HW225113   3.844   6.362   6.634
 8072SOL     OW25114   5.209   1.268   0.300
 8072SOL    HW125115   5.239   1.191   0.243
 8072SOL    HW225116   5.258   1.351   0.271
 8073SOL     OW25117   4.141   6.280   5.890
 8073SOL    HW125118   4.080   6.202   5.902
 8073SOL    HW225119   4.221   6.269   5.949
 8074SOL     OW25120   3.611   3.683   0.067
 8074SOL    HW125121   3.516   3.661   0.090
 8074SOL    HW225122   3.672   3.640   0.133
 8075SOL     OW25123   0.115   1.818   3.355
 8075SOL    HW125124   0.140   1.914   3.340
 8075SOL    HW225125   0.047   1.790   3.287
 8076SOL     OW25126   6.246   2.916   6.039
 8076SOL    HW125127   6.151   2.886   6.034
 8076SOL    HW225128   6.265   2.977   5.962
 8077SOL     OW25129   1.729   0.442   1.374
 8077SOL    HW125130   1.777   0.527   1.351
 8077SOL    HW225131   1.668   0.458   1.452
 8078SOL     OW25132   6.253   3.304   0.556
 8078SOL    HW125133   6.163   3.259   0.562
 8078SOL    HW225134   6.324   3.237   0.579
 8079SOL     OW25135   6.561   2.388   2.631
 8079SOL    HW125136   6.541   2.465   2.691
 8079SOL    HW225137   6.650   2.402   2.586
 8080SOL     OW25138   3.490   4.839   6.956
 8080SOL    HW125139   3.486   4.851   0.037
 8080SOL    HW225140   3.448   4.917   6.910
 8081SOL     OW25141   5.992   0.971   5.313
 8081SOL    HW125142   5.930   1.002   5.242
 8081SOL    HW225143   5.944   0.968   5.401
 8082SOL     OW25144   7.012   2.909   3.738
 8082SOL    HW125145   6.955   2.879   3.662
 8082SOL    HW225146   0.003   3.009   3.735
 8083SOL     OW25147   4.869   2.330   4.162
 8083SOL    HW125148   4.959   2.309   4.199
 8083SOL    HW225149   4.828   2.405   4.214
 8084SOL     OW25150   6.813   0.390   1.260
 8084SOL    HW125151   6.865   0.473   1.240
 8084SOL    HW225152   6.862   0.310   1.225
 8085SOL     OW25153   5.562   1.145   1.049
 8085SOL    HW125154   5.573   1.117   1.144
 8085SOL    HW225155   5.612   1.230   1.033
 8086SOL     OW25156   3.379   0.171   5.435
 8086SOL    HW125157   3.387   0.270   5.433
 8086SOL    HW225158   3.419   0.136   5.519
 8087SOL     OW25159   2.797   2.241   1.542
 8087SOL    HW125160   2.710   2.290   1.549
 8087SOL    HW225161   2.872   2.305   1.559
 8088SOL     OW25162   4.459   0.941   2.914
 8088SOL    HW125163   4.452   1.034   2.949
 8088SOL    HW225164   4.367   0.903   2.902
 8089SOL     OW25165   6.144   2.851   6.931
 8089SOL    HW125166   6.155   2.759   6.892
 8089SOL    HW225167   6.212   2.912   6.892
 8090SOL     OW25168   4.182   1.922   5.396
 8090SOL    HW125169   4.219   1.833   5.423
 8090SOL    HW225170   4.241   1.994   5.433
 8091SOL     OW25171   3.076   4.859   5.791
 8091SOL    HW125172   3.056   4.948   5.749
 8091SOL    HW225173   3.171   4.857   5.821
 8092SOL     OW25174   1.493   1.474   4.718
 8092SOL    HW125175   1.586   1.464   4.754
 8092SOL    HW225176   1.496   1.505   4.624
 8093SOL     OW25177   5.476   6.136   1.468
 8093SOL    HW125178   5.418   6.208   1.507
 8093SOL    HW225179   5.532   6.096   1.540
 8094SOL     OW25180   0.930   4.119   5.795
 8094SOL    HW125181   0.911   4.217   5.792
 8094SOL    HW225182   0.848   4.068   5.769
 8095SOL     OW25183   5.149   3.628   4.061
 8095SOL    HW125184   5.063   3.583   4.038
 8095SOL    HW225185   5.216   3.560   4.089
 8096SOL     OW25186   3.567   6.307   1.535
 8096SOL    HW125187   3.513   6.389   1.517
 8096SOL    HW225188   3.618   6.318   1.621
 8097SOL     OW25189   5.150   0.990   3.720
 8097SOL    HW125190   5.080   1.003   3.649
 8097SOL    HW225191   5.223   0.932   3.684
 8098SOL     OW25192   2.796   6.676   3.724
 8098SOL    HW125193   2.702   6.670   3.690
 8098SOL    HW225194   2.808   6.762   3.773
 8099SOL     OW25195   4.777   6.446   4.949
 8099SOL    HW125196   4.836   6.424   5.027
 8099SOL    HW225197   4.733   6.362   4.916
 8100SOL     OW25198   0.368   6.692   1.103
 8100SOL    HW125199   0.394   6.774   1.052
 8100SOL    HW225200   0.269   6.680   1.100
 8101SOL     OW25201   1.495   6.105   3.342
 8101SOL    HW125202   1.517   6.199   3.314
 8101SOL    HW225203   1.566   6.043   3.309
 8102SOL     OW25204   6.822   6.129   5.977
 8102SOL    HW125205   6.909   6.132   6.026
 8102SOL    HW225206   6.776   6.043   5.995
 8103SOL     OW25207   3.343   1.251   2.446
 8103SOL    HW125208   3.396   1.232   2.363
 8103SOL    HW225209   3.331   1.350   2.456
 8104SOL     OW25210   2.732   6.667   6.264
 8104SOL    HW125211   2.661   6.656   6.333
 8104SOL    HW225212   2.817   6.696   6.308
 8105SOL     OW25213   2.795   2.048   3.834
 8105SOL    HW125214   2.766   2.057   3.930
 8105SOL    HW225215   2.801   2.139   3.793
 8106SOL     OW25216   1.315   4.066   4.296
 8106SOL    HW125217   1.284   4.149   4.342
 8106SOL    HW225218   1.400   4.086   4.246
 8107SOL     OW25219   1.992   6.377   6.135
 8107SOL    HW125220   1.908   6.350   6.088
 8107SOL    HW225221   1.968   6.438   6.211
 8108SOL     OW25222   0.882   3.196   4.215
 8108SOL    HW125223   0.870   3.160   4.307
 8108SOL    HW225224   0.850   3.129   4.148
 8109SOL     OW25225   1.960   5.427   5.032
 8109SOL    HW125226   1.889   5.358   5.046
 8109SOL    HW225227   2.018   5.401   4.956
 8110SOL     OW25228   2.205   5.115   0.390
 8110SOL    HW125229   2.295   5.126   0.432
 8110SOL    HW225230   2.154   5.044   0.439
 8111SOL     OW25231   2.583   5.382   4.103
 8111SOL    HW125232   2.490   5.367   4.070
 8111SOL    HW225233   2.604   5.316   4.175
 8112SOL     OW25234   3.202   0.765   4.470
 8112SOL    HW125235   3.125   0.793   4.412
 8112SOL    HW225236   3.284   0.755   4.414
 8113SOL     OW25237   3.560   2.232   6.136
 8113SOL    HW125238   3.479   2.290   6.144
 8113SOL    HW225239   3.639   2.278   6.176
 8114SOL     OW25240   2.560   2.986   1.655
 8114SOL    HW125241   2.514   3.070   1.685
 8114SOL    HW225242   2.527   2.909   1.710
 8115SOL     OW25243   3.712   1.352   1.320
 8115SOL    HW125244   3.700   1.441   1.277
 8115SOL    HW225245   3.797   1.310   1.287
 8116SOL     OW25246   5.847   0.665   5.237
 8116SOL    HW125247   5.806   0.681   5.147
 8116SOL    HW225248   5.853   0.752   5.286
 8117SOL     OW25249   1.676   1.743   5.566
 8117SOL    HW125250   1.714   1.752   5.474
 8117SOL    HW225251   1.577   1.761   5.564
 8118SOL     OW25252   0.830   3.576   4.884
 8118SOL    HW125253   0.756   3.617   4.831
 8118SOL    HW225254   0.915   3.626   4.865
 8119SOL     OW25255   1.037   6.360   2.431
 8119SOL    HW125256   1.086   6.274   2.438
 8119SOL    HW225257   0.980   6.360   2.349
 8120SOL     OW25258   4.275   3.948   1.698
 8120SOL    HW125259   4.296   3.977   1.604
 8120SOL    HW225260   4.302   4.020   1.762
 8121SOL     OW25261   5.997   0.418   2.971
 8121SOL    HW125262   5.901   0.392   2.959
 8121SOL    HW225263   6.037   0.438   2.882
 8122SOL     OW25264   6.771   6.252   2.190
 8122SOL    HW125265   6.811   6.162   2.170
 8122SOL    HW225266   6.766   6.264   2.289
 8123SOL     OW25267   1.270   6.575   7.003
 8123SOL    HW125268   1.326   6.611   6.928
 8123SOL    HW225269   1.174   6.573   6.975
 8124SOL     OW25270   0.818   5.817   2.634
 8124SOL    HW125271   0.826   5.802   2.733
 8124SOL    HW225272   0.877   5.753   2.586
 8125SOL     OW25273   5.667   5.310   3.193
 8125SOL    HW125274   5.611   5.389   3.220
 8125SOL    HW225275   5.763   5.330   3.211
 8126SOL     OW25276   5.542   4.876   2.340
 8126SOL    HW125277   5.495   4.796   2.302
 8126SOL    HW225278   5.635   4.850   2.365
 8127SOL     OW25279   2.431   4.582   6.968
 8127SOL    HW125280   2.444   4.540   6.878
 8127SOL    HW225281   2.488   4.663   6.975
 8128SOL     OW25282   3.981   2.248   5.225
 8128SOL    HW125283   4.058   2.219   5.281
 8128SOL    HW225284   3.997   2.341   5.192
 8129SOL     OW25285   4.897   0.317   6.599
 8129SOL    HW125286   4.973   0.280   6.546
 8129SOL    HW225287   4.887   0.263   6.683
 8130SOL     OW25288   2.202   6.489   0.042
 8130SOL    HW125289   2.182   6.404   0.090
 8130SOL    HW225290   2.285   6.478   7.006
 8131SOL     OW25291   2.019   1.486   0.506
 8131SOL    HW125292   1.939   1.426   0.517
 8131SOL    HW225293   1.997   1.560   0.443
 8132SOL     OW25294   6.296   4.996   4.063
 8132SOL    HW125295   6.201   4.966   4.059
 8132SOL    HW225296   6.303   5.077   4.122
 8133SOL     OW25297   1.121   5.503   1.880
 8133SOL    HW125298   1.176   5.547   1.809
 8133SOL    HW225299   1.174   5.433   1.926
 8134SOL     OW25300   2.192   2.340   3.012
 8134SOL    HW125301   2.212   2.437   2.996
 8134SOL    HW225302   2.112   2.314   2.958
 8135SOL     OW25303   4.339   5.953   2.154
 8135SOL    HW125304   4.259   5.971   2.212
 8135SOL    HW225305   4.392   6.037   2.144
 8136SOL     OW25306   4.650   5.753   1.154
 8136SOL    HW125307   4.594   5.766   1.072
 8136SOL    HW225308   4.595   5.769   1.235
 8137SOL     OW25309   2.216   4.047   5.364
 8137SOL    HW125310   2.230   4.007   5.455
 8137SOL    HW225311   2.297   4.029   5.308
 8138SOL     OW25312   4.906   1.005   3.606
 8138SOL    HW125313   4.881   0.987   3.511
 8138SOL    HW225314   4.851   0.948   3.667
 8139SOL     OW25315   1.680   2.559   3.838
 8139SOL    HW125316   1.752   2.543   3.771
 8139SOL    HW225317   1.662   2.473   3.887
 8140SOL     OW25318   4.246   0.475   0.953
 8140SOL    HW125319   4.341   0.489   0.924
 8140SOL    HW225320   4.193   0.558   0.934
 8141SOL     OW25321   4.863   1.095   4.833
 8141SOL    HW125322   4.847   1.184   4.789
 8141SOL    HW225323   4.895   1.110   4.926
 8142SOL     OW25324   1.883   6.084   0.770
 8142SOL    HW125325   1.960   6.147   0.781
 8142SOL    HW225326   1.916   5.990   0.773
 8143SOL     OW25327   6.391   4.622   0.260
 8143SOL    HW125328   6.345   4.698   0.306
 8143SOL    HW225329   6.449   4.658   0.187
 8144SOL     OW25330   0.000   4.942   6.292
 8144SOL    HW125331   7.000   4.968   6.387
 8144SOL    HW225332   7.017   4.842   6.285
 8145SOL     OW25333   5.124   5.906   6.923
 8145SOL    HW125334   5.067   5.920   6.842
 8145SOL    HW225335   5.070   5.863   6.995
 8146SOL     OW25336   6.074   0.513   4.621
 8146SOL    HW125337   6.034   0.468   4.541
 8146SOL    HW225338   6.117   0.445   4.680
 8147SOL     OW25339   1.530   0.820   5.962
 8147SOL    HW125340   1.627   0.847   5.960
 8147SOL    HW225341   1.490   0.834   5.872
 8148SOL     OW25342   4.503   4.625   0.176
 8148SOL    HW125343   4.489   4.585   0.085
 8148SOL    HW225344   4.472   4.720   0.176
 8149SOL     OW25345   1.358   5.831   5.090
 8149SOL    HW125346   1.421   5.867   5.022
 8149SOL    HW225347   1.348   5.732   5.077
 8150SOL     OW25348   0.501   3.017   0.991
 8150SOL    HW125349   0.451   3.012   0.904
 8150SOL    HW225350   0.480   3.104   1.036
 8151SOL     OW25351   6.290   5.538   3.305
 8151SOL    HW125352   6.286   5.590   3.220
 8151SOL    HW225353   6.222   5.465   3.303
 8152SOL     OW25354   4.890   1.570   3.555
 8152SOL    HW125355   4.934   1.493   3.601
 8152SOL    HW225356   4.929   1.581   3.463
 8153SOL     OW25357   0.298   1.178   2.909
 8153SOL    HW125358   0.296   1.224   2.998
 8153SOL    HW225359   0.349   1.092   2.917
 8154SOL     OW25360   1.939   0.538   3.288
 8154SOL    HW125361   1.864   0.473   3.279
 8154SOL    HW225362   1.934   0.607   3.215
 8155SOL     OW25363   1.796   5.401   2.703
 8155SOL    HW125364   1.741   5.330   2.748
 8155SOL    HW225365   1.798   5.482   2.761
 8156SOL     OW25366   6.867   5.287   1.644
 8156SOL    HW125367   6.831   5.371   1.603
 8156SOL    HW225368   6.950   5.309   1.696
 8157SOL     OW25369   0.266   3.115   5.639
 8157SOL    HW125370   0.357   3.157   5.640
 8157SOL    HW225371   0.208   3.164   5.574
 8158SOL     OW25372   5.662   5.160   6.437
 8158SOL    HW125373   5.595   5.234   6.433
 8158SOL    HW225374   5.635   5.088   6.373
 8159SOL     OW25375   3.414   6.399   5.556
 8159SOL    HW125376   3.327   6.447   5.559
 8159SOL    HW225377   3.489   6.465   5.557
 8160SOL     OW25378   4.890   1.221   3.317
 8160SOL    HW125379   4.981   1.221   3.274
 8160SOL    HW225380   4.860   1.126   3.329
 8161SOL     OW25381   5.602   3.115   1.261
 8161SOL    HW125382   5.689   3.165   1.255
 8161SOL    HW225383   5.561   3.108   1.170
 8162SOL     OW25384   0.269   5.223   6.150
 8162SOL    HW125385   0.173   5.216   6.179
 8162SOL    HW225386   0.277   5.296   6.082
 8163SOL     OW25387   4.497   4.585   5.417
 8163SOL    HW125388   4.449   4.506   5.454
 8163SOL    HW225389   4.472   4.666   5.469
 8164SOL     OW25390   4.743   1.730   0.478
 8164SOL    HW125391   4.648   1.732   0.446
 8164SOL    HW225392   4.744   1.728   0.578
 8165SOL     OW25393   6.991   1.203   6.731
 8165SOL    HW125394   6.953   1.236   6.818
 8165SOL    HW225395   6.969   1.106   6.720
 8166SOL     OW25396   1.896   1.903   4.836
 8166SOL    HW125397   1.905   1.850   4.921
 8166SOL    HW225398   1.856   1.993   4.857
 8167SOL     OW25399   0.788   2.788   4.302
 8167SOL    HW125400   0.747   2.880   4.299
 8167SOL    HW225401   0.887   2.796   4.297
 8168SOL     OW25402   2.899   1.138   2.079
 8168SOL    HW125403   2.920   1.042   2.093
 8168SOL    HW225404   2.851   1.174   2.159
 8169SOL     OW25405   5.383   2.348   0.633
 8169SOL    HW125406   5.426   2.263   0.664
 8169SOL    HW225407   5.428   2.426   0.677
 8170SOL     OW25408   6.141   5.112   2.487
 8170SOL    HW125409   6.189   5.056   2.554
 8170SOL    HW225410   6.201   5.185   2.455
 8171SOL     OW25411   1.862   0.889   0.795
 8171SOL    HW125412   1.870   0.814   0.861
 8171SOL    HW225413   1.770   0.928   0.801
 8172SOL     OW25414   0.483   2.761   1.111
 8172SOL    HW125415   0.494   2.839   1.050
 8172SOL    HW225416   0.566   2.748   1.165
 8173SOL     OW25417   5.881   1.279   2.391
 8173SOL    HW125418   5.792   1.323   2.402
 8173SOL    HW225419   5.940   1.304   2.467
 8174SOL     OW25420   2.429   5.047   2.716
 8174SOL    HW125421   2.492   5.015   2.645
 8174SOL    HW225422   2.407   5.143   2.699
 8175SOL     OW25423   0.674   1.677   4.612
 8175SOL    HW125424   0.650   1.646   4.704
 8175SOL    HW225425   0.694   1.598   4.554
 8176SOL     OW25426   2.632   3.932   0.616
 8176SOL    HW125427   2.583   3.934   0.703
 8176SOL    HW225428   2.726   3.964   0.630
 8177SOL     OW25429   3.819   1.019   3.158
 8177SOL    HW125430   3.780   1.111   3.159
 8177SOL    HW225431   3.822   0.983   3.252
 8178SOL     OW25432   2.203   6.548   1.058
 8178SOL    HW125433   2.239   6.464   1.018
 8178SOL    HW225434   2.244   6.561   1.149
 8179SOL     OW25435   5.631   1.213   3.605
 8179SOL    HW125436   5.635   1.157   3.688
 8179SOL    HW225437   5.615   1.153   3.526
 8180SOL     OW25438   4.872   6.300   7.016
 8180SOL    HW125439   4.852   6.398   7.004
 8180SOL    HW225440   4.854   6.273   0.093
 8181SOL     OW25441   0.771   1.020   0.686
 8181SOL    HW125442   0.817   0.950   0.739
 8181SOL    HW225443   0.678   1.032   0.720
 8182SOL     OW25444   3.024   3.537   4.897
 8182SOL    HW125445   3.026   3.618   4.839
 8182SOL    HW225446   3.109   3.530   4.949
 8183SOL     OW25447   0.374   0.247   4.884
 8183SOL    HW125448   0.332   0.294   4.962
 8183SOL    HW225449   0.468   0.222   4.907
 8184SOL     OW25450   0.012   6.081   6.696
 8184SOL    HW125451   7.011   6.008   6.630
 8184SOL    HW225452   6.955   6.147   6.695
 8185SOL     OW25453   0.820   6.401   6.962
 8185SOL    HW125454   0.780   6.380   0.033
 8185SOL    HW225455   0.792   6.332   6.895
 8186SOL     OW25456   1.154   5.705   6.815
 8186SOL    HW125457   1.186   5.782   6.760
 8186SOL    HW225458   1.111   5.740   6.898
 8187SOL     OW25459   0.271   0.985   5.720
 8187SOL    HW125460   0.301   1.040   5.643
 8187SOL    HW225461   0.196   0.924   5.691
 8188SOL     OW25462   2.546   2.342   3.510
 8188SOL    HW125463   2.645   2.326   3.510
 8188SOL    HW225464   2.519   2.388   3.594
 8189SOL     OW25465   5.495   4.673   3.586
 8189SOL    HW125466   5.576   4.619   3.609
 8189SOL    HW225467   5.463   4.648   3.495
 8190SOL     OW25468   6.240   3.530   3.389
 8190SOL    HW125469   6.329   3.524   3.435
 8190SOL    HW225470   6.253   3.513   3.291
 8191SOL     OW25471   3.499   5.462   0.832
 8191SOL    HW125472   3.524   5.365   0.826
 8191SOL    HW225473   3.489   5.487   0.928
 8192SOL     OW25474   1.208   4.889   3.660
 8192SOL    HW125475   1.185   4.878   3.564
 8192SOL    HW225476   1.125   4.907   3.712
 8193SOL     OW25477   0.698   4.267   4.810
 8193SOL    HW125478   0.756   4.324   4.751
 8193SOL    HW225479   0.753   4.227   4.883
 8194SOL     OW25480   5.031   6.454   1.698
 8194SOL    HW125481   5.027   6.424   1.603
 8194SOL    HW225482   5.106   6.406   1.745
 8195SOL     OW25483   5.402   6.175   3.154
 8195SOL    HW125484   5.357   6.201   3.068
 8195SOL    HW225485   5.419   6.257   3.209
 8196SOL     OW25486   5.135   0.379   0.387
 8196SOL    HW125487   5.047   0.379   0.434
 8196SOL    HW225488   5.164   0.473   0.370
 8197SOL     OW25489   4.745   1.644   2.644
 8197SOL    HW125490   4.704   1.597   2.566
 8197SOL    HW225491   4.845   1.639   2.637
 8198SOL     OW25492   1.850   0.892   2.712
 8198SOL    HW125493   1.908   0.868   2.790
 8198SOL    HW225494   1.809   0.809   2.674
 8199SOL     OW25495   5.313   2.958   5.847
 8199SOL    HW125496   5.397   2.924   5.889
 8199SOL    HW225497   5.283   2.894   5.777
 8200SOL     OW25498   4.224   2.704   1.306
 8200SOL    HW125499   4.282   2.702   1.388
 8200SOL    HW225500   4.267   2.651   1.233
 8201SOL     OW25501   6.787   6.870   5.396
 8201SOL    HW125502   6.770   6.798   5.328
 8201SOL    HW225503   6.730   6.855   5.476
 8202SOL     OW25504   0.889   6.211   1.921
 8202SOL    HW125505   0.894   6.302   1.962
 8202SOL    HW225506   0.978   6.186   1.884
 8203SOL     OW25507   1.128   3.557   1.464
 8203SOL    HW125508   1.054   3.577   1.400
 8203SOL    HW225509   1.120   3.462   1.494
 8204SOL     OW25510   3.829   2.975   1.215
 8204SOL    HW125511   3.908   2.931   1.259
 8204SOL    HW225512   3.780   2.906   1.161
 8205SOL     OW25513   1.443   3.523   1.072
 8205SOL    HW125514   1.478   3.502   0.980
 8205SOL    HW225515   1.466   3.617   1.095
 8206SOL     OW25516   3.585   0.709   0.100
 8206SOL    HW125517   3.596   0.793   0.153
 8206SOL    HW225518   3.555   0.732   0.007
 8207SOL     OW25519   3.899   3.022   4.835
 8207SOL    HW125520   3.946   3.107   4.859
 8207SOL    HW225521   3.899   2.960   4.913
 8208SOL     OW25522   2.021   0.895   0.562
 8208SOL    HW125523   1.957   0.900   0.639
 8208SOL    HW225524   1.997   0.965   0.494
 8209SOL     OW25525   6.354   0.936   5.472
 8209SOL    HW125526   6.297   0.983   5.539
 8209SOL    HW225527   6.414   0.871   5.519
 8210SOL     OW25528   1.259   2.839   0.026
 8210SOL    HW125529   1.233   2.768   0.093
 8210SOL    HW225530   1.321   2.904   0.070
 8211SOL     OW25531   3.132   4.574   0.852
 8211SOL    HW125532   3.119   4.501   0.919
 8211SOL    HW225533   3.224   4.568   0.813
 8212SOL     OW25534   1.471   2.556   3.337
 8212SOL    HW125535   1.530   2.505   3.399
 8212SOL    HW225536   1.523   2.631   3.295
 8213SOL     OW25537   0.225   5.490   1.479
 8213SOL    HW125538   0.221   5.445   1.389
 8213SOL    HW225539   0.264   5.426   1.546
 8214SOL     OW25540   4.950   4.386   3.311
 8214SOL    HW125541   4.949   4.412   3.215
 8214SOL    HW225542   4.873   4.324   3.330
 8215SOL     OW25543   3.251   5.158   4.584
 8215SOL    HW125544   3.213   5.068   4.608
 8215SOL    HW225545   3.177   5.219   4.555
 8216SOL     OW25546   4.397   4.623   3.639
 8216SOL    HW125547   4.474   4.674   3.599
 8216SOL    HW225548   4.431   4.567   3.715
 8217SOL     OW25549   2.546   6.422   0.366
 8217SOL    HW125550   2.536   6.355   0.439
 8217SOL    HW225551   2.616   6.489   0.391
 8218SOL     OW25552   0.615   1.340   0.105
 8218SOL    HW125553   0.581   1.329   0.012
 8218SOL    HW225554   0.715   1.348   0.103
 8219SOL     OW25555   5.985   2.033   6.557
 8219SOL    HW125556   6.080   2.064   6.556
 8219SOL    HW225557   5.977   1.951   6.614
 8220SOL     OW25558   3.571   3.343   3.085
 8220SOL    HW125559   3.476   3.364   3.060
 8220SOL    HW225560   3.631   3.413   3.045
 8221SOL     OW25561   5.254   5.915   3.605
 8221SOL    HW125562   5.208   5.902   3.517
 8221SOL    HW225563   5.253   6.012   3.629
 8222SOL     OW25564   5.639   1.571   2.185
 8222SOL    HW125565   5.658   1.532   2.275
 8222SOL    HW225566   5.719   1.624   2.154
 8223SOL     OW25567   0.245   4.715   5.855
 8223SOL    HW125568   0.327   4.695   5.908
 8223SOL    HW225569   0.171   4.655   5.884
 8224SOL     OW25570   1.235   3.080   3.954
 8224SOL    HW125571   1.251   3.144   3.879
 8224SOL    HW225572   1.322   3.049   3.991
 8225SOL     OW25573   4.571   1.361   6.853
 8225SOL    HW125574   4.657   1.399   6.818
 8225SOL    HW225575   4.579   1.347   6.952
 8226SOL     OW25576   5.197   0.934   0.667
 8226SOL    HW125577   5.130   1.008   0.656
 8226SOL    HW225578   5.149   0.846   0.672
 8227SOL     OW25579   6.348   2.767   3.509
 8227SOL    HW125580   6.361   2.669   3.499
 8227SOL    HW225581   6.291   2.801   3.435
 8228SOL     OW25582   6.531   2.888   4.856
 8228SOL    HW125583   6.458   2.886   4.924
 8228SOL    HW225584   6.618   2.863   4.900
 8229SOL     OW25585   3.665   5.120   6.992
 8229SOL    HW125586   3.748   5.070   6.967
 8229SOL    HW225587   3.590   5.091   6.933
 8230SOL     OW25588   5.507   0.402   4.398
 8230SOL    HW125589   5.408   0.416   4.406
 8230SOL    HW225590   5.530   0.309   4.425
 8231SOL     OW25591   5.363   5.594   0.712
 8231SOL    HW125592   5.295   5.649   0.762
 8231SOL    HW225593   5.372   5.504   0.755
 8232SOL     OW25594   3.704   1.846   6.917
 8232SOL    HW125595   3.790   1.804   6.945
 8232SOL    HW225596   3.720   1.903   6.836
 8233SOL     OW25597   0.784   5.258   6.197
 8233SOL    HW125598   0.709   5.205   6.158
 8233SOL    HW225599   0.811   5.219   6.285
 8234SOL     OW25600   2.966   2.680   6.868
 8234SOL    HW125601   3.014   2.592   6.875
 8234SOL    HW225602   3.027   2.748   6.827
 8235SOL     OW25603   4.149   3.490   1.309
 8235SOL    HW125604   4.178   3.546   1.387
 8235SOL    HW225605   4.049   3.485   1.307
 8236SOL     OW25606   6.399   2.870   0.169
 8236SOL    HW125607   6.471   2.853   0.102
 8236SOL    HW225608   6.319   2.908   0.122
 8237SOL     OW25609   3.823   5.931   5.451
 8237SOL    HW125610   3.837   6.024   5.416
 8237SOL    HW225611   3.817   5.933   5.550
 8238SOL     OW25612   2.004   3.326   6.520
 8238SOL    HW125613   1.949   3.390   6.467
 8238SOL    HW225614   2.085   3.301   6.467
 8239SOL     OW25615   6.924   1.469   5.587
 8239SOL    HW125616   6.881   1.507   5.669
 8239SOL    HW225617   6.898   1.524   5.507
 8240SOL     OW25618   3.632   4.043   2.889
 8240SOL    HW125619   3.717   4.052   2.942
 8240SOL    HW225620   3.653   4.053   2.792
 8241SOL     OW25621   3.469   6.866   0.200
 8241SOL    HW125622   3.408   6.944   0.202
 8241SOL    HW225623   3.543   6.883   0.135
 8242SOL     OW25624   0.878   4.823   5.537
 8242SOL    HW125625   0.914   4.740   5.494
 8242SOL    HW225626   0.780   4.812   5.555
 8243SOL     OW25627   0.514   3.227   5.579
 8243SOL    HW125628   0.593   3.194   5.632
 8243SOL    HW225629   0.518   3.188   5.487
 8244SOL     OW25630   0.873   6.361   3.929
 8244SOL    HW125631   0.957   6.311   3.953
 8244SOL    HW225632   0.839   6.408   4.010
 8245SOL     OW25633   4.359   1.902   1.070
 8245SOL    HW125634   4.394   1.909   1.164
 8245SOL    HW225635   4.424   1.946   1.008
 8246SOL     OW25636   5.618   3.370   6.298
 8246SOL    HW125637   5.646   3.443   6.360
 8246SOL    HW225638   5.576   3.410   6.216
 8247SOL     OW25639   0.973   0.079   1.658
 8247SOL    HW125640   1.024   0.082   1.573
 8247SOL    HW225641   1.036   0.081   1.736
 8248SOL     OW25642   5.440   4.404   3.805
 8248SOL    HW125643   5.512   4.469   3.782
 8248SOL    HW225644   5.423   4.406   3.903
 8249SOL     OW25645   1.874   4.665   3.822
 8249SOL    HW125646   1.917   4.596   3.879
 8249SOL    HW225647   1.786   4.691   3.861
 8250SOL     OW25648   4.034   3.848   2.938
 8250SOL    HW125649   4.067   3.769   2.990
 8250SOL    HW225650   4.102   3.921   2.944
 8251SOL     OW25651   5.566   1.593   5.233
 8251SOL    HW125652   5.603   1.516   5.180
 8251SOL    HW225653   5.470   1.575   5.254
 8252SOL     OW25654   1.894   2.752   5.895
 8252SOL    HW125655   1.897   2.773   5.797
 8252SOL    HW225656   1.974   2.790   5.941
 8253SOL     OW25657   3.330   2.829   5.305
 8253SOL    HW125658   3.292   2.736   5.302
 8253SOL    HW225659   3.329   2.862   5.399
 8254SOL     OW25660   3.997   4.822   3.752
 8254SOL    HW125661   4.080   4.875   3.736
 8254SOL    HW225662   3.988   4.801   3.850
 8255SOL     OW25663   4.312   5.601   3.948
 8255SOL    HW125664   4.240   5.564   3.890
 8255SOL    HW225665   4.272   5.634   4.034
 8256SOL     OW25666   5.856   1.390   4.305
 8256SOL    HW125667   5.950   1.423   4.309
 8256SOL    HW225668   5.829   1.354   4.395
 8257SOL     OW25669   5.578   4.877   3.014
 8257SOL    HW125670   5.643   4.929   3.070
 8257SOL    HW225671   5.575   4.783   3.045
 8258SOL     OW25672   3.964   1.620   0.350
 8258SOL    HW125673   3.884   1.616   0.290
 8258SOL    HW225674   3.940   1.583   0.440
 8259SOL     OW25675   3.496   2.078   3.574
 8259SOL    HW125676   3.403   2.077   3.610
 8259SOL    HW225677   3.558   2.034   3.639
 8260SOL     OW25678   3.102   6.705   0.645
 8260SOL    HW125679   3.056   6.633   0.593
 8260SOL    HW225680   3.069   6.705   0.739
 8261SOL     OW25681   5.492   1.164   1.561
 8261SOL    HW125682   5.442   1.093   1.510
 8261SOL    HW225683   5.537   1.226   1.496
 8262SOL     OW25684   0.978   2.937   1.777
 8262SOL    HW125685   1.013   2.941   1.684
 8262SOL    HW225686   1.043   2.886   1.835
 8263SOL     OW25687   6.450   1.363   1.238
 8263SOL    HW125688   6.368   1.354   1.181
 8263SOL    HW225689   6.422   1.369   1.334
 8264SOL     OW25690   1.479   5.812   2.836
 8264SOL    HW125691   1.497   5.717   2.814
 8264SOL    HW225692   1.390   5.839   2.800
 8265SOL     OW25693   1.645   0.399   2.015
 8265SOL    HW125694   1.739   0.373   2.036
 8265SOL    HW225695   1.645   0.478   1.954
 8266SOL     OW25696   2.935   6.514   2.413
 8266SOL    HW125697   3.016   6.571   2.402
 8266SOL    HW225698   2.862   6.548   2.354
 8267SOL     OW25699   1.453   3.298   1.507
 8267SOL    HW125700   1.447   3.244   1.423
 8267SOL    HW225701   1.421   3.391   1.490
 8268SOL     OW25702   2.108   6.908   5.821
 8268SOL    HW125703   2.129   6.811   5.837
 8268SOL    HW225704   2.052   6.943   5.896
 8269SOL     OW25705   5.707   1.388   1.046
 8269SOL    HW125706   5.768   1.364   1.121
 8269SOL    HW225707   5.655   1.470   1.071
 8270SOL     OW25708   3.517   6.361   3.961
 8270SOL    HW125709   3.517   6.460   3.974
 8270SOL    HW225710   3.424   6.326   3.975
 8271SOL     OW25711   6.910   1.756   3.217
 8271SOL    HW125712   6.837   1.739   3.283
 8271SOL    HW225713   6.914   1.680   3.151
 8272SOL     OW25714   4.163   0.664   2.646
 8272SOL    HW125715   4.229   0.629   2.581
 8272SOL    HW225716   4.106   0.734   2.602
 8273SOL     OW25717   2.791   0.092   0.896
 8273SOL    HW125718   2.787   0.096   0.996
 8273SOL    HW225719   2.782   0.184   0.858
 8274SOL     OW25720   4.808   5.336   3.022
 8274SOL    HW125721   4.769   5.251   2.986
 8274SOL    HW225722   4.878   5.369   2.960
 8275SOL     OW25723   4.816   2.067   6.141
 8275SOL    HW125724   4.831   1.969   6.131
 8275SOL    HW225725   4.862   2.116   6.067
 8276SOL     OW25726   1.135   2.014   4.506
 8276SOL    HW125727   1.114   2.109   4.531
 8276SOL    HW225728   1.055   1.972   4.463
 8277SOL     OW25729   6.946   0.116   6.507
 8277SOL    HW125730   6.872   0.172   6.544
 8277SOL    HW225731   7.015   0.176   6.465
 8278SOL     OW25732   2.451   1.719   0.258
 8278SOL    HW125733   2.357   1.727   0.224
 8278SOL    HW225734   2.499   1.648   0.206
 8279SOL     OW25735   0.620   6.508   4.238
 8279SOL    HW125736   0.578   6.596   4.217
 8279SOL    HW225737   0.561   6.434   4.205
 8280SOL     OW25738   3.292   2.628   6.139
 8280SOL    HW125739   3.351   2.688   6.193
 8280SOL    HW225740   3.348   2.567   6.083
 8281SOL     OW25741   0.455   6.111   1.551
 8281SOL    HW125742   0.488   6.110   1.646
 8281SOL    HW225743   0.370   6.059   1.544
 8282SOL     OW25744   4.912   2.909   6.069
 8282SOL    HW125745   4.907   2.883   5.973
 8282SOL    HW225746   4.839   2.863   6.120
 8283SOL     OW25747   1.350   4.027   6.313
 8283SOL    HW125748   1.362   3.971   6.231
 8283SOL    HW225749   1.390   4.117   6.298
 8284SOL     OW25750   6.881   4.690   2.115
 8284SOL    HW125751   6.824   4.620   2.072
 8284SOL    HW225752   6.822   4.757   2.160
 8285SOL     OW25753   4.082   3.360   5.042
 8285SOL    HW125754   3.997   3.341   5.093
 8285SOL    HW225755   4.153   3.387   5.106
 8286SOL     OW25756   6.486   2.236   6.164
 8286SOL    HW125757   6.499   2.223   6.066
 8286SOL    HW225758   6.466   2.332   6.183
 8287SOL     OW25759   0.999   5.731   4.374
 8287SOL    HW125760   0.914   5.781   4.357
 8287SOL    HW225761   0.978   5.642   4.413
 8288SOL     OW25762   2.005   2.896   2.793
 8288SOL    HW125763   2.066   2.899   2.872
 8288SOL    HW225764   1.915   2.930   2.819
 8289SOL     OW25765   1.039   0.394   0.672
 8289SOL    HW125766   1.138   0.393   0.660
 8289SOL    HW225767   1.013   0.331   0.745
 8290SOL     OW25768   6.340   1.887   0.672
 8290SOL    HW125769   6.364   1.962   0.610
 8290SOL    HW225770   6.242   1.870   0.666
 8291SOL     OW25771   4.060   6.854   6.276
 8291SOL    HW125772   4.123   6.794   6.228
 8291SOL    HW225773   4.066   6.946   6.237
 8292SOL     OW25774   3.279   6.351   6.934
 8292SOL    HW125775   3.360   6.293   6.933
 8292SOL    HW225776   3.300   6.437   6.982
 8293SOL     OW25777   4.339   6.528   5.959
 8293SOL    HW125778   4.321   6.540   5.862
 8293SOL    HW225779   4.346   6.430   5.981
 8294SOL     OW25780   5.941   2.919   6.353
 8294SOL    HW125781   5.958   2.895   6.449
 8294SOL    HW225782   5.934   2.835   6.299
 8295SOL     OW25783   5.713   4.337   1.626
 8295SOL    HW125784   5.752   4.346   1.534
 8295SOL    HW225785   5.621   4.300   1.620
 8296SOL     OW25786   1.570   5.649   7.010
 8296SOL    HW125787   1.517   5.724   6.971
 8296SOL    HW225788   1.607   5.677   0.081
 8297SOL     OW25789   6.083   2.398   3.480
 8297SOL    HW125790   6.178   2.373   3.463
 8297SOL    HW225791   6.028   2.315   3.487
 8298SOL     OW25792   4.929   1.219   1.731
 8298SOL    HW125793   4.852   1.158   1.714
 8298SOL    HW225794   4.948   1.221   1.829
 8299SOL     OW25795   6.456   3.408   1.929
 8299SOL    HW125796   6.484   3.395   1.834
 8299SOL    HW225797   6.522   3.468   1.976
 8300SOL     OW25798   0.948   4.561   5.024
 8300SOL    HW125799   0.849   4.571   5.009
 8300SOL    HW225800   0.971   4.464   5.033
 8301SOL     OW25801   4.351   2.665   1.551
 8301SOL    HW125802   4.264   2.645   1.596
 8301SOL    HW225803   4.407   2.722   1.611
 8302SOL     OW25804   6.311   6.617   6.678
 8302SOL    HW125805   6.342   6.652   6.766
 8302SOL    HW225806   6.376   6.643   6.607
 8303SOL     OW25807   0.699   0.026   4.657
 8303SOL    HW125808   0.687   0.092   4.731
 8303SOL    HW225809   0.629   6.972   4.666
 8304SOL     OW25810   0.537   3.927   6.520
 8304SOL    HW125811   0.608   3.920   6.590
 8304SOL    HW225812   0.579   3.923   6.430
 8305SOL     OW25813   3.462   5.085   3.875
 8305SOL    HW125814   3.542   5.028   3.893
 8305SOL    HW225815   3.456   5.158   3.943
 8306SOL     OW25816   0.962   3.012   5.111
 8306SOL    HW125817   1.037   3.060   5.065
 8306SOL    HW225818   0.988   2.918   5.129
 8307SOL     OW25819   3.487   5.525   0.407
 8307SOL    HW125820   3.532   5.536   0.319
 8307SOL    HW225821   3.416   5.596   0.417
 8308SOL     OW25822   4.270   6.860   1.645
 8308SOL    HW125823   4.306   6.766   1.640
 8308SOL    HW225824   4.344   6.923   1.668
 8309SOL     OW25825   5.712   6.149   2.434
 8309SOL    HW125826   5.749   6.233   2.476
 8309SOL    HW225827   5.744   6.070   2.486
 8310SOL     OW25828   0.886   5.029   0.352
 8310SOL    HW125829   0.804   5.079   0.327
 8310SOL    HW225830   0.866   4.931   0.357
 8311SOL     OW25831   6.825   0.647   6.421
 8311SOL    HW125832   6.848   0.707   6.498
 8311SOL    HW225833   6.804   0.556   6.456
 8312SOL     OW25834   5.420   6.685   1.786
 8312SOL    HW125835   5.386   6.656   1.696
 8312SOL    HW225836   5.426   6.606   1.847
 8313SOL     OW25837   3.786   1.575   2.801
 8313SOL    HW125838   3.851   1.630   2.854
 8313SOL    HW225839   3.820   1.482   2.793
 8314SOL     OW25840   5.538   0.088   1.675
 8314SOL    HW125841   5.616   0.114   1.731
 8314SOL    HW225842   5.498   0.170   1.633
 8315SOL     OW25843   4.938   3.235   0.515
 8315SOL    HW125844   4.864   3.301   0.499
 8315SOL    HW225845   4.987   3.259   0.599
 8316SOL     OW25846   1.558   4.511   0.678
 8316SOL    HW125847   1.565   4.594   0.732
 8316SOL    HW225848   1.608   4.523   0.592
 8317SOL     OW25849   2.026   4.236   2.791
 8317SOL    HW125850   2.070   4.239   2.701
 8317SOL    HW225851   2.071   4.168   2.848
 8318SOL     OW25852   3.776   1.331   4.997
 8318SOL    HW125853   3.875   1.336   4.983
 8318SOL    HW225854   3.735   1.418   4.971
 8319SOL     OW25855   3.671   0.725   5.241
 8319SOL    HW125856   3.617   0.700   5.161
 8319SOL    HW225857   3.719   0.811   5.223
 8320SOL     OW25858   2.810   4.797   1.334
 8320SOL    HW125859   2.837   4.708   1.372
 8320SOL    HW225860   2.711   4.806   1.337
 8321SOL     OW25861   0.575   0.673   0.390
 8321SOL    HW125862   0.536   0.610   0.322
 8321SOL    HW225863   0.591   0.762   0.348
 8322SOL     OW25864   0.204   0.063   0.344
 8322SOL    HW125865   0.155   7.005   0.300
 8322SOL    HW225866   0.260   0.027   0.418
 8323SOL     OW25867   0.978   0.891   2.791
 8323SOL    HW125868   1.001   0.872   2.886
 8323SOL    HW225869   1.058   0.873   2.733
 8324SOL     OW25870   5.990   0.878   2.262
 8324SOL    HW125871   6.069   0.909   2.314
 8324SOL    HW225872   5.993   0.917   2.170
 8325SOL     OW25873   3.720   2.928   3.948
 8325SOL    HW125874   3.794   2.993   3.963
 8325SOL    HW225875   3.661   2.925   4.029
 8326SOL     OW25876   4.355   3.323   5.856
 8326SOL    HW125877   4.393   3.326   5.763
 8326SOL    HW225878   4.409   3.382   5.915
 8327SOL     OW25879   5.585   2.598   6.178
 8327SOL    HW125880   5.537   2.584   6.092
 8327SOL    HW225881   5.608   2.695   6.188
 8328SOL     OW25882   2.194   3.229   6.346
 8328SOL    HW125883   2.268   3.167   6.370
 8328SOL    HW225884   2.231   3.308   6.298
 8329SOL     OW25885   0.099   3.095   5.081
 8329SOL    HW125886   0.160   3.127   5.008
 8329SOL    HW225887   0.126   3.139   5.167
 8330SOL     OW25888   1.537   6.475   0.707
 8330SOL    HW125889   1.527   6.526   0.793
 8330SOL    HW225890   1.611   6.515   0.653
 8331SOL     OW25891   3.240   0.478   1.509
 8331SOL    HW125892   3.309   0.492   1.438
 8331SOL    HW225893   3.230   0.380   1.527
 8332SOL     OW25894   4.477   4.884   1.928
 8332SOL    HW125895   4.439   4.953   1.989
 8332SOL    HW225896   4.521   4.928   1.850
 8333SOL     OW25897   0.572   5.935   0.391
 8333SOL    HW125898   0.645   5.870   0.412
 8333SOL    HW225899   0.507   5.892   0.328
 8334SOL     OW25900   6.541   1.781   3.847
 8334SOL    HW125901   6.601   1.706   3.822
 8334SOL    HW225902   6.454   1.772   3.798
 8335SOL     OW25903   6.132   5.913   5.715
 8335SOL    HW125904   6.062   5.900   5.646
 8335SOL    HW225905   6.099   5.978   5.784
 8336SOL     OW25906   0.288   2.050   1.972
 8336SOL    HW125907   0.298   2.098   1.885
 8336SOL    HW225908   0.340   2.097   2.043
 8337SOL     OW25909   0.750   5.920   2.153
 8337SOL    HW125910   0.766   5.949   2.247
 8337SOL    HW225911   0.785   5.827   2.141
 8338SOL     OW25912   2.043   5.243   1.086
 8338SOL    HW125913   2.022   5.184   1.164
 8338SOL    HW225914   2.083   5.189   1.012
 8339SOL     OW25915   5.758   1.320   2.719
 8339SOL    HW125916   5.778   1.292   2.813
 8339SOL    HW225917   5.663   1.299   2.697
 8340SOL     OW25918   4.933   3.848   0.602
 8340SOL    HW125919   4.969   3.772   0.547
 8340SOL    HW225920   4.994   3.866   0.679
 8341SOL     OW25921   1.710   6.999   1.015
 8341SOL    HW125922   1.775   0.050   0.982
 8341SOL    HW225923   1.750   6.908   1.003
 8342SOL     OW25924   3.593   1.003   0.806
 8342SOL    HW125925   3.571   0.911   0.840
 8342SOL    HW225926   3.509   1.050   0.780
 8343SOL     OW25927   1.227   5.985   6.733
 8343SOL    HW125928   1.202   6.059   6.797
 8343SOL    HW225929   1.268   6.024   6.651
 8344SOL     OW25930   4.325   6.265   6.066
 8344SOL    HW125931   4.404   6.212   6.034
 8344SOL    HW225932   4.302   6.237   6.159
 8345SOL     OW25933   6.031   1.126   3.262
 8345SOL    HW125934   6.130   1.128   3.261
 8345SOL    HW225935   5.999   1.071   3.339
 8346SOL     OW25936   2.408   4.719   1.099
 8346SOL    HW125937   2.385   4.769   1.182
 8346SOL    HW225938   2.500   4.744   1.068
 8347SOL     OW25939   2.737   6.614   5.154
 8347SOL    HW125940   2.714   6.526   5.113
 8347SOL    HW225941   2.784   6.671   5.087
 8348SOL     OW25942   1.233   0.614   1.310
 8348SOL    HW125943   1.149   0.592   1.260
 8348SOL    HW225944   1.271   0.530   1.349
 8349SOL     OW25945   5.976   3.492   0.772
 8349SOL    HW125946   6.070   3.459   0.779
 8349SOL    HW225947   5.947   3.528   0.861
 8350SOL     OW25948   6.249   1.079   5.267
 8350SOL    HW125949   6.154   1.053   5.285
 8350SOL    HW225950   6.310   1.017   5.316
 8351SOL     OW25951   3.210   6.336   3.955
 8351SOL    HW125952   3.197   6.427   3.914
 8351SOL    HW225953   3.174   6.266   3.894
 8352SOL     OW25954   6.697   6.954   2.216
 8352SOL    HW125955   6.751   6.923   2.295
 8352SOL    HW225956   6.603   6.920   2.225
 8353SOL     OW25957   6.283   3.799   1.723
 8353SOL    HW125958   6.209   3.775   1.786
 8353SOL    HW225959   6.342   3.867   1.766
 8354SOL     OW25960   2.958   1.306   6.929
 8354SOL    HW125961   2.889   1.378   6.917
 8354SOL    HW225962   2.934   1.227   6.873
 8355SOL     OW25963   3.307   0.289   0.106
 8355SOL    HW125964   3.387   0.348   0.104
 8355SOL    HW225965   3.231   0.332   0.057
 8356SOL     OW25966   1.371   6.020   0.159
 8356SOL    HW125967   1.436   6.081   0.204
 8356SOL    HW225968   1.340   5.951   0.224
 8357SOL     OW25969   3.702   5.612   4.498
 8357SOL    HW125970   3.722   5.701   4.458
 8357SOL    HW225971   3.673   5.625   4.593
 8358SOL     OW25972   1.922   2.755   5.556
 8358SOL    HW125973   1.843   2.783   5.502
 8358SOL    HW225974   1.963   2.835   5.600
 8359SOL     OW25975   4.302   5.383   4.230
 8359SOL    HW125976   4.222   5.443   4.229
 8359SOL    HW225977   4.275   5.291   4.200
 8360SOL     OW25978   4.693   6.971   2.977
 8360SOL    HW125979   4.739   0.027   3.026
 8360SOL    HW225980   4.656   7.006   2.891
 8361SOL     OW25981   1.634   1.549   2.582
 8361SOL    HW125982   1.720   1.583   2.542
 8361SOL    HW225983   1.612   1.603   2.664
 8362SOL     OW25984   2.147   2.451   0.270
 8362SOL    HW125985   2.074   2.418   0.330
 8362SOL    HW225986   2.235   2.439   0.316
 8363SOL     OW25987   0.745   2.647   0.796
 8363SOL    HW125988   0.719   2.733   0.753
 8363SOL    HW225989   0.701   2.640   0.886
 8364SOL     OW25990   6.018   3.612   3.081
 8364SOL    HW125991   6.049   3.527   3.037
 8364SOL    HW225992   6.097   3.671   3.098
 8365SOL     OW25993   1.494   3.431   0.268
 8365SOL    HW125994   1.591   3.431   0.292
 8365SOL    HW225995   1.471   3.346   0.221
 8366SOL     OW25996   4.798   6.253   2.574
 8366SOL    HW125997   4.733   6.327   2.553
 8366SOL    HW225998   4.756   6.190   2.639
 8367SOL     OW25999   4.639   6.285   3.798
 8367SOL    HW126000   4.700   6.206   3.788
 8367SOL    HW226001   4.693   6.367   3.819
 8368SOL     OW26002   2.354   5.325   5.978
 8368SOL    HW126003   2.304   5.409   5.960
 8368SOL    HW226004   2.292   5.247   5.966
 8369SOL     OW26005   2.383   1.089   6.957
 8369SOL    HW126006   2.329   1.171   6.978
 8369SOL    HW226007   2.365   1.019   0.008
 8370SOL     OW26008   1.124   1.887   6.429
 8370SOL    HW126009   1.175   1.956   6.480
 8370SOL    HW226010   1.077   1.826   6.493
 8371SOL     OW26011   1.327   2.897   0.527
 8371SOL    HW126012   1.240   2.910   0.479
 8371SOL    HW226013   1.336   2.800   0.551
 8372SOL     OW26014   0.031   0.461   2.490
 8372SOL    HW126015   6.971   0.520   2.510
 8372SOL    HW226016   0.114   0.515   2.486
 8373SOL     OW26017   1.445   6.241   5.858
 8373SOL    HW126018   1.479   6.158   5.813
 8373SOL    HW226019   1.351   6.258   5.829
 8374SOL     OW26020   6.626   0.711   7.002
 8374SOL    HW126021   6.691   0.638   0.010
 8374SOL    HW226022   6.659   0.798   0.020
 8375SOL     OW26023   3.111   6.611   6.186
 8375SOL    HW126024   3.125   6.694   6.131
 8375SOL    HW226025   3.102   6.532   6.125
 8376SOL     OW26026   2.989   0.268   3.770
 8376SOL    HW126027   2.894   0.297   3.759
 8376SOL    HW226028   3.031   0.321   3.843
 8377SOL     OW26029   6.537   5.215   1.472
 8377SOL    HW126030   6.439   5.231   1.485
 8377SOL    HW226031   6.587   5.300   1.484
 8378SOL     OW26032   5.503   3.266   3.058
 8378SOL    HW126033   5.567   3.315   3.117
 8378SOL    HW226034   5.496   3.312   2.970
 8379SOL     OW26035   6.353   3.591   1.566
 8379SOL    HW126036   6.402   3.530   1.628
 8379SOL    HW226037   6.325   3.674   1.616
 8380SOL     OW26038   5.486   1.622   2.602
 8380SOL    HW126039   5.464   1.716   2.628
 8380SOL    HW226040   5.523   1.573   2.682
 8381SOL     OW26041   1.196   5.240   4.466
 8381SOL    HW126042   1.185   5.311   4.396
 8381SOL    HW226043   1.192   5.150   4.422
 8382SOL     OW26044   1.085   2.464   2.620
 8382SOL    HW126045   1.103   2.385   2.561
 8382SOL    HW226046   1.150   2.537   2.599
 8383SOL     OW26047   2.597   2.280   6.810
 8383SOL    HW126048   2.678   2.301   6.755
 8383SOL    HW226049   2.564   2.189   6.787
 8384SOL     OW26050   6.982   6.361   1.901
 8384SOL    HW126051   6.917   6.433   1.926
 8384SOL    HW226052   0.009   6.385   1.815
 8385SOL     OW26053   4.736   2.308   2.393
 8385SOL    HW126054   4.746   2.227   2.335
 8385SOL    HW226055   4.733   2.280   2.489
 8386SOL     OW26056   0.585   4.149   2.685
 8386SOL    HW126057   0.494   4.181   2.712
 8386SOL    HW226058   0.637   4.226   2.647
 8387SOL     OW26059   0.901   1.835   1.514
 8387SOL    HW126060   0.836   1.842   1.439
 8387SOL    HW226061   0.856   1.796   1.594
 8388SOL     OW26062   2.939   6.607   1.498
 8388SOL    HW126063   2.965   6.511   1.489
 8388SOL    HW226064   2.966   6.641   1.588
 8389SOL     OW26065   5.097   2.955   1.920
 8389SOL    HW126066   5.082   2.920   2.013
 8389SOL    HW226067   5.138   3.046   1.925
 8390SOL     OW26068   4.425   1.894   5.824
 8390SOL    HW126069   4.411   1.801   5.792
 8390SOL    HW226070   4.400   1.958   5.752
 8391SOL     OW26071   6.293   0.803   0.717
 8391SOL    HW126072   6.215   0.800   0.654
 8391SOL    HW226073   6.304   0.713   0.760
 8392SOL     OW26074   5.628   3.355   4.153
 8392SOL    HW126075   5.591   3.276   4.203
 8392SOL    HW226076   5.681   3.412   4.216
 8393SOL     OW26077   4.808   0.080   1.895
 8393SOL    HW126078   4.846   0.083   1.987
 8393SOL    HW226079   4.881   0.056   1.830
 8394SOL     OW26080   6.236   3.836   2.686
 8394SOL    HW126081   6.148   3.788   2.681
 8394SOL    HW226082   6.289   3.817   2.604
 8395SOL     OW26083   2.572   0.881   5.019
 8395SOL    HW126084   2.556   0.974   4.986
 8395SOL    HW226085   2.486   0.830   5.018
 8396SOL     OW26086   4.168   5.442   4.802
 8396SOL    HW126087   4.143   5.401   4.714
 8396SOL    HW226088   4.121   5.392   4.875
 8397SOL     OW26089   6.292   0.802   3.648
 8397SOL    HW126090   6.386   0.781   3.673
 8397SOL    HW226091   6.257   0.875   3.706
 8398SOL     OW26092   5.256   2.241   5.836
 8398SOL    HW126093   5.237   2.214   5.742
 8398SOL    HW226094   5.220   2.333   5.852
 8399SOL     OW26095   0.178   5.636   0.575
 8399SOL    HW126096   0.154   5.540   0.591
 8399SOL    HW226097   0.180   5.653   0.476
 8400SOL     OW26098   1.142   2.148   4.166
 8400SOL    HW126099   1.052   2.185   4.187
 8400SOL    HW226100   1.212   2.213   4.195
 8401SOL     OW26101   2.877   0.357   5.871
 8401SOL    HW126102   2.891   0.399   5.961
 8401SOL    HW226103   2.915   0.416   5.801
 8402SOL     OW26104   4.223   0.904   5.791
 8402SOL    HW126105   4.248   0.837   5.721
 8402SOL    HW226106   4.284   0.894   5.870
 8403SOL     OW26107   6.025   4.669   4.780
 8403SOL    HW126108   6.054   4.574   4.789
 8403SOL    HW226109   6.092   4.728   4.825
 8404SOL     OW26110   1.960   1.997   6.621
 8404SOL    HW126111   1.888   2.065   6.619
 8404SOL    HW226112   1.924   1.908   6.591
 8405SOL     OW26113   3.781   0.958   5.263
 8405SOL    HW126114   3.753   1.046   5.226
 8405SOL    HW226115   3.779   0.961   5.363
 8406SOL     OW26116   5.197   0.614   6.525
 8406SOL    HW126117   5.204   0.536   6.462
 8406SOL    HW226118   5.279   0.618   6.583
 8407SOL     OW26119   3.688   6.778   3.791
 8407SOL    HW126120   3.735   6.750   3.875
 8407SOL    HW226121   3.756   6.800   3.721
 8408SOL     OW26122   5.163   0.380   1.254
 8408SOL    HW126123   5.236   0.328   1.210
 8408SOL    HW226124   5.101   0.318   1.300
 8409SOL     OW26125   4.528   2.498   2.483
 8409SOL    HW126126   4.564   2.541   2.566
 8409SOL    HW226127   4.594   2.430   2.450
 8410SOL     OW26128   6.927   1.930   1.725
 8410SOL    HW126129   6.902   1.937   1.821
 8410SOL    HW226130   6.995   1.857   1.714
 8411SOL     OW26131   1.150   5.884   0.676
 8411SOL    HW126132   1.176   5.946   0.750
 8411SOL    HW226133   1.069   5.920   0.630
 8412SOL     OW26134   2.695   2.948   0.107
 8412SOL    HW126135   2.615   2.973   0.052
 8412SOL    HW226136   2.737   2.866   0.070
 8413SOL     OW26137   3.993   5.085   5.418
 8413SOL    HW126138   3.965   4.991   5.438
 8413SOL    HW226139   3.981   5.140   5.501
 8414SOL     OW26140   1.264   1.342   2.628
 8414SOL    HW126141   1.217   1.377   2.709
 8414SOL    HW226142   1.286   1.246   2.640
 8415SOL     OW26143   2.686   0.185   4.520
 8415SOL    HW126144   2.779   0.212   4.545
 8415SOL    HW226145   2.668   0.093   4.555
 8416SOL     OW26146   6.508   1.803   5.134
 8416SOL    HW126147   6.513   1.709   5.170
 8416SOL    HW226148   6.417   1.840   5.149
 8417SOL     OW26149   1.062   3.702   4.859
 8417SOL    HW126150   1.084   3.752   4.942
 8417SOL    HW226151   1.145   3.688   4.805
 8418SOL     OW26152   1.032   5.915   2.836
 8418SOL    HW126153   1.084   5.855   2.896
 8418SOL    HW226154   0.995   5.992   2.889
 8419SOL     OW26155   5.253   0.782   4.160
 8419SOL    HW126156   5.191   0.794   4.082
 8419SOL    HW226157   5.346   0.766   4.127
 8420SOL     OW26158   3.102   6.750   2.465
 8420SOL    HW126159   3.076   6.845   2.482
 8420SOL    HW226160   3.121   6.737   2.368
 8421SOL     OW26161   4.128   6.061   6.172
 8421SOL    HW126162   4.049   6.032   6.117
 8421SOL    HW226163   4.211   6.018   6.136
 8422SOL     OW26164   4.665   2.707   3.087
 8422SOL    HW126165   4.567   2.691   3.072
 8422SOL    HW226166   4.689   2.684   3.181
 8423SOL     OW26167   5.709   4.588   6.165
 8423SOL    HW126168   5.644   4.515   6.187
 8423SOL    HW226169   5.753   4.568   6.077
 8424SOL     OW26170   2.177   6.941   3.371
 8424SOL    HW126171   2.212   0.013   3.401
 8424SOL    HW226172   2.078   6.946   3.360
 8425SOL     OW26173   3.186   3.726   3.422
 8425SOL    HW126174   3.283   3.722   3.399
 8425SOL    HW226175   3.143   3.798   3.367
 8426SOL     OW26176   3.666   2.927   1.932
 8426SOL    HW126177   3.594   2.989   1.963
 8426SOL    HW226178   3.698   2.873   2.009
 8427SOL     OW26179   2.932   3.683   3.838
 8427SOL    HW126180   2.991   3.621   3.787
 8427SOL    HW226181   2.860   3.718   3.778
 8428SOL     OW26182   0.074   0.479   1.014
 8428SOL    HW126183   0.119   0.483   1.103
 8428SOL    HW226184   0.128   0.530   0.947
 8429SOL     OW26185   1.464   5.759   6.598
 8429SOL    HW126186   1.458   5.779   6.500
 8429SOL    HW226187   1.405   5.822   6.649
 8430SOL     OW26188   4.426   6.261   4.739
 8430SOL    HW126189   4.471   6.281   4.651
 8430SOL    HW226190   4.328   6.249   4.723
 8431SOL     OW26191   3.344   3.585   6.107
 8431SOL    HW126192   3.368   3.489   6.115
 8431SOL    HW226193   3.407   3.630   6.044
 8432SOL     OW26194   6.312   5.798   6.693
 8432SOL    HW126195   6.401   5.841   6.679
 8432SOL    HW226196   6.293   5.734   6.618
 8433SOL     OW26197   5.092   2.364   0.628
 8433SOL    HW126198   5.191   2.352   0.618
 8433SOL    HW226199   5.069   2.380   0.724
 8434SOL     OW26200   2.235   5.198   5.310
 8434SOL    HW126201   2.254   5.152   5.397
 8434SOL    HW226202   2.278   5.288   5.310
 8435SOL     OW26203   5.144   0.784   2.946
 8435SOL    HW126204   5.121   0.687   2.956
 8435SOL    HW226205   5.110   0.834   3.025
 8436SOL     OW26206   2.170   6.828   2.874
 8436SOL    HW126207   2.112   6.905   2.900
 8436SOL    HW226208   2.266   6.852   2.889
 8437SOL     OW26209   2.124   3.108   2.133
 8437SOL    HW126210   2.040   3.054   2.144
 8437SOL    HW226211   2.101   3.198   2.096
 8438SOL     OW26212   1.652   4.438   2.533
 8438SOL    HW126213   1.641   4.468   2.439
 8438SOL    HW226214   1.575   4.379   2.558
 8439SOL     OW26215   5.832   6.080   3.770
 8439SOL    HW126216   5.811   5.985   3.794
 8439SOL    HW226217   5.883   6.123   3.845
 8440SOL     OW26218   1.566   1.268   3.397
 8440SOL    HW126219   1.566   1.326   3.315
 8440SOL    HW226220   1.617   1.185   3.379
 8441SOL     OW26221   5.647   0.311   5.527
 8441SOL    HW126222   5.648   0.241   5.456
 8441SOL    HW226223   5.585   0.284   5.600
 8442SOL     OW26224   3.767   1.151   5.702
 8442SOL    HW126225   3.774   1.070   5.645
 8442SOL    HW226226   3.857   1.192   5.713
 8443SOL     OW26227   1.736   4.542   3.324
 8443SOL    HW126228   1.823   4.547   3.275
 8443SOL    HW226229   1.753   4.539   3.422
 8444SOL     OW26230   4.945   5.606   3.408
 8444SOL    HW126231   4.901   5.518   3.390
 8444SOL    HW226232   4.908   5.644   3.493
 8445SOL     OW26233   3.865   6.234   6.979
 8445SOL    HW126234   3.815   6.274   6.902
 8445SOL    HW226235   3.872   6.135   6.965
 8446SOL     OW26236   0.699   6.051   5.389
 8446SOL    HW126237   0.696   6.123   5.321
 8446SOL    HW226238   0.683   6.090   5.480
 8447SOL     OW26239   4.146   1.433   2.951
 8447SOL    HW126240   4.070   1.425   3.016
 8447SOL    HW226241   4.218   1.489   2.991
 8448SOL     OW26242   4.321   6.692   2.896
 8448SOL    HW126243   4.380   6.708   2.816
 8448SOL    HW226244   4.370   6.635   2.962
 8449SOL     OW26245   1.884   2.294   2.992
 8449SOL    HW126246   1.845   2.251   2.911
 8449SOL    HW226247   1.849   2.387   3.001
 8450SOL     OW26248   6.777   0.480   7.009
 8450SOL    HW126249   6.774   0.384   6.983
 8450SOL    HW226250   6.831   0.531   6.942
 8451SOL     OW26251   4.882   2.148   1.493
 8451SOL    HW126252   4.865   2.060   1.448
 8451SOL    HW226253   4.895   2.132   1.591
 8452SOL     OW26254   5.222   1.818   5.050
 8452SOL    HW126255   5.248   1.756   4.975
 8452SOL    HW226256   5.161   1.888   5.014
 8453SOL     OW26257   0.543   5.480   0.283
 8453SOL    HW126258   0.518   5.554   0.220
 8453SOL    HW226259   0.553   5.517   0.375
 8454SOL     OW26260   0.960   4.175   0.600
 8454SOL    HW126261   1.020   4.117   0.545
 8454SOL    HW226262   0.876   4.125   0.621
 8455SOL     OW26263   0.937   0.490   2.614
 8455SOL    HW126264   0.897   0.562   2.670
 8455SOL    HW226265   0.896   0.493   2.523
 8456SOL     OW26266   5.801   1.405   3.689
 8456SOL    HW126267   5.786   1.418   3.787
 8456SOL    HW226268   5.737   1.337   3.654
 8457SOL     OW26269   5.881   6.119   4.370
 8457SOL    HW126270   5.786   6.120   4.339
 8457SOL    HW226271   5.894   6.043   4.434
 8458SOL     OW26272   6.695   0.092   6.740
 8458SOL    HW126273   6.685   0.032   6.820
 8458SOL    HW226274   6.783   0.138   6.745
 8459SOL     OW26275   1.580   5.642   3.234
 8459SOL    HW126276   1.523   5.560   3.231
 8459SOL    HW226277   1.656   5.632   3.169
 8460SOL     OW26278   3.271   3.851   5.130
 8460SOL    HW126279   3.286   3.938   5.082
 8460SOL    HW226280   3.182   3.853   5.176
 8461SOL     OW26281   6.111   3.844   4.066
 8461SOL    HW126282   6.017   3.878   4.058
 8461SOL    HW226283   6.128   3.776   3.995
 8462SOL     OW26284   2.505   2.329   1.607
 8462SOL    HW126285   2.479   2.390   1.682
 8462SOL    HW226286   2.472   2.237   1.626
 8463SOL     OW26287   5.717   0.840   2.610
 8463SOL    HW126288   5.679   0.797   2.529
 8463SOL    HW226289   5.655   0.912   2.642
 8464SOL     OW26290   5.683   2.871   4.582
 8464SOL    HW126291   5.721   2.936   4.647
 8464SOL    HW226292   5.755   2.811   4.547
 8465SOL     OW26293   1.482   2.514   0.426
 8465SOL    HW126294   1.451   2.569   0.503
 8465SOL    HW226295   1.569   2.551   0.392
 8466SOL     OW26296   0.818   6.133   3.355
 8466SOL    HW126297   0.893   6.110   3.292
 8466SOL    HW226298   0.797   6.230   3.347
 8467SOL     OW26299   3.060   5.491   0.843
 8467SOL    HW126300   3.064   5.414   0.906
 8467SOL    HW226301   3.089   5.574   0.891
 8468SOL     OW26302   4.392   1.633   6.584
 8468SOL    HW126303   4.442   1.712   6.548
 8468SOL    HW226304   4.408   1.626   6.682
 8469SOL     OW26305   3.456   2.524   6.896
 8469SOL    HW126306   3.536   2.473   6.927
 8469SOL    HW226307   3.469   2.552   6.801
 8470SOL     OW26308   2.747   3.319   6.812
 8470SOL    HW126309   2.804   3.396   6.842
 8470SOL    HW226310   2.677   3.352   6.748
 8471SOL     OW26311   3.648   0.906   3.919
 8471SOL    HW126312   3.617   1.000   3.910
 8471SOL    HW226313   3.735   0.894   3.869
 8472SOL     OW26314   1.472   6.545   4.409
 8472SOL    HW126315   1.520   6.529   4.496
 8472SOL    HW226316   1.391   6.486   4.405
 8473SOL     OW26317   6.636   5.323   6.885
 8473SOL    HW126318   6.716   5.263   6.880
 8473SOL    HW226319   6.554   5.269   6.903
 8474SOL     OW26320   3.487   3.678   1.460
 8474SOL    HW126321   3.506   3.776   1.463
 8474SOL    HW226322   3.483   3.642   1.554
 8475SOL     OW26323   5.913   1.604   2.827
 8475SOL    HW126324   5.934   1.568   2.736
 8475SOL    HW226325   5.965   1.553   2.895
 8476SOL     OW26326   4.537   0.458   2.184
 8476SOL    HW126327   4.610   0.392   2.162
 8476SOL    HW226328   4.575   0.531   2.240
 8477SOL     OW26329   2.891   0.807   1.268
 8477SOL    HW126330   2.982   0.806   1.226
 8477SOL    HW226331   2.825   0.849   1.205
 8478SOL     OW26332   1.179   0.286   5.492
 8478SOL    HW126333   1.206   0.193   5.466
 8478SOL    HW226334   1.239   0.318   5.565
 8479SOL     OW26335   5.955   1.033   0.907
 8479SOL    HW126336   5.948   1.052   0.809
 8479SOL    HW226337   5.896   0.956   0.931
 8480SOL     OW26338   2.900   1.242   1.594
 8480SOL    HW126339   2.995   1.254   1.566
 8480SOL    HW226340   2.849   1.198   1.520
 8481SOL     OW26341   3.825   0.849   4.232
 8481SOL    HW126342   3.888   0.858   4.155
 8481SOL    HW226343   3.733   0.876   4.204
 8482SOL     OW26344   1.475   6.877   1.957
 8482SOL    HW126345   1.556   6.907   1.907
 8482SOL    HW226346   1.496   6.794   2.008
 8483SOL     OW26347   3.981   5.936   0.784
 8483SOL    HW126348   3.992   6.014   0.845
 8483SOL    HW226349   3.884   5.912   0.777
 8484SOL     OW26350   0.548   5.157   4.421
 8484SOL    HW126351   0.519   5.172   4.516
 8484SOL    HW226352   0.499   5.079   4.383
 8485SOL     OW26353   2.190   3.303   0.051
 8485SOL    HW126354   2.132   3.344   6.997
 8485SOL    HW226355   2.286   3.308   0.024
 8486SOL     OW26356   5.555   0.955   2.194
 8486SOL    HW126357   5.628   1.005   2.243
 8486SOL    HW226358   5.468   0.970   2.241
 8487SOL     OW26359   4.591   0.131   0.796
 8487SOL    HW126360   4.529   0.162   0.868
 8487SOL    HW226361   4.583   0.192   0.717
 8488SOL     OW26362   5.013   3.270   4.124
 8488SOL    HW126363   4.971   3.273   4.034
 8488SOL    HW226364   4.966   3.203   4.181
 8489SOL     OW26365   4.726   4.743   1.624
 8489SOL    HW126366   4.775   4.659   1.648
 8489SOL    HW226367   4.642   4.719   1.575
 8490SOL     OW26368   4.449   5.222   2.615
 8490SOL    HW126369   4.407   5.140   2.654
 8490SOL    HW226370   4.434   5.223   2.516
 8491SOL     OW26371   2.371   0.758   2.369
 8491SOL    HW126372   2.302   0.686   2.378
 8491SOL    HW226373   2.344   0.822   2.298
 8492SOL     OW26374   6.106   3.155   4.984
 8492SOL    HW126375   6.128   3.101   4.902
 8492SOL    HW226376   6.051   3.234   4.958
 8493SOL     OW26377   4.184   1.468   6.564
 8493SOL    HW126378   4.216   1.375   6.580
 8493SOL    HW226379   4.263   1.530   6.563
 8494SOL     OW26380   3.620   5.560   6.446
 8494SOL    HW126381   3.713   5.533   6.474
 8494SOL    HW226382   3.559   5.553   6.524
 8495SOL     OW26383   6.735   2.831   1.173
 8495SOL    HW126384   6.747   2.836   1.272
 8495SOL    HW226385   6.788   2.754   1.136
 8496SOL     OW26386   0.241   2.794   3.883
 8496SOL    HW126387   0.176   2.845   3.826
 8496SOL    HW226388   0.225   2.816   3.979
 8497SOL     OW26389   5.802   5.663   3.175
 8497SOL    HW126390   5.769   5.757   3.170
 8497SOL    HW226391   5.724   5.601   3.187
 8498SOL     OW26392   0.553   0.948   0.981
 8498SOL    HW126393   0.500   0.930   0.898
 8498SOL    HW226394   0.576   0.862   1.026
 8499SOL     OW26395   3.418   4.118   6.168
 8499SOL    HW126396   3.449   4.052   6.237
 8499SOL    HW226397   3.374   4.195   6.213
 8500SOL     OW26398   2.596   6.331   6.040
 8500SOL    HW126399   2.624   6.301   5.949
 8500SOL    HW226400   2.654   6.287   6.109
 8501SOL     OW26401   1.376   3.426   6.776
 8501SOL    HW126402   1.328   3.452   6.691
 8501SOL    HW226403   1.446   3.357   6.755
 8502SOL     OW26404   6.208   0.165   1.677
 8502SOL    HW126405   6.228   0.253   1.721
 8502SOL    HW226406   6.293   0.114   1.665
 8503SOL     OW26407   2.866   4.820   3.192
 8503SOL    HW126408   2.934   4.880   3.150
 8503SOL    HW226409   2.908   4.770   3.267
 8504SOL     OW26410   1.472   5.394   3.202
 8504SOL    HW126411   1.539   5.330   3.165
 8504SOL    HW226412   1.435   5.357   3.288
 8505SOL     OW26413   5.092   3.485   3.531
 8505SOL    HW126414   5.071   3.489   3.628
 8505SOL    HW226415   5.027   3.425   3.485
 8506SOL     OW26416   1.741   6.640   0.385
 8506SOL    HW126417   1.770   6.572   0.452
 8506SOL    HW226418   1.776   6.730   0.410
 8507SOL     OW26419   1.370   0.828   5.476
 8507SOL    HW126420   1.340   0.795   5.386
 8507SOL    HW226421   1.299   0.888   5.514
 8508SOL     OW26422   0.567   2.172   5.791
 8508SOL    HW126423   0.649   2.211   5.832
 8508SOL    HW226424   0.543   2.087   5.838
 8509SOL     OW26425   6.411   2.058   4.712
 8509SOL    HW126426   6.448   1.978   4.759
 8509SOL    HW226427   6.487   2.116   4.681
 8510SOL     OW26428   5.546   6.101   2.240
 8510SOL    HW126429   5.625   6.117   2.300
 8510SOL    HW226430   5.484   6.035   2.284
 8511SOL     OW26431   6.494   4.994   1.789
 8511SOL    HW126432   6.567   4.943   1.835
 8511SOL    HW226433   6.475   4.953   1.700
 8512SOL     OW26434   5.562   2.547   0.176
 8512SOL    HW126435   5.494   2.489   0.220
 8512SOL    HW226436   5.526   2.639   0.166
 8513SOL     OW26437   6.430   4.572   1.175
 8513SOL    HW126438   6.464   4.666   1.165
 8513SOL    HW226439   6.428   4.548   1.272
 8514SOL     OW26440   2.804   1.943   5.285
 8514SOL    HW126441   2.890   1.982   5.252
 8514SOL    HW226442   2.758   2.009   5.344
 8515SOL     OW26443   1.058   0.860   0.594
 8515SOL    HW126444   0.987   0.826   0.533
 8515SOL    HW226445   1.027   0.850   0.689
 8516SOL     OW26446   6.181   2.530   2.180
 8516SOL    HW126447   6.121   2.607   2.157
 8516SOL    HW226448   6.125   2.450   2.203
 8517SOL     OW26449   1.411   2.670   5.368
 8517SOL    HW126450   1.457   2.705   5.286
 8517SOL    HW226451   1.348   2.597   5.341
 8518SOL     OW26452   5.354   4.835   6.302
 8518SOL    HW126453   5.436   4.886   6.276
 8518SOL    HW226454   5.380   4.742   6.331
 8519SOL     OW26455   1.460   3.785   1.176
 8519SOL    HW126456   1.543   3.801   1.229
 8519SOL    HW226457   1.437   3.868   1.124
 8520SOL     OW26458   4.159   3.648   4.657
 8520SOL    HW126459   4.257   3.663   4.649
 8520SOL    HW226460   4.123   3.613   4.571
 8521SOL     OW26461   1.764   5.891   5.475
 8521SOL    HW126462   1.776   5.797   5.505
 8521SOL    HW226463   1.740   5.892   5.378
 8522SOL     OW26464   1.272   6.391   0.546
 8522SOL    HW126465   1.258   6.473   0.601
 8522SOL    HW226466   1.339   6.332   0.590
 8523SOL     OW26467   2.621   0.094   6.459
 8523SOL    HW126468   2.616   0.005   6.414
 8523SOL    HW226469   2.529   0.123   6.486
 8524SOL     OW26470   1.500   5.421   4.657
 8524SOL    HW126471   1.404   5.407   4.633
 8524SOL    HW226472   1.508   5.498   4.721
 8525SOL     OW26473   0.101   5.080   1.653
 8525SOL    HW126474   0.101   4.984   1.682
 8525SOL    HW226475   0.010   5.119   1.668
 8526SOL     OW26476   2.723   6.845   0.481
 8526SOL    HW126477   2.821   6.850   0.467
 8526SOL    HW226478   2.696   6.907   0.555
 8527SOL     OW26479   3.459   0.158   6.324
 8527SOL    HW126480   3.393   0.204   6.265
 8527SOL    HW226481   3.425   0.066   6.346
 8528SOL     OW26482   5.340   2.434   0.351
 8528SOL    HW126483   5.305   2.527   0.355
 8528SOL    HW226484   5.342   2.394   0.443
 8529SOL     OW26485   1.210   6.287   6.708
 8529SOL    HW126486   1.253   6.333   6.631
 8529SOL    HW226487   1.183   6.355   6.777
 8530SOL     OW26488   3.208   3.510   4.251
 8530SOL    HW126489   3.240   3.586   4.308
 8530SOL    HW226490   3.165   3.441   4.308
 8531SOL     OW26491   6.725   5.549   3.241
 8531SOL    HW126492   6.813   5.578   3.279
 8531SOL    HW226493   6.655   5.553   3.311
 8532SOL     OW26494   3.453   6.067   4.180
 8532SOL    HW126495   3.401   6.152   4.186
 8532SOL    HW226496   3.492   6.044   4.269
 8533SOL     OW26497   1.378   6.429   6.463
 8533SOL    HW126498   1.451   6.429   6.532
 8533SOL    HW226499   1.381   6.515   6.412
 8534SOL     OW26500   4.492   2.523   4.146
 8534SOL    HW126501   4.490   2.520   4.046
 8534SOL    HW226502   4.525   2.612   4.176
 8535SOL     OW26503   6.173   1.017   3.795
 8535SOL    HW126504   6.201   1.110   3.822
 8535SOL    HW226505   6.076   1.004   3.814
 8536SOL     OW26506   0.125   0.941   4.296
 8536SOL    HW126507   0.145   0.843   4.292
 8536SOL    HW226508   0.026   0.955   4.288
 8537SOL     OW26509   6.884   0.929   3.266
 8537SOL    HW126510   6.967   0.946   3.319
 8537SOL    HW226511   6.858   1.013   3.218
 8538SOL     OW26512   1.336   2.409   0.215
 8538SOL    HW126513   1.391   2.438   0.292
 8538SOL    HW226514   1.392   2.406   0.132
 8539SOL     OW26515   6.567   2.738   3.121
 8539SOL    HW126516   6.499   2.806   3.092
 8539SOL    HW226517   6.520   2.654   3.147
 8540SOL     OW26518   4.408   0.087   0.265
 8540SOL    HW126519   4.372   0.039   0.185
 8540SOL    HW226520   4.363   0.053   0.347
 8541SOL     OW26521   2.239   2.310   3.767
 8541SOL    HW126522   2.318   2.368   3.748
 8541SOL    HW226523   2.235   2.236   3.699
 8542SOL     OW26524   4.029   3.928   6.688
 8542SOL    HW126525   4.048   3.839   6.648
 8542SOL    HW226526   3.931   3.937   6.707
 8543SOL     OW26527   1.905   2.742   6.864
 8543SOL    HW126528   1.959   2.660   6.845
 8543SOL    HW226529   1.961   2.808   6.913
 8544SOL     OW26530   5.589   2.542   4.129
 8544SOL    HW126531   5.591   2.524   4.030
 8544SOL    HW226532   5.676   2.581   4.157
 8545SOL     OW26533   5.127   6.525   5.018
 8545SOL    HW126534   5.130   6.430   4.987
 8545SOL    HW226535   5.211   6.547   5.067
 8546SOL     OW26536   4.754   1.356   4.463
 8546SOL    HW126537   4.683   1.426   4.474
 8546SOL    HW226538   4.712   1.271   4.431
 8547SOL     OW26539   1.008   4.868   3.423
 8547SOL    HW126540   0.948   4.859   3.344
 8547SOL    HW226541   1.089   4.811   3.409
 8548SOL     OW26542   5.598   1.338   5.093
 8548SOL    HW126543   5.524   1.272   5.086
 8548SOL    HW226544   5.583   1.412   5.027
 8549SOL     OW26545   6.421   3.473   4.293
 8549SOL    HW126546   6.336   3.451   4.340
 8549SOL    HW226547   6.440   3.403   4.224
 8550SOL     OW26548   1.444   4.985   6.532
 8550SOL    HW126549   1.346   4.982   6.552
 8550SOL    HW226550   1.483   4.894   6.538
 8551SOL     OW26551   3.404   4.127   6.929
 8551SOL    HW126552   3.346   4.117   6.847
 8551SOL    HW226553   3.355   4.090   7.008
 8552SOL     OW26554   2.253   6.415   3.860
 8552SOL    HW126555   2.219   6.410   3.954
 8552SOL    HW226556   2.194   6.361   3.800
 8553SOL     OW26557   5.097   6.760   0.818
 8553SOL    HW126558   5.121   6.675   0.865
 8553SOL    HW226559   5.178   6.818   0.809
 8554SOL     OW26560   6.833   4.001   6.889
 8554SOL    HW126561   6.764   4.064   6.924
 8554SOL    HW226562   6.789   3.915   6.864
 8555SOL     OW26563   1.484   6.747   3.842
 8555SOL    HW126564   1.571   6.790   3.817
 8555SOL    HW226565   1.494   6.700   3.929
 8556SOL     OW26566   6.294   0.273   3.833
 8556SOL    HW126567   6.320   0.185   3.874
 8556SOL    HW226568   6.340   0.347   3.882
 8557SOL     OW26569   6.953   0.171   1.166
 8557SOL    HW126570   0.010   0.160   1.232
 8557SOL    HW226571   6.974   0.117   1.084
 8558SOL     OW26572   1.151   4.937   1.976
 8558SOL    HW126573   1.234   4.917   2.027
 8558SOL    HW226574   1.168   5.012   1.912
 8559SOL     OW26575   1.344   0.061   1.385
 8559SOL    HW126576   1.314   0.045   1.479
 8559SOL    HW226577   1.440   0.037   1.375
 8560SOL     OW26578   6.395   1.749   0.376
 8560SOL    HW126579   6.371   1.844   0.394
 8560SOL    HW226580   6.469   1.721   0.437
 8561SOL     OW26581   4.516   6.185   3.526
 8561SOL    HW126582   4.522   6.194   3.626
 8561SOL    HW226583   4.571   6.257   3.483
 8562SOL     OW26584   3.502   6.623   4.013
 8562SOL    HW126585   3.517   6.603   4.110
 8562SOL    HW226586   3.531   6.717   3.994
 8563SOL     OW26587   2.851   2.420   6.752
 8563SOL    HW126588   2.823   2.512   6.723
 8563SOL    HW226589   2.945   2.423   6.786
 8564SOL     OW26590   1.026   6.953   3.189
 8564SOL    HW126591   1.111   6.969   3.240
 8564SOL    HW226592   1.048   6.924   3.096
 8565SOL     OW26593   3.718   6.611   1.057
 8565SOL    HW126594   3.685   6.572   0.971
 8565SOL    HW226595   3.788   6.679   1.037
 8566SOL     OW26596   1.596   2.367   3.523
 8566SOL    HW126597   1.555   2.281   3.554
 8566SOL    HW226598   1.688   2.376   3.561
 8567SOL     OW26599   5.215   1.176   1.355
 8567SOL    HW126600   5.181   1.118   1.429
 8567SOL    HW226601   5.215   1.271   1.385
 8568SOL     OW26602   5.441   1.616   6.966
 8568SOL    HW126603   5.452   1.590   6.870
 8568SOL    HW226604   5.525   1.659   6.998
 8569SOL     OW26605   4.260   1.668   4.680
 8569SOL    HW126606   4.337   1.618   4.640
 8569SOL    HW226607   4.181   1.661   4.619
 8570SOL     OW26608   0.409   4.092   0.187
 8570SOL    HW126609   0.489   4.112   0.244
 8570SOL    HW226610   0.326   4.102   0.241
 8571SOL     OW26611   6.977   4.214   4.964
 8571SOL    HW126612   6.954   4.117   4.952
 8571SOL    HW226613   6.953   4.242   5.057
 8572SOL     OW26614   2.468   4.902   5.337
 8572SOL    HW126615   2.459   4.866   5.430
 8572SOL    HW226616   2.468   4.826   5.272
 8573SOL     OW26617   3.338   5.705   5.577
 8573SOL    HW126618   3.380   5.784   5.622
 8573SOL    HW226619   3.361   5.706   5.480
 8574SOL     OW26620   0.788   3.500   5.838
 8574SOL    HW126621   0.865   3.562   5.847
 8574SOL    HW226622   0.816   3.417   5.790
 8575SOL     OW26623   3.192   2.531   0.506
 8575SOL    HW126624   3.172   2.618   0.551
 8575SOL    HW226625   3.140   2.524   0.420
 8576SOL     OW26626   1.618   0.157   1.531
 8576SOL    HW126627   1.677   0.237   1.519
 8576SOL    HW226628   1.629   0.096   1.452
 8577SOL     OW26629   6.206   6.147   3.375
 8577SOL    HW126630   6.281   6.081   3.382
 8577SOL    HW226631   6.233   6.233   3.418
 8578SOL     OW26632   4.505   6.802   3.381
 8578SOL    HW126633   4.497   6.901   3.394
 8578SOL    HW226634   4.417   6.758   3.399
 8579SOL     OW26635   1.400   5.283   3.443
 8579SOL    HW126636   1.338   5.326   3.509
 8579SOL    HW226637   1.491   5.274   3.483
 8580SOL     OW26638   2.137   5.510   0.590
 8580SOL    HW126639   2.201   5.492   0.515
 8580SOL    HW226640   2.133   5.609   0.607
 8581SOL     OW26641   3.458   1.714   1.298
 8581SOL    HW126642   3.556   1.730   1.304
 8581SOL    HW226643   3.409   1.801   1.305
 8582SOL     OW26644   3.964   4.202   1.413
 8582SOL    HW126645   3.979   4.180   1.510
 8582SOL    HW226646   4.026   4.275   1.386
 8583SOL     OW26647   6.074   0.058   6.036
 8583SOL    HW126648   6.107   0.055   6.130
 8583SOL    HW226649   5.988   0.108   6.031
 8584SOL     OW26650   6.774   5.668   0.218
 8584SOL    HW126651   6.708   5.664   0.293
 8584SOL    HW226652   6.747   5.739   0.153
 8585SOL     OW26653   0.248   0.832   6.993
 8585SOL    HW126654   0.274   0.822   0.072
 8585SOL    HW226655   0.174   0.899   6.985
 8586SOL     OW26656   3.989   5.309   3.034
 8586SOL    HW126657   3.991   5.408   3.048
 8586SOL    HW226658   3.936   5.266   3.108
 8587SOL     OW26659   0.093   2.092   2.276
 8587SOL    HW126660   0.161   2.087   2.349
 8587SOL    HW226661   0.093   2.183   2.236
 8588SOL     OW26662   4.813   2.513   0.102
 8588SOL    HW126663   4.836   2.429   0.151
 8588SOL    HW226664   4.839   2.504   0.006
 8589SOL     OW26665   3.498   1.960   4.415
 8589SOL    HW126666   3.490   2.034   4.482
 8589SOL    HW226667   3.426   1.893   4.430
 8590SOL     OW26668   5.864   5.007   5.198
 8590SOL    HW126669   5.898   5.055   5.278
 8590SOL    HW226670   5.900   5.049   5.114
 8591SOL     OW26671   1.143   3.410   6.910
 8591SOL    HW126672   1.232   3.430   6.867
 8591SOL    HW226673   1.101   3.331   6.866
 8592SOL     OW26674   5.839   4.435   0.150
 8592SOL    HW126675   5.828   4.411   0.247
 8592SOL    HW226676   5.891   4.364   0.103
 8593SOL     OW26677   1.176   0.821   2.606
 8593SOL    HW126678   1.264   0.865   2.590
 8593SOL    HW226679   1.126   0.814   2.520
 8594SOL     OW26680   3.188   3.731   4.406
 8594SOL    HW126681   3.275   3.749   4.452
 8594SOL    HW226682   3.154   3.816   4.364
 8595SOL     OW26683   1.465   2.056   2.560
 8595SOL    HW126684   1.460   1.987   2.487
 8595SOL    HW226685   1.560   2.078   2.580
 8596SOL     OW26686   6.351   5.506   1.830
 8596SOL    HW126687   6.354   5.506   1.730
 8596SOL    HW226688   6.350   5.600   1.863
 8597SOL     OW26689   2.779   1.481   0.750
 8597SOL    HW126690   2.689   1.522   0.765
 8597SOL    HW226691   2.786   1.395   0.801
 8598SOL     OW26692   5.878   5.315   0.994
 8598SOL    HW126693   5.924   5.293   0.908
 8598SOL    HW226694   5.881   5.236   1.055
 8599SOL     OW26695   1.474   3.168   2.962
 8599SOL    HW126696   1.456   3.074   2.989
 8599SOL    HW226697   1.407   3.197   2.895
 8600SOL     OW26698   6.498   4.887   6.482
 8600SOL    HW126699   6.407   4.857   6.511
 8600SOL    HW226700   6.557   4.807   6.467
 8601SOL     OW26701   0.466   6.915   4.713
 8601SOL    HW126702   0.416   6.832   4.688
 8601SOL    HW226703   0.408   6.995   4.694
 8602SOL     OW26704   2.694   5.528   1.979
 8602SOL    HW126705   2.726   5.540   1.885
 8602SOL    HW226706   2.616   5.589   1.995
 8603SOL     OW26707   3.910   3.031   0.239
 8603SOL    HW126708   3.863   3.095   0.299
 8603SOL    HW226709   3.960   2.964   0.294
 8604SOL     OW26710   5.281   2.682   3.509
 8604SOL    HW126711   5.260   2.659   3.414
 8604SOL    HW226712   5.355   2.749   3.512
 8605SOL     OW26713   2.296   6.455   2.657
 8605SOL    HW126714   2.384   6.498   2.676
 8605SOL    HW226715   2.239   6.518   2.604
 8606SOL     OW26716   3.989   4.597   5.612
 8606SOL    HW126717   4.052   4.544   5.669
 8606SOL    HW226718   3.895   4.578   5.639
 8607SOL     OW26719   4.260   5.555   1.844
 8607SOL    HW126720   4.288   5.617   1.917
 8607SOL    HW226721   4.303   5.466   1.858
 8608SOL     OW26722   4.630   5.577   2.094
 8608SOL    HW126723   4.707   5.599   2.154
 8608SOL    HW226724   4.565   5.653   2.094
 8609SOL     OW26725   3.368   0.553   5.330
 8609SOL    HW126726   3.385   0.652   5.329
 8609SOL    HW226727   3.455   0.504   5.330
 8610SOL     OW26728   0.713   6.144   4.134
 8610SOL    HW126729   0.766   6.106   4.059
 8610SOL    HW226730   0.635   6.085   4.153
 8611SOL     OW26731   1.907   2.168   4.293
 8611SOL    HW126732   1.932   2.238   4.360
 8611SOL    HW226733   1.809   2.148   4.301
 8612SOL     OW26734   4.330   2.860   5.918
 8612SOL    HW126735   4.286   2.895   5.835
 8612SOL    HW226736   4.400   2.925   5.947
 8613SOL     OW26737   1.832   1.325   0.834
 8613SOL    HW126738   1.856   1.420   0.814
 8613SOL    HW226739   1.791   1.319   0.925
 8614SOL     OW26740   0.941   2.127   3.468
 8614SOL    HW126741   1.032   2.167   3.472
 8614SOL    HW226742   0.877   2.194   3.430
 8615SOL     OW26743   4.379   2.133   5.384
 8615SOL    HW126744   4.401   2.086   5.299
 8615SOL    HW226745   4.356   2.228   5.365
 8616SOL     OW26746   1.274   4.632   0.353
 8616SOL    HW126747   1.263   4.573   0.433
 8616SOL    HW226748   1.212   4.711   0.362
 8617SOL     OW26749   6.201   2.971   0.723
 8617SOL    HW126750   6.262   3.036   0.676
 8617SOL    HW226751   6.234   2.878   0.706
 8618SOL     OW26752   4.643   6.754   3.150
 8618SOL    HW126753   4.588   6.783   3.229
 8618SOL    HW226754   4.671   6.835   3.098
 8619SOL     OW26755   4.401   4.913   0.134
 8619SOL    HW126756   4.413   4.987   0.200
 8619SOL    HW226757   4.319   4.931   0.079
 8620SOL     OW26758   6.655   6.977   2.776
 8620SOL    HW126759   6.719   0.024   2.818
 8620SOL    HW226760   6.696   6.886   2.774
 8621SOL     OW26761   5.797   0.727   3.544
 8621SOL    HW126762   5.832   0.701   3.454
 8621SOL    HW226763   5.845   0.675   3.614
 8622SOL     OW26764   4.788   5.017   0.635
 8622SOL    HW126765   4.858   4.948   0.616
 8622SOL    HW226766   4.832   5.104   0.658
 8623SOL     OW26767   0.160   3.871   3.156
 8623SOL    HW126768   0.104   3.892   3.077
 8623SOL    HW226769   0.239   3.817   3.128
 8624SOL     OW26770   0.622   4.408   3.188
 8624SOL    HW126771   0.666   4.454   3.265
 8624SOL    HW226772   0.544   4.354   3.222
 8625SOL     OW26773   3.727   0.666   4.823
 8625SOL    HW126774   3.792   0.711   4.885
 8625SOL    HW226775   3.769   0.583   4.785
 8626SOL     OW26776   3.173   3.915   3.642
 8626SOL    HW126777   3.132   3.886   3.728
 8626SOL    HW226778   3.160   3.845   3.572
 8627SOL     OW26779   1.423   0.662   0.269
 8627SOL    HW126780   1.352   0.704   0.325
 8627SOL    HW226781   1.440   0.720   0.189
 8628SOL     OW26782   5.520   0.692   6.930
 8628SOL    HW126783   5.475   0.751   6.863
 8628SOL    HW226784   5.535   0.602   6.890
 8629SOL     OW26785   1.465   3.921   3.948
 8629SOL    HW126786   1.524   4.001   3.954
 8629SOL    HW226787   1.474   3.867   4.031
 8630SOL     OW26788   5.749   4.559   3.630
 8630SOL    HW126789   5.803   4.635   3.667
 8630SOL    HW226790   5.807   4.478   3.621
 8631SOL     OW26791   3.929   5.906   5.018
 8631SOL    HW126792   3.904   5.834   5.083
 8631SOL    HW226793   3.997   5.871   4.954
 8632SOL     OW26794   3.968   0.200   3.211
 8632SOL    HW126795   4.028   0.280   3.202
 8632SOL    HW226796   3.985   0.136   3.136
 8633SOL     OW26797   5.748   1.327   4.035
 8633SOL    HW126798   5.662   1.372   4.012
 8633SOL    HW226799   5.769   1.343   4.132
 8634SOL     OW26800   6.980   5.084   1.966
 8634SOL    HW126801   6.995   5.129   2.055
 8634SOL    HW226802   0.041   5.026   1.944
 8635SOL     OW26803   6.363   3.559   5.273
 8635SOL    HW126804   6.333   3.499   5.348
 8635SOL    HW226805   6.341   3.654   5.296
 8636SOL     OW26806   6.649   5.505   0.577
 8636SOL    HW126807   6.594   5.474   0.655
 8636SOL    HW226808   6.588   5.526   0.501
 8637SOL     OW26809   2.156   0.478   0.824
 8637SOL    HW126810   2.180   0.565   0.780
 8637SOL    HW226811   2.236   0.443   0.873
 8638SOL     OW26812   3.432   4.899   0.221
 8638SOL    HW126813   3.456   4.899   0.319
 8638SOL    HW226814   3.413   4.992   0.192
 8639SOL     OW26815   6.241   4.057   1.463
 8639SOL    HW126816   6.267   4.037   1.557
 8639SOL    HW226817   6.291   3.996   1.401
 8640SOL     OW26818   4.804   5.230   1.099
 8640SOL    HW126819   4.867   5.158   1.071
 8640SOL    HW226820   4.802   5.301   1.029
 8641SOL     OW26821   6.164   4.180   2.934
 8641SOL    HW126822   6.172   4.171   3.033
 8641SOL    HW226823   6.208   4.101   2.890
 8642SOL     OW26824   4.230   1.196   1.841
 8642SOL    HW126825   4.133   1.200   1.867
 8642SOL    HW226826   4.264   1.102   1.852
 8643SOL     OW26827   4.924   0.436   5.979
 8643SOL    HW126828   4.986   0.369   5.935
 8643SOL    HW226829   4.832   0.426   5.941
 8644SOL     OW26830   5.911   3.012   4.773
 8644SOL    HW126831   5.906   2.987   4.870
 8644SOL    HW226832   5.980   2.955   4.728
 8645SOL     OW26833   6.035   4.869   1.153
 8645SOL    HW126834   5.941   4.835   1.156
 8645SOL    HW226835   6.089   4.810   1.092
 8646SOL     OW26836   5.595   0.879   0.288
 8646SOL    HW126837   5.619   0.806   0.351
 8646SOL    HW226838   5.611   0.968   0.331
 8647SOL     OW26839   4.320   5.036   0.420
 8647SOL    HW126840   4.225   5.005   0.412
 8647SOL    HW226841   4.376   4.962   0.457
 8648SOL     OW26842   5.321   1.257   3.721
 8648SOL    HW126843   5.415   1.234   3.697
 8648SOL    HW226844   5.308   1.250   3.820
 8649SOL     OW26845   6.541   4.042   5.633
 8649SOL    HW126846   6.609   4.115   5.635
 8649SOL    HW226847   6.457   4.076   5.592
 8650SOL     OW26848   2.095   4.984   3.309
 8650SOL    HW126849   2.184   5.023   3.335
 8650SOL    HW226850   2.108   4.917   3.236
 8651SOL     OW26851   3.649   1.267   6.841
 8651SOL    HW126852   3.599   1.348   6.809
 8651SOL    HW226853   3.585   1.190   6.850
 8652SOL     OW26854   2.000   3.819   3.468
 8652SOL    HW126855   2.095   3.789   3.455
 8652SOL    HW226856   1.982   3.900   3.412
 8653SOL     OW26857   6.885   2.814   7.003
 8653SOL    HW126858   6.897   2.911   0.008
 8653SOL    HW226859   6.835   2.805   6.917
 8654SOL     OW26860   0.761   0.254   3.144
 8654SOL    HW126861   0.754   0.157   3.167
 8654SOL    HW226862   0.822   0.299   3.209
 8655SOL     OW26863   6.053   6.303   4.689
 8655SOL    HW126864   5.978   6.326   4.752
 8655SOL    HW226865   6.101   6.222   4.722
 8656SOL     OW26866   6.426   1.058   1.159
 8656SOL    HW126867   6.353   1.011   1.110
 8656SOL    HW226868   6.437   1.150   1.123
 8657SOL     OW26869   4.430   3.977   6.954
 8657SOL    HW126870   4.455   4.072   6.937
 8657SOL    HW226871   4.331   3.969   6.957
 8658SOL     OW26872   5.447   5.538   6.760
 8658SOL    HW126873   5.409   5.596   6.832
 8658SOL    HW226874   5.530   5.580   6.724
 8659SOL     OW26875   5.098   0.521   4.177
 8659SOL    HW126876   5.026   0.521   4.106
 8659SOL    HW226877   5.115   0.615   4.206
 8660SOL     OW26878   5.471   3.661   0.755
 8660SOL    HW126879   5.402   3.698   0.817
 8660SOL    HW226880   5.493   3.567   0.784
 8661SOL     OW26881   0.231   4.090   1.603
 8661SOL    HW126882   0.294   4.143   1.546
 8661SOL    HW226883   0.277   4.006   1.632
 8662SOL     OW26884   6.814   6.719   0.882
 8662SOL    HW126885   6.887   6.779   0.849
 8662SOL    HW226886   6.734   6.774   0.907
 8663SOL     OW26887   2.562   5.433   0.567
 8663SOL    HW126888   2.526   5.461   0.656
 8663SOL    HW226889   2.662   5.432   0.571
 8664SOL     OW26890   4.225   5.904   0.017
 8664SOL    HW126891   4.320   5.882   7.013
 8664SOL    HW226892   4.191   5.970   6.968
 8665SOL     OW26893   4.885   5.776   5.540
 8665SOL    HW126894   4.961   5.771   5.606
 8665SOL    HW226895   4.800   5.750   5.585
 8666SOL     OW26896   5.286   2.713   4.904
 8666SOL    HW126897   5.226   2.788   4.933
 8666SOL    HW226898   5.355   2.696   4.975
 8667SOL     OW26899   5.253   1.411   3.970
 8667SOL    HW126900   5.188   1.336   3.979
 8667SOL    HW226901   5.207   1.489   3.926
 8668SOL     OW26902   4.917   2.127   4.395
 8668SOL    HW126903   4.857   2.070   4.451
 8668SOL    HW226904   4.915   2.095   4.300
 8669SOL     OW26905   4.049   0.251   5.857
 8669SOL    HW126906   4.051   0.351   5.859
 8669SOL    HW226907   3.954   0.221   5.853
 8670SOL     OW26908   3.403   5.600   4.201
 8670SOL    HW126909   3.489   5.566   4.240
 8670SOL    HW226910   3.329   5.537   4.224
 8671SOL     OW26911   5.992   6.743   3.640
 8671SOL    HW126912   5.899   6.779   3.630
 8671SOL    HW226913   5.995   6.679   3.716
 8672SOL     OW26914   3.440   5.190   4.326
 8672SOL    HW126915   3.514   5.215   4.388
 8672SOL    HW226916   3.354   5.184   4.376
 8673SOL     OW26917   6.258   2.239   0.840
 8673SOL    HW126918   6.272   2.323   0.892
 8673SOL    HW226919   6.245   2.163   0.903
 8674SOL     OW26920   6.921   0.347   2.985
 8674SOL    HW126921   6.997   0.304   3.035
 8674SOL    HW226922   6.860   0.276   2.950
 8675SOL     OW26923   2.222   1.131   3.134
 8675SOL    HW126924   2.262   1.151   3.045
 8675SOL    HW226925   2.234   1.034   3.155
 8676SOL     OW26926   4.441   0.100   2.839
 8676SOL    HW126927   4.381   0.152   2.899
 8676SOL    HW226928   4.388   0.031   2.789
 8677SOL     OW26929   2.719   4.439   6.099
 8677SOL    HW126930   2.645   4.402   6.043
 8677SOL    HW226931   2.783   4.490   6.042
 8678SOL     OW26932   1.115   0.363   6.649
 8678SOL    HW126933   1.069   0.430   6.707
 8678SOL    HW226934   1.104   0.388   6.553
 8679SOL     OW26935   6.133   2.268   5.582
 8679SOL    HW126936   6.115   2.365   5.571
 8679SOL    HW226937   6.083   2.216   5.512
 8680SOL     OW26938   1.328   3.663   0.260
 8680SOL    HW126939   1.396   3.593   0.279
 8680SOL    HW226940   1.290   3.649   0.169
 8681SOL     OW26941   4.146   4.250   0.407
 8681SOL    HW126942   4.152   4.314   0.483
 8681SOL    HW226943   4.166   4.158   0.439
 8682SOL     OW26944   2.552   6.084   2.811
 8682SOL    HW126945   2.517   6.147   2.742
 8682SOL    HW226946   2.475   6.044   2.862
 8683SOL     OW26947   0.209   3.157   1.371
 8683SOL    HW126948   0.156   3.163   1.287
 8683SOL    HW226949   0.254   3.068   1.375
 8684SOL     OW26950   6.014   3.412   4.894
 8684SOL    HW126951   6.026   3.511   4.884
 8684SOL    HW226952   6.047   3.366   4.812
 8685SOL     OW26953   0.538   2.152   6.553
 8685SOL    HW126954   0.446   2.170   6.520
 8685SOL    HW226955   0.535   2.129   6.650
 8686SOL     OW26956   0.089   1.927   2.637
 8686SOL    HW126957   0.136   2.013   2.659
 8686SOL    HW226958   0.054   1.886   2.721
 8687SOL     OW26959   3.579   6.884   2.362
 8687SOL    HW126960   3.530   6.812   2.413
 8687SOL    HW226961   3.629   6.942   2.427
 8688SOL     OW26962   2.623   0.216   1.467
 8688SOL    HW126963   2.547   0.157   1.443
 8688SOL    HW226964   2.612   0.249   1.561
 8689SOL     OW26965   4.818   5.882   0.364
 8689SOL    HW126966   4.725   5.865   0.334
 8689SOL    HW226967   4.817   5.927   0.453
 8690SOL     OW26968   0.621   1.603   3.221
 8690SOL    HW126969   0.530   1.625   3.184
 8690SOL    HW226970   0.617   1.602   3.321
 8691SOL     OW26971   4.994   2.484   6.532
 8691SOL    HW126972   5.033   2.500   6.623
 8691SOL    HW226973   4.937   2.402   6.534
 8692SOL     OW26974   2.402   2.061   3.916
 8692SOL    HW126975   2.390   2.097   3.824
 8692SOL    HW226976   2.446   1.972   3.912
 8693SOL     OW26977   5.651   1.888   1.060
 8693SOL    HW126978   5.664   1.914   0.964
 8693SOL    HW226979   5.581   1.946   1.101
 8694SOL     OW26980   4.657   0.083   5.967
 8694SOL    HW126981   4.594   0.054   5.895
 8694SOL    HW226982   4.610   0.084   6.055
 8695SOL     OW26983   5.116   3.847   5.705
 8695SOL    HW126984   5.187   3.791   5.662
 8695SOL    HW226985   5.154   3.937   5.728
 8696SOL     OW26986   2.205   6.018   1.010
 8696SOL    HW126987   2.298   5.992   0.983
 8696SOL    HW226988   2.192   6.001   1.107
 8697SOL     OW26989   6.566   3.706   0.700
 8697SOL    HW126990   6.532   3.735   0.790
 8697SOL    HW226991   6.502   3.640   0.660
 8698SOL     OW26992   5.148   5.975   4.467
 8698SOL    HW126993   5.117   6.065   4.436
 8698SOL    HW226994   5.076   5.931   4.521
 8699SOL     OW26995   1.169   1.671   5.581
 8699SOL    HW126996   1.151   1.617   5.498
 8699SOL    HW226997   1.111   1.638   5.655
 8700SOL     OW26998   2.769   0.972   5.221
 8700SOL    HW126999   2.831   1.029   5.167
 8700SOL    HW227000   2.707   0.923   5.159
 8701SOL     OW27001   0.691   1.181   4.906
 8701SOL    HW127002   0.732   1.102   4.953
 8701SOL    HW227003   0.755   1.258   4.911
 8702SOL     OW27004   5.349   5.213   0.105
 8702SOL    HW127005   5.383   5.154   0.179
 8702SOL    HW227006   5.251   5.198   0.092
 8703SOL     OW27007   2.779   5.814   0.982
 8703SOL    HW127008   2.824   5.864   1.055
 8703SOL    HW227009   2.811   5.848   0.894
 8704SOL     OW27010   0.086   4.858   2.161
 8704SOL    HW127011   0.002   4.842   2.110
 8704SOL    HW227012   0.154   4.901   2.101
 8705SOL     OW27013   4.882   6.999   6.370
 8705SOL    HW127014   4.837   0.062   6.407
 8705SOL    HW227015   4.914   0.001   6.277
 8706SOL     OW27016   5.157   1.883   6.954
 8706SOL    HW127017   5.090   1.809   6.962
 8706SOL    HW227018   5.200   1.899   0.026
 8707SOL     OW27019   4.805   3.145   6.246
 8707SOL    HW127020   4.764   3.053   6.247
 8707SOL    HW227021   4.890   3.144   6.194
 8708SOL     OW27022   4.084   1.161   1.573
 8708SOL    HW127023   4.087   1.062   1.562
 8708SOL    HW227024   3.990   1.191   1.586
 8709SOL     OW27025   6.997   4.331   0.854
 8709SOL    HW127026   6.947   4.414   0.827
 8709SOL    HW227027   6.979   4.259   0.787
 8710SOL     OW27028   2.094   3.569   2.855
 8710SOL    HW127029   2.139   3.632   2.791
 8710SOL    HW227030   2.096   3.476   2.818
 8711SOL     OW27031   6.508   0.787   3.210
 8711SOL    HW127032   6.560   0.746   3.134
 8711SOL    HW227033   6.559   0.774   3.295
 8712SOL     OW27034   3.194   1.100   5.027
 8712SOL    HW127035   3.258   1.169   4.992
 8712SOL    HW227036   3.241   1.012   5.035
 8713SOL     OW27037   6.558   4.649   3.782
 8713SOL    HW127038   6.546   4.723   3.848
 8713SOL    HW227039   6.610   4.682   3.703
 8714SOL     OW27040   1.373   0.687   5.725
 8714SOL    HW127041   1.291   0.728   5.765
 8714SOL    HW227042   1.391   0.731   5.637
 8715SOL     OW27043   6.661   1.803   1.679
 8715SOL    HW127044   6.585   1.865   1.658
 8715SOL    HW227045   6.745   1.838   1.637
 8716SOL     OW27046   1.002   1.423   1.435
 8716SOL    HW127047   1.046   1.487   1.498
 8716SOL    HW227048   1.072   1.368   1.390
 8717SOL     OW27049   4.177   3.711   1.746
 8717SOL    HW127050   4.206   3.805   1.726
 8717SOL    HW227051   4.140   3.707   1.839
 8718SOL     OW27052   0.070   2.908   4.785
 8718SOL    HW127053   6.994   2.918   4.821
 8718SOL    HW227054   0.108   2.998   4.765
 8719SOL     OW27055   1.116   0.444   5.281
 8719SOL    HW127056   1.152   0.391   5.358
 8719SOL    HW227057   1.033   0.400   5.245
 8720SOL     OW27058   5.531   4.221   5.424
 8720SOL    HW127059   5.586   4.302   5.405
 8720SOL    HW227060   5.581   4.139   5.397
 8721SOL     OW27061   7.008   2.438   4.621
 8721SOL    HW127062   6.959   2.395   4.697
 8721SOL    HW227063   0.056   2.504   4.657
 8722SOL     OW27064   3.949   2.323   0.653
 8722SOL    HW127065   3.867   2.307   0.598
 8722SOL    HW227066   3.970   2.421   0.653
 8723SOL     OW27067   6.817   5.388   0.930
 8723SOL    HW127068   6.860   5.376   0.841
 8723SOL    HW227069   6.881   5.431   0.993
 8724SOL     OW27070   5.600   0.579   5.632
 8724SOL    HW127071   5.587   0.489   5.589
 8724SOL    HW227072   5.652   0.569   5.716
 8725SOL     OW27073   2.089   6.968   0.145
 8725SOL    HW127074   1.990   6.967   0.131
 8725SOL    HW227075   2.126   6.876   0.133
 8726SOL     OW27076   5.756   0.293   1.451
 8726SOL    HW127077   5.835   0.231   1.452
 8726SOL    HW227078   5.759   0.351   1.532
 8727SOL     OW27079   6.566   6.602   1.550
 8727SOL    HW127080   6.495   6.604   1.620
 8727SOL    HW227081   6.626   6.681   1.562
 8728SOL     OW27082   2.822   6.606   4.780
 8728SOL    HW127083   2.886   6.529   4.784
 8728SOL    HW227084   2.782   6.611   4.688
 8729SOL     OW27085   4.033   5.706   3.640
 8729SOL    HW127086   4.088   5.632   3.600
 8729SOL    HW227087   4.087   5.790   3.644
 8730SOL     OW27088   0.424   6.141   2.031
 8730SOL    HW127089   0.432   6.046   2.062
 8730SOL    HW227090   0.332   6.175   2.050
 8731SOL     OW27091   1.346   2.022   3.318
 8731SOL    HW127092   1.304   1.971   3.243
 8731SOL    HW227093   1.374   2.112   3.286
 8732SOL     OW27094   5.567   3.679   1.245
 8732SOL    HW127095   5.584   3.608   1.314
 8732SOL    HW227096   5.618   3.657   1.162
 8733SOL     OW27097   1.256   6.536   1.943
 8733SOL    HW127098   1.190   6.596   1.899
 8733SOL    HW227099   1.241   6.536   2.042
 8734SOL     OW27100   6.861   5.997   0.954
 8734SOL    HW127101   6.861   6.020   1.051
 8734SOL    HW227102   6.904   5.908   0.940
 8735SOL     OW27103   6.786   1.543   6.387
 8735SOL    HW127104   6.689   1.517   6.384
 8735SOL    HW227105   6.833   1.484   6.453
 8736SOL     OW27106   0.681   4.733   0.071
 8736SOL    HW127107   0.702   4.641   0.038
 8736SOL    HW227108   0.735   4.752   0.153
 8737SOL     OW27109   3.492   6.229   6.381
 8737SOL    HW127110   3.582   6.272   6.371
 8737SOL    HW227111   3.496   6.136   6.346
 8738SOL     OW27112   1.609   3.783   3.773
 8738SOL    HW127113   1.580   3.740   3.687
 8738SOL    HW227114   1.530   3.824   3.818
 8739SOL     OW27115   6.917   3.538   5.557
 8739SOL    HW127116   6.896   3.444   5.529
 8739SOL    HW227117   7.016   3.549   5.563
 8740SOL     OW27118   3.047   0.037   6.942
 8740SOL    HW127119   3.013   6.961   6.932
 8740SOL    HW227120   3.146   0.039   6.928
 8741SOL     OW27121   1.545   3.273   2.613
 8741SOL    HW127122   1.469   3.232   2.562
 8741SOL    HW227123   1.509   3.337   2.681
 8742SOL     OW27124   4.568   6.929   1.667
 8742SOL    HW127125   4.562   0.009   1.687
 8742SOL    HW227126   4.614   6.882   1.743
 8743SOL     OW27127   2.482   5.589   2.391
 8743SOL    HW127128   2.465   5.591   2.292
 8743SOL    HW227129   2.556   5.652   2.414
 8744SOL     OW27130   4.094   2.494   6.401
 8744SOL    HW127131   4.180   2.461   6.440
 8744SOL    HW227132   4.017   2.449   6.446
 8745SOL     OW27133   6.419   2.464   5.818
 8745SOL    HW127134   6.379   2.538   5.765
 8745SOL    HW227135   6.513   2.487   5.842
 8746SOL     OW27136   4.979   5.158   5.293
 8746SOL    HW127137   4.930   5.073   5.274
 8746SOL    HW227138   4.999   5.164   5.391
 8747SOL     OW27139   1.595   2.697   4.294
 8747SOL    HW127140   1.589   2.796   4.303
 8747SOL    HW227141   1.531   2.666   4.223
 8748SOL     OW27142   1.310   0.646   6.759
 8748SOL    HW127143   1.323   0.734   6.805
 8748SOL    HW227144   1.357   0.648   6.671
 8749SOL     OW27145   3.867   0.416   3.371
 8749SOL    HW127146   3.883   0.328   3.327
 8749SOL    HW227147   3.834   0.400   3.464
 8750SOL     OW27148   1.933   1.743   5.078
 8750SOL    HW127149   1.884   1.731   5.165
 8750SOL    HW227150   1.972   1.655   5.050
 8751SOL     OW27151   1.178   0.427   2.409
 8751SOL    HW127152   1.200   0.499   2.343
 8751SOL    HW227153   1.180   0.465   2.501
 8752SOL     OW27154   1.809   3.341   6.232
 8752SOL    HW127155   1.832   3.244   6.234
 8752SOL    HW227156   1.719   3.355   6.274
 8753SOL     OW27157   5.378   1.234   4.749
 8753SOL    HW127158   5.345   1.277   4.665
 8753SOL    HW227159   5.427   1.302   4.804
 8754SOL     OW27160   1.577   1.875   6.014
 8754SOL    HW127161   1.513   1.801   6.035
 8754SOL    HW227162   1.646   1.842   5.949
 8755SOL     OW27163   2.468   1.331   0.311
 8755SOL    HW127164   2.377   1.316   0.272
 8755SOL    HW227165   2.461   1.388   0.393
 8756SOL     OW27166   2.248   2.923   4.110
 8756SOL    HW127167   2.197   2.955   4.030
 8756SOL    HW227168   2.292   2.836   4.088
 8757SOL     OW27169   4.684   6.217   4.847
 8757SOL    HW127170   4.726   6.181   4.764
 8757SOL    HW227171   4.587   6.232   4.831
 8758SOL     OW27172   6.573   6.652   2.010
 8758SOL    HW127173   6.623   6.719   1.956
 8758SOL    HW227174   6.636   6.582   2.045
 8759SOL     OW27175   4.989   0.487   5.633
 8759SOL    HW127176   5.001   0.473   5.535
 8759SOL    HW227177   4.999   0.399   5.681
 8760SOL     OW27178   1.883   1.494   4.213
 8760SOL    HW127179   1.880   1.594   4.211
 8760SOL    HW227180   1.793   1.458   4.189
 8761SOL     OW27181   4.642   6.961   0.031
 8761SOL    HW127182   4.616   7.004   6.962
 8761SOL    HW227183   4.724   7.005   0.067
 8762SOL     OW27184   1.396   4.071   1.338
 8762SOL    HW127185   1.403   3.975   1.366
 8762SOL    HW227186   1.429   4.080   1.244
 8763SOL     OW27187   0.361   6.384   5.784
 8763SOL    HW127188   0.283   6.370   5.845
 8763SOL    HW227189   0.374   6.302   5.728
 8764SOL     OW27190   4.595   1.844   4.065
 8764SOL    HW127191   4.668   1.776   4.066
 8764SOL    HW227192   4.508   1.800   4.043
 8765SOL     OW27193   6.106   6.962   4.317
 8765SOL    HW127194   6.024   6.976   4.261
 8765SOL    HW227195   6.134   0.032   4.357
 8766SOL     OW27196   2.104   4.764   2.828
 8766SOL    HW127197   2.042   4.686   2.831
 8766SOL    HW227198   2.199   4.733   2.839
 8767SOL     OW27199   4.514   0.863   3.350
 8767SOL    HW127200   4.492   0.778   3.398
 8767SOL    HW227201   4.435   0.925   3.354
 8768SOL     OW27202   1.845   3.079   0.075
 8768SOL    HW127203   1.945   3.077   0.082
 8768SOL    HW227204   1.814   3.174   0.077
 8769SOL     OW27205   1.913   7.012   6.034
 8769SOL    HW127206   1.945   0.089   6.029
 8769SOL    HW227207   1.817   7.008   6.004
 8770SOL     OW27208   5.242   3.020   1.391
 8770SOL    HW127209   5.144   3.021   1.407
 8770SOL    HW227210   5.261   2.986   1.299
 8771SOL     OW27211   1.352   1.319   6.442
 8771SOL    HW127212   1.357   1.395   6.378
 8771SOL    HW227213   1.258   1.285   6.448
 8772SOL     OW27214   5.702   1.415   6.274
 8772SOL    HW127215   5.763   1.373   6.206
 8772SOL    HW227216   5.744   1.498   6.310
 8773SOL     OW27217   2.530   2.418   3.210
 8773SOL    HW127218   2.504   2.457   3.298
 8773SOL    HW227219   2.629   2.400   3.210
 8774SOL     OW27220   1.111   1.614   1.040
 8774SOL    HW127221   1.181   1.548   1.015
 8774SOL    HW227222   1.034   1.567   1.084
 8775SOL     OW27223   6.395   6.985   3.466
 8775SOL    HW127224   6.330   6.926   3.514
 8775SOL    HW227225   6.474   7.002   3.525
 8776SOL     OW27226   3.574   3.015   4.935
 8776SOL    HW127227   3.584   3.114   4.941
 8776SOL    HW227228   3.483   2.988   4.967
 8777SOL     OW27229   6.424   6.507   1.813
 8777SOL    HW127230   6.486   6.543   1.883
 8777SOL    HW227231   6.330   6.513   1.846
 8778SOL     OW27232   0.139   2.001   3.760
 8778SOL    HW127233   0.122   1.978   3.856
 8778SOL    HW227234   0.218   2.063   3.755
 8779SOL     OW27235   1.495   4.778   0.812
 8779SOL    HW127236   1.434   4.799   0.888
 8779SOL    HW227237   1.530   4.863   0.773
 8780SOL     OW27238   0.939   5.478   4.451
 8780SOL    HW127239   0.927   5.445   4.545
 8780SOL    HW227240   0.858   5.528   4.422
 8781SOL     OW27241   0.746   2.326   3.383
 8781SOL    HW127242   0.760   2.375   3.297
 8781SOL    HW227243   0.740   2.392   3.458
 8782SOL     OW27244   4.158   1.199   3.193
 8782SOL    HW127245   4.112   1.187   3.105
 8782SOL    HW227246   4.216   1.280   3.189
 8783SOL     OW27247   5.900   4.133   4.350
 8783SOL    HW127248   5.996   4.116   4.328
 8783SOL    HW227249   5.844   4.116   4.269
 8784SOL     OW27250   5.369   4.884   5.891
 8784SOL    HW127251   5.328   4.882   5.800
 8784SOL    HW227252   5.394   4.791   5.918
 8785SOL     OW27253   6.146   4.542   6.742
 8785SOL    HW127254   6.052   4.577   6.741
 8785SOL    HW227255   6.196   4.584   6.818
 8786SOL     OW27256   1.806   6.895   0.133
 8786SOL    HW127257   1.771   6.989   0.138
 8786SOL    HW227258   1.791   6.849   0.220
 8787SOL     OW27259   1.556   3.735   1.485
 8787SOL    HW127260   1.496   3.673   1.434
 8787SOL    HW227261   1.616   3.783   1.421
 8788SOL     OW27262   0.730   1.632   5.239
 8788SOL    HW127263   0.635   1.650   5.262
 8788SOL    HW227264   0.776   1.593   5.318
 8789SOL     OW27265   6.774   0.285   6.249
 8789SOL    HW127266   6.828   0.320   6.326
 8789SOL    HW227267   6.772   0.353   6.176
 8790SOL     OW27268   5.983   1.965   7.011
 8790SOL    HW127269   5.890   1.998   6.991
 8790SOL    HW227270   6.010   1.898   6.942
 8791SOL     OW27271   4.718   6.493   5.798
 8791SOL    HW127272   4.708   6.582   5.753
 8791SOL    HW227273   4.649   6.430   5.764
 8792SOL     OW27274   4.957   6.666   2.867
 8792SOL    HW127275   5.005   6.626   2.945
 8792SOL    HW227276   4.859   6.664   2.884
 8793SOL     OW27277   1.749   5.928   3.745
 8793SOL    HW127278   1.665   5.955   3.699
 8793SOL    HW227279   1.825   5.986   3.713
 8794SOL     OW27280   1.911   0.197   2.599
 8794SOL    HW127281   1.831   0.246   2.634
 8794SOL    HW227282   1.881   0.132   2.529
 8795SOL     OW27283   1.993   6.239   5.454
 8795SOL    HW127284   2.048   6.283   5.525
 8795SOL    HW227285   1.967   6.306   5.385
 8796SOL     OW27286   4.528   2.348   5.695
 8796SOL    HW127287   4.511   2.425   5.756
 8796SOL    HW227288   4.575   2.380   5.613
 8797SOL     OW27289   0.184   6.826   6.925
 8797SOL    HW127290   0.218   6.820   6.831
 8797SOL    HW227291   0.161   6.735   6.958
 8798SOL     OW27292   5.118   3.668   5.429
 8798SOL    HW127293   5.068   3.748   5.461
 8798SOL    HW227294   5.082   3.640   5.340
 8799SOL     OW27295   3.231   4.852   3.223
 8799SOL    HW127296   3.319   4.850   3.176
 8799SOL    HW227297   3.157   4.859   3.156
 8800SOL     OW27298   4.247   5.064   6.813
 8800SOL    HW127299   4.206   4.978   6.784
 8800SOL    HW227300   4.344   5.064   6.788
 8801SOL     OW27301   2.802   1.397   4.947
 8801SOL    HW127302   2.860   1.316   4.949
 8801SOL    HW227303   2.742   1.397   5.027
 8802SOL     OW27304   2.976   6.061   2.253
 8802SOL    HW127305   2.890   6.047   2.302
 8802SOL    HW227306   3.046   6.095   2.316
 8803SOL     OW27307   3.061   5.335   6.970
 8803SOL    HW127308   3.087   5.424   6.934
 8803SOL    HW227309   2.961   5.325   6.966
 8804SOL     OW27310   4.951   0.573   0.939
 8804SOL    HW127311   5.022   0.588   1.008
 8804SOL    HW227312   4.864   0.609   0.972
 8805SOL     OW27313   0.715   0.222   2.876
 8805SOL    HW127314   0.682   0.132   2.904
 8805SOL    HW227315   0.707   0.285   2.953
 8806SOL     OW27316   1.735   4.884   6.851
 8806SOL    HW127317   1.738   4.784   6.840
 8806SOL    HW227318   1.760   4.928   6.765
 8807SOL     OW27319   0.451   6.257   6.246
 8807SOL    HW127320   0.400   6.335   6.284
 8807SOL    HW227321   0.433   6.176   6.302
 8808SOL     OW27322   4.948   1.323   0.309
 8808SOL    HW127323   5.043   1.291   0.308
 8808SOL    HW227324   4.902   1.293   0.226
 8809SOL     OW27325   5.677   3.579   1.027
 8809SOL    HW127326   5.763   3.540   1.060
 8809SOL    HW227327   5.630   3.511   0.971
 8810SOL     OW27328   3.954   1.380   4.136
 8810SOL    HW127329   4.028   1.433   4.096
 8810SOL    HW227330   3.987   1.336   4.220
 8811SOL     OW27331   1.332   1.817   2.690
 8811SOL    HW127332   1.372   1.896   2.643
 8811SOL    HW227333   1.262   1.776   2.632
 8812SOL     OW27334   1.722   0.961   0.463
 8812SOL    HW127335   1.705   1.017   0.544
 8812SOL    HW227336   1.792   1.004   0.406
 8813SOL     OW27337   2.114   6.843   1.822
 8813SOL    HW127338   2.095   6.938   1.849
 8813SOL    HW227339   2.114   6.785   1.904
 8814SOL     OW27340   6.047   0.838   6.347
 8814SOL    HW127341   6.101   0.780   6.409
 8814SOL    HW227342   5.994   0.904   6.401
 8815SOL     OW27343   0.047   5.928   2.501
 8815SOL    HW127344   0.103   6.001   2.462
 8815SOL    HW227345   0.041   5.852   2.436
 8816SOL     OW27346   1.272   5.938   1.079
 8816SOL    HW127347   1.269   5.998   1.159
 8816SOL    HW227348   1.215   5.977   1.006
 8817SOL     OW27349   1.538   5.306   4.986
 8817SOL    HW127350   1.560   5.293   5.083
 8817SOL    HW227351   1.440   5.318   4.975
 8818SOL     OW27352   0.316   5.412   4.273
 8818SOL    HW127353   0.245   5.390   4.340
 8818SOL    HW227354   0.316   5.343   4.201
 8819SOL     OW27355   4.452   6.514   4.311
 8819SOL    HW127356   4.521   6.585   4.296
 8819SOL    HW227357   4.392   6.509   4.231
 8820SOL     OW27358   1.322   2.013   4.002
 8820SOL    HW127359   1.254   2.061   4.057
 8820SOL    HW227360   1.383   2.079   3.959
 8821SOL     OW27361   2.537   0.481   6.673
 8821SOL    HW127362   2.456   0.540   6.674
 8821SOL    HW227363   2.525   0.406   6.738
 8822SOL     OW27364   0.558   2.089   3.713
 8822SOL    HW127365   0.466   2.127   3.702
 8822SOL    HW227366   0.626   2.162   3.708
 8823SOL     OW27367   1.708   6.512   1.113
 8823SOL    HW127368   1.647   6.434   1.109
 8823SOL    HW227369   1.661   6.589   1.158
 8824SOL     OW27370   3.515   3.546   0.680
 8824SOL    HW127371   3.580   3.582   0.612
 8824SOL    HW227372   3.526   3.447   0.688
 8825SOL     OW27373   0.707   1.652   2.150
 8825SOL    HW127374   0.628   1.623   2.096
 8825SOL    HW227375   0.767   1.574   2.166
 8826SOL     OW27376   4.921   1.238   6.672
 8826SOL    HW127377   4.864   1.320   6.672
 8826SOL    HW227378   5.012   1.260   6.637
 8827SOL     OW27379   1.235   1.336   3.505
 8827SOL    HW127380   1.207   1.399   3.578
 8827SOL    HW227381   1.330   1.355   3.479
 8828SOL     OW27382   3.250   0.085   2.598
 8828SOL    HW127383   3.306   0.149   2.546
 8828SOL    HW227384   3.156   0.088   2.565
 8829SOL     OW27385   0.616   1.855   7.003
 8829SOL    HW127386   0.538   1.913   0.009
 8829SOL    HW227387   0.671   1.839   0.067
 8830SOL     OW27388   0.916   1.905   0.678
 8830SOL    HW127389   0.892   1.848   0.757
 8830SOL    HW227390   0.910   2.001   0.704
 8831SOL     OW27391   6.627   0.940   2.863
 8831SOL    HW127392   6.628   0.968   2.767
 8831SOL    HW227393   6.720   0.918   2.892
 8832SOL     OW27394   6.069   0.705   2.592
 8832SOL    HW127395   6.066   0.805   2.588
 8832SOL    HW227396   6.053   0.668   2.501
 8833SOL     OW27397   2.175   4.979   4.108
 8833SOL    HW127398   2.168   4.936   4.018
 8833SOL    HW227399   2.099   5.042   4.120
 8834SOL     OW27400   5.913   3.451   5.138
 8834SOL    HW127401   5.843   3.381   5.145
 8834SOL    HW227402   5.980   3.424   5.068
 8835SOL     OW27403   6.596   6.777   5.915
 8835SOL    HW127404   6.617   6.775   5.818
 8835SOL    HW227405   6.677   6.804   5.967
 8836SOL     OW27406   4.251   1.340   0.019
 8836SOL    HW127407   4.289   1.340   6.944
 8836SOL    HW227408   4.308   1.397   0.078
 8837SOL     OW27409   0.117   1.346   1.894
 8837SOL    HW127410   0.084   1.434   1.929
 8837SOL    HW227411   0.059   1.273   1.929
 8838SOL     OW27412   2.395   4.986   3.129
 8838SOL    HW127413   2.323   4.941   3.077
 8838SOL    HW227414   2.408   5.079   3.096
 8839SOL     OW27415   6.848   6.411   3.663
 8839SOL    HW127416   6.937   6.407   3.618
 8839SOL    HW227417   6.856   6.372   3.754
 8840SOL     OW27418   5.947   2.261   1.927
 8840SOL    HW127419   5.993   2.206   1.996
 8840SOL    HW227420   5.950   2.358   1.953
 8841SOL     OW27421   1.260   1.264   5.620
 8841SOL    HW127422   1.301   1.328   5.686
 8841SOL    HW227423   1.273   1.298   5.527
 8842SOL     OW27424   2.509   2.736   1.809
 8842SOL    HW127425   2.437   2.669   1.789
 8842SOL    HW227426   2.598   2.690   1.810
 8843SOL     OW27427   1.146   2.751   5.189
 8843SOL    HW127428   1.059   2.729   5.232
 8843SOL    HW227429   1.194   2.819   5.244
 8844SOL     OW27430   6.565   1.128   6.174
 8844SOL    HW127431   6.574   1.223   6.204
 8844SOL    HW227432   6.572   1.124   6.074
 8845SOL     OW27433   5.774   4.566   6.911
 8845SOL    HW127434   5.810   4.659   6.912
 8845SOL    HW227435   5.788   4.524   7.001
 8846SOL     OW27436   1.855   4.588   4.209
 8846SOL    HW127437   1.785   4.621   4.273
 8846SOL    HW227438   1.918   4.527   4.257
 8847SOL     OW27439   3.265   0.267   2.190
 8847SOL    HW127440   3.260   0.195   2.121
 8847SOL    HW227441   3.176   0.280   2.233
 8848SOL     OW27442   1.355   0.689   2.794
 8848SOL    HW127443   1.354   0.735   2.704
 8848SOL    HW227444   1.406   0.745   2.859
 8849SOL     OW27445   2.716   6.565   1.174
 8849SOL    HW127446   2.664   6.614   1.105
 8849SOL    HW227447   2.779   6.501   1.130
 8850SOL     OW27448   3.501   2.634   6.372
 8850SOL    HW127449   3.496   2.536   6.352
 8850SOL    HW227450   3.595   2.659   6.395
 8851SOL     OW27451   1.515   4.065   2.894
 8851SOL    HW127452   1.480   3.973   2.915
 8851SOL    HW227453   1.612   4.070   2.917
 8852SOL     OW27454   1.151   1.800   6.184
 8852SOL    HW127455   1.108   1.872   6.130
 8852SOL    HW227456   1.186   1.839   6.269
 8853SOL     OW27457   3.900   0.745   0.412
 8853SOL    HW127458   3.959   0.805   0.358
 8853SOL    HW227459   3.915   0.762   0.510
 8854SOL     OW27460   1.026   3.908   4.612
 8854SOL    HW127461   1.040   3.834   4.546
 8854SOL    HW227462   1.115   3.941   4.645
 8855SOL     OW27463   6.085   5.761   0.873
 8855SOL    HW127464   6.051   5.710   0.953
 8855SOL    HW227465   6.046   5.722   0.790
 8856SOL     OW27466   0.206   5.768   6.022
 8856SOL    HW127467   0.264   5.729   5.950
 8856SOL    HW227468   0.112   5.776   5.988
 8857SOL     OW27469   6.338   1.571   5.576
 8857SOL    HW127470   6.281   1.488   5.573
 8857SOL    HW227471   6.314   1.630   5.499
 8858SOL     OW27472   6.070   5.398   4.825
 8858SOL    HW127473   6.076   5.475   4.760
 8858SOL    HW227474   6.161   5.378   4.861
 8859SOL     OW27475   0.846   0.372   3.365
 8859SOL    HW127476   0.749   0.355   3.385
 8859SOL    HW227477   0.891   0.407   3.447
 8860SOL     OW27478   6.776   2.820   2.223
 8860SOL    HW127479   6.833   2.777   2.153
 8860SOL    HW227480   6.712   2.883   2.180
 8861SOL     OW27481   4.620   2.123   1.867
 8861SOL    HW127482   4.551   2.093   1.801
 8861SOL    HW227483   4.579   2.127   1.958
 8862SOL     OW27484   4.639   5.270   5.358
 8862SOL    HW127485   4.700   5.202   5.316
 8862SOL    HW227486   4.677   5.361   5.345
 8863SOL     OW27487   2.296   4.241   3.399
 8863SOL    HW127488   2.275   4.189   3.482
 8863SOL    HW227489   2.231   4.316   3.389
 8864SOL     OW27490   5.983   1.913   5.135
 8864SOL    HW127491   5.896   1.892   5.179
 8864SOL    HW227492   6.025   1.828   5.103
 8865SOL     OW27493   2.185   1.204   6.611
 8865SOL    HW127494   2.245   1.126   6.628
 8865SOL    HW227495   2.241   1.283   6.585
 8866SOL     OW27496   5.910   6.234   1.987
 8866SOL    HW127497   5.915   6.270   2.080
 8866SOL    HW227498   5.819   6.197   1.970
 8867SOL     OW27499   6.257   4.319   2.501
 8867SOL    HW127500   6.228   4.231   2.537
 8867SOL    HW227501   6.269   4.313   2.402
 8868SOL     OW27502   0.035   3.612   3.199
 8868SOL    HW127503   0.100   3.681   3.168
 8868SOL    HW227504   6.986   3.655   3.260
 8869SOL     OW27505   3.096   6.830   3.058
 8869SOL    HW127506   3.063   6.814   3.151
 8869SOL    HW227507   3.180   6.885   3.061
 8870SOL     OW27508   1.481   0.518   3.099
 8870SOL    HW127509   1.539   0.589   3.137
 8870SOL    HW227510   1.392   0.518   3.145
 8871SOL     OW27511   0.380   0.520   2.629
 8871SOL    HW127512   0.426   0.431   2.625
 8871SOL    HW227513   0.426   0.577   2.697
 8872SOL     OW27514   0.071   5.192   4.887
 8872SOL    HW127515   0.106   5.239   4.806
 8872SOL    HW227516   0.132   5.209   4.965
 8873SOL     OW27517   1.673   1.143   2.101
 8873SOL    HW127518   1.652   1.241   2.101
 8873SOL    HW227519   1.731   1.121   2.179
 8874SOL     OW27520   3.464   6.145   0.358
 8874SOL    HW127521   3.445   6.047   0.362
 8874SOL    HW227522   3.405   6.187   0.289
 8875SOL     OW27523   0.044   3.224   3.740
 8875SOL    HW127524   0.083   3.316   3.736
 8875SOL    HW227525   0.013   3.205   3.833
 8876SOL     OW27526   3.432   0.806   6.444
 8876SOL    HW127527   3.475   0.895   6.455
 8876SOL    HW227528   3.478   0.739   6.502
 8877SOL     OW27529   1.962   4.285   1.285
 8877SOL    HW127530   1.929   4.361   1.341
 8877SOL    HW227531   2.038   4.315   1.227
 8878SOL     OW27532   4.948   3.998   0.937
 8878SOL    HW127533   4.867   3.960   0.892
 8878SOL    HW227534   4.918   4.058   1.012
 8879SOL     OW27535   5.636   4.987   2.698
 8879SOL    HW127536   5.719   5.023   2.656
 8879SOL    HW227537   5.660   4.912   2.759
 8880SOL     OW27538   4.342   0.496   3.989
 8880SOL    HW127539   4.390   0.449   4.063
 8880SOL    HW227540   4.364   0.453   3.902
 8881SOL     OW27541   4.330   5.109   4.311
 8881SOL    HW127542   4.390   5.083   4.235
 8881SOL    HW227543   4.372   5.185   4.361
 8882SOL     OW27544   4.509   0.552   0.668
 8882SOL    HW127545   4.447   0.488   0.623
 8882SOL    HW227546   4.506   0.536   0.767
 8883SOL     OW27547   0.008   6.299   4.635
 8883SOL    HW127548   6.979   6.246   4.707
 8883SOL    HW227549   6.961   6.366   4.597
 8884SOL     OW27550   5.330   3.426   4.992
 8884SOL    HW127551   5.376   3.510   5.021
 8884SOL    HW227552   5.247   3.414   5.046
 8885SOL     OW27553   6.566   5.725   0.379
 8885SOL    HW127554   6.466   5.721   0.384
 8885SOL    HW227555   6.600   5.797   0.440
 8886SOL     OW27556   3.672   5.507   6.183
 8886SOL    HW127557   3.699   5.411   6.173
 8886SOL    HW227558   3.665   5.530   6.280
 8887SOL     OW27559   4.879   1.401   1.537
 8887SOL    HW127560   4.882   1.344   1.455
 8887SOL    HW227561   4.884   1.342   1.618
 8888SOL     OW27562   2.535   2.016   2.983
 8888SOL    HW127563   2.622   2.066   2.979
 8888SOL    HW227564   2.476   2.057   3.053
 8889SOL     OW27565   0.070   6.077   6.296
 8889SOL    HW127566   6.991   6.056   6.276
 8889SOL    HW227567   0.123   5.992   6.297
 8890SOL     OW27568   0.436   6.449   0.620
 8890SOL    HW127569   0.444   6.515   0.545
 8890SOL    HW227570   0.525   6.435   0.662
 8891SOL     OW27571   5.992   3.596   0.189
 8891SOL    HW127572   5.921   3.618   0.255
 8891SOL    HW227573   6.047   3.520   0.224
 8892SOL     OW27574   3.212   5.106   3.621
 8892SOL    HW127575   3.266   5.160   3.556
 8892SOL    HW227576   3.201   5.157   3.706
 8893SOL     OW27577   1.630   5.165   4.628
 8893SOL    HW127578   1.729   5.150   4.626
 8893SOL    HW227579   1.611   5.264   4.630
 8894SOL     OW27580   4.483   1.672   0.343
 8894SOL    HW127581   4.482   1.635   0.249
 8894SOL    HW227582   4.408   1.633   0.395
 8895SOL     OW27583   6.785   3.954   1.141
 8895SOL    HW127584   6.771   4.013   1.221
 8895SOL    HW227585   6.793   3.859   1.171
 8896SOL     OW27586   0.449   2.413   4.813
 8896SOL    HW127587   0.485   2.333   4.862
 8896SOL    HW227588   0.439   2.490   4.876
 8897SOL     OW27589   2.157   3.870   3.711
 8897SOL    HW127590   2.198   3.961   3.723
 8897SOL    HW227591   2.068   3.880   3.666
 8898SOL     OW27592   4.844   4.437   2.588
 8898SOL    HW127593   4.752   4.425   2.552
 8898SOL    HW227594   4.848   4.520   2.643
 8899SOL     OW27595   0.576   3.743   5.469
 8899SOL    HW127596   0.476   3.749   5.465
 8899SOL    HW227597   0.611   3.716   5.380
 8900SOL     OW27598   5.087   2.742   4.158
 8900SOL    HW127599   5.183   2.712   4.159
 8900SOL    HW227600   5.057   2.759   4.252
 8901SOL     OW27601   1.615   2.957   4.388
 8901SOL    HW127602   1.682   2.945   4.460
 8901SOL    HW227603   1.655   3.008   4.312
 8902SOL     OW27604   0.639   4.523   0.335
 8902SOL    HW127605   0.588   4.491   0.255
 8902SOL    HW227606   0.619   4.464   0.413
 8903SOL     OW27607   1.557   0.082   5.491
 8903SOL    HW127608   1.648   0.051   5.517
 8903SOL    HW227609   1.505   0.006   5.453
 8904SOL     OW27610   0.413   0.667   3.264
 8904SOL    HW127611   0.393   0.569   3.264
 8904SOL    HW227612   0.511   0.681   3.253
 8905SOL     OW27613   1.461   3.664   2.623
 8905SOL    HW127614   1.438   3.585   2.681
 8905SOL    HW227615   1.560   3.677   2.623
 8906SOL     OW27616   6.655   0.133   0.491
 8906SOL    HW127617   6.673   0.038   0.517
 8906SOL    HW227618   6.569   0.163   0.533
 8907SOL     OW27619   3.295   2.930   4.679
 8907SOL    HW127620   3.387   2.905   4.711
 8907SOL    HW227621   3.231   2.927   4.757
 8908SOL     OW27622   0.956   5.606   0.229
 8908SOL    HW127623   0.949   5.507   0.230
 8908SOL    HW227624   0.920   5.641   0.142
 8909SOL     OW27625   3.058   0.373   6.997
 8909SOL    HW127626   3.062   0.437   6.920
 8909SOL    HW227627   2.970   0.325   6.995
 8910SOL     OW27628   2.164   1.656   3.769
 8910SOL    HW127629   2.229   1.643   3.694
 8910SOL    HW227630   2.214   1.676   3.853
 8911SOL     OW27631   4.285   1.957   3.795
 8911SOL    HW127632   4.319   2.008   3.874
 8911SOL    HW227633   4.203   2.002   3.759
 8912SOL     OW27634   3.285   3.768   4.844
 8912SOL    HW127635   3.265   3.785   4.941
 8912SOL    HW227636   3.199   3.746   4.797
 8913SOL     OW27637   5.293   6.362   6.549
 8913SOL    HW127638   5.327   6.395   6.461
 8913SOL    HW227639   5.365   6.373   6.618
 8914SOL     OW27640   4.466   5.566   6.451
 8914SOL    HW127641   4.550   5.616   6.474
 8914SOL    HW227642   4.396   5.631   6.422
 8915SOL     OW27643   1.475   1.257   3.899
 8915SOL    HW127644   1.384   1.275   3.937
 8915SOL    HW227645   1.540   1.241   3.974
 8916SOL     OW27646   4.635   1.032   0.250
 8916SOL    HW127647   4.579   1.111   0.275
 8916SOL    HW227648   4.649   1.032   0.151
 8917SOL     OW27649   5.699   1.908   0.336
 8917SOL    HW127650   5.637   1.923   0.259
 8917SOL    HW227651   5.646   1.908   0.421
 8918SOL     OW27652   0.990   4.150   2.511
 8918SOL    HW127653   0.900   4.187   2.534
 8918SOL    HW227654   1.056   4.177   2.581
 8919SOL     OW27655   5.676   3.826   0.633
 8919SOL    HW127656   5.744   3.863   0.696
 8919SOL    HW227657   5.606   3.776   0.685
 8920SOL     OW27658   6.498   1.472   0.553
 8920SOL    HW127659   6.458   1.462   0.461
 8920SOL    HW227660   6.583   1.421   0.558
 8921SOL     OW27661   1.399   2.859   1.524
 8921SOL    HW127662   1.459   2.867   1.444
 8921SOL    HW227663   1.341   2.778   1.514
 8922SOL     OW27664   3.640   0.030   3.282
 8922SOL    HW127665   3.695   0.042   3.364
 8922SOL    HW227666   3.601   0.118   3.254
 8923SOL     OW27667   1.732   2.111   4.881
 8923SOL    HW127668   1.638   2.102   4.848
 8923SOL    HW227669   1.737   2.186   4.947
 8924SOL     OW27670   4.958   5.510   5.106
 8924SOL    HW127671   4.924   5.420   5.080
 8924SOL    HW227672   4.903   5.546   5.181
 8925SOL     OW27673   0.959   0.616   3.166
 8925SOL    HW127674   1.007   0.609   3.253
 8925SOL    HW227675   0.975   0.533   3.112
 8926SOL     OW27676   5.979   2.917   5.842
 8926SOL    HW127677   5.976   2.836   5.901
 8926SOL    HW227678   6.075   2.938   5.821
 8927SOL     OW27679   0.482   1.160   6.045
 8927SOL    HW127680   0.513   1.182   6.137
 8927SOL    HW227681   0.560   1.131   5.989
 8928SOL     OW27682   2.273   6.312   4.967
 8928SOL    HW127683   2.358   6.261   4.977
 8928SOL    HW227684   2.285   6.385   4.900
 8929SOL     OW27685   6.925   2.893   4.495
 8929SOL    HW127686   6.967   2.868   4.583
 8929SOL    HW227687   6.848   2.832   4.477
 8930SOL     OW27688   1.489   4.371   3.351
 8930SOL    HW127689   1.573   4.425   3.359
 8930SOL    HW227690   1.460   4.342   3.442
 8931SOL     OW27691   4.012   2.110   1.169
 8931SOL    HW127692   3.965   2.196   1.191
 8931SOL    HW227693   4.060   2.077   1.250
 8932SOL     OW27694   0.211   3.064   3.457
 8932SOL    HW127695   0.164   3.114   3.530
 8932SOL    HW227696   0.307   3.051   3.481
 8933SOL     OW27697   3.639   1.392   5.815
 8933SOL    HW127698   3.543   1.387   5.785
 8933SOL    HW227699   3.688   1.311   5.783
 8934SOL     OW27700   2.691   5.908   3.586
 8934SOL    HW127701   2.687   5.989   3.644
 8934SOL    HW227702   2.691   5.826   3.643
 8935SOL     OW27703   0.317   4.830   1.232
 8935SOL    HW127704   0.311   4.733   1.257
 8935SOL    HW227705   0.329   4.837   1.133
 8936SOL     OW27706   1.897   2.798   0.197
 8936SOL    HW127707   1.854   2.845   0.121
 8936SOL    HW227708   1.947   2.718   0.164
 8937SOL     OW27709   0.755   5.920   5.860
 8937SOL    HW127710   0.732   6.010   5.823
 8937SOL    HW227711   0.782   5.928   5.956
 8938SOL     OW27712   6.046   5.245   0.783
 8938SOL    HW127713   6.140   5.233   0.815
 8938SOL    HW227714   6.040   5.216   0.687
 8939SOL     OW27715   5.602   1.714   4.596
 8939SOL    HW127716   5.674   1.708   4.666
 8939SOL    HW227717   5.639   1.682   4.508
 8940SOL     OW27718   6.098   0.741   3.434
 8940SOL    HW127719   6.087   0.641   3.439
 8940SOL    HW227720   6.170   0.770   3.497
 8941SOL     OW27721   4.954   2.603   6.263
 8941SOL    HW127722   4.954   2.546   6.345
 8941SOL    HW227723   4.951   2.699   6.289
 8942SOL     OW27724   0.525   2.172   4.890
 8942SOL    HW127725   0.512   2.094   4.829
 8942SOL    HW227726   0.579   2.144   4.970
 8943SOL     OW27727   4.772   3.150   0.989
 8943SOL    HW127728   4.844   3.113   1.049
 8943SOL    HW227729   4.737   3.077   0.931
 8944SOL     OW27730   4.371   5.505   0.713
 8944SOL    HW127731   4.333   5.564   0.785
 8944SOL    HW227732   4.323   5.522   0.627
 8945SOL     OW27733   2.761   0.825   4.022
 8945SOL    HW127734   2.709   0.875   3.952
 8945SOL    HW227735   2.788   0.888   4.095
 8946SOL     OW27736   3.024   1.945   4.714
 8946SOL    HW127737   3.042   1.889   4.633
 8946SOL    HW227738   2.971   1.892   4.780
 8947SOL     OW27739   4.362   3.935   5.378
 8947SOL    HW127740   4.302   4.013   5.397
 8947SOL    HW227741   4.325   3.882   5.302
 8948SOL     OW27742   5.760   4.857   3.391
 8948SOL    HW127743   5.682   4.908   3.428
 8948SOL    HW227744   5.818   4.919   3.339
 8949SOL     OW27745   2.424   6.049   0.117
 8949SOL    HW127746   2.491   6.103   0.065
 8949SOL    HW227747   2.331   6.078   0.091
 8950SOL     OW27748   4.687   2.723   4.191
 8950SOL    HW127749   4.746   2.766   4.123
 8950SOL    HW227750   4.689   2.777   4.275
 8951SOL     OW27751   1.666   2.705   5.441
 8951SOL    HW127752   1.712   2.618   5.461
 8951SOL    HW227753   1.570   2.688   5.421
 8952SOL     OW27754   0.436   1.416   2.243
 8952SOL    HW127755   0.410   1.512   2.256
 8952SOL    HW227756   0.472   1.404   2.150
 8953SOL     OW27757   1.691   3.348   0.023
 8953SOL    HW127758   1.693   3.447   0.039
 8953SOL    HW227759   1.608   3.310   0.064
 8954SOL     OW27760   1.769   5.860   6.589
 8954SOL    HW127761   1.857   5.880   6.632
 8954SOL    HW227762   1.738   5.769   6.617
 8955SOL     OW27763   6.522   4.134   3.185
 8955SOL    HW127764   6.424   4.123   3.203
 8955SOL    HW227765   6.540   4.227   3.153
 8956SOL     OW27766   0.789   0.690   5.762
 8956SOL    HW127767   0.808   0.594   5.781
 8956SOL    HW227768   0.694   0.701   5.733
 8957SOL     OW27769   2.769   4.745   2.438
 8957SOL    HW127770   2.854   4.732   2.387
 8957SOL    HW227771   2.694   4.701   2.388
 8958SOL     OW27772   1.781   6.648   4.125
 8958SOL    HW127773   1.880   6.647   4.142
 8958SOL    HW227774   1.764   6.636   4.028
 8959SOL     OW27775   1.767   4.269   0.609
 8959SOL    HW127776   1.673   4.243   0.629
 8959SOL    HW227777   1.823   4.264   0.692
 8960SOL     OW27778   3.808   5.681   1.506
 8960SOL    HW127779   3.830   5.779   1.514
 8960SOL    HW227780   3.893   5.628   1.513
 8961SOL     OW27781   1.531   2.134   3.854
 8961SOL    HW127782   1.573   2.217   3.889
 8961SOL    HW227783   1.536   2.134   3.754
 8962SOL     OW27784   6.009   0.505   3.248
 8962SOL    HW127785   6.022   0.493   3.150
 8962SOL    HW227786   6.084   0.462   3.298
 8963SOL     OW27787   6.246   0.723   4.594
 8963SOL    HW127788   6.201   0.775   4.521
 8963SOL    HW227789   6.187   0.647   4.622
 8964SOL     OW27790   5.400   4.493   2.365
 8964SOL    HW127791   5.314   4.445   2.346
 8964SOL    HW227792   5.397   4.583   2.322
 8965SOL     OW27793   1.362   5.325   1.934
 8965SOL    HW127794   1.430   5.352   1.867
 8965SOL    HW227795   1.406   5.274   2.008
 8966SOL     OW27796   1.725   2.666   6.249
 8966SOL    HW127797   1.805   2.668   6.189
 8966SOL    HW227798   1.642   2.679   6.193
 8967SOL     OW27799   4.671   0.434   0.218
 8967SOL    HW127800   4.575   0.464   0.221
 8967SOL    HW227801   4.675   0.334   0.227
 8968SOL     OW27802   4.972   6.150   1.719
 8968SOL    HW127803   5.001   6.082   1.652
 8968SOL    HW227804   4.887   6.193   1.688
 8969SOL     OW27805   6.400   0.324   4.151
 8969SOL    HW127806   6.405   0.397   4.082
 8969SOL    HW227807   6.491   0.283   4.163
 8970SOL     OW27808   3.962   1.692   1.551
 8970SOL    HW127809   3.946   1.778   1.503
 8970SOL    HW227810   4.005   1.710   1.639
 8971SOL     OW27811   4.200   5.156   2.425
 8971SOL    HW127812   4.291   5.118   2.404
 8971SOL    HW227813   4.144   5.155   2.342
 8972SOL     OW27814   5.247   6.679   5.415
 8972SOL    HW127815   5.295   6.651   5.332
 8972SOL    HW227816   5.238   6.600   5.477
 8973SOL     OW27817   1.158   4.492   6.997
 8973SOL    HW127818   1.245   4.450   6.969
 8973SOL    HW227819   1.154   4.494   0.080
 8974SOL     OW27820   0.682   3.581   5.231
 8974SOL    HW127821   0.656   3.527   5.151
 8974SOL    HW227822   0.711   3.520   5.305
 8975SOL     OW27823   3.509   6.930   0.523
 8975SOL    HW127824   3.473   6.849   0.568
 8975SOL    HW227825   3.493   6.924   0.425
 8976SOL     OW27826   1.622   5.537   4.283
 8976SOL    HW127827   1.574   5.450   4.284
 8976SOL    HW227828   1.681   5.542   4.202
 8977SOL     OW27829   6.434   1.404   5.959
 8977SOL    HW127830   6.413   1.308   5.975
 8977SOL    HW227831   6.394   1.459   6.033
 8978SOL     OW27832   5.684   6.869   0.638
 8978SOL    HW127833   5.761   6.807   0.628
 8978SOL    HW227834   5.707   6.941   0.704
 8979SOL     OW27835   1.939   3.919   5.104
 8979SOL    HW127836   1.966   3.999   5.159
 8979SOL    HW227837   1.983   3.837   5.141
 8980SOL     OW27838   3.933   3.125   4.583
 8980SOL    HW127839   3.897   3.068   4.657
 8980SOL    HW227840   3.982   3.203   4.622
 8981SOL     OW27841   3.673   1.203   5.209
 8981SOL    HW127842   3.588   1.256   5.217
 8981SOL    HW227843   3.713   1.217   5.119
 8982SOL     OW27844   2.909   4.294   0.745
 8982SOL    HW127845   2.961   4.343   0.816
 8982SOL    HW227846   2.926   4.336   0.656
 8983SOL     OW27847   4.511   5.265   0.706
 8983SOL    HW127848   4.556   5.241   0.620
 8983SOL    HW227849   4.467   5.354   0.697
 8984SOL     OW27850   2.196   5.922   2.864
 8984SOL    HW127851   2.229   5.975   2.942
 8984SOL    HW227852   2.187   5.826   2.891
 8985SOL     OW27853   3.810   2.801   6.715
 8985SOL    HW127854   3.871   2.733   6.756
 8985SOL    HW227855   3.742   2.830   6.783
 8986SOL     OW27856   3.992   4.806   2.863
 8986SOL    HW127857   3.917   4.844   2.809
 8986SOL    HW227858   4.073   4.795   2.805
 8987SOL     OW27859   5.618   6.101   1.933
 8987SOL    HW127860   5.599   6.084   2.029
 8987SOL    HW227861   5.556   6.171   1.898
 8988SOL     OW27862   0.599   5.391   4.284
 8988SOL    HW127863   0.584   5.316   4.348
 8988SOL    HW227864   0.513   5.441   4.270
 8989SOL     OW27865   4.249   2.825   6.729
 8989SOL    HW127866   4.240   2.910   6.677
 8989SOL    HW227867   4.301   2.843   6.812
 8990SOL     OW27868   0.018   5.268   3.649
 8990SOL    HW127869   6.984   5.230   3.573
 8990SOL    HW227870   6.996   5.356   3.676
 8991SOL     OW27871   1.513   2.313   5.342
 8991SOL    HW127872   1.546   2.221   5.319
 8991SOL    HW227873   1.446   2.307   5.416
 8992SOL     OW27874   6.365   1.954   6.938
 8992SOL    HW127875   6.389   1.873   6.993
 8992SOL    HW227876   6.295   2.007   6.986
 8993SOL     OW27877   4.429   2.663   6.588
 8993SOL    HW127878   4.447   2.725   6.512
 8993SOL    HW227879   4.377   2.711   6.659
 8994SOL     OW27880   2.008   4.455   4.392
 8994SOL    HW127881   2.024   4.544   4.434
 8994SOL    HW227882   2.094   4.420   4.354
 8995SOL     OW27883   0.066   1.717   1.667
 8995SOL    HW127884   0.063   1.647   1.596
 8995SOL    HW227885   0.070   1.673   1.757
 8996SOL     OW27886   5.677   4.028   6.609
 8996SOL    HW127887   5.664   4.125   6.630
 8996SOL    HW227888   5.704   3.979   6.693
 8997SOL     OW27889   5.355   1.151   5.032
 8997SOL    HW127890   5.374   1.166   4.935
 8997SOL    HW227891   5.375   1.056   5.055
 8998SOL     OW27892   5.826   4.556   4.386
 8998SOL    HW127893   5.899   4.622   4.367
 8998SOL    HW227894   5.864   4.479   4.438
 8999SOL     OW27895   5.124   6.786   5.948
 8999SOL    HW127896   5.068   6.706   5.971
 8999SOL    HW227897   5.202   6.757   5.892
 9000SOL     OW27898   1.901   4.620   1.745
 9000SOL    HW127899   1.819   4.586   1.792
 9000SOL    HW227900   1.902   4.586   1.651
 9001SOL     OW27901   0.240   4.983   1.972
 9001SOL    HW127902   0.245   4.945   1.880
 9001SOL    HW227903   0.323   4.960   2.023
 9002SOL     OW27904   1.173   4.533   5.816
 9002SOL    HW127905   1.261   4.526   5.769
 9002SOL    HW227906   1.123   4.613   5.782
 9003SOL     OW27907   5.577   1.607   1.148
 9003SOL    HW127908   5.591   1.688   1.091
 9003SOL    HW227909   5.596   1.630   1.244
 9004SOL     OW27910   3.994   4.703   0.880
 9004SOL    HW127911   4.052   4.713   0.800
 9004SOL    HW227912   3.903   4.672   0.851
 9005SOL     OW27913   5.171   1.060   6.002
 9005SOL    HW127914   5.247   1.032   5.942
 9005SOL    HW227915   5.101   1.106   5.947
 9006SOL     OW27916   3.964   0.106   0.815
 9006SOL    HW127917   3.987   0.193   0.858
 9006SOL    HW227918   3.866   0.104   0.793
 9007SOL     OW27919   2.097   1.780   3.088
 9007SOL    HW127920   2.041   1.715   3.038
 9007SOL    HW227921   2.182   1.736   3.117
 9008SOL     OW27922   0.275   5.948   2.784
 9008SOL    HW127923   0.324   5.901   2.710
 9008SOL    HW227924   0.189   5.899   2.803
 9009SOL     OW27925   3.906   5.702   0.238
 9009SOL    HW127926   3.921   5.801   0.232
 9009SOL    HW227927   3.948   5.657   0.158
 9010SOL     OW27928   1.947   6.825   3.886
 9010SOL    HW127929   1.977   6.870   3.970
 9010SOL    HW227930   2.021   6.767   3.852
 9011SOL     OW27931   4.694   0.481   2.866
 9011SOL    HW127932   4.622   0.544   2.835
 9011SOL    HW227933   4.782   0.527   2.862
 9012SOL     OW27934   2.475   5.588   0.339
 9012SOL    HW127935   2.484   5.553   0.433
 9012SOL    HW227936   2.474   5.688   0.340
 9013SOL     OW27937   1.774   6.555   4.433
 9013SOL    HW127938   1.745   6.462   4.455
 9013SOL    HW227939   1.751   6.576   4.338
 9014SOL     OW27940   6.234   2.212   2.539
 9014SOL    HW127941   6.151   2.268   2.535
 9014SOL    HW227942   6.290   2.230   2.458
 9015SOL     OW27943   5.644   2.219   0.647
 9015SOL    HW127944   5.649   2.119   0.653
 9015SOL    HW227945   5.701   2.251   0.572
 9016SOL     OW27946   5.710   5.316   5.710
 9016SOL    HW127947   5.648   5.279   5.641
 9016SOL    HW227948   5.658   5.354   5.786
 9017SOL     OW27949   3.546   0.667   5.016
 9017SOL    HW127950   3.602   0.687   4.936
 9017SOL    HW227951   3.515   0.572   5.012
 9018SOL     OW27952   3.949   2.989   6.542
 9018SOL    HW127953   4.046   2.978   6.523
 9018SOL    HW227954   3.926   2.942   6.627
 9019SOL     OW27955   1.015   2.815   3.195
 9019SOL    HW127956   1.092   2.873   3.167
 9019SOL    HW227957   1.049   2.725   3.222
 9020SOL     OW27958   6.622   5.769   1.926
 9020SOL    HW127959   6.525   5.753   1.942
 9020SOL    HW227960   6.675   5.697   1.970
 9021SOL     OW27961   0.079   0.398   4.249
 9021SOL    HW127962   6.999   0.414   4.233
 9021SOL    HW227963   0.133   0.456   4.188
 9022SOL     OW27964   4.043   2.607   6.724
 9022SOL    HW127965   4.102   2.525   6.725
 9022SOL    HW227966   4.096   2.685   6.691
 9023SOL     OW27967   4.467   3.196   1.201
 9023SOL    HW127968   4.385   3.210   1.257
 9023SOL    HW227969   4.548   3.199   1.259
 9024SOL     OW27970   1.517   5.054   6.053
 9024SOL    HW127971   1.492   5.092   5.964
 9024SOL    HW227972   1.596   4.993   6.042
 9025SOL     OW27973   0.708   5.395   0.893
 9025SOL    HW127974   0.619   5.398   0.848
 9025SOL    HW227975   0.739   5.488   0.913
 9026SOL     OW27976   4.224   1.999   6.792
 9026SOL    HW127977   4.146   2.033   6.740
 9026SOL    HW227978   4.307   2.047   6.761
 9027SOL     OW27979   0.801   3.664   3.811
 9027SOL    HW127980   0.710   3.659   3.769
 9027SOL    HW227981   0.824   3.576   3.853
 9028SOL     OW27982   3.678   3.631   5.621
 9028SOL    HW127983   3.726   3.577   5.552
 9028SOL    HW227984   3.702   3.728   5.611
 9029SOL     OW27985   4.170   0.486   4.711
 9029SOL    HW127986   4.223   0.408   4.677
 9029SOL    HW227987   4.231   0.562   4.730
 9030SOL     OW27988   2.611   2.411   3.978
 9030SOL    HW127989   2.579   2.461   4.059
 9030SOL    HW227990   2.624   2.315   4.001
 9031SOL     OW27991   4.616   0.406   4.642
 9031SOL    HW127992   4.565   0.481   4.600
 9031SOL    HW227993   4.586   0.319   4.604
 9032SOL     OW27994   4.816   3.406   1.392
 9032SOL    HW127995   4.733   3.351   1.382
 9032SOL    HW227996   4.858   3.387   1.481
 9033SOL     OW27997   0.739   5.454   2.714
 9033SOL    HW127998   0.809   5.484   2.778
 9033SOL    HW227999   0.650   5.491   2.741
 9034SOL     OW28000   3.109   6.347   4.413
 9034SOL    HW128001   3.036   6.399   4.369
 9034SOL    HW228002   3.188   6.343   4.352
 9035SOL     OW28003   1.893   5.385   0.600
 9035SOL    HW128004   1.981   5.434   0.604
 9035SOL    HW228005   1.880   5.346   0.509
 9036SOL     OW28006   1.237   3.770   5.650
 9036SOL    HW128007   1.283   3.856   5.672
 9036SOL    HW228008   1.305   3.696   5.649
 9037SOL     OW28009   0.799   2.507   3.601
 9037SOL    HW128010   0.877   2.502   3.539
 9037SOL    HW228011   0.774   2.603   3.616
 9038SOL     OW28012   4.587   3.068   6.482
 9038SOL    HW128013   4.549   3.149   6.525
 9038SOL    HW228014   4.687   3.070   6.491
 9039SOL     OW28015   3.194   5.097   6.958
 9039SOL    HW128016   3.141   5.175   6.927
 9039SOL    HW228017   3.284   5.097   6.914
 9040SOL     OW28018   2.080   2.003   1.409
 9040SOL    HW128019   2.010   1.941   1.443
 9040SOL    HW228020   2.107   1.976   1.317
 9041SOL     OW28021   0.091   2.366   0.766
 9041SOL    HW128022   0.126   2.286   0.815
 9041SOL    HW228023   0.121   2.449   0.811
 9042SOL     OW28024   3.489   5.984   6.250
 9042SOL    HW128025   3.472   5.886   6.244
 9042SOL    HW228026   3.404   6.034   6.234
 9043SOL     OW28027   2.858   1.248   0.156
 9043SOL    HW128028   2.759   1.258   0.151
 9043SOL    HW228029   2.901   1.296   0.079
 9044SOL     OW28030   0.782   0.286   6.459
 9044SOL    HW128031   0.744   0.222   6.392
 9044SOL    HW228032   0.841   0.352   6.412
 9045SOL     OW28033   4.233   0.242   2.969
 9045SOL    HW128034   4.230   0.289   3.057
 9045SOL    HW228035   4.152   0.184   2.960
 9046SOL     OW28036   3.097   3.225   2.837
 9046SOL    HW128037   3.011   3.243   2.884
 9046SOL    HW228038   3.131   3.308   2.793
 9047SOL     OW28039   1.287   4.322   5.990
 9047SOL    HW128040   1.215   4.301   6.056
 9047SOL    HW228041   1.261   4.402   5.936
 9048SOL     OW28042   5.988   2.305   6.081
 9048SOL    HW128043   5.931   2.370   6.132
 9048SOL    HW228044   5.929   2.247   6.025
 9049SOL     OW28045   2.888   6.659   6.617
 9049SOL    HW128046   2.907   6.594   6.544
 9049SOL    HW228047   2.971   6.675   6.670
 9050SOL     OW28048   0.845   4.302   1.351
 9050SOL    HW128049   0.799   4.351   1.426
 9050SOL    HW228050   0.929   4.261   1.385
 9051SOL     OW28051   2.584   1.816   1.258
 9051SOL    HW128052   2.534   1.903   1.258
 9051SOL    HW228053   2.610   1.793   1.352
 9052SOL     OW28054   1.567   3.043   4.674
 9052SOL    HW128055   1.629   2.965   4.690
 9052SOL    HW228056   1.528   3.037   4.583
 9053SOL     OW28057   1.759   1.442   1.342
 9053SOL    HW128058   1.701   1.514   1.380
 9053SOL    HW228059   1.797   1.386   1.416
 9054SOL     OW28060   2.991   5.407   3.697
 9054SOL    HW128061   2.956   5.332   3.642
 9054SOL    HW228062   3.042   5.371   3.776
 9055SOL     OW28063   0.319   3.952   4.907
 9055SOL    HW128064   0.289   3.980   4.816
 9055SOL    HW228065   0.394   3.887   4.899
 9056SOL     OW28066   6.580   1.935   2.808
 9056SOL    HW128067   6.570   2.003   2.736
 9056SOL    HW228068   6.525   1.962   2.887
 9057SOL     OW28069   4.501   1.234   4.188
 9057SOL    HW128070   4.534   1.168   4.256
 9057SOL    HW228071   4.544   1.214   4.099
 9058SOL     OW28072   1.492   0.739   6.518
 9058SOL    HW128073   1.591   0.743   6.535
 9058SOL    HW228074   1.474   0.674   6.444
 9059SOL     OW28075   1.169   2.126   2.535
 9059SOL    HW128076   1.108   2.075   2.595
 9059SOL    HW228077   1.263   2.118   2.569
 9060SOL     OW28078   4.918   2.863   4.767
 9060SOL    HW128079   4.981   2.903   4.701
 9060SOL    HW228080   4.840   2.822   4.719
 9061SOL     OW28081   4.835   5.473   2.353
 9061SOL    HW128082   4.842   5.556   2.298
 9061SOL    HW228083   4.881   5.398   2.305
 9062SOL     OW28084   1.349   5.357   1.569
 9062SOL    HW128085   1.418   5.428   1.582
 9062SOL    HW228086   1.382   5.270   1.605
 9063SOL     OW28087   2.997   2.051   2.863
 9063SOL    HW128088   3.066   2.091   2.802
 9063SOL    HW228089   2.918   2.022   2.808
 9064SOL     OW28090   6.626   2.979   6.712
 9064SOL    HW128091   6.548   3.002   6.654
 9064SOL    HW228092   6.608   2.892   6.759
 9065SOL     OW28093   2.370   1.137   0.607
 9065SOL    HW128094   2.278   1.160   0.637
 9065SOL    HW228095   2.435   1.153   0.681
 9066SOL     OW28096   4.648   6.762   6.845
 9066SOL    HW128097   4.580   6.700   6.804
 9066SOL    HW228098   4.612   6.797   6.931
 9067SOL     OW28099   1.393   0.094   2.943
 9067SOL    HW128100   1.485   0.055   2.948
 9067SOL    HW228101   1.372   0.116   2.848
 9068SOL     OW28102   1.439   5.488   6.699
 9068SOL    HW128103   1.533   5.455   6.705
 9068SOL    HW228104   1.437   5.575   6.650
 9069SOL     OW28105   1.495   2.690   6.118
 9069SOL    HW128106   1.429   2.752   6.161
 9069SOL    HW228107   1.538   2.735   6.041
 9070SOL     OW28108   1.314   4.503   4.541
 9070SOL    HW128109   1.228   4.535   4.582
 9070SOL    HW228110   1.388   4.565   4.567
 9071SOL     OW28111   6.185   7.001   0.315
 9071SOL    HW128112   6.198   6.972   0.220
 9071SOL    HW228113   6.171   6.921   0.373
 9072SOL     OW28114   6.168   3.879   0.099
 9072SOL    HW128115   6.104   3.951   0.126
 9072SOL    HW228116   6.191   3.823   0.178
 9073SOL     OW28117   1.858   0.800   1.936
 9073SOL    HW128118   1.773   0.752   1.959
 9073SOL    HW228119   1.926   0.734   1.904
 9074SOL     OW28120   1.567   6.910   2.728
 9074SOL    HW128121   1.510   6.851   2.785
 9074SOL    HW228122   1.559   6.883   2.632
 9075SOL     OW28123   6.610   0.835   2.168
 9075SOL    HW128124   6.522   0.868   2.134
 9075SOL    HW228125   6.670   0.913   2.185
 9076SOL     OW28126   6.364   0.852   5.882
 9076SOL    HW128127   6.413   0.921   5.829
 9076SOL    HW228128   6.413   0.834   5.967
 9077SOL     OW28129   5.869   6.512   2.200
 9077SOL    HW128130   5.915   6.429   2.234
 9077SOL    HW228131   5.818   6.554   2.275
 9078SOL     OW28132   3.792   2.911   5.084
 9078SOL    HW128133   3.773   2.876   5.176
 9078SOL    HW228134   3.706   2.934   5.039
 9079SOL     OW28135   3.297   0.157   5.817
 9079SOL    HW128136   3.384   0.139   5.862
 9079SOL    HW228137   3.223   0.117   5.872
 9080SOL     OW28138   5.291   1.594   0.919
 9080SOL    HW128139   5.281   1.497   0.943
 9080SOL    HW228140   5.333   1.602   0.829
 9081SOL     OW28141   5.353   6.208   2.037
 9081SOL    HW128142   5.396   6.245   2.120
 9081SOL    HW228143   5.337   6.110   2.049
 9082SOL     OW28144   2.871   1.296   3.820
 9082SOL    HW128145   2.787   1.335   3.858
 9082SOL    HW228146   2.908   1.228   3.884
 9083SOL     OW28147   4.723   4.828   4.556
 9083SOL    HW128148   4.807   4.876   4.582
 9083SOL    HW228149   4.738   4.774   4.474
 9084SOL     OW28150   3.282   3.889   3.086
 9084SOL    HW128151   3.287   3.795   3.051
 9084SOL    HW228152   3.220   3.893   3.164
 9085SOL     OW28153   1.865   1.936   0.853
 9085SOL    HW128154   1.934   1.931   0.925
 9085SOL    HW228155   1.813   2.020   0.862
 9086SOL     OW28156   0.962   4.453   1.152
 9086SOL    HW128157   0.888   4.474   1.087
 9086SOL    HW228158   0.925   4.402   1.229
 9087SOL     OW28159   4.997   3.444   1.851
 9087SOL    HW128160   4.970   3.396   1.934
 9087SOL    HW228161   4.916   3.468   1.798
 9088SOL     OW28162   5.230   0.351   6.851
 9088SOL    HW128163   5.201   0.257   6.866
 9088SOL    HW228164   5.214   0.404   6.934
 9089SOL     OW28165   4.352   0.209   5.320
 9089SOL    HW128166   4.399   0.292   5.349
 9089SOL    HW228167   4.419   0.140   5.293
 9090SOL     OW28168   5.740   1.446   4.710
 9090SOL    HW128169   5.799   1.516   4.670
 9090SOL    HW228170   5.791   1.362   4.724
 9091SOL     OW28171   3.117   3.766   0.033
 9091SOL    HW128172   3.133   3.683   0.087
 9091SOL    HW228173   3.028   3.804   0.057
 9092SOL     OW28174   0.236   2.463   0.160
 9092SOL    HW128175   0.321   2.488   0.208
 9092SOL    HW228176   0.216   2.531   0.090
 9093SOL     OW28177   1.615   6.452   5.890
 9093SOL    HW128178   1.565   6.367   5.874
 9093SOL    HW228179   1.553   6.530   5.880
 9094SOL     OW28180   0.506   3.857   2.020
 9094SOL    HW128181   0.573   3.818   1.956
 9094SOL    HW228182   0.551   3.877   2.107
 9095SOL     OW28183   5.675   6.206   5.086
 9095SOL    HW128184   5.641   6.124   5.040
 9095SOL    HW228185   5.606   6.239   5.151
 9096SOL     OW28186   6.089   5.712   2.775
 9096SOL    HW128187   6.129   5.658   2.849
 9096SOL    HW228188   6.097   5.809   2.797
 9097SOL     OW28189   0.960   2.791   6.490
 9097SOL    HW128190   1.032   2.843   6.534
 9097SOL    HW228191   0.963   2.696   6.522
 9098SOL     OW28192   1.572   3.796   4.173
 9098SOL    HW128193   1.567   3.865   4.246
 9098SOL    HW228194   1.651   3.737   4.190
 9099SOL     OW28195   2.457   2.866   6.943
 9099SOL    HW128196   2.506   2.779   6.951
 9099SOL    HW228197   2.512   2.931   6.889
 9100SOL     OW28198   0.857   4.877   2.927
 9100SOL    HW128199   0.931   4.863   2.862
 9100SOL    HW228200   0.833   4.974   2.930
 9101SOL     OW28201   0.879   2.509   2.089
 9101SOL    HW128202   0.933   2.564   2.153
 9101SOL    HW228203   0.838   2.432   2.138
 9102SOL     OW28204   4.096   6.262   3.221
 9102SOL    HW128205   4.074   6.186   3.282
 9102SOL    HW228206   4.022   6.272   3.154
 9103SOL     OW28207   6.171   1.534   0.544
 9103SOL    HW128208   6.214   1.585   0.470
 9103SOL    HW228209   6.211   1.562   0.631
 9104SOL     OW28210   6.308   1.109   6.720
 9104SOL    HW128211   6.393   1.098   6.668
 9104SOL    HW228212   6.310   1.196   6.769
 9105SOL     OW28213   2.068   0.244   6.060
 9105SOL    HW128214   2.000   0.313   6.037
 9105SOL    HW228215   2.150   0.259   6.004
 9106SOL     OW28216   1.867   4.158   0.872
 9106SOL    HW128217   1.862   4.245   0.921
 9106SOL    HW228218   1.939   4.162   0.803
 9107SOL     OW28219   2.438   0.661   0.044
 9107SOL    HW128220   2.379   0.691   0.119
 9107SOL    HW228221   2.384   0.605   6.998
 9108SOL     OW28222   5.943   5.056   6.010
 9108SOL    HW128223   5.873   5.012   5.953
 9108SOL    HW228224   5.966   4.997   6.087
 9109SOL     OW28225   5.068   2.992   2.480
 9109SOL    HW128226   5.107   3.072   2.526
 9109SOL    HW228227   5.128   2.914   2.493
 9110SOL     OW28228   1.432   6.068   4.933
 9110SOL    HW128229   1.354   6.055   4.872
 9110SOL    HW228230   1.506   6.006   4.906
 9111SOL     OW28231   4.182   2.884   5.694
 9111SOL    HW128232   4.120   2.806   5.697
 9111SOL    HW228233   4.134   2.967   5.721
 9112SOL     OW28234   0.921   5.260   2.286
 9112SOL    HW128235   0.960   5.275   2.195
 9112SOL    HW228236   0.987   5.209   2.342
 9113SOL     OW28237   5.473   1.508   3.688
 9113SOL    HW128238   5.500   1.476   3.779
 9113SOL    HW228239   5.435   1.432   3.636
 9114SOL     OW28240   1.605   5.955   5.232
 9114SOL    HW128241   1.637   6.036   5.183
 9114SOL    HW228242   1.545   5.983   5.307
 9115SOL     OW28243   4.977   4.144   4.329
 9115SOL    HW128244   5.005   4.057   4.289
 9115SOL    HW228245   4.966   4.133   4.428
 9116SOL     OW28246   0.983   0.167   2.933
 9116SOL    HW128247   0.886   0.158   2.911
 9116SOL    HW228248   1.008   0.100   3.002
 9117SOL     OW28249   3.401   0.495   0.337
 9117SOL    HW128250   3.448   0.498   0.249
 9117SOL    HW228251   3.312   0.450   0.326
 9118SOL     OW28252   6.190   4.685   1.395
 9118SOL    HW128253   6.120   4.639   1.340
 9118SOL    HW228254   6.261   4.620   1.421
 9119SOL     OW28255   3.799   0.594   0.984
 9119SOL    HW128256   3.803   0.506   0.936
 9119SOL    HW228257   3.711   0.638   0.968
 9120SOL     OW28258   6.235   3.301   5.207
 9120SOL    HW128259   6.188   3.275   5.122
 9120SOL    HW228260   6.332   3.281   5.198
 9121SOL     OW28261   3.140   0.470   4.899
 9121SOL    HW128262   3.109   0.548   4.953
 9121SOL    HW228263   3.140   0.495   4.802
 9122SOL     OW28264   1.978   3.848   2.119
 9122SOL    HW128265   1.886   3.809   2.119
 9122SOL    HW228266   2.035   3.798   2.185
 9123SOL     OW28267   0.828   6.995   3.606
 9123SOL    HW128268   0.810   6.913   3.661
 9123SOL    HW228269   0.919   0.012   3.627
 9124SOL     OW28270   2.820   5.464   1.479
 9124SOL    HW128271   2.874   5.512   1.410
 9124SOL    HW228272   2.773   5.387   1.436
 9125SOL     OW28273   4.393   6.231   1.080
 9125SOL    HW128274   4.380   6.285   0.997
 9125SOL    HW228275   4.489   6.234   1.107
 9126SOL     OW28276   4.043   4.469   0.213
 9126SOL    HW128277   3.994   4.405   0.273
 9126SOL    HW228278   4.139   4.442   0.207
 9127SOL     OW28279   0.175   4.612   4.694
 9127SOL    HW128280   0.169   4.710   4.714
 9127SOL    HW228281   0.245   4.597   4.624
 9128SOL     OW28282   5.744   3.525   6.005
 9128SOL    HW128283   5.708   3.467   5.932
 9128SOL    HW228284   5.731   3.621   5.981
 9129SOL     OW28285   1.749   2.171   1.171
 9129SOL    HW128286   1.797   2.258   1.183
 9129SOL    HW228287   1.726   2.133   1.261
 9130SOL     OW28288   2.859   3.854   5.033
 9130SOL    HW128289   2.892   3.897   4.949
 9130SOL    HW228290   2.844   3.757   5.018
 9131SOL     OW28291   5.076   2.349   0.889
 9131SOL    HW128292   5.028   2.261   0.887
 9131SOL    HW228293   5.161   2.339   0.941
 9132SOL     OW28294   6.611   4.384   3.272
 9132SOL    HW128295   6.691   4.436   3.301
 9132SOL    HW228296   6.537   4.396   3.339
 9133SOL     OW28297   4.621   1.227   1.088
 9133SOL    HW128298   4.660   1.307   1.134
 9133SOL    HW228299   4.654   1.224   0.994
 9134SOL     OW28300   4.350   4.656   0.436
 9134SOL    HW128301   4.410   4.661   0.357
 9134SOL    HW228302   4.336   4.561   0.463
 9135SOL     OW28303   6.620   6.589   2.312
 9135SOL    HW128304   6.552   6.659   2.290
 9135SOL    HW228305   6.581   6.498   2.299
 9136SOL     OW28306   6.445   4.303   6.770
 9136SOL    HW128307   6.415   4.386   6.817
 9136SOL    HW228308   6.513   4.327   6.701
 9137SOL     OW28309   5.424   6.053   6.315
 9137SOL    HW128310   5.481   5.984   6.271
 9137SOL    HW228311   5.369   6.010   6.387
 9138SOL     OW28312   3.260   2.954   0.919
 9138SOL    HW128313   3.214   3.043   0.914
 9138SOL    HW228314   3.225   2.903   0.998
 9139SOL     OW28315   6.709   0.467   0.725
 9139SOL    HW128316   6.724   0.423   0.637
 9139SOL    HW228317   6.652   0.548   0.712
 9140SOL     OW28318   1.314   3.935   3.145
 9140SOL    HW128319   1.338   4.027   3.176
 9140SOL    HW228320   1.384   3.903   3.081
 9141SOL     OW28321   6.820   5.676   5.295
 9141SOL    HW128322   6.736   5.715   5.256
 9141SOL    HW228323   6.804   5.655   5.392
 9142SOL     OW28324   1.544   4.254   4.891
 9142SOL    HW128325   1.550   4.158   4.866
 9142SOL    HW228326   1.614   4.276   4.959
 9143SOL     OW28327   6.906   4.256   3.118
 9143SOL    HW128328   6.842   4.329   3.095
 9143SOL    HW228329   6.932   4.265   3.214
 9144SOL     OW28330   2.629   4.550   5.291
 9144SOL    HW128331   2.728   4.540   5.277
 9144SOL    HW228332   2.590   4.603   5.216
 9145SOL     OW28333   1.839   6.100   5.646
 9145SOL    HW128334   1.838   6.031   5.574
 9145SOL    HW228335   1.876   6.186   5.609
 9146SOL     OW28336   5.506   2.748   3.264
 9146SOL    HW128337   5.467   2.831   3.303
 9146SOL    HW228338   5.602   2.741   3.290
 9147SOL     OW28339   4.145   6.825   5.090
 9147SOL    HW128340   4.236   6.808   5.053
 9147SOL    HW228341   4.133   6.774   5.175
 9148SOL     OW28342   5.951   6.087   1.573
 9148SOL    HW128343   5.909   5.999   1.594
 9148SOL    HW228344   6.049   6.075   1.559
 9149SOL     OW28345   0.126   3.615   1.538
 9149SOL    HW128346   0.091   3.687   1.598
 9149SOL    HW228347   0.202   3.650   1.484
 9150SOL     OW28348   2.040   2.886   0.689
 9150SOL    HW128349   2.103   2.936   0.748
 9150SOL    HW228350   2.061   2.905   0.593
 9151SOL     OW28351   1.929   3.383   4.073
 9151SOL    HW128352   1.904   3.292   4.039
 9151SOL    HW228353   2.004   3.375   4.139
 9152SOL     OW28354   1.522   4.083   2.424
 9152SOL    HW128355   1.512   4.130   2.512
 9152SOL    HW228356   1.463   4.003   2.423
 9153SOL     OW28357   0.703   4.010   6.302
 9153SOL    HW128358   0.776   4.067   6.262
 9153SOL    HW228359   0.647   3.972   6.229
 9154SOL     OW28360   5.366   5.031   2.936
 9154SOL    HW128361   5.427   4.954   2.958
 9154SOL    HW228362   5.409   5.088   2.867
 9155SOL     OW28363   1.531   6.518   2.900
 9155SOL    HW128364   1.577   6.551   2.982
 9155SOL    HW228365   1.443   6.564   2.890
 9156SOL     OW28366   6.533   3.952   6.155
 9156SOL    HW128367   6.619   4.002   6.156
 9156SOL    HW228368   6.457   4.017   6.161
 9157SOL     OW28369   1.545   4.106   6.720
 9157SOL    HW128370   1.481   4.041   6.762
 9157SOL    HW228371   1.636   4.094   6.759
 9158SOL     OW28372   6.913   3.965   4.890
 9158SOL    HW128373   6.978   3.906   4.843
 9158SOL    HW228374   6.823   3.957   4.846
 9159SOL     OW28375   3.041   1.300   4.228
 9159SOL    HW128376   3.055   1.393   4.194
 9159SOL    HW228377   2.963   1.298   4.289
 9160SOL     OW28378   0.739   4.473   1.526
 9160SOL    HW128379   0.675   4.513   1.460
 9160SOL    HW228380   0.766   4.543   1.593
 9161SOL     OW28381   6.676   4.302   2.028
 9161SOL    HW128382   6.676   4.399   2.002
 9161SOL    HW228383   6.623   4.290   2.111
 9162SOL     OW28384   4.313   1.831   1.474
 9162SOL    HW128385   4.290   1.740   1.508
 9162SOL    HW228386   4.396   1.826   1.418
 9163SOL     OW28387   1.856   2.371   3.650
 9163SOL    HW128388   1.890   2.342   3.560
 9163SOL    HW228389   1.932   2.371   3.715
 9164SOL     OW28390   2.748   6.577   0.475
 9164SOL    HW128391   2.838   6.552   0.439
 9164SOL    HW228392   2.743   6.676   0.487
 9165SOL     OW28393   5.264   1.567   6.200
 9165SOL    HW128394   5.223   1.477   6.207
 9165SOL    HW228395   5.296   1.582   6.106
 9166SOL     OW28396   5.628   6.185   1.181
 9166SOL    HW128397   5.561   6.145   1.243
 9166SOL    HW228398   5.712   6.204   1.231
 9167SOL     OW28399   1.751   1.097   4.705
 9167SOL    HW128400   1.742   1.113   4.606
 9167SOL    HW228401   1.660   1.096   4.746
 9168SOL     OW28402   6.637   6.036   4.503
 9168SOL    HW128403   6.612   5.940   4.492
 9168SOL    HW228404   6.718   6.056   4.447
 9169SOL     OW28405   6.685   6.355   1.590
 9169SOL    HW128406   6.656   6.278   1.534
 9169SOL    HW228407   6.636   6.438   1.561
 9170SOL     OW28408   1.388   0.937   6.212
 9170SOL    HW128409   1.301   0.888   6.219
 9170SOL    HW228410   1.437   0.906   6.131
 9171SOL     OW28411   3.519   5.152   6.422
 9171SOL    HW128412   3.581   5.193   6.490
 9171SOL    HW228413   3.425   5.180   6.441
 9172SOL     OW28414   4.744   1.585   4.179
 9172SOL    HW128415   4.808   1.517   4.141
 9172SOL    HW228416   4.794   1.645   4.241
 9173SOL     OW28417   5.627   3.593   5.275
 9173SOL    HW128418   5.631   3.579   5.374
 9173SOL    HW228419   5.718   3.613   5.240
 9174SOL     OW28420   0.290   4.840   0.964
 9174SOL    HW128421   0.203   4.866   0.922
 9174SOL    HW228422   0.315   4.748   0.934
 9175SOL     OW28423   2.014   0.425   0.015
 9175SOL    HW128424   1.935   0.381   6.990
 9175SOL    HW228425   2.046   0.370   0.092
 9176SOL     OW28426   1.614   1.412   2.102
 9176SOL    HW128427   1.551   1.397   2.026
 9176SOL    HW228428   1.573   1.476   2.167
 9177SOL     OW28429   0.220   5.147   3.853
 9177SOL    HW128430   0.148   5.142   3.783
 9177SOL    HW228431   0.307   5.119   3.812
 9178SOL     OW28432   2.189   5.321   0.779
 9178SOL    HW128433   2.158   5.401   0.728
 9178SOL    HW228434   2.142   5.239   0.745
 9179SOL     OW28435   3.171   5.474   4.196
 9179SOL    HW128436   3.141   5.414   4.270
 9179SOL    HW228437   3.101   5.544   4.180
 9180SOL     OW28438   0.344   0.968   5.030
 9180SOL    HW128439   0.357   1.056   5.077
 9180SOL    HW228440   0.269   0.976   4.965
 9181SOL     OW28441   2.452   2.050   3.621
 9181SOL    HW128442   2.516   1.975   3.605
 9181SOL    HW228443   2.496   2.137   3.598
 9182SOL     OW28444   1.142   1.712   2.958
 9182SOL    HW128445   1.062   1.729   3.016
 9182SOL    HW228446   1.112   1.701   2.863
 9183SOL     OW28447   1.068   1.978   5.998
 9183SOL    HW128448   1.157   1.993   5.953
 9183SOL    HW228449   0.997   1.972   5.928
 9184SOL     OW28450   4.055   2.898   0.399
 9184SOL    HW128451   4.018   2.884   0.491
 9184SOL    HW228452   4.101   2.814   0.369
 9185SOL     OW28453   0.639   0.648   6.750
 9185SOL    HW128454   0.678   0.566   6.710
 9185SOL    HW228455   0.654   0.726   6.689
 9186SOL     OW28456   5.467   0.768   6.096
 9186SOL    HW128457   5.453   0.829   6.174
 9186SOL    HW228458   5.381   0.758   6.046
 9187SOL     OW28459   5.977   2.223   0.773
 9187SOL    HW128460   5.974   2.316   0.737
 9187SOL    HW228461   6.057   2.212   0.832
 9188SOL     OW28462   1.505   0.596   2.405
 9188SOL    HW128463   1.429   0.654   2.374
 9188SOL    HW228464   1.506   0.511   2.352
 9189SOL     OW28465   4.337   1.252   5.311
 9189SOL    HW128466   4.326   1.347   5.341
 9189SOL    HW228467   4.379   1.251   5.220
 9190SOL     OW28468   6.041   1.827   5.574
 9190SOL    HW128469   5.959   1.877   5.545
 9190SOL    HW228470   6.122   1.882   5.555
 9191SOL     OW28471   5.776   0.363   0.842
 9191SOL    HW128472   5.703   0.428   0.823
 9191SOL    HW228473   5.777   0.292   0.772
 9192SOL     OW28474   4.877   4.046   4.025
 9192SOL    HW128475   4.835   3.970   4.076
 9192SOL    HW228476   4.851   4.039   3.929
 9193SOL     OW28477   2.949   3.319   3.460
 9193SOL    HW128478   3.030   3.281   3.414
 9193SOL    HW228479   2.867   3.278   3.422
 9194SOL     OW28480   4.112   5.820   2.592
 9194SOL    HW128481   4.112   5.739   2.651
 9194SOL    HW228482   4.110   5.902   2.649
 9195SOL     OW28483   0.066   3.231   2.496
 9195SOL    HW128484   6.999   3.258   2.543
 9195SOL    HW228485   0.042   3.178   2.414
 9196SOL     OW28486   4.982   6.605   3.569
 9196SOL    HW128487   4.980   6.516   3.524
 9196SOL    HW228488   4.911   6.664   3.530
 9197SOL     OW28489   3.714   2.780   5.329
 9197SOL    HW128490   3.614   2.773   5.329
 9197SOL    HW228491   3.744   2.828   5.411
 9198SOL     OW28492   5.490   2.151   5.696
 9198SOL    HW128493   5.579   2.182   5.728
 9198SOL    HW228494   5.420   2.175   5.764
 9199SOL     OW28495   1.542   3.363   6.311
 9199SOL    HW128496   1.492   3.381   6.227
 9199SOL    HW228497   1.478   3.359   6.388
 9200SOL     OW28498   5.772   6.486   0.878
 9200SOL    HW128499   5.862   6.447   0.896
 9200SOL    HW228500   5.775   6.585   0.891
 9201SOL     OW28501   1.614   3.862   3.184
 9201SOL    HW128502   1.704   3.820   3.183
 9201SOL    HW228503   1.623   3.961   3.193
 9202SOL     OW28504   3.158   5.677   3.421
 9202SOL    HW128505   3.113   5.710   3.504
 9202SOL    HW228506   3.249   5.642   3.445
 9203SOL     OW28507   5.117   0.569   6.121
 9203SOL    HW128508   5.162   0.635   6.060
 9203SOL    HW228509   5.053   0.513   6.067
 9204SOL     OW28510   4.990   4.102   1.798
 9204SOL    HW128511   5.031   4.192   1.782
 9204SOL    HW228512   4.892   4.112   1.810
 9205SOL     OW28513   4.873   3.027   2.183
 9205SOL    HW128514   4.931   2.946   2.186
 9205SOL    HW228515   4.801   3.014   2.114
 9206SOL     OW28516   0.683   6.621   2.913
 9206SOL    HW128517   0.637   6.709   2.901
 9206SOL    HW228518   0.650   6.556   2.845
 9207SOL     OW28519   3.906   6.473   6.526
 9207SOL    HW128520   3.869   6.563   6.546
 9207SOL    HW228521   4.005   6.480   6.513
 9208SOL     OW28522   5.067   4.604   2.117
 9208SOL    HW128523   5.019   4.649   2.041
 9208SOL    HW228524   5.160   4.582   2.090
 9209SOL     OW28525   3.722   0.452   3.139
 9209SOL    HW128526   3.776   0.459   3.224
 9209SOL    HW228527   3.638   0.505   3.149
 9210SOL     OW28528   1.298   6.832   0.495
 9210SOL    HW128529   1.250   6.909   0.452
 9210SOL    HW228530   1.242   6.750   0.487
 9211SOL     OW28531   4.748   1.530   5.605
 9211SOL    HW128532   4.821   1.478   5.560
 9211SOL    HW228533   4.781   1.563   5.694
 9212SOL     OW28534   5.807   3.815   4.979
 9212SOL    HW128535   5.848   3.777   5.062
 9212SOL    HW228536   5.790   3.913   4.992
 9213SOL     OW28537   6.826   0.169   2.735
 9213SOL    HW128538   6.758   0.242   2.732
 9213SOL    HW228539   6.887   0.177   2.656
 9214SOL     OW28540   2.306   2.369   5.500
 9214SOL    HW128541   2.392   2.394   5.456
 9214SOL    HW228542   2.243   2.447   5.495
 9215SOL     OW28543   0.135   2.951   2.714
 9215SOL    HW128544   0.103   3.044   2.695
 9215SOL    HW228545   0.084   2.914   2.791
 9216SOL     OW28546   3.076   5.731   4.025
 9216SOL    HW128547   3.070   5.817   3.975
 9216SOL    HW228548   3.172   5.700   4.027
 9217SOL     OW28549   4.469   0.938   6.455
 9217SOL    HW128550   4.372   0.917   6.443
 9217SOL    HW228551   4.486   1.034   6.435
 9218SOL     OW28552   5.657   5.503   6.157
 9218SOL    HW128553   5.603   5.556   6.222
 9218SOL    HW228554   5.609   5.418   6.135
 9219SOL     OW28555   3.641   2.458   5.730
 9219SOL    HW128556   3.689   2.542   5.705
 9219SOL    HW228557   3.672   2.383   5.672
 9220SOL     OW28558   0.321   6.901   3.250
 9220SOL    HW128559   0.245   6.837   3.243
 9220SOL    HW228560   0.325   6.957   3.167
 9221SOL     OW28561   2.008   1.673   0.312
 9221SOL    HW128562   1.943   1.666   0.236
 9221SOL    HW228563   2.091   1.719   0.281
 9222SOL     OW28564   1.891   3.184   4.333
 9222SOL    HW128565   1.979   3.158   4.293
 9222SOL    HW228566   1.906   3.243   4.412
 9223SOL     OW28567   0.259   3.213   4.891
 9223SOL    HW128568   0.225   3.157   4.816
 9223SOL    HW228569   0.357   3.227   4.881
 9224SOL     OW28570   2.544   4.563   3.728
 9224SOL    HW128571   2.587   4.562   3.638
 9224SOL    HW228572   2.468   4.628   3.729
 9225SOL     OW28573   5.531   5.639   6.348
 9225SOL    HW128574   5.436   5.612   6.335
 9225SOL    HW228575   5.540   5.738   6.333
 9226SOL     OW28576   0.943   0.867   0.862
 9226SOL    HW128577   0.909   0.775   0.882
 9226SOL    HW228578   0.986   0.906   0.943
 9227SOL     OW28579   2.567   4.313   0.526
 9227SOL    HW128580   2.493   4.247   0.518
 9227SOL    HW228581   2.655   4.265   0.521
 9228SOL     OW28582   3.444   3.270   5.561
 9228SOL    HW128583   3.380   3.255   5.485
 9228SOL    HW228584   3.410   3.344   5.618
 9229SOL     OW28585   0.218   4.567   0.051
 9229SOL    HW128586   0.256   4.477   0.069
 9229SOL    HW228587   0.286   4.624   0.005
 9230SOL     OW28588   4.803   1.355   4.752
 9230SOL    HW128589   4.877   1.422   4.750
 9230SOL    HW228590   4.770   1.340   4.659
 9231SOL     OW28591   6.719   5.976   3.257
 9231SOL    HW128592   6.671   6.059   3.283
 9231SOL    HW228593   6.740   5.979   3.159
 9232SOL     OW28594   1.174   5.212   2.492
 9232SOL    HW128595   1.122   5.138   2.534
 9232SOL    HW228596   1.241   5.174   2.428
 9233SOL     OW28597   0.397   6.570   6.740
 9233SOL    HW128598   0.407   6.490   6.681
 9233SOL    HW228599   0.485   6.594   6.780
 9234SOL     OW28600   2.542   3.986   0.041
 9234SOL    HW128601   2.595   4.037   0.108
 9234SOL    HW228602   2.501   3.906   0.084
 9235SOL     OW28603   1.550   1.999   2.890
 9235SOL    HW128604   1.490   2.077   2.870
 9235SOL    HW228605   1.529   1.963   2.981
 9236SOL     OW28606   1.986   3.176   6.727
 9236SOL    HW128607   1.995   3.221   6.638
 9236SOL    HW228608   1.998   3.243   6.800
 9237SOL     OW28609   5.156   5.128   3.083
 9237SOL    HW128610   5.254   5.135   3.066
 9237SOL    HW228611   5.107   5.126   2.996
 9238SOL     OW28612   1.221   2.749   4.730
 9238SOL    HW128613   1.293   2.786   4.671
 9238SOL    HW228614   1.132   2.774   4.693
 9239SOL     OW28615   1.492   4.684   6.628
 9239SOL    HW128616   1.586   4.716   6.639
 9239SOL    HW228617   1.483   4.635   6.542
 9240SOL     OW28618   4.371   1.690   3.263
 9240SOL    HW128619   4.462   1.727   3.285
 9240SOL    HW228620   4.350   1.709   3.168
 9241SOL     OW28621   5.216   0.071   0.977
 9241SOL    HW128622   5.246   0.045   0.885
 9241SOL    HW228623   5.274   0.145   1.011
 9242SOL     OW28624   1.815   2.382   6.910
 9242SOL    HW128625   1.895   2.400   6.853
 9242SOL    HW228626   1.794   2.463   6.965
 9243SOL     OW28627   1.585   0.499   6.879
 9243SOL    HW128628   1.640   0.532   6.802
 9243SOL    HW228629   1.541   0.576   6.924
 9244SOL     OW28630   3.671   6.825   5.984
 9244SOL    HW128631   3.590   6.862   5.938
 9244SOL    HW228632   3.644   6.774   6.066
 9245SOL     OW28633   1.253   5.045   3.319
 9245SOL    HW128634   1.163   5.079   3.293
 9245SOL    HW228635   1.309   5.120   3.354
 9246SOL     OW28636   5.260   0.030   6.731
 9246SOL    HW128637   5.193   7.000   6.788
 9246SOL    HW228638   5.212   0.095   6.672
 9247SOL     OW28639   4.129   5.594   3.037
 9247SOL    HW128640   4.213   5.543   3.054
 9247SOL    HW228641   4.115   5.660   3.111
 9248SOL     OW28642   2.365   0.242   6.466
 9248SOL    HW128643   2.300   0.303   6.510
 9248SOL    HW228644   2.391   0.280   6.377
 9249SOL     OW28645   3.204   6.278   0.928
 9249SOL    HW128646   3.186   6.345   1.000
 9249SOL    HW228647   3.303   6.268   0.916
 9250SOL     OW28648   0.501   2.817   4.180
 9250SOL    HW128649   0.556   2.746   4.135
 9250SOL    HW228650   0.411   2.780   4.203
 9251SOL     OW28651   2.990   2.510   0.150
 9251SOL    HW128652   3.003   2.473   0.242
 9251SOL    HW228653   3.008   2.609   0.151
 9252SOL     OW28654   5.615   2.081   5.171
 9252SOL    HW128655   5.636   1.984   5.181
 9252SOL    HW228656   5.633   2.128   5.258
 9253SOL     OW28657   1.078   6.020   5.368
 9253SOL    HW128658   1.081   6.106   5.317
 9253SOL    HW228659   0.993   5.972   5.346
 9254SOL     OW28660   0.204   4.823   2.490
 9254SOL    HW128661   0.295   4.854   2.463
 9254SOL    HW228662   0.191   4.728   2.461
 9255SOL     OW28663   6.882   4.554   0.745
 9255SOL    HW128664   6.796   4.542   0.694
 9255SOL    HW228665   6.937   4.624   0.700
 9256SOL     OW28666   2.802   6.210   1.147
 9256SOL    HW128667   2.707   6.237   1.162
 9256SOL    HW228668   2.853   6.287   1.111
 9257SOL     OW28669   6.363   5.665   4.102
 9257SOL    HW128670   6.361   5.653   4.201
 9257SOL    HW228671   6.322   5.753   4.078
 9258SOL     OW28672   3.231   4.882   1.048
 9258SOL    HW128673   3.197   4.969   1.082
 9258SOL    HW228674   3.238   4.817   1.124
 9259SOL     OW28675   1.289   1.870   6.841
 9259SOL    HW128676   1.371   1.862   6.784
 9259SOL    HW228677   1.266   1.780   6.879
 9260SOL     OW28678   5.617   3.637   4.907
 9260SOL    HW128679   5.569   3.638   4.995
 9260SOL    HW228680   5.710   3.672   4.919
 9261SOL     OW28681   3.501   2.170   1.691
 9261SOL    HW128682   3.549   2.229   1.756
 9261SOL    HW228683   3.428   2.221   1.647
 9262SOL     OW28684   6.613   6.222   5.445
 9262SOL    HW128685   6.612   6.130   5.407
 9262SOL    HW228686   6.605   6.217   5.545
 9263SOL     OW28687   2.212   4.628   3.661
 9263SOL    HW128688   2.229   4.613   3.563
 9263SOL    HW228689   2.263   4.708   3.692
 9264SOL     OW28690   5.445   4.442   6.434
 9264SOL    HW128691   5.424   4.364   6.493
 9264SOL    HW228692   5.507   4.414   6.361
 9265SOL     OW28693   6.059   1.668   1.321
 9265SOL    HW128694   5.981   1.729   1.312
 9265SOL    HW228695   6.123   1.684   1.245
 9266SOL     OW28696   1.797   4.475   1.450
 9266SOL    HW128697   1.762   4.415   1.523
 9266SOL    HW228698   1.721   4.523   1.407
 9267SOL     OW28699   6.860   0.532   4.139
 9267SOL    HW128700   6.877   0.623   4.101
 9267SOL    HW228701   6.857   0.538   4.238
 9268SOL     OW28702   0.321   0.344   1.460
 9268SOL    HW128703   0.258   0.418   1.485
 9268SOL    HW228704   0.410   0.359   1.503
 9269SOL     OW28705   3.370   1.280   0.183
 9269SOL    HW128706   3.444   1.262   0.248
 9269SOL    HW228707   3.320   1.362   0.212
 9270SOL     OW28708   1.880   0.432   5.984
 9270SOL    HW128709   1.896   0.506   5.918
 9270SOL    HW228710   1.790   0.444   6.026
 9271SOL     OW28711   1.222   5.562   4.614
 9271SOL    HW128712   1.191   5.654   4.636
 9271SOL    HW228713   1.293   5.566   4.544
 9272SOL     OW28714   6.658   6.647   6.386
 9272SOL    HW128715   6.595   6.658   6.462
 9272SOL    HW228716   6.663   6.733   6.334
 9273SOL     OW28717   4.923   4.057   3.431
 9273SOL    HW128718   4.827   4.084   3.440
 9273SOL    HW228719   4.969   4.071   3.519
 9274SOL     OW28720   0.322   3.037   0.764
 9274SOL    HW128721   0.283   3.096   0.694
 9274SOL    HW228722   0.397   2.984   0.725
 9275SOL     OW28723   6.905   0.793   0.774
 9275SOL    HW128724   7.005   0.788   0.781
 9275SOL    HW228725   6.864   0.726   0.835
 9276SOL     OW28726   2.612   5.455   0.148
 9276SOL    HW128727   2.633   5.359   0.169
 9276SOL    HW228728   2.567   5.497   0.226
 9277SOL     OW28729   5.359   5.305   2.021
 9277SOL    HW128730   5.387   5.222   2.069
 9277SOL    HW228731   5.392   5.385   2.071
 9278SOL     OW28732   0.900   0.304   5.494
 9278SOL    HW128733   0.878   0.302   5.396
 9278SOL    HW228734   0.999   0.305   5.506
 9279SOL     OW28735   3.629   6.031   1.545
 9279SOL    HW128736   3.594   6.124   1.553
 9279SOL    HW228737   3.727   6.030   1.561
 9280SOL     OW28738   1.511   6.324   2.565
 9280SOL    HW128739   1.573   6.401   2.579
 9280SOL    HW228740   1.426   6.341   2.616
 9281SOL     OW28741   2.361   5.306   0.052
 9281SOL    HW128742   2.406   5.273   0.134
 9281SOL    HW228743   2.424   5.302   6.992
 9282SOL     OW28744   3.119   0.082   5.479
 9282SOL    HW128745   3.215   0.104   5.459
 9282SOL    HW228746   3.064   0.091   5.396
 9283SOL     OW28747   4.304   6.613   1.070
 9283SOL    HW128748   4.333   6.538   1.011
 9283SOL    HW228749   4.376   6.682   1.075
 9284SOL     OW28750   4.625   3.973   5.330
 9284SOL    HW128751   4.652   3.926   5.247
 9284SOL    HW228752   4.529   3.953   5.350
 9285SOL     OW28753   0.565   4.885   2.808
 9285SOL    HW128754   0.507   4.963   2.830
 9285SOL    HW228755   0.655   4.898   2.850
 9286SOL     OW28756   4.763   6.321   1.615
 9286SOL    HW128757   4.848   6.347   1.568
 9286SOL    HW228758   4.691   6.309   1.548
 9287SOL     OW28759   3.994   3.647   5.810
 9287SOL    HW128760   4.090   3.638   5.833
 9287SOL    HW228761   3.960   3.559   5.775
 9288SOL     OW28762   3.936   1.865   2.601
 9288SOL    HW128763   3.920   1.950   2.651
 9288SOL    HW228764   3.851   1.814   2.595
 9289SOL     OW28765   4.968   6.286   0.597
 9289SOL    HW128766   4.942   6.261   0.503
 9289SOL    HW228767   5.059   6.326   0.596
 9290SOL     OW28768   4.668   1.099   4.416
 9290SOL    HW128769   4.619   1.037   4.477
 9290SOL    HW228770   4.764   1.070   4.409
 9291SOL     OW28771   1.034   4.289   6.432
 9291SOL    HW128772   1.077   4.201   6.450
 9291SOL    HW228773   1.075   4.359   6.491
 9292SOL     OW28774   0.858   1.445   6.859
 9292SOL    HW128775   0.843   1.356   6.816
 9292SOL    HW228776   0.873   1.433   6.957
 9293SOL     OW28777   5.030   2.820   4.428
 9293SOL    HW128778   4.971   2.774   4.494
 9293SOL    HW228779   5.092   2.882   4.476
 9294SOL     OW28780   4.572   0.125   6.876
 9294SOL    HW128781   4.528   0.184   6.808
 9294SOL    HW228782   4.671   0.137   6.872
 9295SOL     OW28783   0.341   0.795   4.756
 9295SOL    HW128784   0.286   0.863   4.707
 9295SOL    HW228785   0.328   0.705   4.714
 9296SOL     OW28786   2.342   4.726   6.114
 9296SOL    HW128787   2.416   4.759   6.054
 9296SOL    HW228788   2.309   4.801   6.171
 9297SOL     OW28789   6.254   6.263   2.130
 9297SOL    HW128790   6.318   6.186   2.141
 9297SOL    HW228791   6.237   6.278   2.032
 9298SOL     OW28792   1.131   4.719   6.464
 9298SOL    HW128793   1.106   4.771   6.546
 9298SOL    HW228794   1.061   4.733   6.394
 9299SOL     OW28795   2.410   2.625   4.520
 9299SOL    HW128796   2.364   2.674   4.446
 9299SOL    HW228797   2.412   2.682   4.602
 9300SOL     OW28798   1.867   5.774   4.836
 9300SOL    HW128799   1.772   5.801   4.848
 9300SOL    HW228800   1.922   5.810   4.911
 9301SOL     OW28801   0.167   4.363   4.376
 9301SOL    HW128802   0.242   4.416   4.336
 9301SOL    HW228803   0.165   4.379   4.475
 9302SOL     OW28804   2.118   3.593   4.875
 9302SOL    HW128805   2.030   3.546   4.876
 9302SOL    HW228806   2.123   3.654   4.796
 9303SOL     OW28807   2.570   4.400   0.147
 9303SOL    HW128808   2.664   4.430   0.168
 9303SOL    HW228809   2.529   4.464   0.082
 9304SOL     OW28810   4.764   4.924   6.795
 9304SOL    HW128811   4.793   4.879   6.710
 9304SOL    HW228812   4.825   4.898   6.869
 9305SOL     OW28813   1.970   1.653   1.310
 9305SOL    HW128814   2.069   1.648   1.305
 9305SOL    HW228815   1.930   1.564   1.289
 9306SOL     OW28816   0.049   6.329   5.377
 9306SOL    HW128817   0.131   6.374   5.414
 9306SOL    HW228818   7.001   6.399   5.349
 9307SOL     OW28819   1.635   3.377   1.678
 9307SOL    HW128820   1.733   3.381   1.656
 9307SOL    HW228821   1.583   3.359   1.595
 9308SOL     OW28822   1.929   3.212   1.866
 9308SOL    HW128823   1.953   3.241   1.958
 9308SOL    HW228824   1.976   3.270   1.799
 9309SOL     OW28825   4.810   4.815   6.562
 9309SOL    HW128826   4.719   4.814   6.521
 9309SOL    HW228827   4.859   4.732   6.537
 9310SOL     OW28828   5.677   6.248   0.036
 9310SOL    HW128829   5.762   6.299   0.049
 9310SOL    HW228830   5.655   6.244   6.956
 9311SOL     OW28831   4.691   3.900   1.171
 9311SOL    HW128832   4.665   3.803   1.169
 9311SOL    HW228833   4.660   3.945   1.087
 9312SOL     OW28834   0.691   3.247   3.282
 9312SOL    HW128835   0.690   3.150   3.303
 9312SOL    HW228836   0.726   3.299   3.360
 9313SOL     OW28837   0.557   1.020   2.021
 9313SOL    HW128838   0.462   1.048   2.007
 9313SOL    HW228839   0.560   0.924   2.050
 9314SOL     OW28840   5.087   4.090   0.570
 9314SOL    HW128841   5.144   4.044   0.639
 9314SOL    HW228842   5.144   4.115   0.492
 9315SOL     OW28843   4.709   6.800   6.137
 9315SOL    HW128844   4.632   6.787   6.074
 9315SOL    HW228845   4.725   6.898   6.151
 9316SOL     OW28846   5.233   0.836   5.610
 9316SOL    HW128847   5.265   0.741   5.617
 9316SOL    HW228848   5.133   0.837   5.611
 9317SOL     OW28849   3.726   5.859   2.481
 9317SOL    HW128850   3.772   5.773   2.503
 9317SOL    HW228851   3.641   5.865   2.535
 9318SOL     OW28852   3.805   6.740   1.847
 9318SOL    HW128853   3.723   6.792   1.824
 9318SOL    HW228854   3.805   6.654   1.797
 9319SOL     OW28855   3.262   2.724   6.487
 9319SOL    HW128856   3.190   2.683   6.431
 9319SOL    HW228857   3.352   2.696   6.454
 9320SOL     OW28858   6.244   6.474   7.006
 9320SOL    HW128859   6.309   6.545   6.980
 9320SOL    HW228860   6.282   6.422   0.066
 9321SOL     OW28861   0.423   3.371   4.533
 9321SOL    HW128862   0.326   3.378   4.510
 9321SOL    HW228863   0.433   3.322   4.620
 9322SOL     OW28864   6.285   3.272   6.868
 9322SOL    HW128865   6.212   3.239   6.808
 9322SOL    HW228866   6.254   3.355   6.915
 9323SOL     OW28867   0.470   2.209   6.204
 9323SOL    HW128868   0.468   2.109   6.217
 9323SOL    HW228869   0.564   2.240   6.195
 9324SOL     OW28870   0.799   4.356   1.974
 9324SOL    HW128871   0.816   4.454   1.972
 9324SOL    HW228872   0.883   4.307   1.950
 9325SOL     OW28873   1.154   4.445   3.315
 9325SOL    HW128874   1.158   4.355   3.359
 9325SOL    HW228875   1.141   4.433   3.217
 9326SOL     OW28876   4.710   4.081   1.819
 9326SOL    HW128877   4.749   4.078   1.911
 9326SOL    HW228878   4.616   4.113   1.824
 9327SOL     OW28879   3.612   0.912   2.998
 9327SOL    HW128880   3.560   0.986   2.956
 9327SOL    HW228881   3.676   0.950   3.065
 9328SOL     OW28882   2.166   0.310   3.733
 9328SOL    HW128883   2.106   0.387   3.753
 9328SOL    HW228884   2.180   0.256   3.816
 9329SOL     OW28885   0.221   5.649   6.460
 9329SOL    HW128886   0.318   5.635   6.441
 9329SOL    HW228887   0.208   5.669   6.557
 9330SOL     OW28888   6.603   6.365   0.112
 9330SOL    HW128889   6.588   6.270   0.084
 9330SOL    HW228890   6.633   6.418   0.032
 9331SOL     OW28891   2.165   3.112   3.415
 9331SOL    HW128892   2.130   3.187   3.357
 9331SOL    HW228893   2.135   3.127   3.509
 9332SOL     OW28894   5.190   5.737   0.867
 9332SOL    HW128895   5.124   5.807   0.838
 9332SOL    HW228896   5.265   5.781   0.917
 9333SOL     OW28897   4.136   3.738   0.652
 9333SOL    HW128898   4.065   3.794   0.611
 9333SOL    HW228899   4.143   3.758   0.749
 9334SOL     OW28900   5.909   6.268   5.868
 9334SOL    HW128901   5.969   6.213   5.926
 9334SOL    HW228902   5.835   6.211   5.832
 9335SOL     OW28903   0.928   3.503   2.248
 9335SOL    HW128904   1.028   3.511   2.243
 9335SOL    HW228905   0.887   3.568   2.184
 9336SOL     OW28906   5.753   0.077   5.826
 9336SOL    HW128907   5.665   0.123   5.822
 9336SOL    HW228908   5.825   0.140   5.795
 9337SOL     OW28909   2.357   0.299   6.207
 9337SOL    HW128910   2.303   0.372   6.166
 9337SOL    HW228911   2.382   0.232   6.137
 9338SOL     OW28912   5.488   6.594   0.097
 9338SOL    HW128913   5.578   6.555   0.078
 9338SOL    HW228914   5.455   6.560   0.185
 9339SOL     OW28915   6.630   3.757   5.439
 9339SOL    HW128916   6.725   3.763   5.409
 9339SOL    HW228917   6.623   3.788   5.534
 9340SOL     OW28918   3.573   5.199   0.777
 9340SOL    HW128919   3.508   5.129   0.746
 9340SOL    HW228920   3.649   5.205   0.713
 9341SOL     OW28921   5.210   4.516   6.335
 9341SOL    HW128922   5.297   4.489   6.377
 9341SOL    HW228923   5.169   4.436   6.291
 9342SOL     OW28924   3.646   0.327   4.136
 9342SOL    HW128925   3.714   0.389   4.098
 9342SOL    HW228926   3.602   0.369   4.215
 9343SOL     OW28927   4.593   4.236   1.297
 9343SOL    HW128928   4.531   4.312   1.276
 9343SOL    HW228929   4.618   4.240   1.394
 9344SOL     OW28930   6.097   6.907   5.061
 9344SOL    HW128931   6.159   6.951   5.125
 9344SOL    HW228932   6.059   6.824   5.103
 9345SOL     OW28933   0.936   5.337   0.214
 9345SOL    HW128934   1.030   5.302   0.206
 9345SOL    HW228935   0.877   5.265   0.250
 9346SOL     OW28936   6.109   6.418   1.365
 9346SOL    HW128937   6.163   6.420   1.449
 9346SOL    HW228938   6.118   6.329   1.321
 9347SOL     OW28939   3.649   5.463   0.619
 9347SOL    HW128940   3.601   5.513   0.547
 9347SOL    HW228941   3.604   5.480   0.707
 9348SOL     OW28942   2.658   5.844   1.751
 9348SOL    HW128943   2.637   5.865   1.846
 9348SOL    HW228944   2.725   5.910   1.716
 9349SOL     OW28945   6.811   5.988   2.095
 9349SOL    HW128946   6.785   5.970   2.190
 9349SOL    HW228947   6.738   6.037   2.049
 9350SOL     OW28948   6.821   0.669   6.136
 9350SOL    HW128949   6.784   0.634   6.222
 9350SOL    HW228950   6.851   0.764   6.149
 9351SOL     OW28951   3.332   2.990   6.071
 9351SOL    HW128952   3.263   3.035   6.128
 9351SOL    HW228953   3.292   2.908   6.030
 9352SOL     OW28954   3.415   2.502   5.922
 9352SOL    HW128955   3.360   2.471   5.844
 9352SOL    HW228956   3.510   2.475   5.910
 9353SOL     OW28957   0.658   3.648   1.313
 9353SOL    HW128958   0.651   3.742   1.347
 9353SOL    HW228959   0.622   3.584   1.381
 9354SOL     OW28960   5.112   1.873   1.635
 9354SOL    HW128961   5.088   1.776   1.634
 9354SOL    HW228962   5.030   1.928   1.651
 9355SOL     OW28963   6.193   0.849   2.898
 9355SOL    HW128964   6.170   0.784   2.826
 9355SOL    HW228965   6.209   0.799   2.984
 9356SOL     OW28966   4.546   4.463   2.471
 9356SOL    HW128967   4.493   4.540   2.437
 9356SOL    HW228968   4.572   4.403   2.395
 9357SOL     OW28969   3.154   2.781   0.567
 9357SOL    HW128970   3.090   2.833   0.624
 9357SOL    HW228971   3.248   2.806   0.592
 9358SOL     OW28972   5.712   4.993   1.951
 9358SOL    HW128973   5.641   5.051   1.910
 9358SOL    HW228974   5.746   5.037   2.034
 9359SOL     OW28975   6.234   4.189   6.525
 9359SOL    HW128976   6.176   4.263   6.561
 9359SOL    HW228977   6.176   4.116   6.490
 9360SOL     OW28978   1.718   0.454   6.226
 9360SOL    HW128979   1.698   0.359   6.203
 9360SOL    HW228980   1.815   0.472   6.216
 9361SOL     OW28981   3.020   0.376   2.254
 9361SOL    HW128982   2.975   0.434   2.322
 9361SOL    HW228983   2.956   0.355   2.181
 9362SOL     OW28984   2.382   1.920   3.340
 9362SOL    HW128985   2.403   2.006   3.294
 9362SOL    HW228986   2.288   1.922   3.373
 9363SOL     OW28987   2.799   5.730   2.194
 9363SOL    HW128988   2.838   5.753   2.284
 9363SOL    HW228989   2.873   5.708   2.131
 9364SOL     OW28990   5.157   4.638   0.081
 9364SOL    HW128991   5.150   4.622   7.000
 9364SOL    HW228992   5.116   4.727   0.103
 9365SOL     OW28993   2.548   1.150   4.997
 9365SOL    HW128994   2.525   1.244   5.021
 9365SOL    HW228995   2.619   1.150   4.927
 9366SOL     OW28996   3.029   1.689   0.459
 9366SOL    HW128997   2.962   1.641   0.403
 9366SOL    HW228998   3.025   1.654   0.553
 9367SOL     OW28999   6.918   5.598   3.016
 9367SOL    HW129000   6.962   5.679   2.976
 9367SOL    HW229001   6.980   5.556   3.082
 9368SOL     OW29002   3.181   2.629   1.059
 9368SOL    HW129003   3.264   2.641   1.113
 9368SOL    HW229004   3.194   2.555   0.993
 9369SOL     OW29005   0.104   2.643   4.774
 9369SOL    HW129006   0.122   2.738   4.798
 9369SOL    HW229007   0.095   2.589   4.857
 9370SOL     OW29008   6.304   1.159   3.222
 9370SOL    HW129009   6.362   1.111   3.156
 9370SOL    HW229010   6.361   1.201   3.292
 9371SOL     OW29011   0.234   6.596   0.821
 9371SOL    HW129012   0.245   6.694   0.811
 9371SOL    HW229013   0.285   6.549   0.748
 9372SOL     OW29014   6.116   0.271   5.287
 9372SOL    HW129015   6.116   0.193   5.350
 9372SOL    HW229016   6.036   0.329   5.306
 9373SOL     OW29017   4.170   1.609   3.415
 9373SOL    HW129018   4.243   1.646   3.359
 9373SOL    HW229019   4.193   1.620   3.511
 9374SOL     OW29020   5.218   3.876   0.713
 9374SOL    HW129021   5.252   3.835   0.629
 9374SOL    HW229022   5.170   3.807   0.767
 9375SOL     OW29023   0.777   1.095   3.581
 9375SOL    HW129024   0.844   1.035   3.536
 9375SOL    HW229025   0.820   1.183   3.600
 9376SOL     OW29026   1.582   3.571   1.878
 9376SOL    HW129027   1.566   3.503   1.807
 9376SOL    HW229028   1.679   3.597   1.878
 9377SOL     OW29029   6.035   5.605   3.824
 9377SOL    HW129030   6.104   5.593   3.752
 9377SOL    HW229031   6.081   5.614   3.912
 9378SOL     OW29032   3.082   0.061   0.209
 9378SOL    HW129033   3.030   0.144   0.232
 9378SOL    HW229034   3.083   0.049   0.110
 9379SOL     OW29035   5.178   4.648   4.350
 9379SOL    HW129036   5.137   4.733   4.319
 9379SOL    HW229037   5.116   4.572   4.329
 9380SOL     OW29038   5.807   6.906   6.036
 9380SOL    HW129039   5.799   6.986   5.977
 9380SOL    HW229040   5.879   6.845   6.001
 9381SOL     OW29041   2.520   1.563   5.936
 9381SOL    HW129042   2.481   1.637   5.992
 9381SOL    HW229043   2.562   1.495   5.996
 9382SOL     OW29044   4.881   2.255   3.114
 9382SOL    HW129045   4.884   2.245   3.214
 9382SOL    HW229046   4.863   2.166   3.072
 9383SOL     OW29047   4.200   5.728   4.805
 9383SOL    HW129048   4.290   5.729   4.846
 9383SOL    HW229049   4.176   5.635   4.778
 9384SOL     OW29050   4.819   5.740   1.514
 9384SOL    HW129051   4.864   5.829   1.499
 9384SOL    HW229052   4.837   5.680   1.436
 9385SOL     OW29053   3.550   1.348   3.511
 9385SOL    HW129054   3.553   1.423   3.445
 9385SOL    HW229055   3.512   1.380   3.597
 9386SOL     OW29056   3.168   6.666   4.729
 9386SOL    HW129057   3.124   6.749   4.764
 9386SOL    HW229058   3.127   6.585   4.771
 9387SOL     OW29059   3.804   0.070   6.832
 9387SOL    HW129060   3.867   0.004   6.791
 9387SOL    HW229061   3.824   0.161   6.797
 9388SOL     OW29062   6.574   0.285   3.251
 9388SOL    HW129063   6.580   0.326   3.342
 9388SOL    HW229064   6.494   0.225   3.247
 9389SOL     OW29065   2.555   0.592   5.815
 9389SOL    HW129066   2.491   0.669   5.826
 9389SOL    HW229067   2.631   0.603   5.879
 9390SOL     OW29068   3.120   5.177   2.393
 9390SOL    HW129069   3.066   5.261   2.383
 9390SOL    HW229070   3.062   5.103   2.426
 9391SOL     OW29071   0.995   1.147   5.946
 9391SOL    HW129072   0.996   1.210   5.869
 9391SOL    HW229073   1.074   1.087   5.942
 9392SOL     OW29074   1.426   5.865   4.050
 9392SOL    HW129075   1.389   5.776   4.075
 9392SOL    HW229076   1.525   5.861   4.047
 9393SOL     OW29077   3.609   2.102   5.320
 9393SOL    HW129078   3.588   2.130   5.226
 9393SOL    HW229079   3.531   2.053   5.359
 9394SOL     OW29080   6.036   2.455   2.767
 9394SOL    HW129081   6.044   2.394   2.689
 9394SOL    HW229082   5.967   2.526   2.747
 9395SOL     OW29083   2.374   3.244   0.545
 9395SOL    HW129084   2.309   3.302   0.496
 9395SOL    HW229085   2.370   3.151   0.508
 9396SOL     OW29086   6.256   0.194   6.252
 9396SOL    HW129087   6.202   0.278   6.249
 9396SOL    HW229088   6.286   0.177   6.346
 9397SOL     OW29089   2.701   0.650   0.867
 9397SOL    HW129090   2.613   0.633   0.823
 9397SOL    HW229091   2.692   0.725   0.933
 9398SOL     OW29092   2.695   1.429   6.095
 9398SOL    HW129093   2.705   1.444   6.194
 9398SOL    HW229094   2.664   1.336   6.078
 9399SOL     OW29095   6.910   0.558   5.494
 9399SOL    HW129096   6.922   0.583   5.397
 9399SOL    HW229097   6.814   0.567   5.519
 9400SOL     OW29098   5.866   2.688   2.758
 9400SOL    HW129099   5.828   2.710   2.847
 9400SOL    HW229100   5.855   2.766   2.696
 9401SOL     OW29101   3.312   0.035   2.988
 9401SOL    HW129102   3.350   6.979   3.044
 9401SOL    HW229103   3.382   0.105   2.973
 9402SOL     OW29104   2.208   5.067   6.227
 9402SOL    HW129105   2.196   5.111   6.138
 9402SOL    HW229106   2.305   5.055   6.246
 9403SOL     OW29107   5.455   1.164   4.118
 9403SOL    HW129108   5.552   1.190   4.115
 9403SOL    HW229109   5.409   1.217   4.189
 9404SOL     OW29110   1.424   3.908   6.841
 9404SOL    HW129111   1.466   3.831   6.890
 9404SOL    HW229112   1.392   3.976   6.906
 9405SOL     OW29113   6.229   0.104   1.151
 9405SOL    HW129114   6.283   0.029   1.113
 9405SOL    HW229115   6.133   0.090   1.129
 9406SOL     OW29116   0.250   1.637   5.166
 9406SOL    HW129117   0.231   1.658   5.262
 9406SOL    HW229118   0.166   1.605   5.122
 9407SOL     OW29119   3.184   6.039   2.882
 9407SOL    HW129120   3.249   5.988   2.826
 9407SOL    HW229121   3.171   6.131   2.844
 9408SOL     OW29122   3.514   1.974   6.203
 9408SOL    HW129123   3.530   2.072   6.215
 9408SOL    HW229124   3.418   1.958   6.181
 9409SOL     OW29125   5.860   4.329   3.725
 9409SOL    HW129126   5.882   4.387   3.804
 9409SOL    HW229127   5.903   4.239   3.737
 9410SOL     OW29128   4.233   6.190   2.612
 9410SOL    HW129129   4.278   6.163   2.697
 9410SOL    HW229130   4.296   6.178   2.536
 9411SOL     OW29131   4.511   4.874   0.568
 9411SOL    HW129132   4.528   4.909   0.660
 9411SOL    HW229133   4.443   4.801   0.572
 9412SOL     OW29134   6.806   2.576   1.092
 9412SOL    HW129135   6.788   2.478   1.081
 9412SOL    HW229136   6.902   2.590   1.116
 9413SOL     OW29137   3.354   5.926   5.919
 9413SOL    HW129138   3.307   6.004   5.877
 9413SOL    HW229139   3.429   5.897   5.860
 9414SOL     OW29140   2.671   1.501   1.600
 9414SOL    HW129141   2.749   1.520   1.661
 9414SOL    HW229142   2.703   1.500   1.505
 9415SOL     OW29143   2.948   6.996   2.166
 9415SOL    HW129144   2.964   0.073   2.194
 9415SOL    HW229145   2.874   6.956   2.222
 9416SOL     OW29146   0.940   2.579   1.835
 9416SOL    HW129147   0.986   2.504   1.787
 9416SOL    HW229148   0.900   2.544   1.920
 9417SOL     OW29149   2.584   5.713   5.142
 9417SOL    HW129150   2.515   5.643   5.127
 9417SOL    HW229151   2.622   5.742   5.054
 9418SOL     OW29152   3.263   5.558   0.640
 9418SOL    HW129153   3.204   5.524   0.713
 9418SOL    HW229154   3.359   5.545   0.665
 9419SOL     OW29155   2.964   6.773   5.295
 9419SOL    HW129156   2.988   6.697   5.235
 9419SOL    HW229157   2.865   6.776   5.307
 9420SOL     OW29158   0.239   1.626   4.532
 9420SOL    HW129159   0.258   1.586   4.622
 9420SOL    HW229160   0.316   1.606   4.471
 9421SOL     OW29161   1.062   5.049   5.628
 9421SOL    HW129162   1.014   5.017   5.547
 9421SOL    HW229163   0.999   5.052   5.706
 9422SOL     OW29164   4.889   1.006   2.467
 9422SOL    HW129165   4.871   1.070   2.543
 9422SOL    HW229166   4.867   0.913   2.496
 9423SOL     OW29167   3.916   0.764   4.484
 9423SOL    HW129168   3.850   0.811   4.543
 9423SOL    HW229169   3.893   0.783   4.388
 9424SOL     OW29170   3.025   6.091   4.489
 9424SOL    HW129171   3.008   6.049   4.399
 9424SOL    HW229172   3.077   6.176   4.476
 9425SOL     OW29173   1.448   3.193   4.433
 9425SOL    HW129174   1.503   3.206   4.351
 9425SOL    HW229175   1.419   3.283   4.468
 9426SOL     OW29176   3.670   6.990   0.048
 9426SOL    HW129177   3.671   0.058   0.100
 9426SOL    HW229178   3.703   7.006   6.973
 9427SOL     OW29179   3.107   5.350   4.443
 9427SOL    HW129180   3.037   5.336   4.373
 9427SOL    HW229181   3.097   5.442   4.481
 9428SOL     OW29182   5.199   0.264   3.044
 9428SOL    HW129183   5.141   0.183   3.054
 9428SOL    HW229184   5.193   0.319   3.127
 9429SOL     OW29185   0.420   4.151   2.397
 9429SOL    HW129186   0.507   4.195   2.416
 9429SOL    HW229187   0.435   4.053   2.383
 9430SOL     OW29188   6.194   6.831   1.938
 9430SOL    HW129189   6.167   6.744   1.978
 9430SOL    HW229190   6.270   6.870   1.990
 9431SOL     OW29191   6.726   4.402   1.716
 9431SOL    HW129192   6.633   4.438   1.726
 9431SOL    HW229193   6.724   4.303   1.730
 9432SOL     OW29194   6.519   6.781   3.207
 9432SOL    HW129195   6.439   6.722   3.220
 9432SOL    HW229196   6.584   6.736   3.146
 9433SOL     OW29197   3.346   5.072   5.325
 9433SOL    HW129198   3.301   5.159   5.344
 9433SOL    HW229199   3.443   5.088   5.307
 9434SOL     OW29200   5.164   5.045   2.631
 9434SOL    HW129201   5.136   5.017   2.723
 9434SOL    HW229202   5.252   5.093   2.635
 9435SOL     OW29203   1.706   0.638   4.517
 9435SOL    HW129204   1.736   0.556   4.566
 9435SOL    HW229205   1.732   0.719   4.570
 9436SOL     OW29206   2.345   3.515   0.252
 9436SOL    HW129207   2.434   3.560   0.249
 9436SOL    HW229208   2.336   3.454   0.173
 9437SOL     OW29209   1.629   4.988   3.911
 9437SOL    HW129210   1.701   4.950   3.969
 9437SOL    HW229211   1.563   4.916   3.888
 9438SOL     OW29212   0.802   6.557   2.211
 9438SOL    HW129213   0.897   6.569   2.239
 9438SOL    HW229214   0.751   6.640   2.231
 9439SOL     OW29215   0.178   2.838   2.080
 9439SOL    HW129216   0.170   2.897   2.000
 9439SOL    HW229217   0.260   2.782   2.073
 9440SOL     OW29218   5.176   6.245   6.110
 9440SOL    HW129219   5.108   6.174   6.131
 9440SOL    HW229220   5.191   6.302   6.191
 9441SOL     OW29221   1.557   5.210   5.500
 9441SOL    HW129222   1.596   5.145   5.434
 9441SOL    HW229223   1.544   5.164   5.588
 9442SOL     OW29224   6.964   3.438   1.402
 9442SOL    HW129225   7.012   3.516   1.443
 9442SOL    HW229226   7.014   3.408   1.321
 9443SOL     OW29227   1.805   3.899   1.879
 9443SOL    HW129228   1.743   3.857   1.946
 9443SOL    HW229229   1.776   3.873   1.786
 9444SOL     OW29230   0.328   3.483   0.352
 9444SOL    HW129231   0.232   3.511   0.346
 9444SOL    HW229232   0.386   3.553   0.310
 9445SOL     OW29233   5.525   3.848   1.538
 9445SOL    HW129234   5.536   3.784   1.462
 9445SOL    HW229235   5.615   3.875   1.572
 9446SOL     OW29236   6.599   5.996   1.574
 9446SOL    HW129237   6.626   5.902   1.593
 9446SOL    HW229238   6.664   6.058   1.618
 9447SOL     OW29239   6.037   3.424   2.158
 9447SOL    HW129240   6.129   3.390   2.141
 9447SOL    HW229241   5.980   3.410   2.077
 9448SOL     OW29242   5.824   6.646   0.593
 9448SOL    HW129243   5.766   6.573   0.558
 9448SOL    HW229244   5.891   6.608   0.656
 9449SOL     OW29245   6.110   4.960   5.701
 9449SOL    HW129246   6.192   4.904   5.690
 9449SOL    HW229247   6.054   4.923   5.775
 9450SOL     OW29248   3.145   4.899   4.633
 9450SOL    HW129249   3.144   4.875   4.730
 9450SOL    HW229250   3.063   4.863   4.589
 9451SOL     OW29251   4.693   5.203   6.073
 9451SOL    HW129252   4.596   5.194   6.047
 9451SOL    HW229253   4.718   5.300   6.074
 9452SOL     OW29254   2.474   4.966   1.746
 9452SOL    HW129255   2.506   5.013   1.663
 9452SOL    HW229256   2.426   4.882   1.720
 9453SOL     OW29257   2.717   5.154   2.663
 9453SOL    HW129258   2.702   5.124   2.757
 9453SOL    HW229259   2.729   5.253   2.661
 9454SOL     OW29260   1.889   3.533   5.606
 9454SOL    HW129261   1.873   3.557   5.510
 9454SOL    HW229262   1.988   3.523   5.621
 9455SOL     OW29263   3.908   1.612   2.255
 9455SOL    HW129264   4.005   1.625   2.278
 9455SOL    HW229265   3.864   1.702   2.246
 9456SOL     OW29266   1.388   3.542   1.392
 9456SOL    HW129267   1.291   3.545   1.419
 9456SOL    HW229268   1.395   3.546   1.292
 9457SOL     OW29269   0.760   3.028   0.720
 9457SOL    HW129270   0.778   3.066   0.811
 9457SOL    HW229271   0.754   3.103   0.654
 9458SOL     OW29272   6.484   5.264   5.139
 9458SOL    HW129273   6.499   5.208   5.220
 9458SOL    HW229274   6.572   5.290   5.099
 9459SOL     OW29275   6.581   5.717   1.644
 9459SOL    HW129276   6.646   5.644   1.621
 9459SOL    HW229277   6.558   5.711   1.741
 9460SOL     OW29278   0.894   1.895   4.914
 9460SOL    HW129279   0.939   1.979   4.943
 9460SOL    HW229280   0.934   1.864   4.827
 9461SOL     OW29281   1.220   0.875   3.957
 9461SOL    HW129282   1.242   0.858   3.861
 9461SOL    HW229283   1.122   0.858   3.972
 9462SOL     OW29284   0.779   2.822   2.203
 9462SOL    HW129285   0.765   2.887   2.129
 9462SOL    HW229286   0.747   2.862   2.289
 9463SOL     OW29287   5.684   1.693   0.085
 9463SOL    HW129288   5.701   1.791   0.100
 9463SOL    HW229289   5.664   1.649   0.173
 9464SOL     OW29290   5.837   0.245   6.126
 9464SOL    HW129291   5.864   0.334   6.089
 9464SOL    HW229292   5.835   0.249   6.225
 9465SOL     OW29293   6.259   0.662   4.154
 9465SOL    HW129294   6.280   0.575   4.198
 9465SOL    HW229295   6.163   0.684   4.167
 9466SOL     OW29296   2.860   2.560   6.306
 9466SOL    HW129297   2.852   2.657   6.331
 9466SOL    HW229298   2.839   2.549   6.209
 9467SOL     OW29299   2.016   3.352   2.088
 9467SOL    HW129300   2.090   3.413   2.061
 9467SOL    HW229301   1.967   3.392   2.165
 9468SOL     OW29302   0.108   3.222   5.458
 9468SOL    HW129303   0.121   3.268   5.370
 9468SOL    HW229304   0.016   3.240   5.492
 9469SOL     OW29305   6.390   5.090   2.065
 9469SOL    HW129306   6.420   5.029   1.991
 9469SOL    HW229307   6.417   5.184   2.043
 9470SOL     OW29308   4.762   3.846   0.843
 9470SOL    HW129309   4.812   3.792   0.775
 9470SOL    HW229310   4.690   3.790   0.884
 9471SOL     OW29311   0.331   2.294   5.722
 9471SOL    HW129312   0.412   2.248   5.759
 9471SOL    HW229313   0.357   2.382   5.683
 9472SOL     OW29314   6.086   4.393   4.160
 9472SOL    HW129315   6.006   4.357   4.208
 9472SOL    HW229316   6.151   4.430   4.227
 9473SOL     OW29317   2.852   5.456   6.193
 9473SOL    HW129318   2.762   5.412   6.185
 9473SOL    HW229319   2.843   5.542   6.242
 9474SOL     OW29320   4.132   5.006   1.836
 9474SOL    HW129321   4.047   4.953   1.848
 9474SOL    HW229322   4.187   4.999   1.918
 9475SOL     OW29323   2.425   3.461   1.513
 9475SOL    HW129324   2.405   3.539   1.572
 9475SOL    HW229325   2.339   3.420   1.482
 9476SOL     OW29326   3.673   3.237   5.413
 9476SOL    HW129327   3.713   3.148   5.436
 9476SOL    HW229328   3.579   3.241   5.449
 9477SOL     OW29329   1.210   2.696   1.416
 9477SOL    HW129330   1.242   2.717   1.324
 9477SOL    HW229331   1.197   2.598   1.426
 9478SOL     OW29332   5.658   4.708   5.697
 9478SOL    HW129333   5.683   4.662   5.612
 9478SOL    HW229334   5.695   4.657   5.775
 9479SOL     OW29335   5.873   5.874   7.003
 9479SOL    HW129336   5.951   5.891   0.047
 9479SOL    HW229337   5.857   5.956   6.947
 9480SOL     OW29338   5.898   4.830   6.959
 9480SOL    HW129339   5.884   4.793   0.034
 9480SOL    HW229340   5.875   4.928   6.959
 9481SOL     OW29341   0.080   3.547   2.225
 9481SOL    HW129342   0.010   3.533   2.295
 9481SOL    HW229343   0.169   3.519   2.261
 9482SOL     OW29344   4.641   1.056   2.124
 9482SOL    HW129345   4.673   1.089   2.213
 9482SOL    HW229346   4.666   1.121   2.053
 9483SOL     OW29347   1.388   1.369   6.729
 9483SOL    HW129348   1.289   1.376   6.739
 9483SOL    HW229349   1.409   1.331   6.639
 9484SOL     OW29350   6.949   1.329   4.085
 9484SOL    HW129351   6.860   1.368   4.060
 9484SOL    HW229352   0.005   1.386   4.051
 9485SOL     OW29353   0.972   0.807   2.371
 9485SOL    HW129354   0.914   0.806   2.452
 9485SOL    HW229355   0.938   0.874   2.306
 9486SOL     OW29356   2.981   6.344   1.528
 9486SOL    HW129357   2.994   6.345   1.627
 9486SOL    HW229358   3.037   6.271   1.488
 9487SOL     OW29359   3.405   3.558   3.819
 9487SOL    HW129360   3.450   3.580   3.732
 9487SOL    HW229361   3.323   3.504   3.802
 9488SOL     OW29362   1.255   6.631   1.531
 9488SOL    HW129363   1.156   6.613   1.535
 9488SOL    HW229364   1.284   6.678   1.614
 9489SOL     OW29365   3.805   5.007   0.871
 9489SOL    HW129366   3.882   5.068   0.889
 9489SOL    HW229367   3.831   4.941   0.800
 9490SOL     OW29368   5.094   0.826   1.335
 9490SOL    HW129369   5.151   0.871   1.404
 9490SOL    HW229370   4.997   0.839   1.358
 9491SOL     OW29371   5.428   4.529   5.618
 9491SOL    HW129372   5.471   4.620   5.618
 9491SOL    HW229373   5.425   4.494   5.712
 9492SOL     OW29374   3.385   4.000   1.349
 9492SOL    HW129375   3.355   4.093   1.370
 9492SOL    HW229376   3.305   3.944   1.327
 9493SOL     OW29377   4.597   6.163   3.093
 9493SOL    HW129378   4.516   6.174   3.151
 9493SOL    HW229379   4.653   6.246   3.099
 9494SOL     OW29380   4.659   2.831   5.484
 9494SOL    HW129381   4.679   2.928   5.481
 9494SOL    HW229382   4.648   2.802   5.580
 9495SOL     OW29383   5.954   2.371   4.927
 9495SOL    HW129384   5.922   2.337   4.839
 9495SOL    HW229385   5.981   2.294   4.985
 9496SOL     OW29386   5.704   4.296   6.729
 9496SOL    HW129387   5.626   4.346   6.692
 9496SOL    HW229388   5.769   4.361   6.770
 9497SOL     OW29389   5.355   5.745   6.919
 9497SOL    HW129390   5.276   5.804   6.928
 9497SOL    HW229391   5.438   5.794   6.947
 9498SOL     OW29392   3.771   0.068   6.209
 9498SOL    HW129393   3.866   0.077   6.238
 9498SOL    HW229394   3.767   0.007   6.129
 9499SOL     OW29395   2.917   3.872   5.522
 9499SOL    HW129396   2.966   3.820   5.593
 9499SOL    HW229397   2.819   3.869   5.542
 9500SOL     OW29398   4.370   5.727   2.029
 9500SOL    HW129399   4.421   5.782   1.963
 9500SOL    HW229400   4.341   5.785   2.106
 9501SOL     OW29401   3.321   1.463   4.509
 9501SOL    HW129402   3.231   1.459   4.552
 9501SOL    HW229403   3.383   1.400   4.556
 9502SOL     OW29404   6.085   2.651   4.928
 9502SOL    HW129405   6.159   2.640   4.995
 9502SOL    HW229406   6.037   2.564   4.916
 9503SOL     OW29407   1.102   0.107   1.919
 9503SOL    HW129408   1.178   0.068   1.971
 9503SOL    HW229409   1.065   0.186   1.968
 9504SOL     OW29410   0.646   2.748   0.165
 9504SOL    HW129411   0.725   2.717   0.113
 9504SOL    HW229412   0.636   2.847   0.156
 9505SOL     OW29413   5.836   2.811   3.264
 9505SOL    HW129414   5.871   2.754   3.338
 9505SOL    HW229415   5.815   2.902   3.300
 9506SOL     OW29416   6.995   3.984   0.287
 9506SOL    HW129417   6.986   4.059   0.222
 9506SOL    HW229418   6.904   3.954   0.315
 9507SOL     OW29419   0.812   1.368   3.402
 9507SOL    HW129420   0.771   1.451   3.441
 9507SOL    HW229421   0.904   1.389   3.369
 9508SOL     OW29422   5.939   1.793   0.982
 9508SOL    HW129423   5.913   1.820   1.075
 9508SOL    HW229424   5.912   1.864   0.918
 9509SOL     OW29425   2.247   6.325   5.731
 9509SOL    HW129426   2.237   6.364   5.823
 9509SOL    HW229427   2.208   6.233   5.729
 9510SOL     OW29428   5.986   4.458   3.009
 9510SOL    HW129429   6.078   4.486   3.037
 9510SOL    HW229430   5.993   4.400   2.927
 9511SOL     OW29431   0.687   1.843   0.467
 9511SOL    HW129432   0.635   1.917   0.507
 9511SOL    HW229433   0.777   1.836   0.511
 9512SOL     OW29434   0.970   2.106   3.821
 9512SOL    HW129435   0.959   2.008   3.802
 9512SOL    HW229436   0.950   2.124   3.917
 9513SOL     OW29437   2.217   3.857   4.428
 9513SOL    HW129438   2.202   3.927   4.358
 9513SOL    HW229439   2.261   3.778   4.386
 9514SOL     OW29440   1.986   3.570   0.322
 9514SOL    HW129441   2.007   3.577   0.224
 9514SOL    HW229442   2.059   3.521   0.369
 9515SOL     OW29443   1.740   5.979   6.332
 9515SOL    HW129444   1.830   5.961   6.292
 9515SOL    HW229445   1.741   5.951   6.429
 9516SOL     OW29446   5.258   3.887   3.997
 9516SOL    HW129447   5.176   3.935   3.966
 9516SOL    HW229448   5.243   3.789   3.992
 9517SOL     OW29449   0.156   5.708   1.607
 9517SOL    HW129450   0.194   5.712   1.699
 9517SOL    HW229451   0.204   5.638   1.554
 9518SOL     OW29452   0.516   2.422   6.501
 9518SOL    HW129453   0.516   2.334   6.549
 9518SOL    HW229454   0.547   2.494   6.563
 9519SOL     OW29455   3.254   3.645   2.885
 9519SOL    HW129456   3.217   3.607   2.800
 9519SOL    HW229457   3.347   3.679   2.868
 9520SOL     OW29458   0.082   0.376   5.293
 9520SOL    HW129459   0.004   0.312   5.291
 9520SOL    HW229460   0.047   0.470   5.297
 9521SOL     OW29461   3.108   0.603   0.807
 9521SOL    HW129462   3.164   0.685   0.817
 9521SOL    HW229463   3.044   0.615   0.731
 9522SOL     OW29464   3.660   5.998   1.174
 9522SOL    HW129465   3.695   6.044   1.092
 9522SOL    HW229466   3.631   5.905   1.150
 9523SOL     OW29467   2.345   5.265   4.180
 9523SOL    HW129468   2.264   5.301   4.228
 9523SOL    HW229469   2.418   5.247   4.246
 9524SOL     OW29470   2.002   4.228   1.650
 9524SOL    HW129471   2.011   4.179   1.737
 9524SOL    HW229472   2.090   4.226   1.602
 9525SOL     OW29473   2.082   2.891   5.278
 9525SOL    HW129474   1.998   2.940   5.304
 9525SOL    HW229475   2.096   2.899   5.180
 9526SOL     OW29476   5.387   4.822   0.087
 9526SOL    HW129477   5.349   4.904   0.045
 9526SOL    HW229478   5.316   4.752   0.093
 9527SOL     OW29479   3.524   6.825   3.349
 9527SOL    HW129480   3.504   6.812   3.446
 9527SOL    HW229481   3.577   6.908   3.336
 9528SOL     OW29482   5.904   1.535   0.890
 9528SOL    HW129483   5.914   1.629   0.921
 9528SOL    HW229484   5.861   1.480   0.962
 9529SOL     OW29485   6.464   1.959   1.584
 9529SOL    HW129486   6.434   1.949   1.490
 9529SOL    HW229487   6.491   2.054   1.601
 9530SOL     OW29488   0.674   5.479   3.713
 9530SOL    HW129489   0.689   5.536   3.632
 9530SOL    HW229490   0.582   5.497   3.749
 9531SOL     OW29491   3.791   4.917   2.711
 9531SOL    HW129492   3.864   4.970   2.668
 9531SOL    HW229493   3.711   4.915   2.651
 9532SOL     OW29494   5.862   5.323   2.394
 9532SOL    HW129495   5.957   5.346   2.374
 9532SOL    HW229496   5.802   5.369   2.329
 9533SOL     OW29497   2.298   5.143   3.428
 9533SOL    HW129498   2.345   5.194   3.357
 9533SOL    HW229499   2.365   5.097   3.486
 9534SOL     OW29500   5.496   4.501   5.325
 9534SOL    HW129501   5.584   4.527   5.365
 9534SOL    HW229502   5.434   4.472   5.398
 9535SOL     OW29503   0.981   1.316   5.746
 9535SOL    HW129504   1.003   1.302   5.650
 9535SOL    HW229505   1.014   1.406   5.775
 9536SOL     OW29506   3.703   3.721   4.617
 9536SOL    HW129507   3.767   3.788   4.581
 9536SOL    HW229508   3.753   3.642   4.652
 9537SOL     OW29509   1.589   0.721   3.963
 9537SOL    HW129510   1.542   0.711   3.875
 9537SOL    HW229511   1.536   0.783   4.022
 9538SOL     OW29512   3.452   0.502   4.623
 9538SOL    HW129513   3.382   0.570   4.601
 9538SOL    HW229514   3.438   0.470   4.717
 9539SOL     OW29515   3.491   2.861   2.931
 9539SOL    HW129516   3.400   2.890   2.961
 9539SOL    HW229517   3.560   2.925   2.964
 9540SOL     OW29518   5.079   5.075   4.045
 9540SOL    HW129519   5.070   4.998   4.108
 9540SOL    HW229520   5.152   5.057   3.980
 9541SOL     OW29521   1.635   5.552   4.867
 9541SOL    HW129522   1.726   5.582   4.894
 9541SOL    HW229523   1.607   5.475   4.924
 9542SOL     OW29524   5.710   4.867   4.408
 9542SOL    HW129525   5.735   4.963   4.417
 9542SOL    HW229526   5.790   4.809   4.424
 9543SOL     OW29527   2.411   0.968   6.053
 9543SOL    HW129528   2.424   0.901   6.127
 9543SOL    HW229529   2.425   0.923   5.965
 9544SOL     OW29530   5.222   3.735   3.444
 9544SOL    HW129531   5.173   3.666   3.498
 9544SOL    HW229532   5.189   3.733   3.350
 9545SOL     OW29533   1.110   4.701   1.890
 9545SOL    HW129534   1.111   4.798   1.916
 9545SOL    HW229535   1.202   4.664   1.893
 9546SOL     OW29536   2.766   1.477   6.350
 9546SOL    HW129537   2.860   1.442   6.356
 9546SOL    HW229538   2.733   1.498   6.442
 9547SOL     OW29539   3.541   6.193   3.749
 9547SOL    HW129540   3.539   6.257   3.826
 9547SOL    HW229541   3.520   6.101   3.782
 9548SOL     OW29542   1.172   5.003   6.600
 9548SOL    HW129543   1.180   5.077   6.533
 9548SOL    HW229544   1.144   5.040   6.688
 9549SOL     OW29545   4.430   2.018   1.659
 9549SOL    HW129546   4.369   2.093   1.683
 9549SOL    HW229547   4.377   1.945   1.616
 9550SOL     OW29548   5.287   2.684   1.448
 9550SOL    HW129549   5.278   2.639   1.537
 9550SOL    HW229550   5.334   2.771   1.460
 9551SOL     OW29551   6.313   2.039   6.495
 9551SOL    HW129552   6.339   1.943   6.490
 9551SOL    HW229553   6.356   2.089   6.419
 9552SOL     OW29554   2.565   0.758   6.438
 9552SOL    HW129555   2.516   0.843   6.422
 9552SOL    HW229556   2.612   0.730   6.354
 9553SOL     OW29557   5.175   2.221   6.671
 9553SOL    HW129558   5.187   2.286   6.746
 9553SOL    HW229559   5.223   2.255   6.590
 9554SOL     OW29560   2.042   6.589   4.198
 9554SOL    HW129561   2.085   6.528   4.132
 9554SOL    HW229562   2.031   6.541   4.286
 9555SOL     OW29563   6.466   0.858   4.091
 9555SOL    HW129564   6.389   0.802   4.122
 9555SOL    HW229565   6.548   0.834   4.144
 9556SOL     OW29566   2.480   4.048   0.818
 9556SOL    HW129567   2.547   4.113   0.854
 9556SOL    HW229568   2.388   4.077   0.846
 9557SOL     OW29569   4.896   0.630   1.530
 9557SOL    HW129570   4.945   0.716   1.546
 9557SOL    HW229571   4.840   0.608   1.610
 9558SOL     OW29572   5.689   6.590   6.064
 9558SOL    HW129573   5.788   6.578   6.069
 9558SOL    HW229574   5.644   6.501   6.052
 9559SOL     OW29575   1.600   3.862   0.123
 9559SOL    HW129576   1.680   3.923   0.125
 9559SOL    HW229577   1.524   3.905   0.172
 9560SOL     OW29578   3.269   6.989   1.731
 9560SOL    HW129579   3.273   7.003   1.830
 9560SOL    HW229580   3.176   6.961   1.705
 9561SOL     OW29581   1.129   0.993   1.227
 9561SOL    HW129582   1.212   0.943   1.201
 9561SOL    HW229583   1.120   1.075   1.170
 9562SOL     OW29584   2.886   5.171   3.561
 9562SOL    HW129585   2.935   5.110   3.500
 9562SOL    HW229586   2.900   5.143   3.656
 9563SOL     OW29587   0.707   6.429   0.486
 9563SOL    HW129588   0.796   6.424   0.441
 9563SOL    HW229589   0.720   6.427   0.585
 9564SOL     OW29590   1.751   0.198   0.641
 9564SOL    HW129591   1.799   0.133   0.700
 9564SOL    HW229592   1.715   0.274   0.697
 9565SOL     OW29593   3.500   1.380   3.827
 9565SOL    HW129594   3.480   1.434   3.909
 9565SOL    HW229595   3.449   1.294   3.831
 9566SOL     OW29596   2.206   6.722   0.724
 9566SOL    HW129597   2.247   6.752   0.638
 9566SOL    HW229598   2.238   6.780   0.799
 9567SOL     OW29599   6.471   4.365   0.392
 9567SOL    HW129600   6.395   4.314   0.432
 9567SOL    HW229601   6.436   4.445   0.343
 9568SOL     OW29602   4.286   1.665   6.862
 9568SOL    HW129603   4.319   1.759   6.869
 9568SOL    HW229604   4.216   1.659   6.791
 9569SOL     OW29605   5.515   0.375   1.846
 9569SOL    HW129606   5.566   0.452   1.809
 9569SOL    HW229607   5.513   0.381   1.946
 9570SOL     OW29608   0.009   3.084   1.114
 9570SOL    HW129609   6.961   3.112   1.184
 9570SOL    HW229610   7.009   3.135   1.029
 9571SOL     OW29611   2.222   2.664   6.914
 9571SOL    HW129612   2.245   2.761   6.926
 9571SOL    HW229613   2.306   2.610   6.919
 9572SOL     OW29614   2.499   4.428   3.321
 9572SOL    HW129615   2.457   4.343   3.353
 9572SOL    HW229616   2.523   4.419   3.225
 9573SOL     OW29617   0.056   1.136   4.842
 9573SOL    HW129618   0.025   1.193   4.765
 9573SOL    HW229619   0.022   1.043   4.830
 9574SOL     OW29620   4.055   2.918   1.342
 9574SOL    HW129621   4.075   2.963   1.429
 9574SOL    HW229622   4.130   2.856   1.318
 9575SOL     OW29623   5.701   6.614   2.006
 9575SOL    HW129624   5.776   6.600   2.071
 9575SOL    HW229625   5.646   6.530   2.000
 9576SOL     OW29626   1.107   1.224   6.939
 9576SOL    HW129627   1.089   1.315   6.979
 9576SOL    HW229628   1.123   1.234   6.841
 9577SOL     OW29629   6.991   6.094   1.285
 9577SOL    HW129630   0.029   6.169   1.319
 9577SOL    HW229631   0.026   6.041   1.219
 9578SOL     OW29632   1.230   2.619   3.177
 9578SOL    HW129633   1.213   2.527   3.142
 9578SOL    HW229634   1.314   2.619   3.232
 9579SOL     OW29635   5.869   6.814   2.154
 9579SOL    HW129636   5.913   6.725   2.165
 9579SOL    HW229637   5.933   6.887   2.176
 9580SOL     OW29638   5.200   4.829   1.206
 9580SOL    HW129639   5.182   4.915   1.157
 9580SOL    HW229640   5.197   4.753   1.142
 9581SOL     OW29641   6.435   0.443   6.922
 9581SOL    HW129642   6.466   0.538   6.922
 9581SOL    HW229643   6.462   0.400   7.008
 9582SOL     OW29644   3.661   5.425   3.971
 9582SOL    HW129645   3.681   5.329   3.951
 9582SOL    HW229646   3.684   5.444   4.066
 9583SOL     OW29647   3.344   4.662   1.698
 9583SOL    HW129648   3.443   4.670   1.692
 9583SOL    HW229649   3.319   4.605   1.776
 9584SOL     OW29650   1.899   3.977   4.568
 9584SOL    HW129651   1.989   3.934   4.573
 9584SOL    HW229652   1.903   4.068   4.610
 9585SOL     OW29653   5.007   5.961   1.515
 9585SOL    HW129654   5.044   5.944   1.424
 9585SOL    HW229655   5.028   5.884   1.575
 9586SOL     OW29656   4.414   5.130   1.540
 9586SOL    HW129657   4.357   5.051   1.517
 9586SOL    HW229658   4.497   5.098   1.586
 9587SOL     OW29659   2.377   6.234   1.588
 9587SOL    HW129660   2.361   6.135   1.585
 9587SOL    HW229661   2.356   6.275   1.499
 9588SOL     OW29662   6.309   6.456   0.786
 9588SOL    HW129663   6.350   6.528   0.841
 9588SOL    HW229664   6.304   6.372   0.839
 9589SOL     OW29665   1.299   3.546   6.530
 9589SOL    HW129666   1.368   3.617   6.516
 9589SOL    HW229667   1.210   3.589   6.549
 9590SOL     OW29668   5.411   1.634   1.992
 9590SOL    HW129669   5.484   1.616   2.058
 9590SOL    HW229670   5.371   1.547   1.961
 9591SOL     OW29671   3.424   6.931   6.584
 9591SOL    HW129672   3.327   6.947   6.562
 9591SOL    HW229673   3.431   6.848   6.640
 9592SOL     OW29674   2.676   4.264   6.553
 9592SOL    HW129675   2.767   4.287   6.587
 9592SOL    HW229676   2.615   4.247   6.631
 9593SOL     OW29677   1.926   1.301   5.440
 9593SOL    HW129678   1.973   1.349   5.366
 9593SOL    HW229679   1.984   1.302   5.522
 9594SOL     OW29680   1.630   6.151   3.937
 9594SOL    HW129681   1.696   6.166   3.864
 9594SOL    HW229682   1.676   6.113   4.017
 9595SOL     OW29683   0.384   3.139   3.769
 9595SOL    HW129684   0.415   3.065   3.828
 9595SOL    HW229685   0.309   3.188   3.813
 9596SOL     OW29686   0.327   5.755   0.998
 9596SOL    HW129687   0.368   5.707   1.076
 9596SOL    HW229688   0.351   5.852   1.003
 9597SOL     OW29689   1.128   4.294   2.262
 9597SOL    HW129690   1.078   4.226   2.316
 9597SOL    HW229691   1.066   4.368   2.235
 9598SOL     OW29692   1.710   3.680   2.860
 9598SOL    HW129693   1.764   3.755   2.820
 9598SOL    HW229694   1.748   3.593   2.830
 9599SOL     OW29695   3.155   6.922   3.599
 9599SOL    HW129696   3.061   6.956   3.608
 9599SOL    HW229697   3.180   6.871   3.681
 9600SOL     OW29698   2.728   0.330   0.766
 9600SOL    HW129699   2.749   0.424   0.791
 9600SOL    HW229700   2.775   0.307   0.680
 9601SOL     OW29701   6.585   4.677   0.875
 9601SOL    HW129702   6.663   4.739   0.883
 9601SOL    HW229703   6.614   4.585   0.901
 9602SOL     OW29704   4.795   4.436   5.238
 9602SOL    HW129705   4.695   4.440   5.236
 9602SOL    HW229706   4.825   4.344   5.213
 9603SOL     OW29707   5.647   6.636   5.790
 9603SOL    HW129708   5.644   6.734   5.773
 9603SOL    HW229709   5.671   6.618   5.885
 9604SOL     OW29710   4.977   0.760   0.707
 9604SOL    HW129711   4.894   0.762   0.653
 9604SOL    HW229712   4.960   0.710   0.792
 9605SOL     OW29713   6.729   4.760   3.582
 9605SOL    HW129714   6.738   4.860   3.582
 9605SOL    HW229715   6.783   4.722   3.507
 9606SOL     OW29716   1.077   1.272   6.466
 9606SOL    HW129717   1.032   1.355   6.431
 9606SOL    HW229718   1.046   1.193   6.414
 9607SOL     OW29719   3.144   1.618   6.320
 9607SOL    HW129720   3.227   1.607   6.266
 9607SOL    HW229721   3.119   1.530   6.361
 9608SOL     OW29722   6.786   4.322   2.702
 9608SOL    HW129723   6.854   4.379   2.748
 9608SOL    HW229724   6.798   4.330   2.603
 9609SOL     OW29725   3.745   2.738   6.427
 9609SOL    HW129726   3.744   2.800   6.505
 9609SOL    HW229727   3.829   2.752   6.374
 9610SOL     OW29728   2.365   4.796   2.822
 9610SOL    HW129729   2.370   4.878   2.765
 9610SOL    HW229730   2.454   4.780   2.865
 9611SOL     OW29731   1.806   6.741   0.955
 9611SOL    HW129732   1.844   6.762   0.865
 9611SOL    HW229733   1.821   6.644   0.976
 9612SOL     OW29734   0.698   3.336   2.300
 9612SOL    HW129735   0.785   3.382   2.316
 9612SOL    HW229736   0.650   3.381   2.224
 9613SOL     OW29737   5.802   6.230   3.553
 9613SOL    HW129738   5.883   6.288   3.552
 9613SOL    HW229739   5.809   6.164   3.628
 9614SOL     OW29740   4.174   2.290   2.817
 9614SOL    HW129741   4.171   2.280   2.717
 9614SOL    HW229742   4.103   2.233   2.859
 9615SOL     OW29743   2.519   2.288   0.616
 9615SOL    HW129744   2.451   2.222   0.650
 9615SOL    HW229745   2.580   2.242   0.552
 9616SOL     OW29746   3.454   2.351   0.854
 9616SOL    HW129747   3.549   2.343   0.882
 9616SOL    HW229748   3.443   2.429   0.792
 9617SOL     OW29749   2.061   2.728   3.537
 9617SOL    HW129750   2.062   2.650   3.599
 9617SOL    HW229751   2.126   2.712   3.463
 9618SOL     OW29752   3.125   1.058   0.883
 9618SOL    HW129753   3.041   1.080   0.834
 9618SOL    HW229754   3.185   1.138   0.884
 9619SOL     OW29755   1.636   0.514   5.685
 9619SOL    HW129756   1.546   0.521   5.641
 9619SOL    HW229757   1.625   0.486   5.780
 9620SOL     OW29758   4.878   0.436   4.613
 9620SOL    HW129759   4.781   0.418   4.602
 9620SOL    HW229760   4.902   0.431   4.710
 9621SOL     OW29761   1.363   2.822   2.339
 9621SOL    HW129762   1.337   2.733   2.304
 9621SOL    HW229763   1.424   2.867   2.274
 9622SOL     OW29764   6.131   1.388   0.836
 9622SOL    HW129765   6.046   1.434   0.861
 9622SOL    HW229766   6.120   1.343   0.747
 9623SOL     OW29767   2.768   2.873   6.656
 9623SOL    HW129768   2.835   2.801   6.673
 9623SOL    HW229769   2.806   2.939   6.591
 9624SOL     OW29770   6.017   3.318   2.624
 9624SOL    HW129771   6.102   3.364   2.598
 9624SOL    HW229772   6.020   3.294   2.721
 9625SOL     OW29773   5.250   6.063   0.098
 9625SOL    HW129774   5.160   6.025   0.078
 9625SOL    HW229775   5.308   6.056   0.016
 9626SOL     OW29776   4.032   4.924   0.656
 9626SOL    HW129777   4.042   4.935   0.557
 9626SOL    HW229778   4.075   5.002   0.702
 9627SOL     OW29779   0.747   6.284   6.212
 9627SOL    HW129780   0.662   6.232   6.219
 9627SOL    HW229781   0.755   6.346   6.290
 9628SOL     OW29782   5.034   6.111   1.090
 9628SOL    HW129783   5.037   6.079   0.996
 9628SOL    HW229784   5.003   6.206   1.092
 9629SOL     OW29785   2.583   0.600   1.520
 9629SOL    HW129786   2.596   0.515   1.571
 9629SOL    HW229787   2.544   0.670   1.581
 9630SOL     OW29788   6.336   0.585   5.848
 9630SOL    HW129789   6.348   0.680   5.877
 9630SOL    HW229790   6.261   0.579   5.783
 9631SOL     OW29791   6.309   0.204   6.546
 9631SOL    HW129792   6.235   0.269   6.528
 9631SOL    HW229793   6.378   0.248   6.604
 9632SOL     OW29794   1.961   6.190   2.108
 9632SOL    HW129795   2.023   6.129   2.156
 9632SOL    HW229796   1.933   6.149   2.021
 9633SOL     OW29797   5.600   5.829   0.001
 9633SOL    HW129798   5.698   5.848   7.016
 9633SOL    HW229799   5.568   5.835   0.096
 9634SOL     OW29800   1.647   6.220   4.867
 9634SOL    HW129801   1.559   6.172   4.877
 9634SOL    HW229802   1.703   6.172   4.800
 9635SOL     OW29803   2.842   5.445   4.728
 9635SOL    HW129804   2.835   5.362   4.783
 9635SOL    HW229805   2.775   5.442   4.654
 9636SOL     OW29806   3.913   1.239   5.337
 9636SOL    HW129807   3.934   1.329   5.374
 9636SOL    HW229808   3.814   1.232   5.322
 9637SOL     OW29809   1.896   1.783   6.457
 9637SOL    HW129810   1.812   1.729   6.467
 9637SOL    HW229811   1.895   1.831   6.369
 9638SOL     OW29812   6.537   3.444   4.803
 9638SOL    HW129813   6.521   3.465   4.706
 9638SOL    HW229814   6.621   3.489   4.833
 9639SOL     OW29815   4.649   1.399   2.792
 9639SOL    HW129816   4.685   1.482   2.748
 9639SOL    HW229817   4.566   1.370   2.744
 9640SOL     OW29818   2.373   2.786   2.854
 9640SOL    HW129819   2.399   2.711   2.915
 9640SOL    HW229820   2.379   2.755   2.759
 9641SOL     OW29821   4.892   0.040   0.467
 9641SOL    HW129822   4.869   0.017   0.561
 9641SOL    HW229823   4.867   0.135   0.448
 9642SOL     OW29824   3.516   0.162   4.725
 9642SOL    HW129825   3.563   0.192   4.808
 9642SOL    HW229826   3.565   0.195   4.644
 9643SOL     OW29827   5.215   4.621   3.812
 9643SOL    HW129828   5.150   4.698   3.814
 9643SOL    HW229829   5.213   4.578   3.722
 9644SOL     OW29830   0.671   2.921   6.749
 9644SOL    HW129831   0.644   2.907   6.654
 9644SOL    HW229832   0.592   2.951   6.803
 9645SOL     OW29833   3.207   5.305   5.307
 9645SOL    HW129834   3.144   5.366   5.260
 9645SOL    HW229835   3.279   5.358   5.351
 9646SOL     OW29836   4.041   4.862   2.457
 9646SOL    HW129837   4.014   4.945   2.505
 9646SOL    HW229838   3.990   4.855   2.371
 9647SOL     OW29839   6.163   3.559   0.983
 9647SOL    HW129840   6.235   3.491   0.969
 9647SOL    HW229841   6.189   3.645   0.938
 9648SOL     OW29842   4.416   2.212   1.291
 9648SOL    HW129843   4.438   2.293   1.346
 9648SOL    HW229844   4.501   2.163   1.269
 9649SOL     OW29845   2.449   5.892   0.340
 9649SOL    HW129846   2.433   5.944   0.257
 9649SOL    HW229847   2.539   5.914   0.378
 9650SOL     OW29848   6.795   5.663   2.107
 9650SOL    HW129849   6.855   5.740   2.125
 9650SOL    HW229850   6.742   5.641   2.189
 9651SOL     OW29851   0.921   1.039   6.383
 9651SOL    HW129852   0.823   1.054   6.382
 9651SOL    HW229853   0.948   0.992   6.298
 9652SOL     OW29854   0.477   4.603   3.118
 9652SOL    HW129855   0.532   4.521   3.131
 9652SOL    HW229856   0.381   4.578   3.110
 9653SOL     OW29857   5.017   4.919   4.241
 9653SOL    HW129858   4.935   4.976   4.236
 9653SOL    HW229859   5.089   4.967   4.292
 9654SOL     OW29860   2.168   2.738   2.039
 9654SOL    HW129861   2.198   2.796   2.115
 9654SOL    HW229862   2.206   2.774   1.954
 9655SOL     OW29863   6.942   1.378   6.548
 9655SOL    HW129864   6.980   1.344   6.634
 9655SOL    HW229865   7.015   1.383   6.479
 9656SOL     OW29866   3.461   0.396   2.640
 9656SOL    HW129867   3.414   0.367   2.724
 9656SOL    HW229868   3.393   0.421   2.571
 9657SOL     OW29869   6.178   1.083   4.981
 9657SOL    HW129870   6.090   1.042   4.956
 9657SOL    HW229871   6.197   1.066   5.077
 9658SOL     OW29872   6.246   2.790   1.721
 9658SOL    HW129873   6.246   2.690   1.727
 9658SOL    HW229874   6.186   2.818   1.646
 9659SOL     OW29875   0.949   4.401   0.431
 9659SOL    HW129876   0.938   4.316   0.482
 9659SOL    HW229877   0.861   4.427   0.390
 9660SOL     OW29878   0.959   5.160   0.577
 9660SOL    HW129879   0.919   5.101   0.507
 9660SOL    HW229880   1.021   5.106   0.634
 9661SOL     OW29881   4.702   6.757   0.682
 9661SOL    HW129882   4.762   6.691   0.637
 9661SOL    HW229883   4.755   6.839   0.707
 9662SOL     OW29884   6.142   1.499   4.744
 9662SOL    HW129885   6.226   1.448   4.724
 9662SOL    HW229886   6.120   1.490   4.841
 9663SOL     OW29887   2.342   5.440   2.879
 9663SOL    HW129888   2.424   5.494   2.899
 9663SOL    HW229889   2.347   5.408   2.784
 9664SOL     OW29890   3.854   6.791   2.156
 9664SOL    HW129891   3.831   6.755   2.066
 9664SOL    HW229892   3.771   6.818   2.204
 9665SOL     OW29893   5.349   4.240   5.126
 9665SOL    HW129894   5.379   4.326   5.085
 9665SOL    HW229895   5.370   4.241   5.224
 9666SOL     OW29896   5.539   4.305   2.453
 9666SOL    HW129897   5.475   4.229   2.455
 9666SOL    HW229898   5.495   4.385   2.412
 9667SOL     OW29899   4.133   3.617   4.141
 9667SOL    HW129900   4.094   3.525   4.130
 9667SOL    HW229901   4.221   3.621   4.094
 9668SOL     OW29902   0.592   1.048   5.345
 9668SOL    HW129903   0.522   1.110   5.310
 9668SOL    HW229904   0.583   0.959   5.300
 9669SOL     OW29905   0.815   6.886   0.277
 9669SOL    HW129906   0.865   6.944   0.341
 9669SOL    HW229907   0.725   6.865   0.315
 9670SOL     OW29908   5.129   4.825   6.683
 9670SOL    HW129909   5.102   4.769   6.605
 9670SOL    HW229910   5.161   4.914   6.651
 9671SOL     OW29911   6.761   5.371   5.306
 9671SOL    HW129912   6.801   5.463   5.303
 9671SOL    HW229913   6.830   5.306   5.340
 9672SOL     OW29914   0.837   5.867   4.669
 9672SOL    HW129915   0.810   5.863   4.765
 9672SOL    HW229916   0.799   5.949   4.627
 9673SOL     OW29917   3.434   4.234   6.561
 9673SOL    HW129918   3.370   4.240   6.484
 9673SOL    HW229919   3.528   4.244   6.527
 9674SOL     OW29920   3.134   5.832   2.207
 9674SOL    HW129921   3.180   5.812   2.121
 9674SOL    HW229922   3.079   5.915   2.197
 9675SOL     OW29923   6.619   2.401   2.297
 9675SOL    HW129924   6.662   2.450   2.373
 9675SOL    HW229925   6.639   2.304   2.305
 9676SOL     OW29926   0.712   3.877   4.679
 9676SOL    HW129927   0.708   3.847   4.584
 9676SOL    HW229928   0.795   3.931   4.694
 9677SOL     OW29929   2.039   3.473   6.175
 9677SOL    HW129930   2.032   3.458   6.077
 9677SOL    HW229931   1.971   3.417   6.222
 9678SOL     OW29932   3.947   3.932   3.375
 9678SOL    HW129933   3.968   3.899   3.467
 9678SOL    HW229934   3.852   3.965   3.372
 9679SOL     OW29935   1.223   2.408   1.921
 9679SOL    HW129936   1.245   2.372   2.012
 9679SOL    HW229937   1.263   2.499   1.912
 9680SOL     OW29938   5.974   6.018   3.447
 9680SOL    HW129939   6.058   6.056   3.408
 9680SOL    HW229940   5.908   6.092   3.464
 9681SOL     OW29941   2.203   0.944   2.255
 9681SOL    HW129942   2.236   1.031   2.292
 9681SOL    HW229943   2.159   0.961   2.167
 9682SOL     OW29944   5.425   4.400   3.115
 9682SOL    HW129945   5.351   4.462   3.090
 9682SOL    HW229946   5.395   4.342   3.191
 9683SOL     OW29947   4.232   6.485   0.067
 9683SOL    HW129948   4.199   6.559   0.008
 9683SOL    HW229949   4.306   6.520   0.125
 9684SOL     OW29950   0.533   4.143   5.172
 9684SOL    HW129951   0.582   4.092   5.102
 9684SOL    HW229952   0.443   4.169   5.138
 9685SOL     OW29953   1.336   2.644   0.612
 9685SOL    HW129954   1.337   2.630   0.711
 9685SOL    HW229955   1.251   2.608   0.574
 9686SOL     OW29956   6.295   0.697   1.725
 9686SOL    HW129957   6.272   0.744   1.640
 9686SOL    HW229958   6.355   0.756   1.780
 9687SOL     OW29959   2.484   0.028   3.698
 9687SOL    HW129960   2.548   0.052   3.625
 9687SOL    HW229961   2.513   0.071   3.784
 9688SOL     OW29962   0.042   1.323   3.154
 9688SOL    HW129963   0.060   1.386   3.079
 9688SOL    HW229964   0.129   1.286   3.187
 9689SOL     OW29965   2.788   6.288   6.708
 9689SOL    HW129966   2.887   6.283   6.725
 9689SOL    HW229967   2.752   6.195   6.696
 9690SOL     OW29968   6.415   4.931   0.475
 9690SOL    HW129969   6.429   4.938   0.376
 9690SOL    HW229970   6.481   4.990   0.522
 9691SOL     OW29971   1.526   5.236   2.135
 9691SOL    HW129972   1.571   5.326   2.139
 9691SOL    HW229973   1.594   5.165   2.118
 9692SOL     OW29974   2.923   5.320   1.683
 9692SOL    HW129975   2.883   5.376   1.610
 9692SOL    HW229976   2.872   5.333   1.768
 9693SOL     OW29977   6.406   6.220   1.875
 9693SOL    HW129978   6.480   6.154   1.885
 9693SOL    HW229979   6.443   6.308   1.845
 9694SOL     OW29980   1.441   2.844   6.776
 9694SOL    HW129981   1.368   2.795   6.728
 9694SOL    HW229982   1.414   2.859   6.871
 9695SOL     OW29983   6.856   4.491   1.445
 9695SOL    HW129984   6.945   4.470   1.405
 9695SOL    HW229985   6.859   4.473   1.544
 9696SOL     OW29986   3.928   2.967   1.829
 9696SOL    HW129987   3.964   3.041   1.887
 9696SOL    HW229988   3.838   2.940   1.862
 9697SOL     OW29989   0.372   5.147   0.090
 9697SOL    HW129990   0.315   5.087   0.034
 9697SOL    HW229991   0.468   5.135   0.063
 9698SOL     OW29992   6.051   2.163   5.093
 9698SOL    HW129993   6.145   2.150   5.061
 9698SOL    HW229994   6.012   2.074   5.117
 9699SOL     OW29995   1.683   3.617   0.122
 9699SOL    HW129996   1.638   3.705   0.134
 9699SOL    HW229997   1.714   3.583   0.210
 9700SOL     OW29998   3.710   4.205   5.310
 9700SOL    HW129999   3.663   4.160   5.235
 9700SOL    HW230000   3.644   4.260   5.362
 9701SOL     OW30001   4.434   5.211   4.626
 9701SOL    HW130002   4.418   5.200   4.724
 9701SOL    HW230003   4.406   5.303   4.598
 9702SOL     OW30004   4.675   1.190   0.822
 9702SOL    HW130005   4.666   1.091   0.813
 9702SOL    HW230006   4.754   1.221   0.770
 9703SOL     OW30007   2.981   5.970   4.258
 9703SOL    HW130008   2.924   6.008   4.186
 9703SOL    HW230009   3.065   5.933   4.218
 9704SOL     OW30010   3.717   6.578   3.321
 9704SOL    HW130011   3.748   6.540   3.408
 9704SOL    HW230012   3.636   6.636   3.337
 9705SOL     OW30013   3.164   4.492   0.377
 9705SOL    HW130014   3.172   4.582   0.334
 9705SOL    HW230015   3.234   4.483   0.448
 9706SOL     OW30016   6.049   2.928   2.372
 9706SOL    HW130017   6.062   3.027   2.366
 9706SOL    HW230018   6.102   2.892   2.448
 9707SOL     OW30019   2.403   5.013   2.207
 9707SOL    HW130020   2.349   5.074   2.265
 9707SOL    HW230021   2.357   4.925   2.199
 9708SOL     OW30022   2.106   1.894   3.397
 9708SOL    HW130023   2.068   1.929   3.312
 9708SOL    HW230024   2.066   1.805   3.417
 9709SOL     OW30025   1.941   6.398   2.783
 9709SOL    HW130026   1.881   6.350   2.848
 9709SOL    HW230027   2.036   6.369   2.798
 9710SOL     OW30028   0.290   1.216   3.189
 9710SOL    HW130029   0.386   1.231   3.213
 9710SOL    HW230030   0.274   1.118   3.174
 9711SOL     OW30031   1.391   4.137   5.449
 9711SOL    HW130032   1.307   4.186   5.471
 9711SOL    HW230033   1.416   4.154   5.354
 9712SOL     OW30034   5.392   1.690   4.178
 9712SOL    HW130035   5.443   1.731   4.102
 9712SOL    HW230036   5.455   1.635   4.233
 9713SOL     OW30037   6.787   5.034   3.085
 9713SOL    HW130038   6.698   4.990   3.095
 9713SOL    HW230039   6.784   5.124   3.129
 9714SOL     OW30040   2.297   2.459   1.426
 9714SOL    HW130041   2.312   2.362   1.408
 9714SOL    HW230042   2.331   2.481   1.518
 9715SOL     OW30043   5.071   5.772   5.097
 9715SOL    HW130044   5.033   5.680   5.092
 9715SOL    HW230045   5.073   5.813   5.006
 9716SOL     OW30046   4.228   1.903   6.198
 9716SOL    HW130047   4.195   1.978   6.255
 9716SOL    HW230048   4.167   1.824   6.209
 9717SOL     OW30049   5.904   5.697   4.256
 9717SOL    HW130050   5.875   5.601   4.250
 9717SOL    HW230051   5.883   5.743   4.170
 9718SOL     OW30052   3.882   3.464   1.239
 9718SOL    HW130053   3.901   3.367   1.228
 9718SOL    HW230054   3.818   3.478   1.314
 9719SOL     OW30055   0.923   2.078   0.240
 9719SOL    HW130056   0.913   2.131   0.156
 9719SOL    HW230057   0.868   1.994   0.233
 9720SOL     OW30058   0.234   6.843   2.181
 9720SOL    HW130059   0.255   6.849   2.084
 9720SOL    HW230060   0.308   6.796   2.229
 9721SOL     OW30061   6.562   4.107   2.244
 9721SOL    HW130062   6.500   4.037   2.208
 9721SOL    HW230063   6.652   4.066   2.260
 9722SOL     OW30064   0.612   0.558   3.624
 9722SOL    HW130065   0.516   0.585   3.616
 9722SOL    HW230066   0.619   0.476   3.681
 9723SOL     OW30067   0.049   0.807   3.633
 9723SOL    HW130068   0.063   0.709   3.616
 9723SOL    HW230069   0.016   0.851   3.550
 9724SOL     OW30070   3.142   2.138   1.098
 9724SOL    HW130071   3.057   2.090   1.119
 9724SOL    HW230072   3.150   2.220   1.154
 9725SOL     OW30073   5.007   3.017   5.349
 9725SOL    HW130074   5.000   3.100   5.405
 9725SOL    HW230075   5.037   3.041   5.257
 9726SOL     OW30076   4.832   6.685   4.771
 9726SOL    HW130077   4.805   6.609   4.830
 9726SOL    HW230078   4.893   6.746   4.821
 9727SOL     OW30079   1.183   3.381   5.782
 9727SOL    HW130080   1.264   3.354   5.729
 9727SOL    HW230081   1.145   3.300   5.827
 9728SOL     OW30082   2.561   5.701   6.412
 9728SOL    HW130083   2.525   5.733   6.499
 9728SOL    HW230084   2.490   5.708   6.342
 9729SOL     OW30085   1.915   4.634   3.160
 9729SOL    HW130086   2.005   4.676   3.146
 9729SOL    HW230087   1.893   4.576   3.082
 9730SOL     OW30088   6.462   3.334   2.638
 9730SOL    HW130089   6.542   3.312   2.695
 9730SOL    HW230090   6.478   3.303   2.544
 9731SOL     OW30091   3.712   5.264   0.409
 9731SOL    HW130092   3.778   5.258   0.483
 9731SOL    HW230093   3.639   5.328   0.435
 9732SOL     OW30094   6.575   6.082   2.563
 9732SOL    HW130095   6.574   6.102   2.661
 9732SOL    HW230096   6.638   6.144   2.517
 9733SOL     OW30097   4.846   4.874   5.206
 9733SOL    HW130098   4.870   4.789   5.253
 9733SOL    HW230099   4.895   4.880   5.120
 9734SOL     OW30100   5.478   2.098   4.061
 9734SOL    HW130101   5.558   2.104   4.001
 9734SOL    HW230102   5.506   2.122   4.155
 9735SOL     OW30103   2.136   4.880   1.730
 9735SOL    HW130104   2.200   4.804   1.722
 9735SOL    HW230105   2.153   4.930   1.815
 9736SOL     OW30106   4.115   1.076   6.601
 9736SOL    HW130107   4.199   1.097   6.652
 9736SOL    HW230108   4.138   1.052   6.507
 9737SOL     OW30109   4.259   2.242   4.917
 9737SOL    HW130110   4.273   2.329   4.963
 9737SOL    HW230111   4.161   2.225   4.907
 9738SOL     OW30112   1.427   0.844   3.241
 9738SOL    HW130113   1.501   0.777   3.237
 9738SOL    HW230114   1.433   0.894   3.328
 9739SOL     OW30115   6.078   4.924   1.522
 9739SOL    HW130116   6.007   4.975   1.473
 9739SOL    HW230117   6.134   4.874   1.456
 9740SOL     OW30118   6.239   4.945   3.028
 9740SOL    HW130119   6.143   4.935   3.000
 9740SOL    HW230120   6.264   4.869   3.089
 9741SOL     OW30121   4.474   2.008   2.364
 9741SOL    HW130122   4.495   2.079   2.297
 9741SOL    HW230123   4.451   2.052   2.452
 9742SOL     OW30124   5.390   1.163   3.200
 9742SOL    HW130125   5.423   1.249   3.239
 9742SOL    HW230126   5.443   1.140   3.119
 9743SOL     OW30127   1.738   3.050   6.016
 9743SOL    HW130128   1.822   3.058   6.070
 9743SOL    HW230129   1.726   2.955   5.989
 9744SOL     OW30130   1.811   1.076   1.871
 9744SOL    HW130131   1.840   0.983   1.891
 9744SOL    HW230132   1.744   1.106   1.939
 9745SOL     OW30133   0.768   2.429   4.846
 9745SOL    HW130134   0.696   2.447   4.779
 9745SOL    HW230135   0.730   2.440   4.938
 9746SOL     OW30136   6.187   0.743   4.912
 9746SOL    HW130137   6.253   0.781   4.847
 9746SOL    HW230138   6.097   0.784   4.897
 9747SOL     OW30139   0.806   0.381   6.161
 9747SOL    HW130140   0.884   0.319   6.168
 9747SOL    HW230141   0.769   0.378   6.068
 9748SOL     OW30142   1.069   6.186   4.019
 9748SOL    HW130143   0.993   6.135   4.058
 9748SOL    HW230144   1.143   6.192   4.086
 9749SOL     OW30145   0.699   3.813   4.397
 9749SOL    HW130146   0.740   3.740   4.341
 9749SOL    HW230147   0.603   3.824   4.373
 9750SOL     OW30148   4.615   4.755   3.559
 9750SOL    HW130149   4.664   4.717   3.637
 9750SOL    HW230150   4.661   4.839   3.529
 9751SOL     OW30151   1.919   1.815   0.609
 9751SOL    HW130152   1.885   1.859   0.692
 9751SOL    HW230153   2.015   1.837   0.596
 9752SOL     OW30154   4.324   0.821   5.371
 9752SOL    HW130155   4.233   0.851   5.346
 9752SOL    HW230156   4.392   0.888   5.339
 9753SOL     OW30157   6.830   5.967   5.586
 9753SOL    HW130158   6.862   5.993   5.495
 9753SOL    HW230159   6.806   6.050   5.637
 9754SOL     OW30160   1.343   1.594   6.894
 9754SOL    HW130161   1.405   1.528   6.852
 9754SOL    HW230162   1.252   1.555   6.900
 9755SOL     OW30163   3.641   3.923   5.527
 9755SOL    HW130164   3.552   3.923   5.481
 9755SOL    HW230165   3.714   3.928   5.459
 9756SOL     OW30166   5.989   2.522   6.639
 9756SOL    HW130167   6.057   2.454   6.610
 9756SOL    HW230168   6.025   2.574   6.716
 9757SOL     OW30169   6.101   2.558   4.063
 9757SOL    HW130170   6.020   2.602   4.025
 9757SOL    HW230171   6.074   2.475   4.113
 9758SOL     OW30172   2.703   0.347   6.500
 9758SOL    HW130173   2.691   0.252   6.474
 9758SOL    HW230174   2.624   0.378   6.553
 9759SOL     OW30175   2.911   6.441   1.044
 9759SOL    HW130176   2.893   6.446   0.945
 9759SOL    HW230177   3.006   6.466   1.062
 9760SOL     OW30178   6.040   4.402   5.822
 9760SOL    HW130179   6.087   4.320   5.790
 9760SOL    HW230180   6.034   4.400   5.922
 9761SOL     OW30181   6.009   5.497   1.797
 9761SOL    HW130182   6.095   5.508   1.847
 9761SOL    HW230183   5.973   5.405   1.813
 9762SOL     OW30184   2.478   1.887   4.928
 9762SOL    HW130185   2.531   1.958   4.883
 9762SOL    HW230186   2.461   1.913   5.023
 9763SOL     OW30187   2.926   1.946   1.155
 9763SOL    HW130188   2.830   1.949   1.183
 9763SOL    HW230189   2.941   1.866   1.097
 9764SOL     OW30190   0.607   1.895   3.120
 9764SOL    HW130191   0.569   1.823   3.178
 9764SOL    HW230192   0.634   1.973   3.177
 9765SOL     OW30193   0.898   2.593   5.505
 9765SOL    HW130194   0.938   2.577   5.595
 9765SOL    HW230195   0.931   2.523   5.441
 9766SOL     OW30196   2.990   0.299   2.611
 9766SOL    HW130197   2.949   0.377   2.563
 9766SOL    HW230198   2.925   0.223   2.611
 9767SOL     OW30199   5.215   0.577   4.821
 9767SOL    HW130200   5.186   0.522   4.899
 9767SOL    HW230201   5.219   0.520   4.739
 9768SOL     OW30202   4.415   1.953   2.840
 9768SOL    HW130203   4.472   1.871   2.834
 9768SOL    HW230204   4.466   2.026   2.885
 9769SOL     OW30205   1.313   1.924   1.285
 9769SOL    HW130206   1.234   1.894   1.339
 9769SOL    HW230207   1.387   1.951   1.347
 9770SOL     OW30208   5.797   4.544   5.902
 9770SOL    HW130209   5.765   4.467   5.847
 9770SOL    HW230210   5.897   4.541   5.908
 9771SOL     OW30211   4.114   5.362   5.837
 9771SOL    HW130212   4.130   5.277   5.887
 9771SOL    HW230213   4.065   5.342   5.752
 9772SOL     OW30214   6.870   0.508   1.928
 9772SOL    HW130215   6.890   0.425   1.876
 9772SOL    HW230216   6.933   0.516   2.005
 9773SOL     OW30217   6.242   5.527   3.638
 9773SOL    HW130218   6.298   5.605   3.609
 9773SOL    HW230219   6.302   5.448   3.654
 9774SOL     OW30220   6.263   5.053   3.764
 9774SOL    HW130221   6.171   5.083   3.739
 9774SOL    HW230222   6.278   5.069   3.861
 9775SOL     OW30223   1.690   2.558   4.750
 9775SOL    HW130224   1.704   2.499   4.671
 9775SOL    HW230225   1.629   2.513   4.815
 9776SOL     OW30226   0.477   6.259   5.344
 9776SOL    HW130227   0.418   6.230   5.270
 9776SOL    HW230228   0.569   6.276   5.309
 9777SOL     OW30229   5.599   4.334   6.230
 9777SOL    HW130230   5.585   4.315   6.132
 9777SOL    HW230231   5.599   4.249   6.281
 9778SOL     OW30232   4.738   6.830   2.457
 9778SOL    HW130233   4.762   6.831   2.360
 9778SOL    HW230234   4.645   6.864   2.469
 9779SOL     OW30235   2.515   2.057   5.401
 9779SOL    HW130236   2.417   2.076   5.390
 9779SOL    HW230237   2.567   2.128   5.353
 9780SOL     OW30238   2.919   4.460   0.527
 9780SOL    HW130239   3.006   4.486   0.483
 9780SOL    HW230240   2.845   4.515   0.489
 9781SOL     OW30241   1.802   4.943   4.828
 9781SOL    HW130242   1.718   4.983   4.867
 9781SOL    HW230243   1.816   4.852   4.866
 9782SOL     OW30244   6.264   0.297   2.008
 9782SOL    HW130245   6.246   0.349   1.925
 9782SOL    HW230246   6.244   0.353   2.088
 9783SOL     OW30247   5.301   1.343   1.669
 9783SOL    HW130248   5.318   1.405   1.592
 9783SOL    HW230249   5.336   1.252   1.645
 9784SOL     OW30250   4.355   0.393   3.437
 9784SOL    HW130251   4.292   0.470   3.444
 9784SOL    HW230252   4.322   0.318   3.495
 9785SOL     OW30253   0.819   3.033   1.989
 9785SOL    HW130254   0.893   3.011   1.925
 9785SOL    HW230255   0.853   3.092   2.061
 9786SOL     OW30256   2.856   5.827   5.032
 9786SOL    HW130257   2.798   5.872   4.963
 9786SOL    HW230258   2.945   5.873   5.035
 9787SOL     OW30259   5.302   4.468   2.043
 9787SOL    HW130260   5.381   4.411   2.065
 9787SOL    HW230261   5.286   4.467   1.945
 9788SOL     OW30262   6.191   1.052   5.662
 9788SOL    HW130263   6.119   1.118   5.641
 9788SOL    HW230264   6.156   0.984   5.726
 9789SOL     OW30265   2.406   5.317   4.694
 9789SOL    HW130266   2.402   5.398   4.636
 9789SOL    HW230267   2.361   5.240   4.648
 9790SOL     OW30268   6.059   2.264   4.140
 9790SOL    HW130269   6.038   2.224   4.229
 9790SOL    HW230270   5.998   2.226   4.070
 9791SOL     OW30271   0.467   2.195   1.275
 9791SOL    HW130272   0.494   2.266   1.210
 9791SOL    HW230273   0.519   2.206   1.360
 9792SOL     OW30274   4.240   5.398   1.270
 9792SOL    HW130275   4.325   5.446   1.289
 9792SOL    HW230276   4.238   5.369   1.174
 9793SOL     OW30277   5.226   5.689   1.870
 9793SOL    HW130278   5.180   5.617   1.922
 9793SOL    HW230279   5.325   5.678   1.878
 9794SOL     OW30280   4.877   2.813   6.629
 9794SOL    HW130281   4.820   2.731   6.638
 9794SOL    HW230282   4.841   2.886   6.687
 9795SOL     OW30283   1.773   3.601   4.172
 9795SOL    HW130284   1.827   3.519   4.156
 9795SOL    HW230285   1.818   3.679   4.128
 9796SOL     OW30286   2.811   4.879   6.819
 9796SOL    HW130287   2.813   4.978   6.804
 9796SOL    HW230288   2.904   4.842   6.812
 9797SOL     OW30289   4.481   3.043   6.047
 9797SOL    HW130290   4.556   3.100   6.013
 9797SOL    HW230291   4.403   3.100   6.068
 9798SOL     OW30292   2.673   1.646   1.054
 9798SOL    HW130293   2.772   1.650   1.041
 9798SOL    HW230294   2.644   1.720   1.114
 9799SOL     OW30295   3.044   4.172   1.792
 9799SOL    HW130296   2.978   4.246   1.806
 9799SOL    HW230297   3.047   4.113   1.873
 9800SOL     OW30298   4.432   4.856   6.687
 9800SOL    HW130299   4.502   4.818   6.747
 9800SOL    HW230300   4.473   4.883   6.600
 9801SOL     OW30301   4.314   5.462   0.219
 9801SOL    HW130302   4.357   5.514   0.292
 9801SOL    HW230303   4.286   5.524   0.146
 9802SOL     OW30304   6.810   3.411   0.781
 9802SOL    HW130305   6.778   3.393   0.688
 9802SOL    HW230306   6.874   3.487   0.779
 9803SOL     OW30307   6.198   0.448   6.800
 9803SOL    HW130308   6.168   0.537   6.835
 9803SOL    HW230309   6.289   0.426   6.835
 9804SOL     OW30310   6.126   5.781   4.370
 9804SOL    HW130311   6.214   5.742   4.341
 9804SOL    HW230312   6.052   5.737   4.318
 9805SOL     OW30313   1.794   5.158   6.982
 9805SOL    HW130314   1.865   5.130   0.029
 9805SOL    HW230315   1.753   5.076   6.939
 9806SOL     OW30316   0.079   1.852   2.901
 9806SOL    HW130317   0.164   1.900   2.921
 9806SOL    HW230318   0.080   1.763   2.948
 9807SOL     OW30319   4.003   2.438   0.890
 9807SOL    HW130320   4.005   2.368   0.819
 9807SOL    HW230321   4.074   2.507   0.870
 9808SOL     OW30322   0.834   1.415   4.863
 9808SOL    HW130323   0.892   1.429   4.783
 9808SOL    HW230324   0.849   1.489   4.928
 9809SOL     OW30325   0.545   0.942   4.588
 9809SOL    HW130326   0.458   0.969   4.631
 9809SOL    HW230327   0.620   0.964   4.651
 9810SOL     OW30328   3.611   0.969   3.573
 9810SOL    HW130329   3.547   0.930   3.639
 9810SOL    HW230330   3.562   1.035   3.515
 9811SOL     OW30331   0.378   6.850   2.567
 9811SOL    HW130332   0.478   6.854   2.577
 9811SOL    HW230333   0.354   6.782   2.497
 9812SOL     OW30334   4.886   2.486   6.031
 9812SOL    HW130335   4.914   2.532   6.115
 9812SOL    HW230336   4.862   2.391   6.052
 9813SOL     OW30337   0.036   4.504   0.232
 9813SOL    HW130338   6.957   4.525   0.249
 9813SOL    HW230339   0.064   4.545   0.146
 9814SOL     OW30340   6.898   0.191   5.267
 9814SOL    HW130341   6.801   0.167   5.276
 9814SOL    HW230342   6.954   0.125   5.318
 9815SOL     OW30343   6.120   3.657   2.307
 9815SOL    HW130344   6.096   3.562   2.284
 9815SOL    HW230345   6.050   3.718   2.271
 9816SOL     OW30346   0.181   6.281   6.975
 9816SOL    HW130347   0.240   6.358   7.002
 9816SOL    HW230348   0.103   6.316   6.923
 9817SOL     OW30349   2.758   6.776   0.194
 9817SOL    HW130350   2.734   6.807   0.286
 9817SOL    HW230351   2.856   6.759   0.189
 9818SOL     OW30352   0.805   6.574   3.432
 9818SOL    HW130353   0.731   6.637   3.409
 9818SOL    HW230354   0.816   6.571   3.531
 9819SOL     OW30355   0.244   3.790   5.109
 9819SOL    HW130356   0.240   3.860   5.038
 9819SOL    HW230357   0.318   3.726   5.089
 9820SOL     OW30358   3.796   1.725   5.506
 9820SOL    HW130359   3.709   1.706   5.551
 9820SOL    HW230360   3.782   1.731   5.407
 9821SOL     OW30361   4.228   2.451   1.756
 9821SOL    HW130362   4.157   2.510   1.718
 9821SOL    HW230363   4.309   2.507   1.778
 9822SOL     OW30364   3.599   6.206   5.607
 9822SOL    HW130365   3.663   6.198   5.531
 9822SOL    HW230366   3.533   6.278   5.588
 9823SOL     OW30367   2.062   0.434   3.026
 9823SOL    HW130368   2.062   0.438   2.926
 9823SOL    HW230369   2.000   0.362   3.057
 9824SOL     OW30370   1.142   6.304   5.248
 9824SOL    HW130371   1.235   6.267   5.243
 9824SOL    HW230372   1.143   6.389   5.302
 9825SOL     OW30373   5.263   6.478   5.851
 9825SOL    HW130374   5.210   6.399   5.880
 9825SOL    HW230375   5.237   6.504   5.758
 9826SOL     OW30376   1.985   5.909   5.056
 9826SOL    HW130377   1.998   5.986   5.118
 9826SOL    HW230378   1.984   5.823   5.108
 9827SOL     OW30379   1.590   5.539   1.529
 9827SOL    HW130380   1.627   5.476   1.460
 9827SOL    HW230381   1.588   5.631   1.491
 9828SOL     OW30382   4.293   2.226   4.557
 9828SOL    HW130383   4.353   2.167   4.611
 9828SOL    HW230384   4.348   2.275   4.489
 9829SOL     OW30385   4.246   5.600   5.343
 9829SOL    HW130386   4.278   5.510   5.312
 9829SOL    HW230387   4.254   5.607   5.442
 9830SOL     OW30388   6.025   2.371   3.042
 9830SOL    HW130389   6.107   2.319   3.066
 9830SOL    HW230390   6.031   2.400   2.947
 9831SOL     OW30391   0.687   3.940   2.849
 9831SOL    HW130392   0.785   3.939   2.828
 9831SOL    HW230393   0.642   4.013   2.797
 9832SOL     OW30394   4.658   5.069   4.646
 9832SOL    HW130395   4.568   5.106   4.623
 9832SOL    HW230396   4.667   4.978   4.606
 9833SOL     OW30397   3.729   4.045   4.058
 9833SOL    HW130398   3.706   3.948   4.064
 9833SOL    HW230399   3.651   4.096   4.020
 9834SOL     OW30400   2.657   6.378   6.444
 9834SOL    HW130401   2.639   6.476   6.447
 9834SOL    HW230402   2.698   6.348   6.531
 9835SOL     OW30403   3.689   4.002   4.349
 9835SOL    HW130404   3.709   4.041   4.259
 9835SOL    HW230405   3.743   3.919   4.362
 9836SOL     OW30406   0.218   4.214   6.157
 9836SOL    HW130407   0.308   4.251   6.180
 9836SOL    HW230408   0.229   4.123   6.117
 9837SOL     OW30409   5.244   1.972   3.408
 9837SOL    HW130410   5.251   1.879   3.372
 9837SOL    HW230411   5.275   2.037   3.338
 9838SOL     OW30412   1.314   6.660   1.271
 9838SOL    HW130413   1.236   6.639   1.212
 9838SOL    HW230414   1.295   6.631   1.365
 9839SOL     OW30415   4.965   6.819   3.819
 9839SOL    HW130416   4.984   6.913   3.848
 9839SOL    HW230417   4.984   6.810   3.721
 9840SOL     OW30418   6.164   1.062   6.971
 9840SOL    HW130419   6.205   1.041   6.882
 9840SOL    HW230420   6.180   1.158   6.993
 9841SOL     OW30421   0.389   6.521   3.551
 9841SOL    HW130422   0.415   6.599   3.493
 9841SOL    HW230423   0.413   6.541   3.646
 9842SOL     OW30424   3.087   1.575   6.644
 9842SOL    HW130425   3.160   1.523   6.688
 9842SOL    HW230426   3.090   1.670   6.676
 9843SOL     OW30427   0.914   0.549   1.516
 9843SOL    HW130428   0.915   0.564   1.418
 9843SOL    HW230429   0.987   0.485   1.541
 9844SOL     OW30430   4.639   6.717   4.289
 9844SOL    HW130431   4.696   6.753   4.363
 9844SOL    HW230432   4.687   6.727   4.202
 9845SOL     OW30433   1.643   3.382   2.275
 9845SOL    HW130434   1.612   3.386   2.180
 9845SOL    HW230435   1.653   3.287   2.303
 9846SOL     OW30436   6.148   2.485   1.236
 9846SOL    HW130437   6.158   2.386   1.246
 9846SOL    HW230438   6.124   2.525   1.325
 9847SOL     OW30439   4.422   3.862   0.220
 9847SOL    HW130440   4.447   3.881   0.125
 9847SOL    HW230441   4.465   3.778   0.251
 9848SOL     OW30442   2.982   4.131   6.044
 9848SOL    HW130443   2.947   4.088   6.128
 9848SOL    HW230444   2.906   4.168   5.991
 9849SOL     OW30445   0.555   2.290   4.602
 9849SOL    HW130446   0.522   2.203   4.638
 9849SOL    HW230447   0.504   2.365   4.643
 9850SOL     OW30448   1.265   6.958   4.301
 9850SOL    HW130449   1.172   6.975   4.271
 9850SOL    HW230450   1.267   6.951   4.401
 9851SOL     OW30451   3.315   4.895   4.422
 9851SOL    HW130452   3.398   4.842   4.440
 9851SOL    HW230453   3.262   4.902   4.507
 9852SOL     OW30454   1.963   0.660   6.501
 9852SOL    HW130455   1.909   0.720   6.442
 9852SOL    HW230456   1.909   0.634   6.580
 9853SOL     OW30457   6.427   4.458   3.459
 9853SOL    HW130458   6.330   4.477   3.445
 9853SOL    HW230459   6.438   4.388   3.529
 9854SOL     OW30460   0.767   4.527   5.768
 9854SOL    HW130461   0.823   4.609   5.756
 9854SOL    HW230462   0.749   4.486   5.679
 9855SOL     OW30463   1.469   4.836   1.445
 9855SOL    HW130464   1.397   4.848   1.377
 9855SOL    HW230465   1.433   4.783   1.522
 9856SOL     OW30466   5.809   4.214   2.897
 9856SOL    HW130467   5.754   4.288   2.935
 9856SOL    HW230468   5.858   4.248   2.816
 9857SOL     OW30469   4.130   0.312   5.467
 9857SOL    HW130470   4.206   0.278   5.412
 9857SOL    HW230471   4.126   0.411   5.462
 9858SOL     OW30472   5.831   6.398   2.537
 9858SOL    HW130473   5.861   6.372   2.629
 9858SOL    HW230474   5.904   6.379   2.472
 9859SOL     OW30475   0.080   5.479   3.423
 9859SOL    HW130476   0.095   5.382   3.441
 9859SOL    HW230477   0.146   5.510   3.354
 9860SOL     OW30478   1.143   3.461   4.414
 9860SOL    HW130479   1.208   3.406   4.361
 9860SOL    HW230480   1.117   3.411   4.497
 9861SOL     OW30481   3.097   1.894   3.261
 9861SOL    HW130482   3.192   1.877   3.287
 9861SOL    HW230483   3.040   1.900   3.343
 9862SOL     OW30484   1.147   4.423   0.257
 9862SOL    HW130485   1.204   4.503   0.276
 9862SOL    HW230486   1.078   4.414   0.329
 9863SOL     OW30487   3.797   5.745   0.714
 9863SOL    HW130488   3.848   5.704   0.638
 9863SOL    HW230489   3.723   5.801   0.676
 9864SOL     OW30490   2.931   5.285   5.197
 9864SOL    HW130491   2.907   5.342   5.276
 9864SOL    HW230492   2.951   5.192   5.228
 9865SOL     OW30493   0.447   5.936   5.384
 9865SOL    HW130494   0.419   5.848   5.423
 9865SOL    HW230495   0.542   5.954   5.408
 9866SOL     OW30496   6.132   4.477   5.092
 9866SOL    HW130497   6.055   4.532   5.061
 9866SOL    HW230498   6.188   4.530   5.156
 9867SOL     OW30499   4.403   1.581   2.161
 9867SOL    HW130500   4.346   1.623   2.090
 9867SOL    HW230501   4.487   1.546   2.120
 9868SOL     OW30502   2.077   3.702   3.920
 9868SOL    HW130503   1.981   3.730   3.912
 9868SOL    HW230504   2.132   3.755   3.855
 9869SOL     OW30505   6.035   2.700   0.937
 9869SOL    HW130506   6.125   2.738   0.917
 9869SOL    HW230507   5.979   2.770   0.982
 9870SOL     OW30508   2.369   2.086   2.501
 9870SOL    HW130509   2.298   2.016   2.500
 9870SOL    HW230510   2.425   2.078   2.419
 9871SOL     OW30511   6.289   4.862   4.541
 9871SOL    HW130512   6.319   4.796   4.610
 9871SOL    HW230513   6.334   4.841   4.454
 9872SOL     OW30514   0.574   5.095   6.085
 9872SOL    HW130515   0.478   5.079   6.062
 9872SOL    HW230516   0.618   5.008   6.109
 9873SOL     OW30517   1.379   1.679   6.024
 9873SOL    HW130518   1.288   1.668   6.063
 9873SOL    HW230519   1.417   1.590   6.002
 9874SOL     OW30520   0.386   2.591   5.016
 9874SOL    HW130521   0.327   2.671   5.027
 9874SOL    HW230522   0.467   2.600   5.074
 9875SOL     OW30523   6.667   5.881   0.645
 9875SOL    HW130524   6.669   5.977   0.672
 9875SOL    HW230525   6.761   5.848   0.632
 9876SOL     OW30526   1.169   6.515   3.267
 9876SOL    HW130527   1.121   6.594   3.307
 9876SOL    HW230528   1.266   6.536   3.259
 9877SOL     OW30529   0.909   4.981   5.259
 9877SOL    HW130530   0.970   4.937   5.192
 9877SOL    HW230531   0.880   4.913   5.326
 9878SOL     OW30532   2.715   2.615   6.599
 9878SOL    HW130533   2.740   2.597   6.503
 9878SOL    HW230534   2.681   2.708   6.607
 9879SOL     OW30535   6.784   5.152   6.434
 9879SOL    HW130536   6.873   5.194   6.451
 9879SOL    HW230537   6.733   5.208   6.369
 9880SOL     OW30538   3.124   1.261   0.596
 9880SOL    HW130539   3.183   1.195   0.549
 9880SOL    HW230540   3.179   1.340   0.625
 9881SOL     OW30541   6.018   0.916   4.088
 9881SOL    HW130542   5.978   0.907   3.996
 9881SOL    HW230543   6.022   0.826   4.131
 9882SOL     OW30544   3.113   3.028   4.915
 9882SOL    HW130545   3.043   3.012   4.846
 9882SOL    HW230546   3.107   3.123   4.947
 9883SOL     OW30547   2.557   0.194   1.943
 9883SOL    HW130548   2.542   0.177   2.040
 9883SOL    HW230549   2.611   0.120   1.904
 9884SOL     OW30550   2.933   3.071   5.818
 9884SOL    HW130551   2.973   3.161   5.838
 9884SOL    HW230552   2.836   3.082   5.794
 9885SOL     OW30553   5.404   3.107   5.144
 9885SOL    HW130554   5.444   3.064   5.224
 9885SOL    HW230555   5.395   3.205   5.160
 9886SOL     OW30556   3.995   5.941   1.260
 9886SOL    HW130557   4.053   5.924   1.339
 9886SOL    HW230558   3.904   5.969   1.291
 9887SOL     OW30559   3.210   0.229   6.195
 9887SOL    HW130560   3.147   0.180   6.134
 9887SOL    HW230561   3.218   0.324   6.165
 9888SOL     OW30562   6.556   6.231   3.347
 9888SOL    HW130563   6.639   6.286   3.352
 9888SOL    HW230564   6.478   6.284   3.381
 9889SOL     OW30565   6.927   5.749   3.274
 9889SOL    HW130566   7.012   5.774   3.228
 9889SOL    HW230567   6.885   5.832   3.311
 9890SOL     OW30568   0.590   3.688   1.786
 9890SOL    HW130569   0.537   3.605   1.800
 9890SOL    HW230570   0.687   3.665   1.776
 9891SOL     OW30571   5.837   5.937   1.062
 9891SOL    HW130572   5.785   6.009   1.108
 9891SOL    HW230573   5.817   5.939   0.964
 9892SOL     OW30574   1.828   4.875   4.092
 9892SOL    HW130575   1.848   4.898   4.188
 9892SOL    HW230576   1.836   4.777   4.079
 9893SOL     OW30577   5.021   5.437   3.791
 9893SOL    HW130578   5.072   5.472   3.870
 9893SOL    HW230579   5.073   5.455   3.708
 9894SOL     OW30580   4.276   2.994   6.251
 9894SOL    HW130581   4.245   2.901   6.234
 9894SOL    HW230582   4.266   3.048   6.168
 9895SOL     OW30583   5.692   1.936   6.539
 9895SOL    HW130584   5.778   1.980   6.512
 9895SOL    HW230585   5.638   1.918   6.457
 9896SOL     OW30586   4.295   3.395   0.429
 9896SOL    HW130587   4.351   3.339   0.368
 9896SOL    HW230588   4.334   3.392   0.521
 9897SOL     OW30589   6.830   1.915   3.620
 9897SOL    HW130590   6.885   1.835   3.641
 9897SOL    HW230591   6.889   1.996   3.616
 9898SOL     OW30592   1.242   5.299   5.755
 9898SOL    HW130593   1.301   5.379   5.745
 9898SOL    HW230594   1.146   5.328   5.750
 9899SOL     OW30595   5.415   4.912   1.900
 9899SOL    HW130596   5.486   4.858   1.946
 9899SOL    HW230597   5.339   4.853   1.875
 9900SOL     OW30598   0.940   3.501   3.356
 9900SOL    HW130599   0.865   3.525   3.294
 9900SOL    HW230600   0.904   3.446   3.432
 9901SOL     OW30601   3.203   1.612   5.330
 9901SOL    HW130602   3.185   1.583   5.424
 9901SOL    HW230603   3.124   1.592   5.273
 9902SOL     OW30604   4.585   3.813   6.768
 9902SOL    HW130605   4.510   3.764   6.723
 9902SOL    HW230606   4.547   3.878   6.834
 9903SOL     OW30607   3.976   1.296   1.273
 9903SOL    HW130608   3.996   1.348   1.356
 9903SOL    HW230609   4.054   1.238   1.250
 9904SOL     OW30610   6.199   0.421   2.224
 9904SOL    HW130611   6.271   0.490   2.217
 9904SOL    HW230612   6.120   0.461   2.271
 9905SOL     OW30613   1.570   6.373   5.613
 9905SOL    HW130614   1.590   6.318   5.694
 9905SOL    HW230615   1.623   6.458   5.617
 9906SOL     OW30616   3.320   3.323   5.948
 9906SOL    HW130617   3.401   3.265   5.937
 9906SOL    HW230618   3.270   3.295   6.030
 9907SOL     OW30619   1.637   6.552   2.347
 9907SOL    HW130620   1.641   6.453   2.334
 9907SOL    HW230621   1.663   6.574   2.441
 9908SOL     OW30622   0.781   3.825   5.150
 9908SOL    HW130623   0.715   3.751   5.145
 9908SOL    HW230624   0.871   3.788   5.174
 9909SOL     OW30625   3.768   6.742   2.619
 9909SOL    HW130626   3.789   6.688   2.701
 9909SOL    HW230627   3.819   6.827   2.621
 9910SOL     OW30628   0.230   4.134   1.914
 9910SOL    HW130629   0.303   4.190   1.953
 9910SOL    HW230630   0.245   4.123   1.815
 9911SOL     OW30631   2.777   4.800   3.678
 9911SOL    HW130632   2.734   4.731   3.620
 9911SOL    HW230633   2.872   4.811   3.651
 9912SOL     OW30634   4.628   0.201   1.224
 9912SOL    HW130635   4.573   0.173   1.302
 9912SOL    HW230636   4.661   0.120   1.175
 9913SOL     OW30637   4.622   1.781   2.844
 9913SOL    HW130638   4.643   1.723   2.766
 9913SOL    HW230639   4.658   1.739   2.927
 9914SOL     OW30640   2.041   5.972   5.351
 9914SOL    HW130641   1.964   5.927   5.396
 9914SOL    HW230642   2.055   6.062   5.392
 9915SOL     OW30643   5.600   3.828   4.691
 9915SOL    HW130644   5.603   3.770   4.772
 9915SOL    HW230645   5.616   3.923   4.717
 9916SOL     OW30646   2.391   3.045   1.141
 9916SOL    HW130647   2.401   3.055   1.240
 9916SOL    HW230648   2.341   3.123   1.104
 9917SOL     OW30649   2.193   3.484   5.610
 9917SOL    HW130650   2.229   3.447   5.525
 9917SOL    HW230651   2.233   3.574   5.626
 9918SOL     OW30652   1.846   1.411   4.848
 9918SOL    HW130653   1.901   1.328   4.862
 9918SOL    HW230654   1.887   1.466   4.776
 9919SOL     OW30655   6.764   5.143   2.822
 9919SOL    HW130656   6.798   5.098   2.904
 9919SOL    HW230657   6.801   5.236   2.817
 9920SOL     OW30658   4.218   6.477   1.593
 9920SOL    HW130659   4.315   6.497   1.581
 9920SOL    HW230660   4.165   6.522   1.521
 9921SOL     OW30661   4.928   0.143   3.001
 9921SOL    HW130662   4.927   0.158   2.902
 9921SOL    HW230663   4.860   0.201   3.045
 9922SOL     OW30664   4.633   3.201   1.409
 9922SOL    HW130665   4.588   3.223   1.495
 9922SOL    HW230666   4.656   3.104   1.407
 9923SOL     OW30667   6.547   1.245   6.898
 9923SOL    HW130668   6.450   1.227   6.908
 9923SOL    HW230669   6.562   1.303   6.818
 9924SOL     OW30670   5.755   0.649   3.275
 9924SOL    HW130671   5.839   0.597   3.256
 9924SOL    HW230672   5.753   0.732   3.219
 9925SOL     OW30673   2.367   2.743   4.779
 9925SOL    HW130674   2.385   2.795   4.862
 9925SOL    HW230675   2.273   2.707   4.782
 9926SOL     OW30676   1.405   1.370   0.485
 9926SOL    HW130677   1.353   1.453   0.467
 9926SOL    HW230678   1.494   1.394   0.525
 9927SOL     OW30679   0.692   2.720   2.557
 9927SOL    HW130680   0.631   2.799   2.567
 9927SOL    HW230681   0.683   2.660   2.636
 9928SOL     OW30682   7.015   3.183   2.784
 9928SOL    HW130683   6.959   3.259   2.750
 9928SOL    HW230684   0.001   3.186   2.884
 9929SOL     OW30685   2.045   3.853   6.149
 9929SOL    HW130686   1.956   3.873   6.109
 9929SOL    HW230687   2.097   3.792   6.088
 9930SOL     OW30688   0.153   5.670   0.292
 9930SOL    HW130689   0.189   5.743   0.235
 9930SOL    HW230690   0.185   5.582   0.258
 9931SOL     OW30691   2.769   5.584   6.553
 9931SOL    HW130692   2.715   5.620   6.477
 9931SOL    HW230693   2.751   5.639   6.635
 9932SOL     OW30694   2.143   2.030   0.271
 9932SOL    HW130695   2.081   2.107   0.258
 9932SOL    HW230696   2.155   2.013   0.369
 9933SOL     OW30697   1.266   1.963   3.691
 9933SOL    HW130698   1.293   2.056   3.715
 9933SOL    HW230699   1.166   1.958   3.687
 9934SOL     OW30700   4.058   1.072   6.114
 9934SOL    HW130701   4.038   1.030   6.026
 9934SOL    HW230702   4.027   1.013   6.188
 9935SOL     OW30703   2.709   2.195   0.442
 9935SOL    HW130704   2.803   2.221   0.464
 9935SOL    HW230705   2.710   2.116   0.381
 9936SOL     OW30706   6.063   6.499   5.933
 9936SOL    HW130707   6.008   6.533   6.010
 9936SOL    HW230708   6.017   6.419   5.893
 9937SOL     OW30709   0.660   0.539   3.154
 9937SOL    HW130710   0.726   0.473   3.188
 9937SOL    HW230711   0.687   0.631   3.181
 9938SOL     OW30712   0.092   1.763   3.617
 9938SOL    HW130713   0.110   1.775   3.520
 9938SOL    HW230714   0.113   1.848   3.666
 9939SOL     OW30715   3.265   4.189   1.102
 9939SOL    HW130716   3.300   4.199   1.195
 9939SOL    HW230717   3.283   4.097   1.069
 9940SOL     OW30718   0.053   1.244   3.582
 9940SOL    HW130719   0.138   1.297   3.591
 9940SOL    HW230720   7.012   1.260   3.661
 9941SOL     OW30721   5.449   4.974   0.301
 9941SOL    HW130722   5.485   4.921   0.224
 9941SOL    HW230723   5.396   4.915   0.361
 9942SOL     OW30724   4.967   5.044   2.866
 9942SOL    HW130725   5.019   4.962   2.889
 9942SOL    HW230726   4.871   5.032   2.893
 9943SOL     OW30727   2.129   3.750   5.909
 9943SOL    HW130728   2.036   3.757   5.875
 9943SOL    HW230729   2.179   3.681   5.857
 9944SOL     OW30730   0.653   4.796   6.123
 9944SOL    HW130731   0.713   4.765   6.197
 9944SOL    HW230732   0.576   4.732   6.114
 9945SOL     OW30733   6.530   3.423   6.152
 9945SOL    HW130734   6.432   3.423   6.169
 9945SOL    HW230735   6.567   3.515   6.168
 9946SOL     OW30736   5.467   1.731   1.736
 9946SOL    HW130737   5.428   1.727   1.828
 9946SOL    HW230738   5.551   1.785   1.737
 9947SOL     OW30739   1.105   1.702   3.834
 9947SOL    HW130740   1.010   1.729   3.851
 9947SOL    HW230741   1.161   1.726   3.913
 9948SOL     OW30742   5.580   0.148   4.489
 9948SOL    HW130743   5.569   0.177   4.584
 9948SOL    HW230744   5.669   0.104   4.478
 9949SOL     OW30745   6.415   5.292   3.684
 9949SOL    HW130746   6.485   5.271   3.616
 9949SOL    HW230747   6.351   5.215   3.690
 9950SOL     OW30748   5.637   3.921   5.382
 9950SOL    HW130749   5.565   3.877   5.436
 9950SOL    HW230750   5.613   3.920   5.286
 9951SOL     OW30751   0.646   1.956   3.493
 9951SOL    HW130752   0.738   1.929   3.520
 9951SOL    HW230753   0.601   2.003   3.569
 9952SOL     OW30754   0.861   4.957   2.067
 9952SOL    HW130755   0.957   4.947   2.040
 9952SOL    HW230756   0.828   5.047   2.038
 9953SOL     OW30757   5.973   2.790   3.597
 9953SOL    HW130758   5.940   2.760   3.687
 9953SOL    HW230759   5.977   2.712   3.535
 9954SOL     OW30760   3.440   1.497   6.428
 9954SOL    HW130761   3.436   1.442   6.512
 9954SOL    HW230762   3.433   1.594   6.452
 9955SOL     OW30763   5.554   4.220   0.802
 9955SOL    HW130764   5.637   4.225   0.859
 9955SOL    HW230765   5.495   4.147   0.835
 9956SOL     OW30766   2.050   3.290   3.216
 9956SOL    HW130767   2.095   3.260   3.132
 9956SOL    HW230768   1.951   3.284   3.204
 9957SOL     OW30769   5.209   0.220   0.732
 9957SOL    HW130770   5.133   0.285   0.743
 9957SOL    HW230771   5.201   0.174   0.644
 9958SOL     OW30772   5.238   6.149   0.393
 9958SOL    HW130773   5.207   6.087   0.320
 9958SOL    HW230774   5.220   6.108   0.482
 9959SOL     OW30775   4.815   4.645   0.767
 9959SOL    HW130776   4.876   4.711   0.723
 9959SOL    HW230777   4.778   4.684   0.851
 9960SOL     OW30778   0.466   0.143   0.180
 9960SOL    HW130779   0.401   0.089   0.233
 9960SOL    HW230780   0.484   0.097   0.093
 9961SOL     OW30781   2.948   5.591   1.293
 9961SOL    HW130782   2.872   5.563   1.234
 9961SOL    HW230783   2.997   5.667   1.249
 9962SOL     OW30784   3.153   0.190   1.500
 9962SOL    HW130785   3.069   0.241   1.519
 9962SOL    HW230786   3.130   0.096   1.476
 9963SOL     OW30787   0.709   0.860   6.070
 9963SOL    HW130788   0.799   0.819   6.058
 9963SOL    HW230789   0.705   0.947   6.021
 9964SOL     OW30790   4.655   4.190   5.979
 9964SOL    HW130791   4.673   4.282   5.945
 9964SOL    HW230792   4.716   4.124   5.935
 9965SOL     OW30793   2.663   5.305   3.797
 9965SOL    HW130794   2.674   5.368   3.720
 9965SOL    HW230795   2.684   5.353   3.882
 9966SOL     OW30796   3.606   4.914   2.222
 9966SOL    HW130797   3.527   4.962   2.259
 9966SOL    HW230798   3.578   4.863   2.141
 9967SOL     OW30799   6.665   0.121   3.048
 9967SOL    HW130800   6.619   0.152   2.965
 9967SOL    HW230801   6.635   0.178   3.125
 9968SOL     OW30802   3.540   6.208   6.995
 9968SOL    HW130803   3.562   6.279   0.044
 9968SOL    HW230804   3.610   6.137   6.996
 9969SOL     OW30805   1.190   6.299   3.542
 9969SOL    HW130806   1.192   6.298   3.442
 9969SOL    HW230807   1.168   6.391   3.574
 9970SOL     OW30808   6.391   3.942   1.265
 9970SOL    HW130809   6.391   3.844   1.284
 9970SOL    HW230810   6.359   3.958   1.171
 9971SOL     OW30811   0.638   5.472   3.393
 9971SOL    HW130812   0.663   5.410   3.319
 9971SOL    HW230813   0.713   5.537   3.410
 9972SOL     OW30814   3.045   4.028   6.447
 9972SOL    HW130815   3.110   3.956   6.472
 9972SOL    HW230816   2.985   3.994   6.375
 9973SOL     OW30817   2.821   2.312   3.478
 9973SOL    HW130818   2.839   2.331   3.574
 9973SOL    HW230819   2.849   2.218   3.457
 9974SOL     OW30820   1.234   2.983   2.556
 9974SOL    HW130821   1.139   2.954   2.547
 9974SOL    HW230822   1.293   2.923   2.502
 9975SOL     OW30823   2.066   4.778   6.790
 9975SOL    HW130824   2.021   4.762   6.878
 9975SOL    HW230825   2.087   4.876   6.780
 9976SOL     OW30826   3.511   4.516   6.415
 9976SOL    HW130827   3.423   4.510   6.462
 9976SOL    HW230828   3.503   4.472   6.326
 9977SOL     OW30829   4.697   6.761   5.718
 9977SOL    HW130830   4.772   6.827   5.711
 9977SOL    HW230831   4.611   6.810   5.731
 9978SOL     OW30832   0.685   3.452   6.735
 9978SOL    HW130833   0.603   3.428   6.682
 9978SOL    HW230834   0.766   3.419   6.687
 9979SOL     OW30835   3.729   3.510   4.969
 9979SOL    HW130836   3.661   3.568   4.925
 9979SOL    HW230837   3.811   3.506   4.913
 9980SOL     OW30838   2.352   1.414   0.826
 9980SOL    HW130839   2.257   1.443   0.810
 9980SOL    HW230840   2.357   1.362   0.911
 9981SOL     OW30841   6.743   2.594   1.403
 9981SOL    HW130842   6.649   2.596   1.371
 9981SOL    HW230843   6.781   2.687   1.401
 9982SOL     OW30844   1.993   2.484   4.535
 9982SOL    HW130845   1.944   2.565   4.505
 9982SOL    HW230846   1.928   2.415   4.566
 9983SOL     OW30847   0.770   3.031   2.684
 9983SOL    HW130848   0.779   3.064   2.778
 9983SOL    HW230849   0.692   2.968   2.678
 9984SOL     OW30850   0.523   5.534   1.172
 9984SOL    HW130851   0.456   5.479   1.122
 9984SOL    HW230852   0.611   5.487   1.173
 9985SOL     OW30853   4.726   4.423   0.231
 9985SOL    HW130854   4.794   4.368   0.279
 9985SOL    HW230855   4.734   4.407   0.132
 9986SOL     OW30856   5.139   5.177   6.762
 9986SOL    HW130857   5.238   5.176   6.749
 9986SOL    HW230858   5.094   5.155   6.675
 9987SOL     OW30859   5.199   2.677   1.131
 9987SOL    HW130860   5.192   2.643   1.225
 9987SOL    HW230861   5.293   2.664   1.098
 9988SOL     OW30862   5.555   6.225   4.034
 9988SOL    HW130863   5.536   6.183   3.946
 9988SOL    HW230864   5.534   6.323   4.030
 9989SOL     OW30865   6.607   5.010   2.465
 9989SOL    HW130866   6.593   5.097   2.513
 9989SOL    HW230867   6.665   4.950   2.519
 9990SOL     OW30868   0.525   6.704   4.027
 9990SOL    HW130869   0.576   6.749   4.101
 9990SOL    HW230870   0.465   6.771   3.984
 9991SOL     OW30871   1.708   4.927   3.242
 9991SOL    HW130872   1.719   4.857   3.171
 9991SOL    HW230873   1.760   4.901   3.323
 9992SOL     OW30874   3.402   4.605   0.502
 9992SOL    HW130875   3.335   4.680   0.504
 9992SOL    HW230876   3.447   4.598   0.590
 9993SOL     OW30877   3.345   6.250   4.563
 9993SOL    HW130878   3.269   6.296   4.517
 9993SOL    HW230879   3.348   6.275   4.659
 9994SOL     OW30880   5.898   5.685   4.945
 9994SOL    HW130881   5.942   5.638   4.869
 9994SOL    HW230882   5.943   5.661   5.030
 9995SOL     OW30883   3.065   0.222   4.847
 9995SOL    HW130884   3.101   0.312   4.868
 9995SOL    HW230885   3.116   0.153   4.899
 9996SOL     OW30886   2.639   2.910   0.991
 9996SOL    HW130887   2.600   2.884   1.079
 9996SOL    HW230888   2.580   2.875   0.918
 9997SOL     OW30889   5.906   2.591   3.417
 9997SOL    HW130890   5.823   2.543   3.388
 9997SOL    HW230891   5.980   2.526   3.430
 9998SOL     OW30892   4.933   4.690   2.703
 9998SOL    HW130893   4.941   4.764   2.636
 9998SOL    HW230894   4.841   4.690   2.743
 9999SOL     OW30895   1.037   6.705   3.373
 9999SOL    HW130896   0.965   6.649   3.414
 9999SOL    HW230897   1.007   6.800   3.368
10000SOL     OW30898   5.098   2.252   1.354
10000SOL    HW130899   5.153   2.231   1.435
10000SOL    HW230900   5.001   2.241   1.375
10001SOL     OW30901   4.056   6.250   1.853
10001SOL    HW130902   4.086   6.344   1.867
10001SOL    HW230903   3.986   6.226   1.920
10002SOL     OW30904   2.972   0.923   1.728
10002SOL    HW130905   2.909   0.932   1.650
10002SOL    HW230906   2.977   0.827   1.756
10003SOL     OW30907   1.614   0.460   3.907
10003SOL    HW130908   1.616   0.413   3.995
10003SOL    HW230909   1.597   0.558   3.922
10004SOL     OW30910   6.289   3.888   5.109
10004SOL    HW130911   6.319   3.863   5.201
10004SOL    HW230912   6.327   3.823   5.043
10005SOL     OW30913   2.340   5.321   3.141
10005SOL    HW130914   2.374   5.341   3.049
10005SOL    HW230915   2.359   5.398   3.201
10006SOL     OW30916   5.102   0.026   4.618
10006SOL    HW130917   5.004   0.015   4.602
10006SOL    HW230918   5.145   0.065   4.537
10007SOL     OW30919   1.510   4.917   4.272
10007SOL    HW130920   1.465   4.958   4.193
10007SOL    HW230921   1.463   4.946   4.356
10008SOL     OW30922   4.250   1.455   5.914
10008SOL    HW130923   4.157   1.437   5.945
10008SOL    HW230924   4.296   1.514   5.981
10009SOL     OW30925   1.372   3.221   2.162
10009SOL    HW130926   1.307   3.164   2.111
10009SOL    HW230927   1.423   3.278   2.098
10010SOL     OW30928   2.535   3.736   0.269
10010SOL    HW130929   2.597   3.676   0.320
10010SOL    HW230930   2.475   3.784   0.333
10011SOL     OW30931   1.646   3.559   0.608
10011SOL    HW130932   1.630   3.614   0.526
10011SOL    HW230933   1.712   3.487   0.587
10012SOL     OW30934   5.507   2.156   2.967
10012SOL    HW130935   5.536   2.250   2.985
10012SOL    HW230936   5.444   2.155   2.890
10013SOL     OW30937   0.452   5.925   5.120
10013SOL    HW130938   0.472   5.923   5.218
10013SOL    HW230939   0.496   5.846   5.076
10014SOL     OW30940   0.857   6.862   2.759
10014SOL    HW130941   0.906   6.932   2.706
10014SOL    HW230942   0.922   6.803   2.805
10015SOL     OW30943   4.430   4.443   5.764
10015SOL    HW130944   4.431   4.405   5.671
10015SOL    HW230945   4.522   4.436   5.803
10016SOL     OW30946   2.324   0.230   2.879
10016SOL    HW130947   2.362   0.320   2.860
10016SOL    HW230948   2.239   0.218   2.827
10017SOL     OW30949   2.500   2.140   2.721
10017SOL    HW130950   2.513   2.072   2.793
10017SOL    HW230951   2.452   2.099   2.644
10018SOL     OW30952   6.524   3.002   6.159
10018SOL    HW130953   6.582   2.938   6.209
10018SOL    HW230954   6.438   2.957   6.134
10019SOL     OW30955   0.491   2.021   2.764
10019SOL    HW130956   0.500   1.971   2.678
10019SOL    HW230957   0.579   2.020   2.812
10020SOL     OW30958   5.997   0.607   2.266
10020SOL    HW130959   5.974   0.702   2.245
10020SOL    HW230960   5.915   0.550   2.260
10021SOL     OW30961   1.345   3.875   2.446
10021SOL    HW130962   1.381   3.784   2.470
10021SOL    HW230963   1.257   3.889   2.491
10022SOL     OW30964   2.550   5.851   6.906
10022SOL    HW130965   2.494   5.922   6.950
10022SOL    HW230966   2.501   5.764   6.907
10023SOL     OW30967   1.654   6.994   5.950
10023SOL    HW130968   1.595   6.924   5.990
10023SOL    HW230969   1.645   6.993   5.851
10024SOL     OW30970   1.516   4.804   2.614
10024SOL    HW130971   1.533   4.848   2.526
10024SOL    HW230972   1.603   4.788   2.660
10025SOL     OW30973   1.013   4.205   1.923
10025SOL    HW130974   1.008   4.131   1.855
10025SOL    HW230975   1.075   4.178   1.997
10026SOL     OW30976   5.330   1.364   4.262
10026SOL    HW130977   5.239   1.356   4.300
10026SOL    HW230978   5.325   1.404   4.170
10027SOL     OW30979   2.371   1.570   5.327
10027SOL    HW130980   2.329   1.645   5.378
10027SOL    HW230981   2.470   1.584   5.325
10028SOL     OW30982   4.757   0.722   1.252
10028SOL    HW130983   4.828   0.655   1.275
10028SOL    HW230984   4.780   0.810   1.294
10029SOL     OW30985   7.011   3.664   4.979
10029SOL    HW130986   0.051   3.707   5.048
10029SOL    HW230987   0.010   3.709   4.890
10030SOL     OW30988   2.387   0.164   4.768
10030SOL    HW130989   2.407   0.125   4.678
10030SOL    HW230990   2.379   0.091   4.836
10031SOL     OW30991   3.054   4.867   4.096
10031SOL    HW130992   3.128   4.876   4.030
10031SOL    HW230993   3.072   4.926   4.175
10032SOL     OW30994   3.054   6.224   5.155
10032SOL    HW130995   3.091   6.204   5.064
10032SOL    HW230996   2.954   6.225   5.151
10033SOL     OW30997   3.687   1.264   3.140
10033SOL    HW130998   3.643   1.268   3.050
10033SOL    HW230999   3.778   1.305   3.134
10034SOL     OW31000   2.637   0.818   3.674
10034SOL    HW131001   2.592   0.902   3.645
10034SOL    HW231002   2.733   0.820   3.648
10035SOL     OW31003   5.807   2.847   2.353
10035SOL    HW131004   5.744   2.916   2.390
10035SOL    HW231005   5.901   2.875   2.370
10036SOL     OW31006   6.936   0.315   6.790
10036SOL    HW131007   6.979   0.405   6.795
10036SOL    HW231008   6.988   0.250   6.846
10037SOL     OW31009   6.548   0.328   0.162
10037SOL    HW131010   6.592   0.360   0.245
10037SOL    HW231011   6.617   0.310   0.092
10038SOL     OW31012   4.240   0.298   0.176
10038SOL    HW131013   4.275   0.381   0.219
10038SOL    HW231014   4.287   0.219   0.215
10039SOL     OW31015   6.173   5.278   3.275
10039SOL    HW131016   6.203   5.282   3.180
10039SOL    HW231017   6.225   5.208   3.324
10040SOL     OW31018   3.764   6.936   0.577
10040SOL    HW131019   3.665   6.941   0.567
10040SOL    HW231020   3.807   7.009   0.523
10041SOL     OW31021   6.787   5.169   4.772
10041SOL    HW131022   6.836   5.197   4.855
10041SOL    HW231023   6.776   5.249   4.713
10042SOL     OW31024   0.304   0.530   4.727
10042SOL    HW131025   0.275   0.524   4.823
10042SOL    HW231026   0.387   0.476   4.714
10043SOL     OW31027   0.687   0.755   3.296
10043SOL    HW131028   0.639   0.799   3.371
10043SOL    HW231029   0.773   0.717   3.330
10044SOL     OW31030   2.391   1.617   5.698
10044SOL    HW131031   2.440   1.587   5.780
10044SOL    HW231032   2.443   1.690   5.654
10045SOL     OW31033   3.910   6.507   4.837
10045SOL    HW131034   3.919   6.605   4.850
10045SOL    HW231035   3.882   6.464   4.923
10046SOL     OW31036   6.985   2.746   1.802
10046SOL    HW131037   6.979   2.700   1.891
10046SOL    HW231038   0.062   2.742   1.769
10047SOL     OW31039   6.754   1.895   5.155
10047SOL    HW131040   6.660   1.864   5.145
10047SOL    HW231041   6.755   1.983   5.203
10048SOL     OW31042   3.295   1.496   1.303
10048SOL    HW131043   3.360   1.571   1.298
10048SOL    HW231044   3.216   1.524   1.358
10049SOL     OW31045   2.188   0.364   5.783
10049SOL    HW131046   2.190   0.397   5.689
10049SOL    HW231047   2.253   0.288   5.793
10050SOL     OW31048   5.156   2.998   4.571
10050SOL    HW131049   5.253   3.006   4.546
10050SOL    HW231050   5.130   3.074   4.631
10051SOL     OW31051   6.030   3.236   4.690
10051SOL    HW131052   5.997   3.148   4.724
10051SOL    HW231053   5.979   3.262   4.608
10052SOL     OW31054   0.963   3.615   1.766
10052SOL    HW131055   1.050   3.662   1.754
10052SOL    HW231056   0.936   3.572   1.680
10053SOL     OW31057   3.579   5.391   3.311
10053SOL    HW131058   3.526   5.466   3.270
10053SOL    HW231059   3.677   5.410   3.301
10054SOL     OW31060   3.952   5.533   5.115
10054SOL    HW131061   3.895   5.534   5.034
10054SOL    HW231062   3.943   5.620   5.164
10055SOL     OW31063   6.564   2.670   5.172
10055SOL    HW131064   6.533   2.598   5.234
10055SOL    HW231065   6.662   2.659   5.155
10056SOL     OW31066   6.473   4.843   1.555
10056SOL    HW131067   6.561   4.811   1.521
10056SOL    HW231068   6.403   4.829   1.485
10057SOL     OW31069   3.762   2.064   4.635
10057SOL    HW131070   3.805   2.115   4.561
10057SOL    HW231071   3.749   1.969   4.607
10058SOL     OW31072   0.359   5.582   3.969
10058SOL    HW131073   0.308   5.499   3.988
10058SOL    HW231074   0.457   5.563   3.975
10059SOL     OW31075   5.470   0.764   0.917
10059SOL    HW131076   5.392   0.803   0.965
10059SOL    HW231077   5.493   0.823   0.839
10060SOL     OW31078   2.791   2.175   1.815
10060SOL    HW131079   2.766   2.221   1.729
10060SOL    HW231080   2.807   2.243   1.886
10061SOL     OW31081   6.275   1.519   4.191
10061SOL    HW131082   6.231   1.588   4.248
10061SOL    HW231083   6.249   1.428   4.222
10062SOL     OW31084   6.522   5.534   3.414
10062SOL    HW131085   6.547   5.590   3.493
10062SOL    HW231086   6.430   5.558   3.384
10063SOL     OW31087   1.203   3.535   3.902
10063SOL    HW131088   1.214   3.634   3.904
10063SOL    HW231089   1.177   3.502   3.993
10064SOL     OW31090   5.395   5.917   4.585
10064SOL    HW131091   5.400   5.986   4.657
10064SOL    HW231092   5.308   5.924   4.537
10065SOL     OW31093   1.253   6.402   2.685
10065SOL    HW131094   1.194   6.387   2.605
10065SOL    HW231095   1.207   6.464   2.748
10066SOL     OW31096   0.742   6.964   4.041
10066SOL    HW131097   0.799   7.016   3.979
10066SOL    HW231098   0.683   0.010   4.092
10067SOL     OW31099   4.433   4.589   4.066
10067SOL    HW131100   4.466   4.613   4.158
10067SOL    HW231101   4.507   4.544   4.015
10068SOL     OW31102   5.224   3.560   4.773
10068SOL    HW131103   5.266   3.519   4.854
10068SOL    HW231104   5.126   3.571   4.788
10069SOL     OW31105   2.953   1.529   3.474
10069SOL    HW131106   2.916   1.438   3.455
10069SOL    HW231107   3.030   1.547   3.412
10070SOL     OW31108   1.155   6.400   4.815
10070SOL    HW131109   1.154   6.303   4.793
10070SOL    HW231110   1.061   6.432   4.830
10071SOL     OW31111   4.859   5.578   4.124
10071SOL    HW131112   4.872   5.633   4.041
10071SOL    HW231113   4.873   5.481   4.103
10072SOL     OW31114   0.342   6.326   3.386
10072SOL    HW131115   0.340   6.405   3.448
10072SOL    HW231116   0.385   6.353   3.300
10073SOL     OW31117   6.980   5.176   5.829
10073SOL    HW131118   6.931   5.106   5.881
10073SOL    HW231119   0.036   5.133   5.776
10074SOL     OW31120   1.266   0.187   6.114
10074SOL    HW131121   1.327   0.186   6.035
10074SOL    HW231122   1.311   0.235   6.190
10075SOL     OW31123   1.424   2.436   3.903
10075SOL    HW131124   1.370   2.490   3.839
10075SOL    HW231125   1.490   2.495   3.951
10076SOL     OW31126   4.761   6.784   4.515
10076SOL    HW131127   4.773   6.865   4.572
10076SOL    HW231128   4.726   6.708   4.571
10077SOL     OW31129   3.923   2.053   6.166
10077SOL    HW131130   4.005   2.104   6.191
10077SOL    HW231131   3.904   2.064   6.068
10078SOL     OW31132   5.850   0.156   5.101
10078SOL    HW131133   5.945   0.181   5.122
10078SOL    HW231134   5.816   0.216   5.028
10079SOL     OW31135   1.307   3.094   1.602
10079SOL    HW131136   1.361   3.175   1.577
10079SOL    HW231137   1.362   3.012   1.588
10080SOL     OW31138   2.020   2.610   0.075
10080SOL    HW131139   2.059   2.549   0.143
10080SOL    HW231140   2.088   2.630   0.005
10081SOL     OW31141   0.590   0.466   6.349
10081SOL    HW131142   0.601   0.428   6.257
10081SOL    HW231143   0.680   0.477   6.391
10082SOL     OW31144   6.246   2.562   1.865
10082SOL    HW131145   6.155   2.599   1.880
10082SOL    HW231146   6.245   2.463   1.880
10083SOL     OW31147   4.212   0.200   3.598
10083SOL    HW131148   4.125   0.162   3.567
10083SOL    HW231149   4.202   0.234   3.691
10084SOL     OW31150   2.235   1.349   5.639
10084SOL    HW131151   2.269   1.439   5.668
10084SOL    HW231152   2.302   1.306   5.580
10085SOL     OW31153   0.714   5.963   2.992
10085SOL    HW131154   0.619   5.987   2.973
10085SOL    HW231155   0.729   5.866   2.970
10086SOL     OW31156   6.055   4.698   2.097
10086SOL    HW131157   5.958   4.722   2.088
10086SOL    HW231158   6.112   4.773   2.064
10087SOL     OW31159   0.999   0.372   3.832
10087SOL    HW131160   1.040   0.440   3.893
10087SOL    HW231161   1.070   0.334   3.773
10088SOL     OW31162   0.885   6.678   4.682
10088SOL    HW131163   0.850   6.657   4.591
10088SOL    HW231164   0.829   6.631   4.751
10089SOL     OW31165   2.210   2.084   2.175
10089SOL    HW131166   2.139   2.034   2.225
10089SOL    HW231167   2.260   2.144   2.237
10090SOL     OW31168   1.502   4.264   0.768
10090SOL    HW131169   1.526   4.351   0.726
10090SOL    HW231170   1.507   4.273   0.868
10091SOL     OW31171   1.123   3.793   4.074
10091SOL    HW131172   1.212   3.779   4.119
10091SOL    HW231173   1.137   3.810   3.977
10092SOL     OW31174   1.698   3.552   5.104
10092SOL    HW131175   1.634   3.497   5.158
10092SOL    HW231176   1.650   3.630   5.065
10093SOL     OW31177   6.534   5.514   5.342
10093SOL    HW131178   6.482   5.512   5.428
10093SOL    HW231179   6.602   5.441   5.344
10094SOL     OW31180   2.215   1.234   2.628
10094SOL    HW131181   2.255   1.224   2.537
10094SOL    HW231182   2.116   1.247   2.620
10095SOL     OW31183   6.940   1.099   6.085
10095SOL    HW131184   6.851   1.116   6.127
10095SOL    HW231185   6.960   1.001   6.088
10096SOL     OW31186   0.384   5.412   2.521
10096SOL    HW131187   0.410   5.316   2.513
10096SOL    HW231188   0.413   5.461   2.438
10097SOL     OW31189   1.672   1.021   0.970
10097SOL    HW131190   1.759   1.067   0.951
10097SOL    HW231191   1.652   1.029   1.068
10098SOL     OW31192   2.201   5.789   6.302
10098SOL    HW131193   2.246   5.712   6.348
10098SOL    HW231194   2.264   5.830   6.236
10099SOL     OW31195   6.814   3.980   5.206
10099SOL    HW131196   6.847   3.902   5.260
10099SOL    HW231197   6.837   3.965   5.109
10100SOL     OW31198   4.751   0.683   4.782
10100SOL    HW131199   4.745   0.604   4.844
10100SOL    HW231200   4.847   0.702   4.763
10101SOL     OW31201   6.957   4.509   2.365
10101SOL    HW131202   6.933   4.592   2.315
10101SOL    HW231203   6.885   4.441   2.353
10102SOL     OW31204   3.248   1.562   2.135
10102SOL    HW131205   3.248   1.596   2.229
10102SOL    HW231206   3.199   1.626   2.076
10103SOL     OW31207   2.594   1.167   5.336
10103SOL    HW131208   2.622   1.259   5.311
10103SOL    HW231209   2.658   1.100   5.297
10104SOL     OW31210   1.270   5.230   5.091
10104SOL    HW131211   1.299   5.276   5.175
10104SOL    HW231212   1.170   5.231   5.086
10105SOL     OW31213   1.793   0.838   6.190
10105SOL    HW131214   1.749   0.905   6.249
10105SOL    HW231215   1.775   0.862   6.094
10106SOL     OW31216   5.401   5.877   1.028
10106SOL    HW131217   5.427   5.906   1.120
10106SOL    HW231218   5.472   5.817   0.990
10107SOL     OW31219   5.844   1.567   5.901
10107SOL    HW131220   5.793   1.527   5.824
10107SOL    HW231221   5.916   1.627   5.866
10108SOL     OW31222   6.352   0.043   0.539
10108SOL    HW131223   6.321   6.999   0.611
10108SOL    HW231224   6.310   0.016   0.452
10109SOL     OW31225   4.837   5.695   3.630
10109SOL    HW131226   4.891   5.650   3.701
10109SOL    HW231227   4.764   5.748   3.673
10110SOL     OW31228   3.441   0.006   6.024
10110SOL    HW131229   3.472   0.100   6.040
10110SOL    HW231230   3.414   6.982   6.111
10111SOL     OW31231   6.604   3.244   3.338
10111SOL    HW131232   6.594   3.184   3.417
10111SOL    HW231233   6.700   3.267   3.326
10112SOL     OW31234   5.308   4.024   5.391
10112SOL    HW131235   5.351   4.100   5.439
10112SOL    HW231236   5.305   4.043   5.293
10113SOL     OW31237   4.427   0.547   0.187
10113SOL    HW131238   4.382   0.578   0.103
10113SOL    HW231239   4.432   0.623   0.252
10114SOL     OW31240   5.005   1.494   6.886
10114SOL    HW131241   4.975   1.401   6.910
10114SOL    HW231242   5.096   1.490   6.844
10115SOL     OW31243   1.868   2.121   3.950
10115SOL    HW131244   1.896   2.038   3.900
10115SOL    HW231245   1.917   2.125   4.037
10116SOL     OW31246   0.446   0.288   1.185
10116SOL    HW131247   0.412   0.319   1.274
10116SOL    HW231248   0.457   0.366   1.124
10117SOL     OW31249   6.190   0.457   5.545
10117SOL    HW131250   6.190   0.358   5.551
10117SOL    HW231251   6.121   0.487   5.479
10118SOL     OW31252   6.829   4.939   2.644
10118SOL    HW131253   6.854   4.868   2.711
10118SOL    HW231254   6.807   5.023   2.693
10119SOL     OW31255   2.710   0.605   5.246
10119SOL    HW131256   2.737   0.543   5.173
10119SOL    HW231257   2.720   0.560   5.335
10120SOL     OW31258   0.809   3.338   3.795
10120SOL    HW131259   0.838   3.357   3.701
10120SOL    HW231260   0.838   3.246   3.821
10121SOL     OW31261   5.693   4.790   5.318
10121SOL    HW131262   5.597   4.800   5.292
10121SOL    HW231263   5.740   4.878   5.307
10122SOL     OW31264   5.022   3.178   0.096
10122SOL    HW131265   5.056   3.176   0.002
10122SOL    HW231266   5.082   3.123   0.154
10123SOL     OW31267   0.328   6.014   0.798
10123SOL    HW131268   0.372   6.030   0.887
10123SOL    HW231269   0.229   6.025   0.808
10124SOL     OW31270   3.260   4.036   0.264
10124SOL    HW131271   3.240   4.092   0.345
10124SOL    HW231272   3.202   4.066   0.188
10125SOL     OW31273   1.662   1.027   2.957
10125SOL    HW131274   1.719   0.983   2.888
10125SOL    HW231275   1.703   1.015   3.047
10126SOL     OW31276   6.636   4.950   0.020
10126SOL    HW131277   6.638   4.950   6.938
10126SOL    HW231278   6.675   5.035   0.054
10127SOL     OW31279   3.387   5.437   5.499
10127SOL    HW131280   3.369   5.534   5.517
10127SOL    HW231281   3.474   5.428   5.451
10128SOL     OW31282   0.013   1.738   0.428
10128SOL    HW131283   7.001   1.779   0.514
10128SOL    HW231284   0.103   1.696   0.441
10129SOL     OW31285   4.911   2.660   3.591
10129SOL    HW131286   4.949   2.569   3.575
10129SOL    HW231287   4.977   2.729   3.561
10130SOL     OW31288   0.405   5.780   2.621
10130SOL    HW131289   0.479   5.767   2.555
10130SOL    HW231290   0.333   5.713   2.604
10131SOL     OW31291   0.704   1.853   2.327
10131SOL    HW131292   0.697   1.785   2.254
10131SOL    HW231293   0.762   1.816   2.400
10132SOL     OW31294   3.185   6.327   2.856
10132SOL    HW131295   3.119   6.402   2.852
10132SOL    HW231296   3.274   6.359   2.823
10133SOL     OW31297   4.162   5.973   3.601
10133SOL    HW131298   4.114   6.042   3.656
10133SOL    HW231299   4.142   5.988   3.504
10134SOL     OW31300   6.671   1.286   3.693
10134SOL    HW131301   6.573   1.282   3.716
10134SOL    HW231302   6.684   1.256   3.598
10135SOL     OW31303   4.241   4.966   2.983
10135SOL    HW131304   4.282   5.024   3.054
10135SOL    HW231305   4.145   4.952   3.004
10136SOL     OW31306   6.020   6.999   3.711
10136SOL    HW131307   6.032   6.902   3.689
10136SOL    HW231308   6.024   7.012   3.810
10137SOL     OW31309   6.562   5.659   4.617
10137SOL    HW131310   6.629   5.711   4.671
10137SOL    HW231311   6.570   5.562   4.640
10138SOL     OW31312   5.814   2.333   0.420
10138SOL    HW131313   5.794   2.292   0.331
10138SOL    HW231314   5.816   2.433   0.411
10139SOL     OW31315   3.225   2.964   3.290
10139SOL    HW131316   3.305   2.991   3.236
10139SOL    HW231317   3.162   2.911   3.233
10140SOL     OW31318   6.053   5.384   0.135
10140SOL    HW131319   6.021   5.404   0.043
10140SOL    HW231320   6.153   5.383   0.136
10141SOL     OW31321   2.518   1.407   5.063
10141SOL    HW131322   2.530   1.497   5.022
10141SOL    HW231323   2.483   1.417   5.156
10142SOL     OW31324   4.324   6.367   5.031
10142SOL    HW131325   4.289   6.403   4.944
10142SOL    HW231326   4.337   6.442   5.095
10143SOL     OW31327   5.004   0.010   1.415
10143SOL    HW131328   4.973   7.010   1.508
10143SOL    HW231329   5.088   0.063   1.416
10144SOL     OW31330   3.062   5.688   5.622
10144SOL    HW131331   3.014   5.770   5.591
10144SOL    HW231332   3.153   5.685   5.581
10145SOL     OW31333   2.784   5.811   5.967
10145SOL    HW131334   2.880   5.783   5.970
10145SOL    HW231335   2.736   5.757   5.897
10146SOL     OW31336   3.663   5.499   4.259
10146SOL    HW131337   3.694   5.530   4.349
10146SOL    HW231338   3.699   5.408   4.240
10147SOL     OW31339   4.705   4.497   4.026
10147SOL    HW131340   4.761   4.571   4.062
10147SOL    HW231341   4.729   4.412   4.072
10148SOL     OW31342   6.247   6.031   0.421
10148SOL    HW131343   6.315   5.973   0.375
10148SOL    HW231344   6.294   6.101   0.475
10149SOL     OW31345   4.716   1.515   0.866
10149SOL    HW131346   4.633   1.478   0.824
10149SOL    HW231347   4.695   1.601   0.911
10150SOL     OW31348   4.736   4.687   1.030
10150SOL    HW131349   4.765   4.632   1.108
10150SOL    HW231350   4.642   4.663   1.006
10151SOL     OW31351   1.160   6.986   6.478
10151SOL    HW131352   1.093   6.942   6.419
10151SOL    HW231353   1.117   0.044   6.527
10152SOL     OW31354   1.523   5.233   3.694
10152SOL    HW131355   1.443   5.269   3.743
10152SOL    HW231356   1.513   5.135   3.681
10153SOL     OW31357   4.457   5.804   3.540
10153SOL    HW131358   4.540   5.798   3.595
10153SOL    HW231359   4.406   5.886   3.566
10154SOL     OW31360   6.600   6.424   5.810
10154SOL    HW131361   6.505   6.447   5.787
10154SOL    HW231362   6.615   6.326   5.795
10155SOL     OW31363   3.753   0.653   5.986
10155SOL    HW131364   3.763   0.734   6.043
10155SOL    HW231365   3.684   0.593   6.027
10156SOL     OW31366   5.242   0.073   2.770
10156SOL    HW131367   5.215   0.149   2.829
10156SOL    HW231368   5.213   7.004   2.812
10157SOL     OW31369   5.821   1.656   6.170
10157SOL    HW131370   5.912   1.641   6.208
10157SOL    HW231371   5.824   1.645   6.071
10158SOL     OW31372   4.807   3.553   0.137
10158SOL    HW131373   4.753   3.583   0.216
10158SOL    HW231374   4.895   3.518   0.168
10159SOL     OW31375   2.746   2.919   6.093
10159SOL    HW131376   2.688   2.991   6.056
10159SOL    HW231377   2.715   2.830   6.061
10160SOL     OW31378   0.958   4.429   3.083
10160SOL    HW131379   0.898   4.507   3.067
10160SOL    HW231380   0.904   4.344   3.080
10161SOL     OW31381   3.220   4.703   0.207
10161SOL    HW131382   3.311   4.745   0.202
10161SOL    HW231383   3.150   4.774   0.197
10162SOL     OW31384   2.440   3.335   6.998
10162SOL    HW131385   2.451   3.289   6.910
10162SOL    HW231386   2.526   3.328   0.032
10163SOL     OW31387   5.951   3.862   6.350
10163SOL    HW131388   6.020   3.791   6.334
10163SOL    HW231389   5.912   3.851   6.441
10164SOL     OW31390   6.724   3.065   4.505
10164SOL    HW131391   6.793   3.014   4.555
10164SOL    HW231392   6.732   3.162   4.527
10165SOL     OW31393   0.778   2.307   4.438
10165SOL    HW131394   0.709   2.288   4.508
10165SOL    HW231395   0.794   2.406   4.433
10166SOL     OW31396   3.177   1.280   1.564
10166SOL    HW131397   3.237   1.350   1.526
10166SOL    HW231398   3.214   1.249   1.652
10167SOL     OW31399   5.144   1.304   6.529
10167SOL    HW131400   5.227   1.323   6.580
10167SOL    HW231401   5.154   1.217   6.480
10168SOL     OW31402   0.158   4.351   4.671
10168SOL    HW131403   0.257   4.336   4.669
10168SOL    HW231404   0.139   4.447   4.691
10169SOL     OW31405   6.226   4.962   3.352
10169SOL    HW131406   6.276   4.938   3.435
10169SOL    HW231407   6.288   5.006   3.287
10170SOL     OW31408   0.732   4.479   5.348
10170SOL    HW131409   0.771   4.389   5.330
10170SOL    HW231410   0.651   4.470   5.405
10171SOL     OW31411   6.596   3.704   6.208
10171SOL    HW131412   6.675   3.697   6.268
10171SOL    HW231413   6.573   3.800   6.193
10172SOL     OW31414   5.476   0.284   2.994
10172SOL    HW131415   5.500   0.381   3.000
10172SOL    HW231416   5.379   0.272   3.011
10173SOL     OW31417   2.121   1.577   0.746
10173SOL    HW131418   2.127   1.586   0.647
10173SOL    HW231419   2.026   1.567   0.773
10174SOL     OW31420   5.780   4.672   2.852
10174SOL    HW131421   5.707   4.604   2.851
10174SOL    HW231422   5.837   4.659   2.933
10175SOL     OW31423   6.323   2.938   4.134
10175SOL    HW131424   6.374   2.951   4.219
10175SOL    HW231425   6.225   2.933   4.154
10176SOL     OW31426   1.587   3.214   5.883
10176SOL    HW131427   1.645   3.153   5.937
10176SOL    HW231428   1.491   3.198   5.906
10177SOL     OW31429   3.136   0.453   0.319
10177SOL    HW131430   3.084   0.387   0.265
10177SOL    HW231431   3.088   0.541   0.319
10178SOL     OW31432   5.987   3.163   4.417
10178SOL    HW131433   5.912   3.103   4.388
10178SOL    HW231434   6.047   3.113   4.480
10179SOL     OW31435   0.787   2.165   6.434
10179SOL    HW131436   0.775   2.156   6.335
10179SOL    HW231437   0.698   2.158   6.479
10180SOL     OW31438   2.998   5.426   5.944
10180SOL    HW131439   3.077   5.365   5.940
10180SOL    HW231440   2.968   5.435   6.040
10181SOL     OW31441   5.514   3.583   1.866
10181SOL    HW131442   5.486   3.672   1.827
10181SOL    HW231443   5.569   3.534   1.799
10182SOL     OW31444   5.855   1.367   1.276
10182SOL    HW131445   5.910   1.289   1.245
10182SOL    HW231446   5.916   1.439   1.308
10183SOL     OW31447   1.244   2.089   6.563
10183SOL    HW131448   1.333   2.079   6.606
10183SOL    HW231449   1.172   2.090   6.633
10184SOL     OW31450   4.476   2.055   6.156
10184SOL    HW131451   4.384   2.017   6.166
10184SOL    HW231452   4.526   2.006   6.085
10185SOL     OW31453   4.908   6.838   0.995
10185SOL    HW131454   4.953   6.824   0.906
10185SOL    HW231455   4.976   6.861   1.064
10186SOL     OW31456   5.412   2.978   3.351
10186SOL    HW131457   5.390   3.055   3.292
10186SOL    HW231458   5.371   2.992   3.441
10187SOL     OW31459   0.301   2.284   1.768
10187SOL    HW131460   0.239   2.233   1.709
10187SOL    HW231461   0.253   2.362   1.807
10188SOL     OW31462   3.815   6.287   0.323
10188SOL    HW131463   3.892   6.320   0.269
10188SOL    HW231464   3.838   6.198   0.363
10189SOL     OW31465   2.278   6.691   5.254
10189SOL    HW131466   2.308   6.769   5.309
10189SOL    HW231467   2.252   6.724   5.163
10190SOL     OW31468   5.053   2.013   0.923
10190SOL    HW131469   4.967   2.061   0.904
10190SOL    HW231470   5.049   1.973   1.015
10191SOL     OW31471   5.247   4.375   6.876
10191SOL    HW131472   5.208   4.360   6.967
10191SOL    HW231473   5.248   4.473   6.855
10192SOL     OW31474   4.125   0.797   4.796
10192SOL    HW131475   4.223   0.778   4.806
10192SOL    HW231476   4.105   0.823   4.702
10193SOL     OW31477   4.274   4.045   1.438
10193SOL    HW131478   4.185   4.003   1.453
10193SOL    HW231479   4.278   4.083   1.346
10194SOL     OW31480   5.836   4.315   4.796
10194SOL    HW131481   5.853   4.290   4.700
10194SOL    HW231482   5.781   4.398   4.799
10195SOL     OW31483   5.885   4.705   1.574
10195SOL    HW131484   5.941   4.788   1.574
10195SOL    HW231485   5.836   4.699   1.488
10196SOL     OW31486   6.431   1.525   5.105
10196SOL    HW131487   6.436   1.467   5.024
10196SOL    HW231488   6.341   1.517   5.146
10197SOL     OW31489   6.725   1.092   4.985
10197SOL    HW131490   6.792   1.093   4.911
10197SOL    HW231491   6.634   1.074   4.948
10198SOL     OW31492   3.844   0.879   2.231
10198SOL    HW131493   3.772   0.941   2.200
10198SOL    HW231494   3.920   0.881   2.166
10199SOL     OW31495   0.873   3.016   5.491
10199SOL    HW131496   0.828   2.972   5.569
10199SOL    HW231497   0.964   3.047   5.518
10200SOL     OW31498   5.048   2.626   0.911
10200SOL    HW131499   5.099   2.646   0.995
10200SOL    HW231500   5.044   2.527   0.897
10201SOL     OW31501   1.536   4.297   1.058
10201SOL    HW131502   1.606   4.246   1.108
10201SOL    HW231503   1.569   4.390   1.040
10202SOL     OW31504   3.987   1.471   5.462
10202SOL    HW131505   3.949   1.481   5.554
10202SOL    HW231506   4.056   1.541   5.446
10203SOL     OW31507   5.566   2.280   4.781
10203SOL    HW131508   5.554   2.272   4.880
10203SOL    HW231509   5.476   2.294   4.738
10204SOL     OW31510   4.754   6.308   6.567
10204SOL    HW131511   4.771   6.251   6.487
10204SOL    HW231512   4.705   6.391   6.540
10205SOL     OW31513   0.768   1.057   0.001
10205SOL    HW131514   0.785   1.115   6.939
10205SOL    HW231515   0.765   0.962   6.990
10206SOL     OW31516   1.117   0.739   5.789
10206SOL    HW131517   1.050   0.771   5.723
10206SOL    HW231518   1.076   0.668   5.846
10207SOL     OW31519   1.519   2.157   5.769
10207SOL    HW131520   1.587   2.093   5.734
10207SOL    HW231521   1.564   2.236   5.810
10208SOL     OW31522   5.190   5.393   4.971
10208SOL    HW131523   5.173   5.329   4.897
10208SOL    HW231524   5.106   5.443   4.991
10209SOL     OW31525   0.118   0.041   5.894
10209SOL    HW131526   0.082   0.038   5.987
10209SOL    HW231527   0.058   0.095   5.836
10210SOL     OW31528   4.279   6.207   1.665
10210SOL    HW131529   4.203   6.181   1.725
10210SOL    HW231530   4.260   6.296   1.624
10211SOL     OW31531   4.104   6.679   5.320
10211SOL    HW131532   4.198   6.692   5.354
10211SOL    HW231533   4.039   6.708   5.390
10212SOL     OW31534   1.005   7.008   5.760
10212SOL    HW131535   0.913   6.977   5.783
10212SOL    HW231536   1.021   0.081   5.801
10213SOL     OW31537   5.530   2.171   0.272
10213SOL    HW131538   5.466   2.247   0.258
10213SOL    HW231539   5.512   2.128   0.360
10214SOL     OW31540   1.089   2.941   1.531
10214SOL    HW131541   1.117   2.853   1.494
10214SOL    HW231542   1.169   3.001   1.540
10215SOL     OW31543   4.008   3.555   2.545
10215SOL    HW131544   3.912   3.531   2.530
10215SOL    HW231545   4.067   3.492   2.495
10216SOL     OW31546   5.741   0.484   2.273
10216SOL    HW131547   5.747   0.396   2.320
10216SOL    HW231548   5.673   0.478   2.199
10217SOL     OW31549   2.647   1.352   3.524
10217SOL    HW131550   2.618   1.257   3.536
10217SOL    HW231551   2.745   1.360   3.545
10218SOL     OW31552   0.961   2.911   2.493
10218SOL    HW131553   0.918   2.959   2.569
10218SOL    HW231554   0.929   2.816   2.491
10219SOL     OW31555   0.605   1.134   2.279
10219SOL    HW131556   0.619   1.228   2.312
10219SOL    HW231557   0.567   1.137   2.186
10220SOL     OW31558   3.747   2.502   1.706
10220SOL    HW131559   3.812   2.490   1.630
10220SOL    HW231560   3.722   2.413   1.742
10221SOL     OW31561   0.878   6.464   2.644
10221SOL    HW131562   0.922   6.438   2.558
10221SOL    HW231563   0.794   6.515   2.624
10222SOL     OW31564   3.042   3.725   4.698
10222SOL    HW131565   3.036   3.824   4.690
10222SOL    HW231566   2.980   3.682   4.633
10223SOL     OW31567   0.939   5.240   1.036
10223SOL    HW131568   0.898   5.152   1.059
10223SOL    HW231569   0.912   5.266   0.944
10224SOL     OW31570   5.941   4.232   3.182
10224SOL    HW131571   5.890   4.241   3.268
10224SOL    HW231572   5.944   4.320   3.135
10225SOL     OW31573   1.681   3.482   5.921
10225SOL    HW131574   1.778   3.457   5.918
10225SOL    HW231575   1.625   3.400   5.910
10226SOL     OW31576   4.424   2.498   0.062
10226SOL    HW131577   4.392   2.411   0.100
10226SOL    HW231578   4.489   2.540   0.125
10227SOL     OW31579   5.878   3.970   0.769
10227SOL    HW131580   5.902   4.067   0.763
10227SOL    HW231581   5.910   3.934   0.856
10228SOL     OW31582   5.236   1.280   0.568
10228SOL    HW131583   5.149   1.239   0.596
10228SOL    HW231584   5.240   1.283   0.468
10229SOL     OW31585   0.409   3.591   5.021
10229SOL    HW131586   0.459   3.662   4.972
10229SOL    HW231587   0.461   3.506   5.019
10230SOL     OW31588   6.669   5.651   2.369
10230SOL    HW131589   6.580   5.669   2.411
10230SOL    HW231590   6.718   5.583   2.423
10231SOL     OW31591   1.527   6.364   3.255
10231SOL    HW131592   1.496   6.445   3.304
10231SOL    HW231593   1.471   6.349   3.174
10232SOL     OW31594   4.447   6.371   2.750
10232SOL    HW131595   4.489   6.402   2.665
10232SOL    HW231596   4.492   6.416   2.827
10233SOL     OW31597   4.297   4.096   6.368
10233SOL    HW131598   4.239   4.128   6.443
10233SOL    HW231599   4.259   4.011   6.332
10234SOL     OW31600   6.744   0.946   1.320
10234SOL    HW131601   6.651   0.952   1.357
10234SOL    HW231602   6.792   0.869   1.363
10235SOL     OW31603   0.894   1.128   3.272
10235SOL    HW131604   0.911   1.117   3.174
10235SOL    HW231605   0.844   1.213   3.288
10236SOL     OW31606   2.136   0.078   0.995
10236SOL    HW131607   2.209   0.036   0.940
10236SOL    HW231608   2.066   0.009   1.015
10237SOL     OW31609   0.362   3.709   6.590
10237SOL    HW131610   0.427   3.784   6.576
10237SOL    HW231611   0.308   3.726   6.672
10238SOL     OW31612   4.012   5.440   0.986
10238SOL    HW131613   4.098   5.430   0.936
10238SOL    HW231614   4.028   5.492   1.069
10239SOL     OW31615   1.492   2.345   4.405
10239SOL    HW131616   1.582   2.301   4.408
10239SOL    HW231617   1.427   2.292   4.461
10240SOL     OW31618   2.924   6.848   0.885
10240SOL    HW131619   2.976   6.887   0.962
10240SOL    HW231620   2.867   6.919   0.844
10241SOL     OW31621   4.293   2.280   1.569
10241SOL    HW131622   4.358   2.330   1.512
10241SOL    HW231623   4.254   2.341   1.638
10242SOL     OW31624   6.923   2.293   0.448
10242SOL    HW131625   6.941   2.345   0.364
10242SOL    HW231626   6.864   2.347   0.508
10243SOL     OW31627   2.674   4.812   1.075
10243SOL    HW131628   2.741   4.803   1.149
10243SOL    HW231629   2.688   4.739   1.009
10244SOL     OW31630   2.465   3.956   1.755
10244SOL    HW131631   2.558   3.968   1.719
10244SOL    HW231632   2.400   3.953   1.679
10245SOL     OW31633   3.920   4.478   0.619
10245SOL    HW131634   3.882   4.434   0.538
10245SOL    HW231635   4.006   4.523   0.596
10246SOL     OW31636   3.662   2.882   4.414
10246SOL    HW131637   3.602   2.804   4.432
10246SOL    HW231638   3.621   2.965   4.450
10247SOL     OW31639   1.294   3.991   4.737
10247SOL    HW131640   1.343   3.911   4.772
10247SOL    HW231641   1.345   4.030   4.659
10248SOL     OW31642   1.261   0.428   3.289
10248SOL    HW131643   1.209   0.365   3.347
10248SOL    HW231644   1.242   0.407   3.193
10249SOL     OW31645   2.259   4.337   6.566
10249SOL    HW131646   2.183   4.396   6.591
10249SOL    HW231647   2.244   4.299   6.474
10250SOL     OW31648   5.235   2.439   6.828
10250SOL    HW131649   5.195   2.518   6.783
10250SOL    HW231650   5.242   2.456   6.927
10251SOL     OW31651   1.981   0.399   3.922
10251SOL    HW131652   1.978   0.453   4.006
10251SOL    HW231653   1.938   0.310   3.938
10252SOL     OW31654   5.297   4.055   5.758
10252SOL    HW131655   5.384   4.007   5.767
10252SOL    HW231656   5.311   4.140   5.706
10253SOL     OW31657   4.293   6.756   0.005
10253SOL    HW131658   4.246   6.829   6.973
10253SOL    HW231659   4.313   6.786   0.099
10254SOL     OW31660   5.922   1.592   4.584
10254SOL    HW131661   5.992   1.553   4.643
10254SOL    HW231662   5.956   1.676   4.543
10255SOL     OW31663   3.561   5.544   1.676
10255SOL    HW131664   3.660   5.536   1.678
10255SOL    HW231665   3.521   5.453   1.659
10256SOL     OW31666   5.074   0.948   2.730
10256SOL    HW131667   5.067   0.906   2.639
10256SOL    HW231668   5.087   0.877   2.799
10257SOL     OW31669   2.961   5.006   2.520
10257SOL    HW131670   2.949   4.929   2.456
10257SOL    HW231671   2.899   5.080   2.495
10258SOL     OW31672   1.769   1.822   2.095
10258SOL    HW131673   1.809   1.732   2.114
10258SOL    HW231674   1.769   1.838   1.997
10259SOL     OW31675   0.888   3.917   3.903
10259SOL    HW131676   0.987   3.908   3.914
10259SOL    HW231677   0.847   3.826   3.897
10260SOL     OW31678   1.407   1.052   3.728
10260SOL    HW131679   1.370   0.994   3.801
10260SOL    HW231680   1.418   1.145   3.761
10261SOL     OW31681   6.426   3.889   0.520
10261SOL    HW131682   6.475   3.844   0.595
10261SOL    HW231683   6.468   3.978   0.501
10262SOL     OW31684   3.563   1.004   6.837
10262SOL    HW131685   3.598   1.011   6.930
10262SOL    HW231686   3.638   0.985   6.774
10263SOL     OW31687   5.720   0.895   1.949
10263SOL    HW131688   5.690   0.927   2.039
10263SOL    HW231689   5.694   0.962   1.879
10264SOL     OW31690   5.928   5.499   6.652
10264SOL    HW131691   5.978   5.502   6.565
10264SOL    HW231692   5.853   5.565   6.650
10265SOL     OW31693   2.211   1.802   0.160
10265SOL    HW131694   2.176   1.781   0.068
10265SOL    HW231695   2.187   1.896   0.184
10266SOL     OW31696   3.003   4.002   2.000
10266SOL    HW131697   2.913   3.959   2.015
10266SOL    HW231698   3.074   3.932   2.005
10267SOL     OW31699   5.646   1.067   0.797
10267SOL    HW131700   5.611   1.083   0.890
10267SOL    HW231701   5.570   1.054   0.734
10268SOL     OW31702   5.103   6.897   1.164
10268SOL    HW131703   5.077   6.917   1.258
10268SOL    HW231704   5.157   6.972   1.127
10269SOL     OW31705   2.131   2.025   6.069
10269SOL    HW131706   2.163   2.114   6.102
10269SOL    HW231707   2.205   1.979   6.020
10270SOL     OW31708   3.298   5.962   1.751
10270SOL    HW131709   3.392   5.930   1.761
10270SOL    HW231710   3.258   5.921   1.669
10271SOL     OW31711   1.811   2.162   0.251
10271SOL    HW131712   1.721   2.200   0.231
10271SOL    HW231713   1.826   2.162   0.350
10272SOL     OW31714   6.673   0.695   4.470
10272SOL    HW131715   6.703   0.672   4.563
10272SOL    HW231716   6.604   0.767   4.474
10273SOL     OW31717   2.888   5.009   3.795
10273SOL    HW131718   2.961   4.946   3.769
10273SOL    HW231719   2.799   4.966   3.778
10274SOL     OW31720   0.408   5.385   5.038
10274SOL    HW131721   0.399   5.396   4.939
10274SOL    HW231722   0.377   5.468   5.084
10275SOL     OW31723   0.311   0.469   2.973
10275SOL    HW131724   0.250   0.438   2.899
10275SOL    HW231725   0.397   0.501   2.933
10276SOL     OW31726   4.248   5.828   5.925
10276SOL    HW131727   4.259   5.857   5.831
10276SOL    HW231728   4.244   5.728   5.929
10277SOL     OW31729   1.241   6.383   4.209
10277SOL    HW131730   1.185   6.401   4.128
10277SOL    HW231731   1.306   6.310   4.188
10278SOL     OW31732   0.280   0.575   5.383
10278SOL    HW131733   0.227   0.584   5.467
10278SOL    HW231734   0.327   0.486   5.383
10279SOL     OW31735   1.969   5.155   4.191
10279SOL    HW131736   1.906   5.111   4.255
10279SOL    HW231737   1.922   5.172   4.105
10280SOL     OW31738   5.306   4.401   0.722
10280SOL    HW131739   5.310   4.459   0.641
10280SOL    HW231740   5.302   4.305   0.695
10281SOL     OW31741   6.420   2.030   3.661
10281SOL    HW131742   6.325   2.026   3.629
10281SOL    HW231743   6.474   1.962   3.611
10282SOL     OW31744   4.951   3.727   2.878
10282SOL    HW131745   4.886   3.784   2.929
10282SOL    HW231746   5.022   3.785   2.838
10283SOL     OW31747   0.461   4.416   1.099
10283SOL    HW131748   0.509   4.349   1.157
10283SOL    HW231749   0.373   4.378   1.071
10284SOL     OW31750   0.157   2.715   3.552
10284SOL    HW131751   0.067   2.740   3.517
10284SOL    HW231752   0.186   2.781   3.621
10285SOL     OW31753   4.435   6.019   3.812
10285SOL    HW131754   4.351   5.996   3.862
10285SOL    HW231755   4.445   6.118   3.807
10286SOL     OW31756   3.062   1.435   4.614
10286SOL    HW131757   3.003   1.356   4.631
10286SOL    HW231758   3.006   1.512   4.581
10287SOL     OW31759   1.744   5.674   2.248
10287SOL    HW131760   1.837   5.703   2.224
10287SOL    HW231761   1.748   5.599   2.313
10288SOL     OW31762   3.879   0.058   5.240
10288SOL    HW131763   3.895   0.132   5.306
10288SOL    HW231764   3.888   0.094   5.147
10289SOL     OW31765   2.509   6.420   0.091
10289SOL    HW131766   2.519   6.412   0.191
10289SOL    HW231767   2.536   6.334   0.048
10290SOL     OW31768   3.044   3.165   2.350
10290SOL    HW131769   3.144   3.162   2.360
10290SOL    HW231770   3.014   3.261   2.344
10291SOL     OW31771   3.148   1.290   2.656
10291SOL    HW131772   3.231   1.281   2.601
10291SOL    HW231773   3.073   1.324   2.599
10292SOL     OW31774   6.652   0.040   6.246
10292SOL    HW131775   6.706   6.985   6.288
10292SOL    HW231776   6.696   0.128   6.261
10293SOL     OW31777   0.742   4.112   3.656
10293SOL    HW131778   0.803   4.157   3.722
10293SOL    HW231779   0.734   4.169   3.574
10294SOL     OW31780   3.365   1.727   2.778
10294SOL    HW131781   3.299   1.745   2.851
10294SOL    HW231782   3.330   1.764   2.692
10295SOL     OW31783   0.854   2.169   7.012
10295SOL    HW131784   0.907   2.238   6.963
10295SOL    HW231785   0.761   2.203   0.009
10296SOL     OW31786   5.893   1.167   5.747
10296SOL    HW131787   5.880   1.106   5.825
10296SOL    HW231788   5.820   1.236   5.747
10297SOL     OW31789   2.868   1.914   6.550
10297SOL    HW131790   2.910   1.825   6.564
10297SOL    HW231791   2.928   1.985   6.588
10298SOL     OW31792   0.461   3.248   2.491
10298SOL    HW131793   0.551   3.271   2.456
10298SOL    HW231794   0.437   3.155   2.463
10299SOL     OW31795   4.491   6.447   2.026
10299SOL    HW131796   4.491   6.363   1.972
10299SOL    HW231797   4.482   6.526   1.966
10300SOL     OW31798   0.834   3.640   2.014
10300SOL    HW131799   0.817   3.738   2.027
10300SOL    HW231800   0.875   3.625   1.924
10301SOL     OW31801   4.501   1.215   6.370
10301SOL    HW131802   4.597   1.190   6.381
10301SOL    HW231803   4.482   1.231   6.273
10302SOL     OW31804   2.578   5.837   4.497
10302SOL    HW131805   2.507   5.772   4.467
10302SOL    HW231806   2.556   5.870   4.588
10303SOL     OW31807   1.102   5.808   4.682
10303SOL    HW131808   1.156   5.883   4.644
10303SOL    HW231809   1.011   5.808   4.639
10304SOL     OW31810   6.284   0.257   0.219
10304SOL    HW131811   6.291   0.167   0.263
10304SOL    HW231812   6.371   0.279   0.174
10305SOL     OW31813   2.463   3.881   5.926
10305SOL    HW131814   2.561   3.879   5.908
10305SOL    HW231815   2.436   3.972   5.956
10306SOL     OW31816   5.985   0.501   0.950
10306SOL    HW131817   6.052   0.462   1.012
10306SOL    HW231818   5.911   0.435   0.935
10307SOL     OW31819   3.157   0.511   4.574
10307SOL    HW131820   3.190   0.592   4.525
10307SOL    HW231821   3.155   0.432   4.512
10308SOL     OW31822   2.530   4.678   2.313
10308SOL    HW131823   2.455   4.723   2.264
10308SOL    HW231824   2.502   4.585   2.337
10309SOL     OW31825   6.100   0.852   5.856
10309SOL    HW131826   6.041   0.877   5.932
10309SOL    HW231827   6.195   0.845   5.887
10310SOL     OW31828   2.525   3.098   6.435
10310SOL    HW131829   2.449   3.078   6.497
10310SOL    HW231830   2.594   3.151   6.485
10311SOL     OW31831   5.612   6.034   6.697
10311SOL    HW131832   5.552   5.955   6.684
10311SOL    HW231833   5.599   6.098   6.621
10312SOL     OW31834   4.672   0.216   2.120
10312SOL    HW131835   4.729   0.154   2.174
10312SOL    HW231836   4.613   0.163   2.059
10313SOL     OW31837   4.316   6.163   2.873
10313SOL    HW131838   4.353   6.076   2.906
10313SOL    HW231839   4.391   6.223   2.845
10314SOL     OW31840   0.742   6.871   6.973
10314SOL    HW131841   0.768   6.928   6.895
10314SOL    HW231842   0.679   6.921   0.014
10315SOL     OW31843   5.113   6.428   3.359
10315SOL    HW131844   5.038   6.361   3.354
10315SOL    HW231845   5.109   6.489   3.281
10316SOL     OW31846   6.703   2.167   6.327
10316SOL    HW131847   6.760   2.249   6.329
10316SOL    HW231848   6.614   2.190   6.286
10317SOL     OW31849   3.246   6.081   6.159
10317SOL    HW131850   3.156   6.045   6.182
10317SOL    HW231851   3.286   6.027   6.085
10318SOL     OW31852   5.375   0.173   0.116
10318SOL    HW131853   5.392   0.109   0.042
10318SOL    HW231854   5.420   0.260   0.097
10319SOL     OW31855   0.580   4.862   4.550
10319SOL    HW131856   0.518   4.854   4.628
10319SOL    HW231857   0.540   4.815   4.471
10320SOL     OW31858   6.904   0.406   3.635
10320SOL    HW131859   6.881   0.359   3.550
10320SOL    HW231860   6.924   0.339   3.706
10321SOL     OW31861   5.772   2.025   1.995
10321SOL    HW131862   5.757   2.088   2.071
10321SOL    HW231863   5.806   2.075   1.916
10322SOL     OW31864   4.376   4.758   4.437
10322SOL    HW131865   4.410   4.839   4.483
10322SOL    HW231866   4.440   4.682   4.451
10323SOL     OW31867   6.666   4.548   5.553
10323SOL    HW131868   6.736   4.537   5.483
10323SOL    HW231869   6.707   4.586   5.636
10324SOL     OW31870   3.084   3.497   2.147
10324SOL    HW131871   3.021   3.543   2.086
10324SOL    HW231872   3.170   3.548   2.152
10325SOL     OW31873   0.233   5.727   1.882
10325SOL    HW131874   0.147   5.759   1.922
10325SOL    HW231875   0.255   5.636   1.918
10326SOL     OW31876   5.321   4.111   6.901
10326SOL    HW131877   5.265   4.029   6.892
10326SOL    HW231878   5.286   4.183   6.841
10327SOL     OW31879   2.894   3.939   1.281
10327SOL    HW131880   2.805   3.897   1.264
10327SOL    HW231881   2.894   3.981   1.372
10328SOL     OW31882   6.503   3.355   1.687
10328SOL    HW131883   6.424   3.309   1.645
10328SOL    HW231884   6.582   3.294   1.683
10329SOL     OW31885   3.186   1.384   2.964
10329SOL    HW131886   3.246   1.342   2.895
10329SOL    HW231887   3.127   1.313   3.003
10330SOL     OW31888   4.812   7.010   0.730
10330SOL    HW131889   4.718   0.026   0.739
10330SOL    HW231890   4.869   0.036   0.799
10331SOL     OW31891   6.275   5.820   0.173
10331SOL    HW131892   6.369   5.834   0.141
10331SOL    HW231893   6.228   5.756   0.112
10332SOL     OW31894   1.242   0.971   0.398
10332SOL    HW131895   1.176   0.969   0.323
10332SOL    HW231896   1.208   0.915   0.474
10333SOL     OW31897   0.730   5.609   4.350
10333SOL    HW131898   0.750   5.651   4.262
10333SOL    HW231899   0.673   5.528   4.337
10334SOL     OW31900   2.824   6.934   3.824
10334SOL    HW131901   2.745   6.976   3.869
10334SOL    HW231902   2.904   6.940   3.883
10335SOL     OW31903   0.284   4.642   6.337
10335SOL    HW131904   0.251   4.695   6.415
10335SOL    HW231905   0.311   4.551   6.367
10336SOL     OW31906   5.910   0.102   2.847
10336SOL    HW131907   5.865   0.181   2.889
10336SOL    HW231908   5.862   0.077   2.763
10337SOL     OW31909   6.306   5.335   0.046
10337SOL    HW131910   6.371   5.405   0.077
10337SOL    HW231911   6.291   5.346   6.965
10338SOL     OW31912   1.941   6.368   1.741
10338SOL    HW131913   2.040   6.356   1.744
10338SOL    HW231914   1.917   6.435   1.671
10339SOL     OW31915   0.125   3.098   5.918
10339SOL    HW131916   0.171   3.081   5.830
10339SOL    HW231917   0.041   3.150   5.901
10340SOL     OW31918   1.154   3.333   6.394
10340SOL    HW131919   1.120   3.352   6.301
10340SOL    HW231920   1.232   3.392   6.413
10341SOL     OW31921   2.055   2.982   2.531
10341SOL    HW131922   2.067   3.078   2.509
10341SOL    HW231923   2.036   2.972   2.628
10342SOL     OW31924   1.805   0.349   3.688
10342SOL    HW131925   1.873   0.418   3.665
10342SOL    HW231926   1.751   0.380   3.766
10343SOL     OW31927   2.481   5.603   0.786
10343SOL    HW131928   2.533   5.687   0.800
10343SOL    HW231929   2.390   5.625   0.753
10344SOL     OW31930   3.490   3.838   6.762
10344SOL    HW131931   3.417   3.902   6.735
10344SOL    HW231932   3.521   3.860   6.855
10345SOL     OW31933   1.503   2.730   5.109
10345SOL    HW131934   1.587   2.774   5.077
10345SOL    HW231935   1.429   2.749   5.045
10346SOL     OW31936   0.219   5.970   1.493
10346SOL    HW131937   0.157   5.993   1.418
10346SOL    HW231938   0.206   5.874   1.519
10347SOL     OW31939   4.384   0.818   3.805
10347SOL    HW131940   4.410   0.798   3.900
10347SOL    HW231941   4.370   0.916   3.794
10348SOL     OW31942   5.865   3.305   0.297
10348SOL    HW131943   5.804   3.322   0.373
10348SOL    HW231944   5.957   3.338   0.320
10349SOL     OW31945   0.645   0.140   6.266
10349SOL    HW131946   0.613   0.207   6.199
10349SOL    HW231947   0.586   0.060   6.264
10350SOL     OW31948   2.891   6.253   5.580
10350SOL    HW131949   2.981   6.257   5.536
10350SOL    HW231950   2.823   6.221   5.515
10351SOL     OW31951   4.362   4.882   5.820
10351SOL    HW131952   4.362   4.787   5.851
10351SOL    HW231953   4.285   4.931   5.860
10352SOL     OW31954   3.539   1.315   6.234
10352SOL    HW131955   3.512   1.379   6.305
10352SOL    HW231956   3.567   1.365   6.152
10353SOL     OW31957   6.482   2.968   4.375
10353SOL    HW131958   6.458   2.899   4.444
10353SOL    HW231959   6.556   3.025   4.409
10354SOL     OW31960   5.151   1.083   1.651
10354SOL    HW131961   5.215   1.046   1.719
10354SOL    HW231962   5.100   1.159   1.691
10355SOL     OW31963   2.548   6.019   2.351
10355SOL    HW131964   2.560   6.107   2.398
10355SOL    HW231965   2.615   5.953   2.384
10356SOL     OW31966   6.884   4.482   5.395
10356SOL    HW131967   6.888   4.391   5.356
10356SOL    HW231968   6.966   4.533   5.369
10357SOL     OW31969   2.128   2.272   6.613
10357SOL    HW131970   2.102   2.176   6.628
10357SOL    HW231971   2.094   2.328   6.688
10358SOL     OW31972   0.382   2.950   2.854
10358SOL    HW131973   0.372   2.937   2.953
10358SOL    HW231974   0.291   2.959   2.813
10359SOL     OW31975   0.290   1.447   1.517
10359SOL    HW131976   0.223   1.514   1.486
10359SOL    HW231977   0.248   1.357   1.519
10360SOL     OW31978   5.391   5.941   3.314
10360SOL    HW131979   5.428   6.023   3.270
10360SOL    HW231980   5.300   5.960   3.349
10361SOL     OW31981   2.842   5.839   2.433
10361SOL    HW131982   2.900   5.901   2.486
10361SOL    HW231983   2.760   5.817   2.487
10362SOL     OW31984   2.089   4.453   4.917
10362SOL    HW131985   2.172   4.402   4.941
10362SOL    HW231986   2.067   4.437   4.821
10363SOL     OW31987   4.838   0.200   3.466
10363SOL    HW131988   4.923   0.235   3.504
10363SOL    HW231989   4.767   0.270   3.474
10364SOL     OW31990   2.314   4.419   1.284
10364SOL    HW131991   2.277   4.509   1.307
10364SOL    HW231992   2.264   4.382   1.205
10365SOL     OW31993   4.717   5.155   0.217
10365SOL    HW131994   4.785   5.227   0.200
10365SOL    HW231995   4.681   5.122   0.130
10366SOL     OW31996   2.626   0.116   3.484
10366SOL    HW131997   2.719   0.119   3.521
10366SOL    HW231998   2.594   0.209   3.467
10367SOL     OW31999   5.675   2.477   3.327
10367SOL    HW132000   5.598   2.415   3.339
10367SOL    HW232001   5.671   2.518   3.236
10368SOL     OW32002   2.087   1.403   1.945
10368SOL    HW132003   2.148   1.473   1.908
10368SOL    HW232004   2.132   1.314   1.942
10369SOL     OW32005   4.004   2.230   0.296
10369SOL    HW132006   4.006   2.213   0.197
10369SOL    HW232007   4.098   2.228   0.332
10370SOL     OW32008   4.516   1.016   5.323
10370SOL    HW132009   4.435   1.074   5.328
10370SOL    HW232010   4.571   1.043   5.244
10371SOL     OW32011   4.673   5.910   5.335
10371SOL    HW132012   4.772   5.906   5.346
10371SOL    HW232013   4.638   5.996   5.372
10372SOL     OW32014   2.220   1.167   3.917
10372SOL    HW132015   2.157   1.114   3.975
10372SOL    HW232016   2.261   1.240   3.972
10373SOL     OW32017   1.152   6.722   4.014
10373SOL    HW132018   1.061   6.710   4.055
10373SOL    HW232019   1.176   6.640   3.964
10374SOL     OW32020   2.996   2.119   3.142
10374SOL    HW132021   3.035   2.042   3.193
10374SOL    HW232022   3.017   2.109   3.045
10375SOL     OW32023   5.857   1.859   1.242
10375SOL    HW132024   5.772   1.859   1.189
10375SOL    HW232025   5.860   1.939   1.302
10376SOL     OW32026   0.358   0.858   3.631
10376SOL    HW132027   0.361   0.767   3.673
10376SOL    HW232028   0.263   0.887   3.621
10377SOL     OW32029   0.326   0.592   3.703
10377SOL    HW132030   0.320   0.545   3.791
10377SOL    HW232031   0.239   0.582   3.654
10378SOL     OW32032   0.033   0.507   6.219
10378SOL    HW132033   0.120   0.538   6.182
10378SOL    HW232034   6.981   0.577   6.205
10379SOL     OW32035   5.397   1.166   4.444
10379SOL    HW132036   5.362   1.232   4.377
10379SOL    HW232037   5.338   1.086   4.445
10380SOL     OW32038   5.036   0.447   1.941
10380SOL    HW132039   4.943   0.414   1.955
10380SOL    HW232040   5.034   0.545   1.924
10381SOL     OW32041   4.688   4.450   5.898
10381SOL    HW132042   4.737   4.457   5.985
10381SOL    HW232043   4.719   4.523   5.837
10382SOL     OW32044   2.118   5.277   6.979
10382SOL    HW132045   2.087   5.360   6.933
10382SOL    HW232046   2.205   5.296   0.008
10383SOL     OW32047   0.710   2.671   1.240
10383SOL    HW132048   0.736   2.621   1.323
10383SOL    HW232049   0.790   2.722   1.205
10384SOL     OW32050   6.237   0.273   0.573
10384SOL    HW132051   6.277   0.183   0.557
10384SOL    HW232052   6.139   0.269   0.554
10385SOL     OW32053   6.286   1.335   6.852
10385SOL    HW132054   6.250   1.396   6.782
10385SOL    HW232055   6.299   1.385   6.937
10386SOL     OW32056   6.400   3.061   5.477
10386SOL    HW132057   6.473   3.128   5.459
10386SOL    HW232058   6.407   2.987   5.411
10387SOL     OW32059   1.785   2.290   3.289
10387SOL    HW132060   1.813   2.316   3.196
10387SOL    HW232061   1.746   2.370   3.335
10388SOL     OW32062   1.504   5.080   2.965
10388SOL    HW132063   1.436   5.153   2.969
10388SOL    HW232064   1.460   4.991   2.975
10389SOL     OW32065   0.883   4.820   3.200
10389SOL    HW132066   0.842   4.730   3.215
10389SOL    HW232067   0.849   4.858   3.114
10390SOL     OW32068   1.152   3.324   3.719
10390SOL    HW132069   1.151   3.380   3.802
10390SOL    HW232070   1.242   3.330   3.676
10391SOL     OW32071   2.393   6.535   6.109
10391SOL    HW132072   2.453   6.455   6.107
10391SOL    HW232073   2.387   6.569   6.203
10392SOL     OW32074   6.654   5.216   0.144
10392SOL    HW132075   6.748   5.225   0.111
10392SOL    HW232076   6.653   5.219   0.244
10393SOL     OW32077   1.510   1.318   4.279
10393SOL    HW132078   1.543   1.238   4.228
10393SOL    HW232079   1.411   1.326   4.267
10394SOL     OW32080   2.572   6.671   0.034
10394SOL    HW132081   2.628   6.711   0.105
10394SOL    HW232082   2.557   6.574   0.054
10395SOL     OW32083   0.251   1.040   4.677
10395SOL    HW132084   0.252   1.058   4.579
10395SOL    HW232085   0.182   1.098   4.722
10396SOL     OW32086   1.225   6.707   4.948
10396SOL    HW132087   1.170   6.787   4.970
10396SOL    HW232088   1.243   6.706   4.849
10397SOL     OW32089   3.565   1.694   2.963
10397SOL    HW132090   3.655   1.701   2.921
10397SOL    HW232091   3.494   1.705   2.894
10398SOL     OW32092   6.458   2.738   2.464
10398SOL    HW132093   6.555   2.736   2.490
10398SOL    HW232094   6.451   2.741   2.364
10399SOL     OW32095   5.524   2.300   5.049
10399SOL    HW132096   5.468   2.342   5.120
10399SOL    HW232097   5.593   2.242   5.092
10400SOL     OW32098   2.301   5.500   1.674
10400SOL    HW132099   2.357   5.420   1.696
10400SOL    HW232100   2.351   5.583   1.699
10401SOL     OW32101   0.528   6.196   1.793
10401SOL    HW132102   0.574   6.285   1.799
10401SOL    HW232103   0.500   6.167   1.884
10402SOL     OW32104   0.448   3.311   4.058
10402SOL    HW132105   0.447   3.356   4.148
10402SOL    HW232106   0.500   3.367   3.994
10403SOL     OW32107   5.749   1.045   2.356
10403SOL    HW132108   5.809   0.964   2.356
10403SOL    HW232109   5.802   1.125   2.384
10404SOL     OW32110   0.629   6.316   3.789
10404SOL    HW132111   0.579   6.383   3.844
10404SOL    HW232112   0.725   6.316   3.816
10405SOL     OW32113   1.760   6.297   6.056
10405SOL    HW132114   1.736   6.365   5.986
10405SOL    HW232115   1.677   6.265   6.101
10406SOL     OW32116   2.152   4.560   5.951
10406SOL    HW132117   2.211   4.496   5.902
10406SOL    HW232118   2.207   4.613   6.015
10407SOL     OW32119   0.785   1.851   0.220
10407SOL    HW132120   0.849   1.774   0.218
10407SOL    HW232121   0.737   1.852   0.308
10408SOL     OW32122   4.433   5.879   2.761
10408SOL    HW132123   4.393   5.831   2.683
10408SOL    HW232124   4.508   5.825   2.800
10409SOL     OW32125   6.133   4.634   2.602
10409SOL    HW132126   6.148   4.645   2.504
10409SOL    HW232127   6.058   4.694   2.631
10410SOL     OW32128   4.951   0.350   0.786
10410SOL    HW132129   4.944   0.269   0.845
10410SOL    HW232130   4.936   0.432   0.840
10411SOL     OW32131   2.138   4.791   3.113
10411SOL    HW132132   2.232   4.758   3.114
10411SOL    HW232133   2.119   4.834   3.025
10412SOL     OW32134   0.584   2.059   0.589
10412SOL    HW132135   0.542   2.072   0.679
10412SOL    HW232136   0.513   2.057   0.519
10413SOL     OW32137   0.323   1.797   6.806
10413SOL    HW132138   0.239   1.810   6.860
10413SOL    HW232139   0.395   1.854   6.845
10414SOL     OW32140   5.946   6.632   5.593
10414SOL    HW132141   5.927   6.569   5.668
10414SOL    HW232142   5.891   6.715   5.604
10415SOL     OW32143   0.464   5.825   3.578
10415SOL    HW132144   0.464   5.891   3.654
10415SOL    HW232145   0.551   5.831   3.530
10416SOL     OW32146   5.452   1.355   5.954
10416SOL    HW132147   5.373   1.412   5.936
10416SOL    HW232148   5.429   1.284   6.021
10417SOL     OW32149   3.725   4.940   4.186
10417SOL    HW132150   3.752   4.903   4.275
10417SOL    HW232151   3.628   4.926   4.171
10418SOL     OW32152   5.882   3.748   6.608
10418SOL    HW132153   5.827   3.798   6.674
10418SOL    HW232154   5.972   3.728   6.647
10419SOL     OW32155   2.765   1.425   4.671
10419SOL    HW132156   2.790   1.411   4.767
10419SOL    HW232157   2.679   1.378   4.651
10420SOL     OW32158   6.278   3.913   2.938
10420SOL    HW132159   6.272   3.871   2.847
10420SOL    HW232160   6.372   3.911   2.971
10421SOL     OW32161   1.081   4.495   4.712
10421SOL    HW132162   0.993   4.533   4.682
10421SOL    HW232163   1.076   4.395   4.711
10422SOL     OW32164   6.403   3.710   4.963
10422SOL    HW132165   6.409   3.674   4.870
10422SOL    HW232166   6.490   3.694   5.010
10423SOL     OW32167   3.375   5.290   4.061
10423SOL    HW132168   3.304   5.360   4.058
10423SOL    HW232169   3.417   5.289   4.152
10424SOL     OW32170   3.903   1.243   0.477
10424SOL    HW132171   3.833   1.180   0.510
10424SOL    HW232172   3.894   1.331   0.525
10425SOL     OW32173   1.452   2.244   0.804
10425SOL    HW132174   1.463   2.268   0.708
10425SOL    HW232175   1.355   2.250   0.829
10426SOL     OW32176   6.228   2.142   6.231
10426SOL    HW132177   6.151   2.198   6.199
10426SOL    HW232178   6.314   2.186   6.205
10427SOL     OW32179   5.313   6.449   4.527
10427SOL    HW132180   5.362   6.399   4.456
10427SOL    HW232181   5.285   6.538   4.492
10428SOL     OW32182   2.682   0.378   3.725
10428SOL    HW132183   2.666   0.392   3.627
10428SOL    HW232184   2.598   0.345   3.768
10429SOL     OW32185   1.039   2.703   2.194
10429SOL    HW132186   1.023   2.715   2.096
10429SOL    HW232187   0.963   2.743   2.245
10430SOL     OW32188   3.362   0.084   3.527
10430SOL    HW132189   3.354   0.138   3.443
10430SOL    HW232190   3.288   0.017   3.531
10431SOL     OW32191   3.368   0.499   2.890
10431SOL    HW132192   3.381   0.456   2.980
10431SOL    HW232193   3.439   0.569   2.877
10432SOL     OW32194   1.473   5.842   6.350
10432SOL    HW132195   1.402   5.902   6.314
10432SOL    HW232196   1.562   5.887   6.342
10433SOL     OW32197   2.334   0.423   2.599
10433SOL    HW132198   2.339   0.330   2.563
10433SOL    HW232199   2.422   0.468   2.589
10434SOL     OW32200   5.300   0.313   5.516
10434SOL    HW132201   5.289   0.232   5.573
10434SOL    HW232202   5.320   0.286   5.422
10435SOL     OW32203   2.156   1.807   6.880
10435SOL    HW132204   2.173   1.787   6.784
10435SOL    HW232205   2.107   1.894   6.888
10436SOL     OW32206   6.523   3.298   5.469
10436SOL    HW132207   6.596   3.334   5.410
10436SOL    HW232208   6.478   3.374   5.516
10437SOL     OW32209   5.346   6.582   5.153
10437SOL    HW132210   5.428   6.636   5.132
10437SOL    HW232211   5.370   6.485   5.150
10438SOL     OW32212   6.322   6.338   6.757
10438SOL    HW132213   6.276   6.321   6.844
10438SOL    HW232214   6.312   6.434   6.732
10439SOL     OW32215   6.403   6.508   5.202
10439SOL    HW132216   6.356   6.435   5.153
10439SOL    HW232217   6.369   6.597   5.170
10440SOL     OW32218   6.576   2.443   0.700
10440SOL    HW132219   6.674   2.460   0.705
10440SOL    HW232220   6.529   2.525   0.669
10441SOL     OW32221   4.349   1.941   0.361
10441SOL    HW132222   4.254   1.910   0.368
10441SOL    HW232223   4.410   1.862   0.368
10442SOL     OW32224   2.007   2.216   5.726
10442SOL    HW132225   1.961   2.134   5.760
10442SOL    HW232226   2.105   2.209   5.743
10443SOL     OW32227   0.398   1.299   2.692
10443SOL    HW132228   0.345   1.273   2.611
10443SOL    HW232229   0.355   1.261   2.773
10444SOL     OW32230   3.742   5.244   4.219
10444SOL    HW132231   3.842   5.240   4.212
10444SOL    HW232232   3.707   5.152   4.234
10445SOL     OW32233   0.737   3.573   3.193
10445SOL    HW132234   0.673   3.614   3.258
10445SOL    HW232235   0.689   3.507   3.135
10446SOL     OW32236   2.020   4.374   5.641
10446SOL    HW132237   2.031   4.350   5.545
10446SOL    HW232238   2.052   4.298   5.699
10447SOL     OW32239   0.318   1.945   2.988
10447SOL    HW132240   0.381   1.966   2.913
10447SOL    HW232241   0.316   2.022   3.052
10448SOL     OW32242   2.504   6.468   2.264
10448SOL    HW132243   2.446   6.546   2.288
10448SOL    HW232244   2.461   6.416   2.190
10449SOL     OW32245   3.691   4.949   5.090
10449SOL    HW132246   3.761   4.878   5.079
10449SOL    HW232247   3.659   4.979   5.000
10450SOL     OW32248   0.139   0.849   6.056
10450SOL    HW132249   0.188   0.899   5.985
10450SOL    HW232250   0.198   0.778   6.094
10451SOL     OW32251   2.906   1.239   3.442
10451SOL    HW132252   2.992   1.212   3.399
10451SOL    HW232253   2.851   1.157   3.462
10452SOL     OW32254   6.503   3.776   4.608
10452SOL    HW132255   6.537   3.777   4.514
10452SOL    HW232256   6.418   3.829   4.613
10453SOL     OW32257   3.887   5.923   3.247
10453SOL    HW132258   3.881   5.977   3.163
10453SOL    HW232259   3.795   5.906   3.282
10454SOL     OW32260   6.568   1.144   5.894
10454SOL    HW132261   6.559   1.221   5.832
10454SOL    HW232262   6.589   1.061   5.842
10455SOL     OW32263   6.580   5.676   3.642
10455SOL    HW132264   6.646   5.751   3.642
10455SOL    HW232265   6.561   5.647   3.736
10456SOL     OW32266   1.190   5.416   6.593
10456SOL    HW132267   1.184   5.365   6.507
10456SOL    HW232268   1.280   5.459   6.600
10457SOL     OW32269   3.507   2.631   6.676
10457SOL    HW132270   3.514   2.727   6.648
10457SOL    HW232271   3.492   2.574   6.596
10458SOL     OW32272   0.406   5.814   6.867
10458SOL    HW132273   0.446   5.737   6.817
10458SOL    HW232274   0.450   5.899   6.838
10459SOL     OW32275   0.274   4.980   0.593
10459SOL    HW132276   0.342   4.908   0.576
10459SOL    HW232277   0.205   4.978   0.520
10460SOL     OW32278   0.044   1.621   1.150
10460SOL    HW132279   0.066   1.650   1.057
10460SOL    HW232280   0.028   1.522   1.151
10461SOL     OW32281   6.607   5.285   6.274
10461SOL    HW132282   6.546   5.362   6.256
10461SOL    HW232283   6.623   5.234   6.190
10462SOL     OW32284   4.698   2.213   0.553
10462SOL    HW132285   4.674   2.310   0.555
10462SOL    HW232286   4.621   2.160   0.517
10463SOL     OW32287   4.644   2.541   6.399
10463SOL    HW132288   4.635   2.555   6.498
10463SOL    HW232289   4.709   2.467   6.381
10464SOL     OW32290   6.752   4.874   2.241
10464SOL    HW132291   6.680   4.925   2.289
10464SOL    HW232292   6.829   4.859   2.303
10465SOL     OW32293   5.488   4.144   1.340
10465SOL    HW132294   5.430   4.080   1.391
10465SOL    HW232295   5.517   4.101   1.255
10466SOL     OW32296   6.206   4.814   6.490
10466SOL    HW132297   6.158   4.747   6.546
10466SOL    HW232298   6.201   4.788   6.394
10467SOL     OW32299   0.735   3.268   0.580
10467SOL    HW132300   0.689   3.351   0.612
10467SOL    HW232301   0.769   3.283   0.487
10468SOL     OW32302   2.196   4.647   4.065
10468SOL    HW132303   2.158   4.727   4.112
10468SOL    HW232304   2.251   4.678   3.987
10469SOL     OW32305   0.306   1.342   4.183
10469SOL    HW132306   0.344   1.410   4.246
10469SOL    HW232307   0.240   1.385   4.122
10470SOL     OW32308   1.816   2.576   3.006
10470SOL    HW132309   1.890   2.622   3.056
10470SOL    HW232310   1.770   2.643   2.948
10471SOL     OW32311   2.944   6.760   6.920
10471SOL    HW132312   2.887   6.680   6.900
10471SOL    HW232313   3.033   6.729   6.956
10472SOL     OW32314   3.878   4.781   6.643
10472SOL    HW132315   3.789   4.737   6.653
10472SOL    HW232316   3.932   4.732   6.574
10473SOL     OW32317   5.429   5.184   0.642
10473SOL    HW132318   5.524   5.205   0.620
10473SOL    HW232319   5.418   5.084   0.649
10474SOL     OW32320   5.570   0.955   4.598
10474SOL    HW132321   5.479   0.926   4.626
10474SOL    HW232322   5.568   0.983   4.502
10475SOL     OW32323   1.514   6.322   1.053
10475SOL    HW132324   1.428   6.346   1.007
10475SOL    HW232325   1.497   6.303   1.149
10476SOL     OW32326   4.625   5.509   0.225
10476SOL    HW132327   4.539   5.465   0.199
10476SOL    HW232328   4.633   5.510   0.325
10477SOL     OW32329   6.726   5.167   4.049
10477SOL    HW132330   6.797   5.167   3.978
10477SOL    HW232331   6.647   5.219   4.017
10478SOL     OW32332   5.848   1.334   6.935
10478SOL    HW132333   5.875   1.429   6.948
10478SOL    HW232334   5.886   1.278   7.009
10479SOL     OW32335   1.242   2.339   2.195
10479SOL    HW132336   1.171   2.270   2.207
10479SOL    HW232337   1.328   2.306   2.235
10480SOL     OW32338   2.129   0.361   2.192
10480SOL    HW132339   2.139   0.437   2.129
10480SOL    HW232340   2.122   0.396   2.286
10481SOL     OW32341   6.715   1.152   2.110
10481SOL    HW132342   6.757   1.229   2.159
10481SOL    HW232343   6.616   1.165   2.106
10482SOL     OW32344   4.852   3.805   4.587
10482SOL    HW132345   4.840   3.811   4.686
10482SOL    HW232346   4.866   3.709   4.561
10483SOL     OW32347   6.139   6.749   0.414
10483SOL    HW132348   6.102   6.712   0.328
10483SOL    HW232349   6.082   6.721   0.490
10484SOL     OW32350   6.379   1.255   2.545
10484SOL    HW132351   6.355   1.160   2.563
10484SOL    HW232352   6.479   1.263   2.536
10485SOL     OW32353   6.237   3.815   5.586
10485SOL    HW132354   6.149   3.827   5.632
10485SOL    HW232355   6.311   3.823   5.653
10486SOL     OW32356   5.248   2.856   1.722
10486SOL    HW132357   5.176   2.869   1.790
10486SOL    HW232358   5.209   2.861   1.630
10487SOL     OW32359   5.899   6.779   1.636
10487SOL    HW132360   5.922   6.851   1.702
10487SOL    HW232361   5.956   6.699   1.653
10488SOL     OW32362   2.546   2.505   6.353
10488SOL    HW132363   2.514   2.600   6.345
10488SOL    HW232364   2.537   2.475   6.448
10489SOL     OW32365   0.859   5.906   6.373
10489SOL    HW132366   0.789   5.916   6.444
10489SOL    HW232367   0.826   5.949   6.289
10490SOL     OW32368   6.821   0.894   3.820
10490SOL    HW132369   6.896   0.934   3.767
10490SOL    HW232370   6.849   0.884   3.915
10491SOL     OW32371   1.606   3.976   5.903
10491SOL    HW132372   1.572   4.065   5.932
10491SOL    HW232373   1.553   3.944   5.825
10492SOL     OW32374   4.663   3.118   5.493
10492SOL    HW132375   4.584   3.107   5.432
10492SOL    HW232376   4.740   3.152   5.440
10493SOL     OW32377   2.714   1.082   1.847
10493SOL    HW132378   2.773   1.116   1.921
10493SOL    HW232379   2.768   1.070   1.764
10494SOL     OW32380   6.041   2.583   4.396
10494SOL    HW132381   6.125   2.622   4.358
10494SOL    HW232382   6.061   2.494   4.438
10495SOL     OW32383   1.159   0.023   0.378
10495SOL    HW132384   1.226   0.091   0.346
10495SOL    HW232385   1.089   0.011   0.308
10496SOL     OW32386   7.004   0.012   5.430
10496SOL    HW132387   6.929   6.963   5.426
10496SOL    HW232388   6.989   0.076   5.505
10497SOL     OW32389   1.499   1.036   1.188
10497SOL    HW132390   1.461   1.101   1.254
10497SOL    HW232391   1.462   0.945   1.206
10498SOL     OW32392   2.460   5.796   6.157
10498SOL    HW132393   2.509   5.881   6.138
10498SOL    HW232394   2.423   5.760   6.071
10499SOL     OW32395   3.293   5.802   3.090
10499SOL    HW132396   3.198   5.816   3.116
10499SOL    HW232397   3.300   5.721   3.031
10500SOL     OW32398   1.072   2.178   6.261
10500SOL    HW132399   1.030   2.156   6.349
10500SOL    HW232400   1.094   2.094   6.212
10501SOL     OW32401   1.246   3.166   2.777
10501SOL    HW132402   1.149   3.183   2.798
10501SOL    HW232403   1.255   3.076   2.734
10502SOL     OW32404   3.100   5.829   6.555
10502SOL    HW132405   3.199   5.840   6.545
10502SOL    HW232406   3.077   5.733   6.542
10503SOL     OW32407   2.906   3.343   6.543
10503SOL    HW132408   2.883   3.343   6.641
10503SOL    HW232409   2.976   3.412   6.525
10504SOL     OW32410   2.897   2.969   0.951
10504SOL    HW132411   2.825   2.909   0.987
10504SOL    HW232412   2.880   2.989   0.855
10505SOL     OW32413   6.825   6.166   1.778
10505SOL    HW132414   6.917   6.181   1.813
10505SOL    HW232415   6.799   6.242   1.718
10506SOL     OW32416   0.289   4.116   5.681
10506SOL    HW132417   0.302   4.099   5.583
10506SOL    HW232418   0.191   4.121   5.701
10507SOL     OW32419   1.096   0.232   5.883
10507SOL    HW132420   1.134   0.173   5.954
10507SOL    HW232421   1.169   0.264   5.823
10508SOL     OW32422   5.260   3.999   3.129
10508SOL    HW132423   5.314   3.925   3.089
10508SOL    HW232424   5.171   3.964   3.157
10509SOL     OW32425   1.078   0.428   6.375
10509SOL    HW132426   1.173   0.401   6.358
10509SOL    HW232427   1.017   0.368   6.324
10510SOL     OW32428   6.745   5.849   7.009
10510SOL    HW132429   6.719   5.944   0.007
10510SOL    HW232430   6.674   5.803   6.956
10511SOL     OW32431   4.398   2.815   0.650
10511SOL    HW132432   4.352   2.827   0.738
10511SOL    HW232433   4.344   2.754   0.592
10512SOL     OW32434   3.789   6.663   6.293
10512SOL    HW132435   3.855   6.666   6.218
10512SOL    HW232436   3.809   6.735   6.359
10513SOL     OW32437   0.402   2.264   0.069
10513SOL    HW132438   0.340   2.336   0.102
10513SOL    HW232439   0.495   2.285   0.098
10514SOL     OW32440   0.490   5.048   0.965
10514SOL    HW132441   0.526   5.001   1.046
10514SOL    HW232442   0.410   4.998   0.932
10515SOL     OW32443   6.972   2.180   3.718
10515SOL    HW132444   6.974   2.235   3.801
10515SOL    HW232445   0.023   2.107   3.724
10516SOL     OW32446   3.974   0.509   5.855
10516SOL    HW132447   3.892   0.562   5.874
10516SOL    HW232448   4.049   0.541   5.913
10517SOL     OW32449   6.984   2.140   2.842
10517SOL    HW132450   6.989   2.049   2.882
10517SOL    HW232451   6.923   2.197   2.898
10518SOL     OW32452   0.942   6.442   1.289
10518SOL    HW132453   0.844   6.462   1.302
10518SOL    HW232454   0.976   6.389   1.366
10519SOL     OW32455   2.812   3.509   5.301
10519SOL    HW132456   2.803   3.416   5.335
10519SOL    HW232457   2.734   3.564   5.330
10520SOL     OW32458   4.654   2.292   6.995
10520SOL    HW132459   4.598   2.223   6.950
10520SOL    HW232460   4.599   2.340   0.046
10521SOL     OW32461   6.553   5.918   1.241
10521SOL    HW132462   6.573   5.910   1.143
10521SOL    HW232463   6.608   5.991   1.281
10522SOL     OW32464   6.386   0.966   2.086
10522SOL    HW132465   6.358   1.060   2.105
10522SOL    HW232466   6.305   0.907   2.083
10523SOL     OW32467   6.817   5.698   6.326
10523SOL    HW132468   6.728   5.685   6.370
10523SOL    HW232469   6.835   5.796   6.317
10524SOL     OW32470   2.926   0.791   3.651
10524SOL    HW132471   2.936   0.724   3.724
10524SOL    HW232472   2.992   0.865   3.664
10525SOL     OW32473   2.385   5.869   4.710
10525SOL    HW132474   2.328   5.787   4.717
10525SOL    HW232475   2.432   5.885   4.797
10526SOL     OW32476   6.745   0.476   2.568
10526SOL    HW132477   6.757   0.403   2.501
10526SOL    HW232478   6.699   0.553   2.525
10527SOL     OW32479   1.170   2.620   4.168
10527SOL    HW132480   1.238   2.547   4.176
10527SOL    HW232481   1.089   2.585   4.120
10528SOL     OW32482   0.479   5.164   4.690
10528SOL    HW132483   0.550   5.205   4.746
10528SOL    HW232484   0.463   5.069   4.719
10529SOL     OW32485   6.953   6.980   3.764
10529SOL    HW132486   6.887   6.918   3.723
10529SOL    HW232487   7.008   6.931   3.832
10530SOL     OW32488   2.532   1.903   6.073
10530SOL    HW132489   2.533   1.898   6.173
10530SOL    HW232490   2.618   1.868   6.037
10531SOL     OW32491   1.775   2.837   5.118
10531SOL    HW132492   1.797   2.744   5.149
10531SOL    HW232493   1.800   2.903   5.190
10532SOL     OW32494   3.987   2.291   5.595
10532SOL    HW132495   4.064   2.344   5.561
10532SOL    HW232496   3.966   2.320   5.689
10533SOL     OW32497   2.464   1.220   5.565
10533SOL    HW132498   2.529   1.257   5.499
10533SOL    HW232499   2.443   1.125   5.542
10534SOL     OW32500   6.934   5.728   0.888
10534SOL    HW132501   7.004   5.660   0.908
10534SOL    HW232502   6.900   5.715   0.795
10535SOL     OW32503   0.304   1.120   1.929
10535SOL    HW132504   0.310   1.094   1.833
10535SOL    HW232505   0.243   1.199   1.938
10536SOL     OW32506   4.677   0.232   2.779
10536SOL    HW132507   4.588   0.188   2.795
10536SOL    HW232508   4.671   0.329   2.798
10537SOL     OW32509   1.343   5.080   2.321
10537SOL    HW132510   1.376   5.148   2.256
10537SOL    HW232511   1.379   4.990   2.296
10538SOL     OW32512   4.392   3.679   0.720
10538SOL    HW132513   4.412   3.583   0.699
10538SOL    HW232514   4.307   3.706   0.675
10539SOL     OW32515   0.495   3.995   6.084
10539SOL    HW132516   0.512   4.093   6.090
10539SOL    HW232517   0.401   3.979   6.053
10540SOL     OW32518   1.967   0.401   6.290
10540SOL    HW132519   2.008   0.328   6.235
10540SOL    HW232520   2.034   0.436   6.355
10541SOL     OW32521   3.444   3.239   0.145
10541SOL    HW132522   3.510   3.275   0.080
10541SOL    HW232523   3.445   3.295   0.228
10542SOL     OW32524   0.070   2.559   0.334
10542SOL    HW132525   6.992   2.561   0.305
10542SOL    HW232526   0.124   2.505   0.269
10543SOL     OW32527   1.175   0.978   5.597
10543SOL    HW132528   1.169   1.071   5.634
10543SOL    HW232529   1.083   0.941   5.585
10544SOL     OW32530   1.573   2.464   2.016
10544SOL    HW132531   1.578   2.562   2.035
10544SOL    HW232532   1.569   2.450   1.917
10545SOL     OW32533   6.470   0.594   2.472
10545SOL    HW132534   6.443   0.498   2.481
10545SOL    HW232535   6.477   0.634   2.563
10546SOL     OW32536   2.863   0.586   3.928
10546SOL    HW132537   2.792   0.565   3.861
10546SOL    HW232538   2.843   0.674   3.971
10547SOL     OW32539   4.401   1.442   1.364
10547SOL    HW132540   4.371   1.349   1.389
10547SOL    HW232541   4.328   1.487   1.312
10548SOL     OW32542   4.999   4.273   5.023
10548SOL    HW132543   4.945   4.201   5.067
10548SOL    HW232544   5.047   4.236   4.944
10549SOL     OW32545   1.224   1.150   1.601
10549SOL    HW132546   1.146   1.118   1.548
10549SOL    HW232547   1.193   1.197   1.683
10550SOL     OW32548   4.850   6.763   4.096
10550SOL    HW132549   4.909   6.756   4.015
10550SOL    HW232550   4.901   6.807   4.170
10551SOL     OW32551   1.020   2.793   6.220
10551SOL    HW132552   1.050   2.808   6.314
10551SOL    HW232553   1.025   2.696   6.198
10552SOL     OW32554   3.330   2.121   5.253
10552SOL    HW132555   3.250   2.062   5.247
10552SOL    HW232556   3.304   2.214   5.226
10553SOL     OW32557   1.420   4.895   6.988
10553SOL    HW132558   1.424   4.959   6.911
10553SOL    HW232559   1.351   4.825   6.971
10554SOL     OW32560   0.052   4.663   6.714
10554SOL    HW132561   0.027   4.589   6.777
10554SOL    HW232562   7.011   4.660   6.634
10555SOL     OW32563   3.480   1.559   1.783
10555SOL    HW132564   3.426   1.638   1.751
10555SOL    HW232565   3.493   1.495   1.707
10556SOL     OW32566   2.034   3.367   5.027
10556SOL    HW132567   2.077   3.396   4.941
10556SOL    HW232568   2.084   3.406   5.104
10557SOL     OW32569   6.962   2.836   3.470
10557SOL    HW132570   6.923   2.912   3.418
10557SOL    HW232571   6.889   2.779   3.507
10558SOL     OW32572   4.825   6.048   5.542
10558SOL    HW132573   4.726   6.037   5.549
10558SOL    HW232574   4.870   5.963   5.571
10559SOL     OW32575   4.327   1.942   0.703
10559SOL    HW132576   4.389   1.983   0.770
10559SOL    HW232577   4.269   2.012   0.662
10560SOL     OW32578   1.153   3.206   4.199
10560SOL    HW132579   1.056   3.203   4.224
10560SOL    HW232580   1.166   3.165   4.109
10561SOL     OW32581   2.456   4.118   6.848
10561SOL    HW132582   2.497   4.080   6.931
10561SOL    HW232583   2.363   4.083   6.839
10562SOL     OW32584   4.241   1.288   0.616
10562SOL    HW132585   4.329   1.245   0.600
10562SOL    HW232586   4.178   1.263   0.542
10563SOL     OW32587   1.385   1.834   5.557
10563SOL    HW132588   1.373   1.901   5.631
10563SOL    HW232589   1.311   1.767   5.560
10564SOL     OW32590   6.258   2.284   1.863
10564SOL    HW132591   6.339   2.225   1.876
10564SOL    HW232592   6.177   2.226   1.852
10565SOL     OW32593   5.770   1.772   4.872
10565SOL    HW132594   5.793   1.675   4.884
10565SOL    HW232595   5.852   1.827   4.885
10566SOL     OW32596   3.507   3.975   6.406
10566SOL    HW132597   3.590   3.918   6.405
10566SOL    HW232598   3.530   4.066   6.440
10567SOL     OW32599   1.811   3.789   3.935
10567SOL    HW132600   1.721   3.784   3.892
10567SOL    HW232601   1.808   3.854   4.011
10568SOL     OW32602   4.609   0.757   3.109
10568SOL    HW132603   4.564   0.773   3.196
10568SOL    HW232604   4.559   0.805   3.036
10569SOL     OW32605   5.490   3.256   4.682
10569SOL    HW132606   5.582   3.293   4.701
10569SOL    HW232607   5.499   3.165   4.642
10570SOL     OW32608   1.614   5.181   2.737
10570SOL    HW132609   1.587   5.125   2.815
10570SOL    HW232610   1.596   5.131   2.652
10571SOL     OW32611   6.439   6.501   2.938
10571SOL    HW132612   6.382   6.570   2.982
10571SOL    HW232613   6.498   6.458   3.007
10572SOL     OW32614   5.837   3.679   1.860
10572SOL    HW132615   5.761   3.620   1.832
10572SOL    HW232616   5.839   3.760   1.802
10573SOL     OW32617   5.788   5.348   4.780
10573SOL    HW132618   5.752   5.433   4.741
10573SOL    HW232619   5.882   5.363   4.811
10574SOL     OW32620   0.438   1.773   3.420
10574SOL    HW132621   0.353   1.785   3.369
10574SOL    HW232622   0.504   1.842   3.392
10575SOL     OW32623   1.170   0.041   5.357
10575SOL    HW132624   1.084   0.013   5.398
10575SOL    HW232625   1.154   0.074   5.264
10576SOL     OW32626   1.854   5.484   3.696
10576SOL    HW132627   1.805   5.461   3.612
10576SOL    HW232628   1.819   5.429   3.771
10577SOL     OW32629   1.634   2.764   5.881
10577SOL    HW132630   1.632   2.801   5.788
10577SOL    HW232631   1.729   2.757   5.913
10578SOL     OW32632   6.198   0.276   5.908
10578SOL    HW132633   6.147   0.196   5.942
10578SOL    HW232634   6.140   0.357   5.911
10579SOL     OW32635   4.605   1.732   0.965
10579SOL    HW132636   4.585   1.811   0.906
10579SOL    HW232637   4.523   1.676   0.975
10580SOL     OW32638   6.485   6.051   0.094
10580SOL    HW132639   6.396   6.042   0.047
10580SOL    HW232640   6.471   6.047   0.193
10581SOL     OW32641   5.437   0.602   3.751
10581SOL    HW132642   5.508   0.577   3.685
10581SOL    HW232643   5.454   0.554   3.838
10582SOL     OW32644   3.814   4.999   6.475
10582SOL    HW132645   3.848   4.927   6.536
10582SOL    HW232646   3.797   4.960   6.384
10583SOL     OW32647   4.185   1.379   0.296
10583SOL    HW132648   4.110   1.378   0.230
10583SOL    HW232649   4.169   1.452   0.363
10584SOL     OW32650   5.691   6.753   1.286
10584SOL    HW132651   5.762   6.815   1.251
10584SOL    HW232652   5.613   6.755   1.224
10585SOL     OW32653   0.867   3.156   6.475
10585SOL    HW132654   0.958   3.143   6.435
10585SOL    HW232655   0.829   3.066   6.499
10586SOL     OW32656   3.008   6.225   6.323
10586SOL    HW132657   3.090   6.282   6.327
10586SOL    HW232658   2.987   6.190   6.414
10587SOL     OW32659   6.087   4.233   0.843
10587SOL    HW132660   6.153   4.242   0.917
10587SOL    HW232661   6.033   4.317   0.836
10588SOL     OW32662   0.602   5.724   3.171
10588SOL    HW132663   0.617   5.737   3.073
10588SOL    HW232664   0.605   5.813   3.217
10589SOL     OW32665   6.026   1.826   3.960
10589SOL    HW132666   5.995   1.789   3.872
10589SOL    HW232667   5.990   1.918   3.972
10590SOL     OW32668   1.205   0.241   3.109
10590SOL    HW132669   1.136   0.256   3.038
10590SOL    HW232670   1.286   0.198   3.068
10591SOL     OW32671   1.023   2.111   0.487
10591SOL    HW132672   1.033   2.019   0.526
10591SOL    HW232673   0.984   2.104   0.395
10592SOL     OW32674   6.219   1.314   0.345
10592SOL    HW132675   6.197   1.361   0.430
10592SOL    HW232676   6.154   1.239   0.331
10593SOL     OW32677   2.259   5.414   1.109
10593SOL    HW132678   2.170   5.368   1.104
10593SOL    HW232679   2.316   5.384   1.033
10594SOL     OW32680   0.119   1.992   4.031
10594SOL    HW132681   0.059   2.065   4.064
10594SOL    HW232682   0.206   1.995   4.080
10595SOL     OW32683   3.521   6.346   6.634
10595SOL    HW132684   3.432   6.386   6.656
10595SOL    HW232685   3.510   6.278   6.561
10596SOL     OW32686   3.741   0.539   2.178
10596SOL    HW132687   3.797   0.590   2.113
10596SOL    HW232688   3.792   0.525   2.262
10597SOL     OW32689   1.744   0.869   5.004
10597SOL    HW132690   1.736   0.790   5.065
10597SOL    HW232691   1.827   0.859   4.948
10598SOL     OW32692   1.998   2.016   6.893
10598SOL    HW132693   2.005   2.031   6.794
10598SOL    HW232694   2.032   2.097   6.941
10599SOL     OW32695   5.923   1.608   6.994
10599SOL    HW132696   5.831   1.638   0.004
10599SOL    HW232697   5.979   1.594   0.058
10600SOL     OW32698   2.499   3.209   6.151
10600SOL    HW132699   2.525   3.167   6.238
10600SOL    HW232700   2.426   3.276   6.167
10601SOL     OW32701   3.224   6.224   6.515
10601SOL    HW132702   3.214   6.125   6.509
10601SOL    HW232703   3.311   6.251   6.473
10602SOL     OW32704   4.619   1.280   1.913
10602SOL    HW132705   4.681   1.356   1.932
10602SOL    HW232706   4.528   1.301   1.950
10603SOL     OW32707   1.372   5.673   4.349
10603SOL    HW132708   1.446   5.616   4.313
10603SOL    HW232709   1.295   5.670   4.286
10604SOL     OW32710   6.620   4.793   4.519
10604SOL    HW132711   6.686   4.730   4.478
10604SOL    HW232712   6.563   4.743   4.584
10605SOL     OW32713   1.453   5.143   6.767
10605SOL    HW132714   1.537   5.197   6.776
10605SOL    HW232715   1.454   5.093   6.681
10606SOL     OW32716   0.849   0.693   1.901
10606SOL    HW132717   0.759   0.729   1.878
10606SOL    HW232718   0.851   0.594   1.884
10607SOL     OW32719   5.758   5.068   6.969
10607SOL    HW132720   5.709   5.052   6.883
10607SOL    HW232721   5.731   5.157   7.006
10608SOL     OW32722   6.515   1.467   4.104
10608SOL    HW132723   6.427   1.507   4.131
10608SOL    HW232724   6.499   1.388   4.045
10609SOL     OW32725   4.034   6.569   1.108
10609SOL    HW132726   3.986   6.657   1.110
10609SOL    HW232727   4.133   6.585   1.109
10610SOL     OW32728   1.407   3.248   5.653
10610SOL    HW132729   1.456   3.219   5.735
10610SOL    HW232730   1.460   3.318   5.606
10611SOL     OW32731   5.732   2.830   5.781
10611SOL    HW132732   5.717   2.794   5.689
10611SOL    HW232733   5.826   2.864   5.788
10612SOL     OW32734   1.705   0.142   0.124
10612SOL    HW132735   1.681   0.216   0.187
10612SOL    HW232736   1.627   0.081   0.112
10613SOL     OW32737   0.550   6.261   5.596
10613SOL    HW132738   0.555   6.359   5.614
10613SOL    HW232739   0.517   6.246   5.503
10614SOL     OW32740   6.484   0.940   4.396
10614SOL    HW132741   6.386   0.920   4.391
10614SOL    HW232742   6.507   1.012   4.330
10615SOL     OW32743   5.063   5.581   5.416
10615SOL    HW132744   5.107   5.615   5.499
10615SOL    HW232745   5.115   5.503   5.382
10616SOL     OW32746   2.724   5.706   6.776
10616SOL    HW132747   2.728   5.622   6.830
10616SOL    HW232748   2.658   5.769   6.817
10617SOL     OW32749   1.359   2.048   0.009
10617SOL    HW132750   1.441   2.085   6.983
10617SOL    HW232751   1.326   1.970   6.974
10618SOL     OW32752   6.021   3.031   0.081
10618SOL    HW132753   5.939   3.080   0.048
10618SOL    HW232754   6.052   2.968   0.010
10619SOL     OW32755   0.764   4.298   4.270
10619SOL    HW132756   0.768   4.269   4.175
10619SOL    HW232757   0.787   4.220   4.329
10620SOL     OW32758   1.581   5.837   4.840
10620SOL    HW132759   1.605   5.740   4.847
10620SOL    HW232760   1.588   5.866   4.744
10621SOL     OW32761   2.118   6.502   0.535
10621SOL    HW132762   2.157   6.511   0.627
10621SOL    HW232763   2.020   6.521   0.539
10622SOL     OW32764   3.712   0.931   1.448
10622SOL    HW132765   3.673   0.991   1.518
10622SOL    HW232766   3.680   0.837   1.464
10623SOL     OW32767   6.151   1.879   3.553
10623SOL    HW132768   6.109   1.896   3.464
10623SOL    HW232769   6.084   1.839   3.615
10624SOL     OW32770   1.911   0.546   4.344
10624SOL    HW132771   1.848   0.503   4.280
10624SOL    HW232772   1.866   0.622   4.390
10625SOL     OW32773   0.346   3.567   0.601
10625SOL    HW132774   0.325   3.538   0.507
10625SOL    HW232775   0.335   3.488   0.662
10626SOL     OW32776   0.519   2.610   1.587
10626SOL    HW132777   0.533   2.528   1.642
10626SOL    HW232778   0.576   2.684   1.624
10627SOL     OW32779   6.221   6.177   3.741
10627SOL    HW132780   6.139   6.228   3.767
10627SOL    HW232781   6.197   6.082   3.723
10628SOL     OW32782   5.833   5.638   5.751
10628SOL    HW132783   5.827   5.711   5.682
10628SOL    HW232784   5.919   5.587   5.739
10629SOL     OW32785   2.269   5.617   5.955
10629SOL    HW132786   2.194   5.682   5.964
10629SOL    HW232787   2.275   5.585   5.861
10630SOL     OW32788   6.596   1.902   3.479
10630SOL    HW132789   6.603   1.809   3.445
10630SOL    HW232790   6.676   1.923   3.536
10631SOL     OW32791   0.753   6.795   3.793
10631SOL    HW132792   0.819   6.720   3.790
10631SOL    HW232793   0.739   6.825   3.887
10632SOL     OW32794   0.272   2.072   5.108
10632SOL    HW132795   0.276   2.120   5.020
10632SOL    HW232796   0.324   1.987   5.102
10633SOL     OW32797   1.550   5.464   1.787
10633SOL    HW132798   1.608   5.382   1.782
10633SOL    HW232799   1.557   5.516   1.702
10634SOL     OW32800   3.352   6.429   1.257
10634SOL    HW132801   3.351   6.491   1.335
10634SOL    HW232802   3.388   6.340   1.285
10635SOL     OW32803   2.286   0.707   1.303
10635SOL    HW132804   2.314   0.801   1.286
10635SOL    HW232805   2.360   0.645   1.278
10636SOL     OW32806   0.919   2.298   1.673
10636SOL    HW132807   0.933   2.206   1.638
10636SOL    HW232808   0.823   2.324   1.662
10637SOL     OW32809   3.362   4.075   4.966
10637SOL    HW132810   3.289   4.141   4.986
10637SOL    HW232811   3.393   4.087   4.872
10638SOL     OW32812   0.456   6.592   5.657
10638SOL    HW132813   0.435   6.517   5.719
10638SOL    HW232814   0.444   6.679   5.706
10639SOL     OW32815   2.308   0.511   4.579
10639SOL    HW132816   2.397   0.496   4.537
10639SOL    HW232817   2.257   0.580   4.527
10640SOL     OW32818   4.227   0.595   7.002
10640SOL    HW132819   4.161   0.538   0.034
10640SOL    HW232820   4.216   0.582   6.904
10641SOL     OW32821   5.734   2.045   6.952
10641SOL    HW132822   5.664   1.979   6.978
10641SOL    HW232823   5.718   2.077   6.859
10642SOL     OW32824   0.147   3.216   1.770
10642SOL    HW132825   0.077   3.260   1.714
10642SOL    HW232826   0.163   3.272   1.852
10643SOL     OW32827   2.600   2.660   5.658
10643SOL    HW132828   2.651   2.708   5.586
10643SOL    HW232829   2.645   2.574   5.679
10644SOL     OW32830   4.483   1.498   4.247
10644SOL    HW132831   4.565   1.538   4.204
10644SOL    HW232832   4.489   1.398   4.242
10645SOL     OW32833   2.828   0.785   4.933
10645SOL    HW132834   2.834   0.795   4.834
10645SOL    HW232835   2.735   0.806   4.963
10646SOL     OW32836   1.056   3.685   6.588
10646SOL    HW132837   0.993   3.714   6.515
10646SOL    HW232838   1.076   3.762   6.647
10647SOL     OW32839   0.286   5.166   0.785
10647SOL    HW132840   0.205   5.147   0.841
10647SOL    HW232841   0.295   5.096   0.714
10648SOL     OW32842   4.804   3.020   6.796
10648SOL    HW132843   4.843   3.108   6.769
10648SOL    HW232844   4.746   3.032   6.876
10649SOL     OW32845   7.007   5.425   5.945
10649SOL    HW132846   0.084   5.453   5.928
10649SOL    HW232847   6.979   5.358   5.876
10650SOL     OW32848   3.159   6.578   3.846
10650SOL    HW132849   3.100   6.551   3.770
10650SOL    HW232850   3.224   6.647   3.815
10651SOL     OW32851   4.374   6.309   6.354
10651SOL    HW132852   4.290   6.344   6.395
10651SOL    HW232853   4.450   6.369   6.379
10652SOL     OW32854   3.332   0.773   6.191
10652SOL    HW132855   3.399   0.807   6.125
10652SOL    HW232856   3.361   0.799   6.284
10653SOL     OW32857   5.083   3.783   4.303
10653SOL    HW132858   5.134   3.736   4.231
10653SOL    HW232859   5.147   3.818   4.372
10654SOL     OW32860   4.215   0.670   0.450
10654SOL    HW132861   4.289   0.704   0.508
10654SOL    HW232862   4.158   0.746   0.419
10655SOL     OW32863   2.575   6.104   1.309
10655SOL    HW132864   2.629   6.021   1.297
10655SOL    HW232865   2.624   6.167   1.370
10656SOL     OW32866   6.980   2.669   6.421
10656SOL    HW132867   6.976   2.591   6.483
10656SOL    HW232868   6.942   2.749   6.466
10657SOL     OW32869   6.331   0.706   1.321
10657SOL    HW132870   6.337   0.611   1.352
10657SOL    HW232871   6.246   0.720   1.272
10658SOL     OW32872   6.923   5.645   5.030
10658SOL    HW132873   6.911   5.682   5.122
10658SOL    HW232874   0.004   5.634   5.012
10659SOL     OW32875   5.858   0.902   0.455
10659SOL    HW132876   5.813   0.827   0.502
10659SOL    HW232877   5.802   0.931   0.377
10660SOL     OW32878   4.469   5.117   5.485
10660SOL    HW132879   4.375   5.117   5.452
10660SOL    HW232880   4.523   5.183   5.434
10661SOL     OW32881   0.439   6.837   2.851
10661SOL    HW132882   0.445   6.823   2.752
10661SOL    HW232883   0.345   6.824   2.881
10662SOL     OW32884   5.719   1.351   0.503
10662SOL    HW132885   5.749   1.433   0.552
10662SOL    HW232886   5.756   1.270   0.547
10663SOL     OW32887   0.155   0.293   0.153
10663SOL    HW132888   0.064   0.328   0.172
10663SOL    HW232889   0.189   0.242   0.232
10664SOL     OW32890   2.016   5.041   0.127
10664SOL    HW132891   2.052   5.126   0.088
10664SOL    HW232892   2.048   5.032   0.222
10665SOL     OW32893   6.850   1.150   0.992
10665SOL    HW132894   6.765   1.185   0.951
10665SOL    HW232895   6.872   1.203   1.073
10666SOL     OW32896   1.450   0.028   0.124
10666SOL    HW132897   1.407   0.066   0.042
10666SOL    HW232898   1.435   6.947   0.127
10667SOL     OW32899   3.774   1.741   5.225
10667SOL    HW132900   3.739   1.793   5.147
10667SOL    HW232901   3.870   1.718   5.209
10668SOL     OW32902   2.057   0.950   5.736
10668SOL    HW132903   2.031   0.910   5.824
10668SOL    HW232904   2.057   1.049   5.742
10669SOL     OW32905   1.006   6.790   6.709
10669SOL    HW132906   0.949   6.872   6.714
10669SOL    HW232907   1.067   6.797   6.630
10670SOL     OW32908   6.284   4.684   5.907
10670SOL    HW132909   6.254   4.776   5.933
10670SOL    HW232910   6.274   4.672   5.808
10671SOL     OW32911   2.068   1.121   3.432
10671SOL    HW132912   2.047   1.183   3.357
10671SOL    HW232913   2.120   1.169   3.502
10672SOL     OW32914   0.318   3.362   0.795
10672SOL    HW132915   0.366   3.347   0.881
10672SOL    HW232916   0.222   3.334   0.805
10673SOL     OW32917   2.793   3.219   5.336
10673SOL    HW132918   2.724   3.150   5.312
10673SOL    HW232919   2.884   3.177   5.329
10674SOL     OW32920   3.737   1.949   1.950
10674SOL    HW132921   3.746   1.920   2.045
10674SOL    HW232922   3.715   2.046   1.946
10675SOL     OW32923   0.557   0.760   5.614
10675SOL    HW132924   0.502   0.843   5.627
10675SOL    HW232925   0.502   0.680   5.633
10676SOL     OW32926   6.862   6.922   6.405
10676SOL    HW132927   6.895   7.003   6.454
10676SOL    HW232928   6.838   6.851   6.471
10677SOL     OW32929   0.258   0.263   0.901
10677SOL    HW132930   0.203   0.335   0.943
10677SOL    HW232931   0.352   0.270   0.933
10678SOL     OW32932   2.337   6.546   3.283
10678SOL    HW132933   2.312   6.485   3.207
10678SOL    HW232934   2.436   6.541   3.298
10679SOL     OW32935   5.456   5.019   4.553
10679SOL    HW132936   5.509   5.066   4.623
10679SOL    HW232937   5.455   5.073   4.469
10680SOL     OW32938   1.529   2.088   3.579
10680SOL    HW132939   1.471   2.007   3.573
10680SOL    HW232940   1.617   2.070   3.535
10681SOL     OW32941   0.217   1.155   5.923
10681SOL    HW132942   0.224   1.097   5.842
10681SOL    HW232943   0.304   1.200   5.940
10682SOL     OW32944   6.815   1.796   2.825
10682SOL    HW132945   6.842   1.791   2.921
10682SOL    HW232946   6.735   1.856   2.817
10683SOL     OW32947   2.111   1.998   4.664
10683SOL    HW132948   2.080   1.997   4.569
10683SOL    HW232949   2.033   1.981   4.724
10684SOL     OW32950   5.845   5.447   0.519
10684SOL    HW132951   5.912   5.453   0.593
10684SOL    HW232952   5.766   5.504   0.542
10685SOL     OW32953   6.982   2.572   2.702
10685SOL    HW132954   6.957   2.652   2.757
10685SOL    HW232955   0.036   2.597   2.638
10686SOL     OW32956   3.616   4.988   0.422
10686SOL    HW132957   3.634   5.086   0.414
10686SOL    HW232958   3.675   4.938   0.359
10687SOL     OW32959   0.460   4.875   2.429
10687SOL    HW132960   0.468   4.961   2.478
10687SOL    HW232961   0.484   4.889   2.333
10688SOL     OW32962   6.494   5.324   1.976
10688SOL    HW132963   6.585   5.299   1.942
10688SOL    HW232964   6.451   5.388   1.912
10689SOL     OW32965   0.225   0.920   2.089
10689SOL    HW132966   0.169   0.960   2.161
10689SOL    HW232967   0.251   0.992   2.024
10690SOL     OW32968   4.438   5.229   1.881
10690SOL    HW132969   4.344   5.199   1.896
10690SOL    HW232970   4.479   5.175   1.808
10691SOL     OW32971   0.047   1.561   1.443
10691SOL    HW132972   0.005   1.623   1.377
10691SOL    HW232973   7.008   1.479   1.452
10692SOL     OW32974   4.188   6.000   3.926
10692SOL    HW132975   4.130   6.040   3.855
10692SOL    HW232976   4.131   5.968   4.002
10693SOL     OW32977   6.507   2.153   1.964
10693SOL    HW132978   6.538   2.058   1.975
10693SOL    HW232979   6.574   2.204   1.911
10694SOL     OW32980   3.785   6.257   0.658
10694SOL    HW132981   3.847   6.314   0.712
10694SOL    HW232982   3.836   6.214   0.583
10695SOL     OW32983   6.238   3.378   3.984
10695SOL    HW132984   6.205   3.301   3.931
10695SOL    HW232985   6.245   3.353   4.081
10696SOL     OW32986   6.286   6.353   1.573
10696SOL    HW132987   6.302   6.268   1.523
10696SOL    HW232988   6.364   6.372   1.634
10697SOL     OW32989   2.777   5.880   3.325
10697SOL    HW132990   2.727   5.936   3.259
10697SOL    HW232991   2.737   5.891   3.416
10698SOL     OW32992   2.965   0.629   3.374
10698SOL    HW132993   2.911   0.548   3.349
10698SOL    HW232994   2.904   0.698   3.412
10699SOL     OW32995   2.273   2.370   2.735
10699SOL    HW132996   2.336   2.303   2.775
10699SOL    HW232997   2.201   2.323   2.684
10700SOL     OW32998   6.546   0.628   1.606
10700SOL    HW132999   6.458   0.585   1.626
10700SOL    HW233000   6.564   0.625   1.508
10701SOL     OW33001   3.566   6.333   0.520
10701SOL    HW133002   3.525   6.284   0.444
10701SOL    HW233003   3.636   6.276   0.564
10702SOL     OW33004   6.153   3.320   1.272
10702SOL    HW133005   6.142   3.229   1.313
10702SOL    HW233006   6.222   3.316   1.200
10703SOL     OW33007   4.094   3.507   3.564
10703SOL    HW133008   4.042   3.524   3.647
10703SOL    HW233009   4.190   3.529   3.579
10704SOL     OW33010   5.484   6.439   1.974
10704SOL    HW133011   5.506   6.388   1.890
10704SOL    HW233012   5.420   6.386   2.029
10705SOL     OW33013   0.572   2.596   6.713
10705SOL    HW133014   0.589   2.695   6.710
10705SOL    HW233015   0.515   2.575   6.792
10706SOL     OW33016   3.670   1.366   2.049
10706SOL    HW133017   3.578   1.338   2.078
10706SOL    HW233018   3.681   1.464   2.066
10707SOL     OW33019   6.229   7.012   5.786
10707SOL    HW133020   6.227   0.024   5.881
10707SOL    HW233021   6.261   6.917   5.781
10708SOL     OW33022   4.624   0.953   1.110
10708SOL    HW133023   4.628   1.053   1.111
10708SOL    HW233024   4.690   0.916   1.175
10709SOL     OW33025   0.544   6.362   6.000
10709SOL    HW133026   0.456   6.385   5.959
10709SOL    HW233027   0.529   6.311   6.085
10710SOL     OW33028   6.285   5.716   3.035
10710SOL    HW133029   6.332   5.776   3.100
10710SOL    HW233030   6.353   5.666   2.981
10711SOL     OW33031   1.947   5.629   4.614
10711SOL    HW133032   1.936   5.682   4.698
10711SOL    HW233033   1.877   5.558   4.609
10712SOL     OW33034   4.064   1.438   4.921
10712SOL    HW133035   4.079   1.385   5.004
10712SOL    HW233036   4.151   1.476   4.889
10713SOL     OW33037   1.253   6.108   1.309
10713SOL    HW133038   1.321   6.178   1.287
10713SOL    HW233039   1.299   6.031   1.355
10714SOL     OW33040   6.972   4.960   5.194
10714SOL    HW133041   7.010   4.925   5.279
10714SOL    HW233042   6.901   4.898   5.160
10715SOL     OW33043   6.232   1.314   3.856
10715SOL    HW133044   6.214   1.404   3.896
10715SOL    HW233045   6.256   1.325   3.759
10716SOL     OW33046   6.348   0.504   2.955
10716SOL    HW133047   6.301   0.582   2.996
10716SOL    HW233048   6.440   0.497   2.992
10717SOL     OW33049   6.498   6.360   2.257
10717SOL    HW133050   6.402   6.340   2.235
10717SOL    HW233051   6.558   6.307   2.197
10718SOL     OW33052   0.053   4.646   6.222
10718SOL    HW133053   0.036   4.615   6.128
10718SOL    HW233054   0.151   4.654   6.237
10719SOL     OW33055   4.674   0.789   2.221
10719SOL    HW133056   4.772   0.770   2.233
10719SOL    HW233057   4.661   0.886   2.202
10720SOL     OW33058   0.818   3.329   0.317
10720SOL    HW133059   0.906   3.337   0.269
10720SOL    HW233060   0.746   3.369   0.260
10721SOL     OW33061   4.828   2.881   4.015
10721SOL    HW133062   4.858   2.919   4.103
10721SOL    HW233063   4.837   2.951   3.944
10722SOL     OW33064   0.411   4.317   0.778
10722SOL    HW133065   0.346   4.316   0.854
10722SOL    HW233066   0.411   4.408   0.735
10723SOL     OW33067   6.290   4.115   0.426
10723SOL    HW133068   6.278   4.020   0.453
10723SOL    HW233069   6.255   4.175   0.498
10724SOL     OW33070   3.642   6.829   5.534
10724SOL    HW133071   3.659   6.772   5.453
10724SOL    HW233072   3.622   6.770   5.612
10725SOL     OW33073   6.690   6.614   4.701
10725SOL    HW133074   6.652   6.528   4.665
10725SOL    HW233075   6.781   6.628   4.663
10726SOL     OW33076   5.108   0.846   4.913
10726SOL    HW133077   5.103   0.943   4.890
10726SOL    HW233078   5.201   0.823   4.941
10727SOL     OW33079   2.119   6.221   6.850
10727SOL    HW133080   2.058   6.234   6.772
10727SOL    HW233081   2.070   6.245   6.934
10728SOL     OW33082   5.537   5.765   3.459
10728SOL    HW133083   5.564   5.798   3.549
10728SOL    HW233084   5.516   5.844   3.400
10729SOL     OW33085   5.835   3.887   4.031
10729SOL    HW133086   5.796   3.965   3.981
10729SOL    HW233087   5.770   3.856   4.101
10730SOL     OW33088   1.782   5.652   3.048
10730SOL    HW133089   1.765   5.673   2.952
10730SOL    HW233090   1.873   5.612   3.058
10731SOL     OW33091   4.410   6.613   6.757
10731SOL    HW133092   4.344   6.687   6.763
10731SOL    HW233093   4.430   6.578   6.849
10732SOL     OW33094   5.753   5.939   3.110
10732SOL    HW133095   5.728   5.957   3.205
10732SOL    HW233096   5.819   6.007   3.080
10733SOL     OW33097   0.318   1.155   6.429
10733SOL    HW133098   0.339   1.090   6.355
10733SOL    HW233099   0.296   1.104   6.512
10734SOL     OW33100   1.437   0.901   4.122
10734SOL    HW133101   1.354   0.906   4.066
10734SOL    HW233102   1.413   0.875   4.215
10735SOL     OW33103   6.776   6.498   2.086
10735SOL    HW133104   6.872   6.523   2.101
10735SOL    HW233105   6.759   6.407   2.123
10736SOL     OW33106   6.024   6.452   3.808
10736SOL    HW133107   6.099   6.514   3.831
10736SOL    HW233108   5.968   6.436   3.890
10737SOL     OW33109   6.612   1.283   2.370
10737SOL    HW133110   6.692   1.230   2.343
10737SOL    HW233111   6.558   1.307   2.289
10738SOL     OW33112   3.832   1.038   1.232
10738SOL    HW133113   3.790   0.995   1.312
10738SOL    HW233114   3.898   1.107   1.263
10739SOL     OW33115   5.487   2.879   3.642
10739SOL    HW133116   5.497   2.793   3.692
10739SOL    HW233117   5.534   2.952   3.691
10740SOL     OW33118   2.585   0.118   5.607
10740SOL    HW133119   2.622   0.211   5.614
10740SOL    HW233120   2.656   0.052   5.632
10741SOL     OW33121   1.970   1.834   3.856
10741SOL    HW133122   2.019   1.746   3.856
10741SOL    HW233123   1.947   1.859   3.762
10742SOL     OW33124   6.043   6.189   2.550
10742SOL    HW133125   5.968   6.130   2.580
10742SOL    HW233126   6.129   6.155   2.588
10743SOL     OW33127   2.665   1.370   5.679
10743SOL    HW133128   2.619   1.455   5.653
10743SOL    HW233129   2.597   1.296   5.686
10744SOL     OW33130   1.925   1.077   0.341
10744SOL    HW133131   1.944   1.052   0.246
10744SOL    HW233132   1.934   1.176   0.352
10745SOL     OW33133   1.590   4.215   2.188
10745SOL    HW133134   1.565   4.160   2.267
10745SOL    HW233135   1.594   4.312   2.214
10746SOL     OW33136   1.974   6.265   6.633
10746SOL    HW133137   1.973   6.364   6.646
10746SOL    HW233138   1.991   6.244   6.536
10747SOL     OW33139   6.399   1.321   4.941
10747SOL    HW133140   6.336   1.246   4.963
10747SOL    HW233141   6.445   1.301   4.854
10748SOL     OW33142   3.458   6.134   1.304
10748SOL    HW133143   3.502   6.138   1.394
10748SOL    HW233144   3.522   6.096   1.238
10749SOL     OW33145   6.077   4.789   1.798
10749SOL    HW133146   6.044   4.858   1.733
10749SOL    HW233147   5.999   4.742   1.840
10750SOL     OW33148   4.472   2.391   4.380
10750SOL    HW133149   4.454   2.459   4.451
10750SOL    HW233150   4.477   2.436   4.291
10751SOL     OW33151   0.595   5.805   4.493
10751SOL    HW133152   0.629   5.896   4.515
10751SOL    HW233153   0.653   5.764   4.422
10752SOL     OW33154   6.076   6.507   0.629
10752SOL    HW133155   6.136   6.493   0.707
10752SOL    HW233156   6.072   6.424   0.573
10753SOL     OW33157   5.124   6.602   4.376
10753SOL    HW133158   5.141   6.696   4.346
10753SOL    HW233159   5.116   6.600   4.476
10754SOL     OW33160   0.672   4.282   2.408
10754SOL    HW133161   0.731   4.267   2.329
10754SOL    HW233162   0.713   4.351   2.468
10755SOL     OW33163   0.064   2.742   1.138
10755SOL    HW133164   0.051   2.817   1.204
10755SOL    HW233165   0.072   2.780   1.046
10756SOL     OW33166   1.247   0.668   0.547
10756SOL    HW133167   1.281   0.653   0.640
10756SOL    HW233168   1.169   0.729   0.549
10757SOL     OW33169   0.608   3.980   1.690
10757SOL    HW133170   0.623   3.899   1.747
10757SOL    HW233171   0.610   4.062   1.748
10758SOL     OW33172   0.478   0.455   0.212
10758SOL    HW133173   0.417   0.386   0.173
10758SOL    HW233174   0.573   0.422   0.207
10759SOL     OW33175   2.712   2.256   5.717
10759SOL    HW133176   2.722   2.224   5.622
10759SOL    HW233177   2.652   2.193   5.767
10760SOL     OW33178   1.064   4.949   6.889
10760SOL    HW133179   0.997   4.906   6.828
10760SOL    HW233180   1.090   4.885   6.961
10761SOL     OW33181   0.806   1.921   5.844
10761SOL    HW133182   0.822   1.827   5.874
10761SOL    HW233183   0.819   1.927   5.745
10762SOL     OW33184   2.940   6.048   6.553
10762SOL    HW133185   2.859   6.046   6.612
10762SOL    HW233186   2.995   5.966   6.569
10763SOL     OW33187   5.004   0.098   3.823
10763SOL    HW133188   5.102   0.116   3.817
10763SOL    HW233189   4.955   0.162   3.764
10764SOL     OW33190   4.314   6.876   4.674
10764SOL    HW133191   4.341   6.947   4.610
10764SOL    HW233192   4.327   6.786   4.632
10765SOL     OW33193   0.365   2.567   2.682
10765SOL    HW133194   0.314   2.501   2.736
10765SOL    HW233195   0.302   2.624   2.630
10766SOL     OW33196   2.135   5.041   6.800
10766SOL    HW133197   2.131   5.118   6.863
10766SOL    HW233198   2.225   5.037   6.757
10767SOL     OW33199   1.211   5.278   0.199
10767SOL    HW133200   1.236   5.245   0.290
10767SOL    HW233201   1.283   5.255   0.134
10768SOL     OW33202   5.437   6.128   6.897
10768SOL    HW133203   5.514   6.083   6.852
10768SOL    HW233204   5.419   6.216   6.853
10769SOL     OW33205   3.198   3.041   4.455
10769SOL    HW133206   3.239   3.011   4.541
10769SOL    HW233207   3.209   2.969   4.386
10770SOL     OW33208   5.805   0.126   3.593
10770SOL    HW133209   5.856   0.050   3.632
10770SOL    HW233210   5.846   0.152   3.505
10771SOL     OW33211   4.699   5.903   5.777
10771SOL    HW133212   4.607   5.941   5.784
10771SOL    HW233213   4.711   5.832   5.847
10772SOL     OW33214   5.870   5.138   2.604
10772SOL    HW133215   5.949   5.078   2.616
10772SOL    HW233216   5.875   5.182   2.515
10773SOL     OW33217   6.792   3.688   1.138
10773SOL    HW133218   6.870   3.626   1.127
10773SOL    HW233219   6.713   3.636   1.169
10774SOL     OW33220   0.880   3.128   0.968
10774SOL    HW133221   0.891   3.195   1.042
10774SOL    HW233222   0.881   3.035   1.007
10775SOL     OW33223   1.564   4.020   0.845
10775SOL    HW133224   1.654   4.032   0.887
10775SOL    HW233225   1.537   4.106   0.800
10776SOL     OW33226   0.652   2.647   4.026
10776SOL    HW133227   0.604   2.576   3.975
10776SOL    HW233228   0.735   2.610   4.067
10777SOL     OW33229   2.522   0.990   1.496
10777SOL    HW133230   2.575   1.070   1.468
10777SOL    HW233231   2.447   0.975   1.431
10778SOL     OW33232   5.651   0.178   3.166
10778SOL    HW133233   5.709   0.112   3.119
10778SOL    HW233234   5.583   0.214   3.103
10779SOL     OW33235   5.836   3.666   5.463
10779SOL    HW133236   5.838   3.727   5.542
10779SOL    HW233237   5.761   3.600   5.474
10780SOL     OW33238   2.090   5.411   4.534
10780SOL    HW133239   2.037   5.495   4.536
10780SOL    HW233240   2.096   5.378   4.439
10781SOL     OW33241   5.850   2.305   4.687
10781SOL    HW133242   5.774   2.255   4.729
10781SOL    HW233243   5.825   2.401   4.676
10782SOL     OW33244   0.873   1.585   5.493
10782SOL    HW133245   0.959   1.545   5.462
10782SOL    HW233246   0.890   1.671   5.540
10783SOL     OW33247   1.237   2.221   3.740
10783SOL    HW133248   1.276   2.296   3.793
10783SOL    HW233249   1.152   2.190   3.783
10784SOL     OW33250   3.733   5.552   2.982
10784SOL    HW133251   3.713   5.650   2.984
10784SOL    HW233252   3.777   5.526   3.068
10785SOL     OW33253   1.179   5.133   1.777
10785SOL    HW133254   1.159   5.071   1.702
10785SOL    HW233255   1.270   5.173   1.765
10786SOL     OW33256   4.157   1.609   2.331
10786SOL    HW133257   4.248   1.614   2.290
10786SOL    HW233258   4.127   1.702   2.356
10787SOL     OW33259   4.136   0.578   3.440
10787SOL    HW133260   4.113   0.661   3.388
10787SOL    HW233261   4.054   0.523   3.453
10788SOL     OW33262   1.822   4.063   0.154
10788SOL    HW133263   1.829   4.073   0.253
10788SOL    HW233264   1.854   4.147   0.110
10789SOL     OW33265   6.687   1.213   1.780
10789SOL    HW133266   6.769   1.160   1.799
10789SOL    HW233267   6.618   1.155   1.737
10790SOL     OW33268   0.527   1.755   5.629
10790SOL    HW133269   0.553   1.850   5.612
10790SOL    HW233270   0.539   1.702   5.545
10791SOL     OW33271   1.481   1.802   3.728
10791SOL    HW133272   1.544   1.816   3.805
10791SOL    HW233273   1.404   1.865   3.737
10792SOL     OW33274   3.833   2.095   2.423
10792SOL    HW133275   3.892   2.084   2.344
10792SOL    HW233276   3.742   2.125   2.393
10793SOL     OW33277   4.656   1.835   4.731
10793SOL    HW133278   4.673   1.917   4.677
10793SOL    HW233279   4.566   1.842   4.775
10794SOL     OW33280   5.273   1.798   1.127
10794SOL    HW133281   5.299   1.735   1.054
10794SOL    HW233282   5.293   1.757   1.216
10795SOL     OW33283   6.849   3.370   3.195
10795SOL    HW133284   6.873   3.407   3.105
10795SOL    HW233285   6.933   3.343   3.242
10796SOL     OW33286   0.439   6.835   5.806
10796SOL    HW133287   0.349   6.808   5.840
10796SOL    HW233288   0.438   6.931   5.781
10797SOL     OW33289   4.333   4.449   6.538
10797SOL    HW133290   4.295   4.530   6.583
10797SOL    HW233291   4.367   4.474   6.447
10798SOL     OW33292   1.429   6.966   6.665
10798SOL    HW133293   1.406   0.006   6.744
10798SOL    HW233294   1.361   6.981   6.593
10799SOL     OW33295   3.087   1.025   2.655
10799SOL    HW133296   3.133   1.113   2.644
10799SOL    HW233297   2.993   1.040   2.686
10800SOL     OW33298   2.314   0.084   5.558
10800SOL    HW133299   2.403   0.120   5.586
10800SOL    HW233300   2.258   0.159   5.522
10801SOL     OW33301   2.641   6.007   6.082
10801SOL    HW133302   2.672   6.082   6.141
10801SOL    HW233303   2.721   5.956   6.049
10802SOL     OW33304   0.823   5.026   4.463
10802SOL    HW133305   0.732   5.064   4.446
10802SOL    HW233306   0.848   5.041   4.558
10803SOL     OW33307   0.294   4.020   4.607
10803SOL    HW133308   0.376   3.991   4.556
10803SOL    HW233309   0.231   4.065   4.545
10804SOL     OW33310   5.071   4.577   1.101
10804SOL    HW133311   4.981   4.559   1.139
10804SOL    HW233312   5.141   4.531   1.157
10805SOL     OW33313   3.911   6.081   0.467
10805SOL    HW133314   3.853   6.003   0.490
10805SOL    HW233315   4.005   6.049   0.455
10806SOL     OW33316   5.860   3.799   0.016
10806SOL    HW133317   5.902   3.873   0.068
10806SOL    HW233318   5.906   3.712   0.036
10807SOL     OW33319   4.552   0.104   3.771
10807SOL    HW133320   4.632   0.164   3.759
10807SOL    HW233321   4.580   0.009   3.761
10808SOL     OW33322   0.648   2.361   0.089
10808SOL    HW133323   0.617   2.440   0.143
10808SOL    HW233324   0.664   2.390   7.012
10809SOL     OW33325   3.325   0.843   3.345
10809SOL    HW133326   3.356   0.766   3.402
10809SOL    HW233327   3.352   0.929   3.389
10810SOL     OW33328   1.040   1.649   6.874
10810SOL    HW133329   1.037   1.733   6.927
10810SOL    HW233330   0.950   1.606   6.874
10811SOL     OW33331   4.819   4.649   5.769
10811SOL    HW133332   4.865   4.708   5.835
10811SOL    HW233333   4.877   4.637   5.688
10812SOL     OW33334   6.812   2.701   3.018
10812SOL    HW133335   6.785   2.700   2.921
10812SOL    HW233336   6.731   2.715   3.075
10813SOL     OW33337   3.023   5.476   2.557
10813SOL    HW133338   2.996   5.432   2.472
10813SOL    HW233339   2.945   5.527   2.595
10814SOL     OW33340   1.727   6.173   5.135
10814SOL    HW133341   1.701   6.199   5.042
10814SOL    HW233342   1.758   6.254   5.185
10815SOL     OW33343   4.566   2.490   3.698
10815SOL    HW133344   4.512   2.507   3.615
10815SOL    HW233345   4.505   2.481   3.776
10816SOL     OW33346   2.013   2.356   2.226
10816SOL    HW133347   2.001   2.453   2.246
10816SOL    HW233348   2.110   2.336   2.211
10817SOL     OW33349   4.925   6.647   2.003
10817SOL    HW133350   4.971   6.696   1.929
10817SOL    HW233351   4.912   6.551   1.976
10818SOL     OW33352   4.491   2.840   6.357
10818SOL    HW133353   4.504   2.919   6.417
10818SOL    HW233354   4.425   2.863   6.285
10819SOL     OW33355   0.647   3.703   5.745
10819SOL    HW133356   0.663   3.690   5.647
10819SOL    HW233357   0.675   3.621   5.794
10820SOL     OW33358   0.264   0.108   4.685
10820SOL    HW133359   0.200   0.148   4.619
10820SOL    HW233360   0.275   0.171   4.762
10821SOL     OW33361   6.902   0.195   0.863
10821SOL    HW133362   6.930   0.219   0.770
10821SOL    HW233363   6.802   0.193   0.868
10822SOL     OW33364   1.246   4.832   0.665
10822SOL    HW133365   1.339   4.805   0.688
10822SOL    HW233366   1.211   4.895   0.734
10823SOL     OW33367   1.016   2.024   2.087
10823SOL    HW133368   0.999   2.093   2.157
10823SOL    HW233369   1.078   2.061   2.018
10824SOL     OW33370   5.203   0.454   3.238
10824SOL    HW133371   5.275   0.519   3.214
10824SOL    HW233372   5.224   0.412   3.327
10825SOL     OW33373   3.740   2.114   1.072
10825SOL    HW133374   3.704   2.028   1.037
10825SOL    HW233375   3.834   2.102   1.104
10826SOL     OW33376   6.818   2.851   1.430
10826SOL    HW133377   6.767   2.893   1.505
10826SOL    HW233378   6.916   2.868   1.443
10827SOL     OW33379   1.321   2.369   4.170
10827SOL    HW133380   1.391   2.372   4.240
10827SOL    HW233381   1.362   2.342   4.083
10828SOL     OW33382   1.407   6.426   0.157
10828SOL    HW133383   1.358   6.478   0.086
10828SOL    HW233384   1.426   6.486   0.234
10829SOL     OW33385   2.331   3.648   1.689
10829SOL    HW133386   2.338   3.583   1.764
10829SOL    HW233387   2.241   3.691   1.691
10830SOL     OW33388   5.139   1.713   4.017
10830SOL    HW133389   5.224   1.760   4.042
10830SOL    HW233390   5.134   1.704   3.917
10831SOL     OW33391   5.049   2.868   3.084
10831SOL    HW133392   4.954   2.897   3.094
10831SOL    HW233393   5.089   2.912   3.004
10832SOL     OW33394   6.667   2.647   2.762
10832SOL    HW133395   6.693   2.698   2.680
10832SOL    HW233396   6.568   2.640   2.768
10833SOL     OW33397   3.146   0.278   4.447
10833SOL    HW133398   3.228   0.224   4.465
10833SOL    HW233399   3.142   0.302   4.350
10834SOL     OW33400   6.759   1.554   5.362
10834SOL    HW133401   6.702   1.502   5.425
10834SOL    HW233402   6.743   1.523   5.269
10835SOL     OW33403   6.798   2.167   2.615
10835SOL    HW133404   6.830   2.181   2.708
10835SOL    HW233405   6.702   2.137   2.616
10836SOL     OW33406   1.756   2.791   0.572
10836SOL    HW133407   1.836   2.851   0.577
10836SOL    HW233408   1.720   2.774   0.664
10837SOL     OW33409   1.006   5.868   1.357
10837SOL    HW133410   0.926   5.809   1.367
10837SOL    HW233411   1.086   5.812   1.337
10838SOL     OW33412   6.380   6.919   1.018
10838SOL    HW133413   6.330   6.847   1.066
10838SOL    HW233414   6.374   6.904   0.919
10839SOL     OW33415   1.793   1.579   0.166
10839SOL    HW133416   1.726   1.643   0.129
10839SOL    HW233417   1.747   1.496   0.199
10840SOL     OW33418   3.682   5.238   2.610
10840SOL    HW133419   3.635   5.150   2.603
10840SOL    HW233420   3.755   5.231   2.678
10841SOL     OW33421   4.919   3.264   5.458
10841SOL    HW133422   4.865   3.348   5.461
10841SOL    HW233423   4.968   3.252   5.544
10842SOL     OW33424   6.828   3.137   1.284
10842SOL    HW133425   6.735   3.174   1.278
10842SOL    HW233426   6.826   3.040   1.262
10843SOL     OW33427   0.395   1.150   1.669
10843SOL    HW133428   0.491   1.134   1.646
10843SOL    HW233429   0.381   1.248   1.687
10844SOL     OW33430   3.074   6.819   3.331
10844SOL    HW133431   3.025   6.736   3.357
10844SOL    HW233432   3.138   6.844   3.405
10845SOL     OW33433   1.273   3.295   1.049
10845SOL    HW133434   1.176   3.302   1.027
10845SOL    HW233435   1.313   3.387   1.054
10846SOL     OW33436   3.772   1.856   2.206
10846SOL    HW133437   3.713   1.915   2.262
10846SOL    HW233438   3.868   1.873   2.230
10847SOL     OW33439   3.809   2.406   6.158
10847SOL    HW133440   3.908   2.416   6.144
10847SOL    HW233441   3.763   2.493   6.140
10848SOL     OW33442   0.855   1.254   0.806
10848SOL    HW133443   0.854   1.165   0.760
10848SOL    HW233444   0.795   1.251   0.886
10849SOL     OW33445   2.630   4.897   4.268
10849SOL    HW133446   2.566   4.831   4.306
10849SOL    HW233447   2.722   4.858   4.268
10850SOL     OW33448   5.729   0.573   1.921
10850SOL    HW133449   5.724   0.664   1.882
10850SOL    HW233450   5.671   0.568   2.002
10851SOL     OW33451   4.160   2.178   6.240
10851SOL    HW133452   4.143   2.268   6.199
10851SOL    HW233453   4.193   2.189   6.334
10852SOL     OW33454   0.295   6.445   6.390
10852SOL    HW133455   0.211   6.412   6.433
10852SOL    HW233456   0.279   6.533   6.347
10853SOL     OW33457   2.062   0.928   4.469
10853SOL    HW133458   1.993   0.975   4.415
10853SOL    HW233459   2.143   0.911   4.413
10854SOL     OW33460   0.164   6.329   0.878
10854SOL    HW133461   0.130   6.418   0.848
10854SOL    HW233462   0.260   6.337   0.906
10855SOL     OW33463   1.537   5.953   1.947
10855SOL    HW133464   1.463   5.886   1.949
10855SOL    HW233465   1.601   5.930   1.874
10856SOL     OW33466   6.092   0.451   6.272
10856SOL    HW133467   6.101   0.431   6.370
10856SOL    HW233468   6.179   0.486   6.237
10857SOL     OW33469   6.407   0.645   5.241
10857SOL    HW133470   6.454   0.726   5.205
10857SOL    HW233471   6.310   0.665   5.254
10858SOL     OW33472   2.404   2.103   0.343
10858SOL    HW133473   2.445   2.179   0.292
10858SOL    HW233474   2.313   2.084   0.307
10859SOL     OW33475   1.012   5.805   2.216
10859SOL    HW133476   1.091   5.860   2.246
10859SOL    HW233477   1.017   5.792   2.117
10860SOL     OW33478   5.858   3.327   0.588
10860SOL    HW133479   5.893   3.383   0.663
10860SOL    HW233480   5.926   3.258   0.563
10861SOL     OW33481   3.071   2.879   1.891
10861SOL    HW133482   3.020   2.919   1.967
10861SOL    HW233483   3.008   2.846   1.821
10862SOL     OW33484   3.185   3.256   5.464
10862SOL    HW133485   3.178   3.215   5.373
10862SOL    HW233486   3.175   3.185   5.534
10863SOL     OW33487   2.337   0.823   3.022
10863SOL    HW133488   2.300   0.800   3.112
10863SOL    HW233489   2.435   0.805   3.020
10864SOL     OW33490   3.211   4.324   1.645
10864SOL    HW133491   3.122   4.361   1.674
10864SOL    HW233492   3.224   4.234   1.686
10865SOL     OW33493   3.970   1.345   2.761
10865SOL    HW133494   4.045   1.366   2.823
10865SOL    HW233495   3.992   1.377   2.669
10866SOL     OW33496   6.951   3.573   3.530
10866SOL    HW133497   6.872   3.563   3.590
10866SOL    HW233498   6.933   3.646   3.464
10867SOL     OW33499   4.525   2.719   0.972
10867SOL    HW133500   4.531   2.801   1.029
10867SOL    HW233501   4.436   2.677   0.984
10868SOL     OW33502   1.449   6.959   5.123
10868SOL    HW133503   1.363   7.010   5.127
10868SOL    HW233504   1.518   7.014   5.075
10869NA      NA33505   0.019   1.291   5.970
10870NA      NA33506   4.449   4.604   5.190
10871NA      NA33507   1.379   4.750   2.806
10872NA      NA33508   5.821   4.053   3.076
10873NA      NA33509   3.818   2.197   5.453
10874NA      NA33510   2.186   4.780   0.288
10875NA      NA33511   1.189   5.423   6.836
10876NA      NA33512   3.698   4.285   0.883
10877NA      NA33513   4.753   4.685   0.283
10878NA      NA33514   3.320   0.952   6.858
10879NA      NA33515   5.486   6.899   1.774
10880NA      NA33516   2.411   6.388   5.539
10881NA      NA33517   3.967   5.315   1.590
10882NA      NA33518   3.809   3.191   6.523
   7.01748   7.01748   7.01748
