Generated by trjconv : CNT in water t= 158.00000
33518
    1C        C    1   2.846   2.769   4.750
    1C        C    2   2.900   2.722   4.872
    1C        C    3   2.843   2.773   4.989
    1C        C    4   2.848   2.770   4.261
    1C        C    5   2.900   2.726   4.385
    1C        C    6   2.848   2.774   4.507
    1C        C    7   3.012   2.636   4.629
    1C        C    8   2.897   2.719   4.628
    1C        C    9   3.076   2.603   4.750
    1C        C   10   3.006   2.629   4.870
    1C        C   11   3.179   2.488   4.975
    1C        C   12   3.059   2.561   4.980
    1C        C   13   2.843   2.763   3.775
    1C        C   14   2.896   2.716   3.897
    1C        C   15   2.844   2.766   4.019
    1C        C   16   3.017   2.640   4.139
    1C        C   17   2.900   2.720   4.140
    1C        C   18   3.078   2.608   4.263
    1C        C   19   3.018   2.648   4.384
    1C        C   20   3.206   2.552   4.504
    1C        C   21   3.076   2.608   4.506
    1C        C   22   3.276   2.534   4.625
    1C        C   23   3.209   2.551   4.749
    1C        C   24   3.413   2.481   4.866
    1C        C   25   3.271   2.500   4.866
    1C        C   26   3.491   2.478   4.982
    1C        C   27   2.850   2.768   3.286
    1C        C   28   2.907   2.726   3.408
    1C        C   29   2.854   2.772   3.530
    1C        C   30   3.018   2.641   3.649
    1C        C   31   2.903   2.723   3.653
    1C        C   32   3.079   2.607   3.772
    1C        C   33   3.014   2.637   3.894
    1C        C   34   3.209   2.555   4.014
    1C        C   35   3.078   2.610   4.016
    1C        C   36   3.277   2.536   4.137
    1C        C   37   3.210   2.555   4.260
    1C        C   38   3.416   2.514   4.385
    1C        C   39   3.276   2.537   4.383
    1C        C   40   3.487   2.505   4.507
    1C        C   41   3.415   2.511   4.628
    1C        C   42   3.631   2.488   4.745
    1C        C   43   3.489   2.485   4.746
    1C        C   44   3.706   2.493   4.865
    1C        C   45   3.630   2.481   4.982
    1C        C   46   2.838   2.749   2.795
    1C        C   47   2.892   2.708   2.919
    1C        C   48   2.843   2.757   3.042
    1C        C   49   3.017   2.636   3.163
    1C        C   50   2.899   2.713   3.165
    1C        C   51   3.081   2.603   3.285
    1C        C   52   3.020   2.641   3.406
    1C        C   53   3.207   2.542   3.528
    1C        C   54   3.078   2.598   3.528
    1C        C   55   3.277   2.526   3.650
    1C        C   56   3.208   2.551   3.771
    1C        C   57   3.417   2.508   3.894
    1C        C   58   3.278   2.534   3.893
    1C        C   59   3.486   2.501   4.017
    1C        C   60   3.416   2.510   4.139
    1C        C   61   3.626   2.509   4.258
    1C        C   62   3.485   2.501   4.262
    1C        C   63   3.696   2.518   4.380
    1C        C   64   3.628   2.506   4.503
    1C        C   65   3.837   2.543   4.622
    1C        C   66   3.701   2.507   4.624
    1C        C   67   3.908   2.563   4.743
    1C        C   68   3.841   2.533   4.863
    1C        C   69   4.051   2.585   4.976
    1C        C   70   3.921   2.531   4.978
    1C        C   71   2.828   2.735   2.310
    1C        C   72   2.882   2.689   2.432
    1C        C   73   2.828   2.741   2.552
    1C        C   74   3.007   2.624   2.674
    1C        C   75   2.888   2.699   2.673
    1C        C   76   3.069   2.591   2.796
    1C        C   77   3.009   2.628   2.918
    1C        C   78   3.206   2.546   3.036
    1C        C   79   3.075   2.600   3.039
    1C        C   80   3.271   2.526   3.159
    1C        C   81   3.208   2.542   3.284
    1C        C   82   3.414   2.498   3.402
    1C        C   83   3.275   2.517   3.406
    1C        C   84   3.485   2.494   3.524
    1C        C   85   3.416   2.503   3.647
    1C        C   86   3.626   2.505   3.769
    1C        C   87   3.485   2.498   3.771
    1C        C   88   3.696   2.515   3.892
    1C        C   89   3.627   2.509   4.015
    1C        C   90   3.833   2.560   4.138
    1C        C   91   3.698   2.519   4.136
    1C        C   92   3.902   2.581   4.259
    1C        C   93   3.833   2.555   4.380
    1C        C   94   4.027   2.642   4.501
    1C        C   95   3.901   2.577   4.501
    1C        C   96   4.094   2.671   4.622
    1C        C   97   4.034   2.629   4.742
    1C        C   98   4.198   2.763   4.862
    1C        C   99   4.105   2.654   4.863
    1C        C  100   4.214   2.845   4.974
    1C        C  101   2.822   2.732   2.071
    1C        C  102   2.994   2.596   2.189
    1C        C  103   2.880   2.683   2.189
    1C        C  104   3.066   2.574   2.310
    1C        C  105   3.003   2.615   2.429
    1C        C  106   3.201   2.540   2.550
    1C        C  107   3.069   2.590   2.551
    1C        C  108   3.269   2.515   2.672
    1C        C  109   3.200   2.538   2.793
    1C        C  110   3.411   2.496   2.915
    1C        C  111   3.272   2.520   2.914
    1C        C  112   3.481   2.489   3.038
    1C        C  113   3.410   2.496   3.159
    1C        C  114   3.625   2.505   3.280
    1C        C  115   3.484   2.496   3.279
    1C        C  116   3.696   2.515   3.403
    1C        C  117   3.626   2.504   3.525
    1C        C  118   3.834   2.546   3.645
    1C        C  119   3.697   2.515   3.647
    1C        C  120   3.896   2.578   3.768
    1C        C  121   3.830   2.558   3.892
    1C        C  122   4.025   2.642   4.014
    1C        C  123   3.898   2.580   4.014
    1C        C  124   4.090   2.679   4.134
    1C        C  125   4.031   2.639   4.256
    1C        C  126   4.198   2.768   4.378
    1C        C  127   4.088   2.679   4.379
    1C        C  128   4.247   2.820   4.500
    1C        C  129   4.196   2.768   4.621
    1C        C  130   4.331   2.935   4.742
    1C        C  131   4.251   2.817   4.741
    1C        C  132   4.362   3.003   4.862
    1C        C  133   4.286   2.964   4.974
    1C        C  134   3.172   2.470   2.081
    1C        C  135   3.040   2.516   2.080
    1C        C  136   3.261   2.475   2.189
    1C        C  137   3.197   2.518   2.307
    1C        C  138   3.405   2.481   2.429
    1C        C  139   3.267   2.508   2.429
    1C        C  140   3.479   2.484   2.550
    1C        C  141   3.409   2.497   2.672
    1C        C  142   3.623   2.503   2.792
    1C        C  143   3.482   2.492   2.793
    1C        C  144   3.692   2.514   2.914
    1C        C  145   3.622   2.501   3.036
    1C        C  146   3.830   2.548   3.156
    1C        C  147   3.694   2.510   3.157
    1C        C  148   3.897   2.575   3.277
    1C        C  149   3.833   2.549   3.401
    1C        C  150   4.025   2.636   3.524
    1C        C  151   3.901   2.568   3.523
    1C        C  152   4.085   2.674   3.646
    1C        C  153   4.023   2.641   3.769
    1C        C  154   4.193   2.768   3.890
    1C        C  155   4.081   2.682   3.891
    1C        C  156   4.248   2.818   4.010
    1C        C  157   4.200   2.767   4.133
    1C        C  158   4.344   2.921   4.253
    1C        C  159   4.254   2.812   4.256
    1C        C  160   4.375   2.986   4.375
    1C        C  161   4.334   2.932   4.499
    1C        C  162   4.439   3.117   4.618
    1C        C  163   4.375   2.991   4.620
    1C        C  164   4.465   3.187   4.738
    1C        C  165   4.438   3.122   4.860
    1C        C  166   4.518   3.324   4.976
    1C        C  167   4.484   3.189   4.974
    1C        C  168   3.474   2.434   2.071
    1C        C  169   3.401   2.453   2.189
    1C        C  170   3.618   2.474   2.308
    1C        C  171   3.476   2.463   2.308
    1C        C  172   3.694   2.489   2.426
    1C        C  173   3.619   2.496   2.546
    1C        C  174   3.826   2.545   2.668
    1C        C  175   3.689   2.511   2.667
    1C        C  176   3.896   2.568   2.789
    1C        C  177   3.829   2.550   2.912
    1C        C  178   4.024   2.635   3.033
    1C        C  179   3.898   2.571   3.034
    1C        C  180   4.082   2.672   3.156
    1C        C  181   4.025   2.635   3.280
    1C        C  182   4.198   2.758   3.401
    1C        C  183   4.086   2.672   3.402
    1C        C  184   4.248   2.810   3.522
    1C        C  185   4.196   2.761   3.645
    1C        C  186   4.337   2.920   3.764
    1C        C  187   4.246   2.812   3.767
    1C        C  188   4.379   2.981   3.884
    1C        C  189   4.340   2.925   4.008
    1C        C  190   4.452   3.103   4.131
    1C        C  191   4.382   2.980   4.131
    1C        C  192   4.474   3.174   4.251
    1C        C  193   4.437   3.113   4.372
    1C        C  194   4.508   3.313   4.493
    1C        C  195   4.464   3.179   4.494
    1C        C  196   4.529   3.385   4.612
    1C        C  197   4.513   3.321   4.737
    1C        C  198   4.556   3.536   4.852
    1C        C  199   4.536   3.394   4.857
    1C        C  200   4.580   3.620   4.965
    1C        C  201   3.614   2.424   2.075
    1C        C  202   3.826   2.518   2.185
    1C        C  203   3.691   2.470   2.186
    1C        C  204   3.900   2.541   2.305
    1C        C  205   3.833   2.518   2.427
    1C        C  206   4.023   2.622   2.542
    1C        C  207   3.898   2.556   2.546
    1C        C  208   4.084   2.660   2.664
    1C        C  209   4.023   2.628   2.787
    1C        C  210   4.194   2.756   2.907
    1C        C  211   4.083   2.668   2.909
    1C        C  212   4.245   2.804   3.029
    1C        C  213   4.196   2.756   3.152
    1C        C  214   4.334   2.913   3.274
    1C        C  215   4.248   2.800   3.275
    1C        C  216   4.369   2.977   3.395
    1C        C  217   4.338   2.919   3.520
    1C        C  218   4.434   3.107   3.641
    1C        C  219   4.377   2.978   3.642
    1C        C  220   4.467   3.172   3.762
    1C        C  221   4.445   3.106   3.885
    1C        C  222   4.511   3.305   4.006
    1C        C  223   4.478   3.168   4.008
    1C        C  224   4.518   3.379   4.126
    1C        C  225   4.506   3.312   4.249
    1C        C  226   4.512   3.525   4.369
    1C        C  227   4.509   3.384   4.371
    1C        C  228   4.513   3.597   4.490
    1C        C  229   4.534   3.526   4.611
    1C        C  230   4.509   3.743   4.728
    1C        C  231   4.536   3.604   4.729
    1C        C  232   4.493   3.820   4.846
    1C        C  233   4.549   3.757   4.958
    1C        C  234   4.016   2.614   2.063
    1C        C  235   3.893   2.549   2.066
    1C        C  236   4.085   2.651   2.179
    1C        C  237   4.025   2.608   2.299
    1C        C  238   4.200   2.735   2.420
    1C        C  239   4.086   2.650   2.419
    1C        C  240   4.255   2.784   2.541
    1C        C  241   4.198   2.743   2.664
    1C        C  242   4.338   2.907   2.784
    1C        C  243   4.252   2.795   2.784
    1C        C  244   4.385   2.960   2.906
    1C        C  245   4.340   2.909   3.030
    1C        C  246   4.446   3.092   3.151
    1C        C  247   4.381   2.967   3.152
    1C        C  248   4.470   3.161   3.272
    1C        C  249   4.437   3.101   3.395
    1C        C  250   4.502   3.304   3.517
    1C        C  251   4.458   3.170   3.517
    1C        C  252   4.516   3.377   3.638
    1C        C  253   4.504   3.308   3.761
    1C        C  254   4.531   3.517   3.881
    1C        C  255   4.521   3.376   3.884
    1C        C  256   4.523   3.591   4.001
    1C        C  257   4.526   3.520   4.124
    1C        C  258   4.489   3.731   4.245
    1C        C  259   4.519   3.593   4.245
    1C        C  260   4.473   3.805   4.364
    1C        C  261   4.489   3.736   4.486
    1C        C  262   4.425   3.940   4.605
    1C        C  263   4.473   3.807   4.607
    1C        C  264   4.398   4.012   4.724
    1C        C  265   4.430   3.946   4.844
    1C        C  266   4.324   4.132   4.961
    1C        C  267   4.392   4.011   4.962
    1C        C  268   4.262   2.780   2.062
    1C        C  269   4.201   2.731   2.178
    1C        C  270   4.347   2.889   2.299
    1C        C  271   4.255   2.781   2.299
    1C        C  272   4.385   2.953   2.420
    1C        C  273   4.349   2.889   2.541
    1C        C  274   4.450   3.082   2.661
    1C        C  275   4.381   2.959   2.660
    1C        C  276   4.476   3.150   2.782
    1C        C  277   4.449   3.086   2.905
    1C        C  278   4.508   3.291   3.027
    1C        C  279   4.470   3.155   3.027
    1C        C  280   4.516   3.365   3.148
    1C        C  281   4.503   3.298   3.272
    1C        C  282   4.519   3.511   3.389
    1C        C  283   4.518   3.370   3.393
    1C        C  284   4.519   3.582   3.511
    1C        C  285   4.528   3.517   3.636
    1C        C  286   4.498   3.725   3.754
    1C        C  287   4.528   3.588   3.759
    1C        C  288   4.478   3.794   3.876
    1C        C  289   4.491   3.728   4.000
    1C        C  290   4.426   3.931   4.118
    1C        C  291   4.474   3.799   4.122
    1C        C  292   4.397   3.999   4.238
    1C        C  293   4.429   3.939   4.362
    1C        C  294   4.326   4.127   4.479
    1C        C  295   4.400   4.006   4.483
    1C        C  296   4.283   4.189   4.598
    1C        C  297   4.317   4.129   4.721
    1C        C  298   4.199   4.312   4.840
    1C        C  299   4.278   4.192   4.842
    1C        C  300   4.170   4.403   4.945
    1C        C  301   4.350   2.888   2.063
    1C        C  302   4.475   3.068   2.179
    1C        C  303   4.400   2.946   2.180
    1C        C  304   4.486   3.143   2.299
    1C        C  305   4.449   3.079   2.420
    1C        C  306   4.514   3.285   2.539
    1C        C  307   4.479   3.148   2.539
    1C        C  308   4.517   3.357   2.661
    1C        C  309   4.505   3.288   2.783
    1C        C  310   4.527   3.500   2.898
    1C        C  311   4.524   3.359   2.904
    1C        C  312   4.525   3.575   3.018
    1C        C  313   4.524   3.506   3.142
    1C        C  314   4.487   3.715   3.263
    1C        C  315   4.515   3.576   3.264
    1C        C  316   4.471   3.785   3.384
    1C        C  317   4.494   3.722   3.508
    1C        C  318   4.426   3.922   3.626
    1C        C  319   4.480   3.792   3.630
    1C        C  320   4.392   3.983   3.748
    1C        C  321   4.424   3.924   3.873
    1C        C  322   4.320   4.111   3.989
    1C        C  323   4.395   3.991   3.994
    1C        C  324   4.281   4.172   4.110
    1C        C  325   4.324   4.120   4.234
    1C        C  326   4.189   4.284   4.354
    1C        C  327   4.284   4.180   4.355
    1C        C  328   4.136   4.339   4.473
    1C        C  329   4.188   4.293   4.597
    1C        C  330   4.028   4.438   4.714
    1C        C  331   4.138   4.348   4.717
    1C        C  332   3.975   4.498   4.830
    1C        C  333   4.053   4.481   4.945
    1C        C  334   4.556   3.265   2.065
    1C        C  335   4.539   3.126   2.065
    1C        C  336   4.539   3.350   2.175
    1C        C  337   4.516   3.282   2.297
    1C        C  338   4.531   3.496   2.411
    1C        C  339   4.528   3.355   2.417
    1C        C  340   4.522   3.568   2.532
    1C        C  341   4.519   3.498   2.654
    1C        C  342   4.501   3.710   2.772
    1C        C  343   4.516   3.570   2.776
    1C        C  344   4.486   3.782   2.893
    1C        C  345   4.503   3.714   3.016
    1C        C  346   4.425   3.912   3.140
    1C        C  347   4.477   3.780   3.138
    1C        C  348   4.391   3.981   3.258
    1C        C  349   4.425   3.919   3.381
    1C        C  350   4.312   4.099   3.503
    1C        C  351   4.394   3.983   3.502
    1C        C  352   4.275   4.161   3.624
    1C        C  353   4.319   4.104   3.746
    1C        C  354   4.179   4.268   3.867
    1C        C  355   4.274   4.164   3.866
    1C        C  356   4.125   4.316   3.989
    1C        C  357   4.182   4.273   4.110
    1C        C  358   4.014   4.404   4.229
    1C        C  359   4.131   4.324   4.232
    1C        C  360   3.952   4.438   4.351
    1C        C  361   4.017   4.415   4.474
    1C        C  362   3.829   4.518   4.592
    1C        C  363   3.960   4.465   4.593
    1C        C  364   3.766   4.550   4.715
    1C        C  365   3.843   4.547   4.833
    1C        C  366   3.632   4.595   4.951
    1C        C  367   3.768   4.566   4.950
    1C        C  368   4.503   3.563   2.055
    1C        C  369   4.533   3.491   2.171
    1C        C  370   4.504   3.707   2.286
    1C        C  371   4.526   3.568   2.290
    1C        C  372   4.483   3.776   2.408
    1C        C  373   4.504   3.708   2.530
    1C        C  374   4.426   3.908   2.651
    1C        C  375   4.483   3.779   2.650
    1C        C  376   4.389   3.972   2.771
    1C        C  377   4.427   3.910   2.892
    1C        C  378   4.319   4.091   3.012
    1C        C  379   4.396   3.972   3.016
    1C        C  380   4.271   4.148   3.131
    1C        C  381   4.306   4.094   3.257
    1C        C  382   4.172   4.256   3.379
    1C        C  383   4.264   4.149   3.380
    1C        C  384   4.123   4.311   3.500
    1C        C  385   4.178   4.264   3.621
    1C        C  386   4.010   4.392   3.744
    1C        C  387   4.127   4.313   3.744
    1C        C  388   3.946   4.428   3.865
    1C        C  389   4.008   4.395   3.987
    1C        C  390   3.820   4.495   4.108
    1C        C  391   3.948   4.437   4.108
    1C        C  392   3.753   4.521   4.230
    1C        C  393   3.825   4.500   4.350
    1C        C  394   3.617   4.546   4.473
    1C        C  395   3.757   4.528   4.471
    1C        C  396   3.551   4.556   4.597
    1C        C  397   3.626   4.566   4.716
    1C        C  398   3.415   4.549   4.844
    1C        C  399   3.554   4.574   4.837
    1C        C  400   3.345   4.507   4.958
    1C        C  401   4.508   3.702   2.048
    1C        C  402   4.452   3.914   2.167
    1C        C  403   4.490   3.778   2.165
    1C        C  404   4.408   3.976   2.286
    1C        C  405   4.436   3.909   2.407
    1C        C  406   4.323   4.091   2.527
    1C        C  407   4.402   3.974   2.528
    1C        C  408   4.273   4.147   2.646
    1C        C  409   4.314   4.091   2.770
    1C        C  410   4.173   4.249   2.891
    1C        C  411   4.275   4.151   2.892
    1C        C  412   4.122   4.299   3.013
    1C        C  413   4.174   4.251   3.135
    1C        C  414   4.003   4.381   3.255
    1C        C  415   4.121   4.302   3.256
    1C        C  416   3.943   4.420   3.377
    1C        C  417   4.006   4.391   3.500
    1C        C  418   3.816   4.481   3.620
    1C        C  419   3.947   4.428   3.623
    1C        C  420   3.748   4.505   3.742
    1C        C  421   3.817   4.486   3.864
    1C        C  422   3.612   4.540   3.987
    1C        C  423   3.751   4.511   3.986
    1C        C  424   3.543   4.550   4.110
    1C        C  425   3.615   4.549   4.232
    1C        C  426   3.402   4.556   4.358
    1C        C  427   3.543   4.557   4.353
    1C        C  428   3.335   4.549   4.482
    1C        C  429   3.410   4.550   4.602
    1C        C  430   3.199   4.520   4.723
    1C        C  431   3.340   4.541   4.724
    1C        C  432   3.129   4.497   4.844
    1C        C  433   3.206   4.497   4.961
    1C        C  434   4.386   4.125   2.053
    1C        C  435   4.442   3.996   2.054
    1C        C  436   4.306   4.165   2.165
    1C        C  437   4.325   4.092   2.285
    1C        C  438   4.181   4.251   2.402
    1C        C  439   4.277   4.147   2.406
    1C        C  440   4.124   4.296   2.523
    1C        C  441   4.178   4.252   2.646
    1C        C  442   4.004   4.374   2.767
    1C        C  443   4.122   4.296   2.768
    1C        C  444   3.944   4.412   2.889
    1C        C  445   4.007   4.379   3.012
    1C        C  446   3.813   4.472   3.133
    1C        C  447   3.942   4.414   3.133
    1C        C  448   3.747   4.500   3.255
    1C        C  449   3.814   4.477   3.377
    1C        C  450   3.609   4.529   3.500
    1C        C  451   3.747   4.501   3.499
    1C        C  452   3.541   4.544   3.623
    1C        C  453   3.611   4.539   3.745
    1C        C  454   3.398   4.545   3.867
    1C        C  455   3.540   4.549   3.867
    1C        C  456   3.330   4.535   3.991
    1C        C  457   3.402   4.545   4.112
    1C        C  458   3.197   4.503   4.239
    1C        C  459   3.333   4.541   4.236
    1C        C  460   3.129   4.488   4.362
    1C        C  461   3.197   4.518   4.482
    1C        C  462   3.001   4.434   4.606
    1C        C  463   3.130   4.492   4.603
    1C        C  464   2.934   4.400   4.725
    1C        C  465   2.996   4.444   4.846
    1C        C  466   2.804   4.344   4.958
    1C        C  467   2.914   4.431   4.963
    1C        C  468   4.125   4.283   2.044
    1C        C  469   4.188   4.245   2.163
    1C        C  470   4.012   4.381   2.280
    1C        C  471   4.131   4.302   2.280
    1C        C  472   3.948   4.412   2.402
    1C        C  473   4.009   4.378   2.524
    1C        C  474   3.815   4.469   2.644
    1C        C  475   3.945   4.412   2.645
    1C        C  476   3.746   4.489   2.765
    1C        C  477   3.813   4.465   2.887
    1C        C  478   3.608   4.518   3.009
    1C        C  479   3.747   4.489   3.009
    1C        C  480   3.539   4.533   3.131
    1C        C  481   3.609   4.532   3.254
    1C        C  482   3.398   4.538   3.376
    1C        C  483   3.539   4.538   3.377
    1C        C  484   3.331   4.535   3.500
    1C        C  485   3.399   4.547   3.623
    1C        C  486   3.193   4.496   3.746
    1C        C  487   3.329   4.535   3.745
    1C        C  488   3.131   4.469   3.870
    1C        C  489   3.195   4.494   3.993
    1C        C  490   3.003   4.413   4.119
    1C        C  491   3.130   4.476   4.117
    1C        C  492   2.947   4.375   4.243
    1C        C  493   3.006   4.419   4.364
    1C        C  494   2.831   4.300   4.484
    1C        C  495   2.942   4.387   4.486
    1C        C  496   2.775   4.256   4.606
    1C        C  497   2.822   4.312   4.726
    1C        C  498   2.667   4.166   4.845
    1C        C  499   2.756   4.275   4.845
    1C        C  500   2.597   4.117   4.957
    1C        C  501   4.009   4.360   2.043
    1C        C  502   3.818   4.466   2.155
    1C        C  503   3.947   4.411   2.158
    1C        C  504   3.748   4.482   2.277
    1C        C  505   3.815   4.461   2.400
    1C        C  506   3.608   4.512   2.520
    1C        C  507   3.747   4.486   2.521
    1C        C  508   3.537   4.518   2.642
    1C        C  509   3.607   4.514   2.765
    1C        C  510   3.396   4.524   2.887
    1C        C  511   3.537   4.525   2.887
    1C        C  512   3.325   4.525   3.009
    1C        C  513   3.398   4.536   3.130
    1C        C  514   3.192   4.491   3.257
    1C        C  515   3.328   4.526   3.253
    1C        C  516   3.127   4.466   3.380
    1C        C  517   3.197   4.491   3.500
    1C        C  518   3.000   4.414   3.627
    1C        C  519   3.128   4.474   3.622
    1C        C  520   2.942   4.375   3.750
    1C        C  521   3.005   4.405   3.873
    1C        C  522   2.836   4.283   3.999
    1C        C  523   2.948   4.370   3.997
    1C        C  524   2.789   4.234   4.123
    1C        C  525   2.834   4.290   4.245
    1C        C  526   2.694   4.130   4.366
    1C        C  527   2.777   4.244   4.365
    1C        C  528   2.653   4.074   4.489
    1C        C  529   2.689   4.145   4.606
    1C        C  530   2.582   3.962   4.730
    1C        C  531   2.641   4.091   4.728
    1C        C  532   2.546   3.902   4.854
    1C        C  533   2.528   3.996   4.960
    1C        C  534   3.617   4.560   2.043
    1C        C  535   3.749   4.513   2.042
    1C        C  536   3.537   4.538   2.160
    1C        C  537   3.610   4.514   2.279
    1C        C  538   3.395   4.520   2.401
    1C        C  539   3.536   4.524   2.399
    1C        C  540   3.323   4.516   2.522
    1C        C  541   3.396   4.519   2.643
    1C        C  542   3.187   4.482   2.766
    1C        C  543   3.325   4.512   2.765
    1C        C  544   3.122   4.465   2.890
    1C        C  545   3.188   4.491   3.012
    1C        C  546   2.996   4.405   3.136
    1C        C  547   3.122   4.470   3.136
    1C        C  548   2.943   4.363   3.260
    1C        C  549   3.000   4.404   3.382
    1C        C  550   2.832   4.281   3.508
    1C        C  551   2.940   4.372   3.507
    1C        C  552   2.783   4.232   3.631
    1C        C  553   2.835   4.283   3.753
    1C        C  554   2.701   4.122   3.875
    1C        C  555   2.789   4.232   3.876
    1C        C  556   2.659   4.065   3.997
    1C        C  557   2.700   4.124   4.118
    1C        C  558   2.595   3.945   4.246
    1C        C  559   2.661   4.070   4.243
    1C        C  560   2.565   3.880   4.368
    1C        C  561   2.586   3.949   4.489
    1C        C  562   2.530   3.748   4.614
    1C        C  563   2.561   3.886   4.613
    1C        C  564   2.518   3.681   4.738
    1C        C  565   2.524   3.760   4.855
    1C        C  566   2.532   3.547   4.977
    1C        C  567   2.522   3.686   4.974
    1C        C  568   3.328   4.476   2.043
    1C        C  569   3.398   4.509   2.160
    1C        C  570   3.183   4.479   2.281
    1C        C  571   3.322   4.509   2.280
    1C        C  572   3.117   4.456   2.404
    1C        C  573   3.186   4.482   2.524
    1C        C  574   2.985   4.408   2.649
    1C        C  575   3.116   4.461   2.645
    1C        C  576   2.928   4.366   2.772
    1C        C  577   2.997   4.398   2.890
    1C        C  578   2.828   4.277   3.017
    1C        C  579   2.936   4.368   3.014
    1C        C  580   2.780   4.228   3.140
    1C        C  581   2.830   4.278   3.263
    1C        C  582   2.696   4.118   3.384
    1C        C  583   2.780   4.232   3.387
    1C        C  584   2.658   4.062   3.508
    1C        C  585   2.696   4.121   3.631
    1C        C  586   2.594   3.936   3.757
    1C        C  587   2.660   4.061   3.754
    1C        C  588   2.566   3.873   3.880
    1C        C  589   2.594   3.939   4.002
    1C        C  590   2.541   3.737   4.128
    1C        C  591   2.572   3.875   4.126
    1C        C  592   2.525   3.671   4.251
    1C        C  593   2.530   3.743   4.373
    1C        C  594   2.513   3.533   4.497
    1C        C  595   2.517   3.674   4.495
    1C        C  596   2.521   3.463   4.620
    1C        C  597   2.521   3.538   4.739
    1C        C  598   2.535   3.327   4.866
    1C        C  599   2.527   3.468   4.861
    1C        C  600   2.533   3.249   4.982
    1C        C  601   3.194   4.444   2.045
    1C        C  602   2.979   4.402   2.163
    1C        C  603   3.115   4.446   2.161
    1C        C  604   2.919   4.366   2.287
    1C        C  605   2.989   4.398   2.405
    1C        C  606   2.819   4.273   2.529
    1C        C  607   2.929   4.361   2.528
    1C        C  608   2.769   4.226   2.652
    1C        C  609   2.816   4.280   2.774
    1C        C  610   2.687   4.115   2.896
    1C        C  611   2.770   4.229   2.897
    1C        C  612   2.657   4.054   3.021
    1C        C  613   2.697   4.114   3.143
    1C        C  614   2.590   3.930   3.266
    1C        C  615   2.658   4.053   3.264
    1C        C  616   2.562   3.870   3.392
    1C        C  617   2.590   3.938   3.512
    1C        C  618   2.530   3.735   3.638
    1C        C  619   2.567   3.872   3.634
    1C        C  620   2.519   3.666   3.760
    1C        C  621   2.530   3.736   3.882
    1C        C  622   2.513   3.527   4.008
    1C        C  623   2.525   3.667   4.006
    1C        C  624   2.519   3.460   4.132
    1C        C  625   2.515   3.530   4.255
    1C        C  626   2.538   3.319   4.378
    1C        C  627   2.516   3.459   4.377
    1C        C  628   2.558   3.252   4.501
    1C        C  629   2.548   3.324   4.622
    1C        C  630   2.602   3.123   4.746
    1C        C  631   2.554   3.256   4.746
    1C        C  632   2.617   3.048   4.866
    1C        C  633   2.564   3.113   4.982
    1C        C  634   2.779   4.309   2.054
    1C        C  635   2.897   4.384   2.047
    1C        C  636   2.745   4.236   2.168
    1C        C  637   2.804   4.282   2.287
    1C        C  638   2.673   4.115   2.412
    1C        C  639   2.760   4.226   2.409
    1C        C  640   2.643   4.051   2.534
    1C        C  641   2.686   4.111   2.655
    1C        C  642   2.585   3.925   2.778
    1C        C  643   2.644   4.053   2.777
    1C        C  644   2.567   3.858   2.901
    1C        C  645   2.592   3.929   3.021
    1C        C  646   2.536   3.726   3.150
    1C        C  647   2.572   3.862   3.144
    1C        C  648   2.518   3.659   3.273
    1C        C  649   2.534   3.732   3.393
    1C        C  650   2.520   3.522   3.518
    1C        C  651   2.527   3.664   3.516
    1C        C  652   2.526   3.455   3.642
    1C        C  653   2.521   3.525   3.765
    1C        C  654   2.541   3.315   3.889
    1C        C  655   2.518   3.454   3.887
    1C        C  656   2.553   3.246   4.012
    1C        C  657   2.540   3.320   4.132
    1C        C  658   2.611   3.122   4.259
    1C        C  659   2.563   3.255   4.255
    1C        C  660   2.638   3.055   4.380
    1C        C  661   2.605   3.118   4.502
    1C        C  662   2.705   2.934   4.627
    1C        C  663   2.633   3.056   4.625
    1C        C  664   2.752   2.875   4.747
    1C        C  665   2.703   2.934   4.867
    1C        C  666   2.750   2.877   4.986
    1C        C  667   2.672   4.031   2.054
    1C        C  668   2.686   4.107   2.170
    1C        C  669   2.585   3.919   2.294
    1C        C  670   2.640   4.050   2.291
    1C        C  671   2.559   3.852   2.415
    1C        C  672   2.590   3.920   2.535
    1C        C  673   2.524   3.720   2.660
    1C        C  674   2.559   3.857   2.658
    1C        C  675   2.514   3.650   2.783
    1C        C  676   2.531   3.721   2.904
    1C        C  677   2.512   3.514   3.031
    1C        C  678   2.524   3.655   3.028
    1C        C  679   2.511   3.445   3.154
    1C        C  680   2.512   3.518   3.275
    1C        C  681   2.537   3.308   3.400
    1C        C  682   2.515   3.448   3.398
    1C        C  683   2.558   3.245   3.525
    1C        C  684   2.538   3.314   3.646
    1C        C  685   2.610   3.114   3.770
    1C        C  686   2.558   3.245   3.767
    1C        C  687   2.641   3.052   3.893
    1C        C  688   2.610   3.117   4.015
    1C        C  689   2.715   2.935   4.140
    1C        C  690   2.642   3.056   4.138
    1C        C  691   2.756   2.877   4.262
    1C        C  692   2.714   2.936   4.384
    1C        C  693   2.757   2.881   4.507
    1C        C  694   2.623   3.899   2.056
    1C        C  695   2.530   3.709   2.176
    1C        C  696   2.577   3.842   2.175
    1C        C  697   2.513   3.639   2.298
    1C        C  698   2.523   3.716   2.416
    1C        C  699   2.496   3.507   2.542
    1C        C  700   2.510   3.647   2.539
    1C        C  701   2.509   3.438   2.664
    1C        C  702   2.506   3.509   2.786
    1C        C  703   2.530   3.301   2.912
    1C        C  704   2.509   3.441   2.910
    1C        C  705   2.552   3.235   3.034
    1C        C  706   2.538   3.306   3.155
    1C        C  707   2.597   3.104   3.279
    1C        C  708   2.551   3.238   3.278
    1C        C  709   2.633   3.046   3.403
    1C        C  710   2.609   3.113   3.524
    1C        C  711   2.714   2.930   3.650
    1C        C  712   2.637   3.049   3.647
    1C        C  713   2.754   2.873   3.773
    1C        C  714   2.715   2.932   3.895
    1C        C  715   2.754   2.874   4.018
    1C        C  716   2.450   3.502   2.067
    1C        C  717   2.489   3.636   2.064
    1C        C  718   2.468   3.422   2.185
    1C        C  719   2.491   3.499   2.302
    1C        C  720   2.520   3.289   2.427
    1C        C  721   2.494   3.428   2.424
    1C        C  722   2.544   3.223   2.549
    1C        C  723   2.529   3.298   2.667
    1C        C  724   2.599   3.099   2.790
    1C        C  725   2.550   3.232   2.790
    1C        C  726   2.625   3.034   2.912
    1C        C  727   2.602   3.103   3.034
    1C        C  728   2.711   2.925   3.158
    1C        C  729   2.631   3.042   3.158
    1C        C  730   2.758   2.875   3.282
    1C        C  731   2.713   2.929   3.405
    1C        C  732   2.756   2.874   3.528
    1C        C  733   2.491   3.196   2.073
    1C        C  734   2.495   3.281   2.184
    1C        C  735   2.582   3.085   2.306
    1C        C  736   2.532   3.218   2.305
    1C        C  737   2.623   3.022   2.426
    1C        C  738   2.597   3.092   2.546
    1C        C  739   2.697   2.908   2.674
    1C        C  740   2.625   3.029   2.670
    1C        C  741   2.742   2.853   2.796
    1C        C  742   2.700   2.914   2.916
    1C        C  743   2.750   2.863   3.038
    1C        C  744   2.540   3.066   2.072
    1C        C  745   2.682   2.896   2.190
    1C        C  746   2.600   3.011   2.187
    1C        C  747   2.729   2.838   2.309
    1C        C  748   2.684   2.895   2.430
    1C        C  749   2.730   2.843   2.553
    1C        C  750   2.730   2.837   2.073
    1C        C  751   3.666   2.325   1.978
    1C        O  752   3.652   2.205   2.012
    1C        O  753   3.624   2.341   1.845
    1C        C  754   4.652   3.058   1.998
    1C        O  755   4.643   3.006   1.883
    1C        O  756   4.776   3.041   2.062
    1C        C  757   4.467   4.220   1.974
    1C        O  758   4.550   4.295   2.033
    1C        O  759   4.480   4.205   1.836
    1C        C  760   3.589   4.678   1.959
    1C        O  761   3.625   4.790   2.004
    1C        O  762   3.551   4.676   1.824
    1C        C  763   2.885   4.499   1.954
    1C        O  764   2.934   4.491   1.838
    1C        O  765   2.827   4.620   1.996
    1C        C  766   2.343   3.469   1.970
    1C        O  767   2.358   3.425   1.852
    1C        O  768   2.211   3.457   2.014
    1C        C  769   4.680   3.594   5.070
    1C        O  770   4.658   3.614   5.193
    1C        O  771   4.811   3.561   5.032
    1C        C  772   4.273   4.461   5.035
    1C        O  773   4.261   4.440   5.159
    1C        O  774   4.296   4.598   5.021
    1C        C  775   4.137   2.546   5.090
    1C        O  776   4.239   2.475   5.065
    1C        O  777   4.095   2.541   5.223
    1C        C  778   2.890   4.547   5.051
    1C        O  779   2.819   4.643   5.008
    1C        O  780   2.877   4.532   5.189
    1C        C  781   2.488   3.043   5.089
    1C        O  782   2.411   2.949   5.057
    1C        O  783   2.520   3.054   5.224
    1C        C  784   2.396   4.011   5.026
    1C        O  785   2.289   4.029   4.963
    1C        O  786   2.387   4.012   5.166
    1C        C  787   2.943   2.431   2.007
    1C        O  788   2.936   2.443   1.882
    1C        O  789   2.888   2.310   2.048
    1C        C  790   3.169   2.372   5.067
    1C        O  791   3.160   2.252   5.029
    1C        O  792   3.193   2.378   5.204
    1C        H  793   4.273   3.032   5.055
    1C        H  794   4.204   2.795   5.068
    1C        H  795   4.488   3.131   5.064
    1C        H  796   4.566   3.355   5.067
    1C        H  797   4.559   3.814   5.048
    1C        H  798   4.392   3.964   5.059
    1C        H  799   4.334   4.190   5.050
    1C        H  800   4.054   4.555   5.022
    1C        H  801   3.825   4.605   5.032
    1C        H  802   3.612   4.682   5.010
    1C        H  803   3.399   4.494   5.049
    1C        H  804   3.158   4.521   5.053
    1C        H  805   3.906   2.462   5.058
    1C        H  806   3.675   2.477   5.080
    1C        H  807   3.025   2.588   5.078
    1C        H  808   3.448   2.439   5.072
    1C        H  809   2.899   2.755   5.078
    1C        H  810   2.732   2.930   5.077
    1C        H  811   2.490   3.284   5.074
    1C        H  812   2.512   3.498   5.070
    1C        H  813   2.477   3.728   5.062
    1C        H  814   2.621   4.160   5.052
    1C        H  815   2.748   4.333   5.048
    1C        H  816   2.710   2.892   1.984
    1C        H  817   2.849   2.688   1.977
    1C        H  818   3.210   2.436   1.987
    1C        H  819   3.435   2.471   1.979
    1C        H  820   3.834   2.553   1.977
    1C        H  821   4.050   2.648   1.967
    1C        H  822   4.262   2.716   1.976
    1C        H  823   4.376   2.931   1.968
    1C        H  824   4.614   3.304   1.984
    1C        H  825   4.508   3.510   1.962
    1C        H  826   4.579   3.744   1.980
    1C        H  827   3.805   4.550   1.958
    1C        H  828   3.978   4.395   1.946
    1C        H  829   4.139   4.220   1.959
    1C        H  830   4.498   3.967   1.967
    1C        H  831   2.600   3.852   1.963
    1C        H  832   2.669   4.085   1.962
    1C        H  833   2.738   4.290   1.956
    1C        H  834   3.365   4.517   1.951
    1C        H  835   3.154   4.415   1.950
    1C        H  836   2.506   2.993   2.001
    1C        H  837   2.428   3.215   1.988
    1C        H  838   2.471   3.687   1.971
    2V3OU   H29  839   2.802   3.552   1.672
    2V3OU   C27  840   2.782   3.506   1.772
    2V3OU   H27  841   2.722   3.570   1.843
    2V3OU   H28  842   2.730   3.408   1.757
    2V3OU   O11  843   2.907   3.475   1.833
    2V3OU   C15  844   2.927   3.396   1.945
    2V3OU   C13  845   3.052   3.376   2.007
    2V3OU   C14  846   3.078   3.272   2.097
    2V3OU   C16  847   2.973   3.187   2.129
    2V3OU    H6  848   2.988   3.107   2.204
    2V3OU   C12  849   3.213   3.231   2.143
    2V3OU    O2  850   3.232   3.119   2.195
    2V3OU   C10  851   3.325   3.311   2.092
    2V3OU    C8  852   3.457   3.270   2.108
    2V3OU   O10  853   3.489   3.160   2.182
    2V3OU   H26  854   3.407   3.114   2.203
    2V3OU    C6  855   3.569   3.350   2.071
    2V3OU    C5  856   3.539   3.472   2.012
    2V3OU    C4  857   3.706   3.294   2.081
    2V3OU    H4  858   3.722   3.229   2.172
    2V3OU    H5  859   3.709   3.234   1.985
    2V3OU    C2  860   3.816   3.401   2.080
    2V3OU    O6  861   3.805   3.478   2.200
    2V3OU   H21  862   3.767   3.557   2.158
    2V3OU    C3  863   3.785   3.499   1.967
    2V3OU    H2  864   3.863   3.579   1.959
    2V3OU    H3  865   3.780   3.437   1.874
    2V3OU   C25  866   3.951   3.329   2.067
    2V3OU    O7  867   4.001   3.295   1.960
    2V3OU   C26  868   4.029   3.292   2.191
    2V3OU   H22  869   4.070   3.378   2.250
    2V3OU   H23  870   4.121   3.235   2.162
    2V3OU    O8  871   3.956   3.203   2.274
    2V3OU   H24  872   3.928   3.266   2.342
    2V3OU    C1  873   3.650   3.568   1.982
    2V3OU    H1  874   3.626   3.621   1.885
    2V3OU    O3  875   3.665   3.661   2.090
    2V3OU   C19  876   3.620   3.796   2.076
    2V3OU    H9  877   3.528   3.803   2.010
    2V3OU    O4  878   3.715   3.847   1.986
    2V3OU   C20  879   3.847   3.873   2.036
    2V3OU   H10  880   3.899   3.774   2.051
    2V3OU   C24  881   3.609   3.856   2.217
    2V3OU   H16  882   3.548   3.791   2.285
    2V3OU   H17  883   3.566   3.960   2.216
    2V3OU   C23  884   3.751   3.878   2.268
    2V3OU   H15  885   3.796   3.775   2.283
    2V3OU    N1  886   3.741   3.956   2.390
    2V3OU   H19  887   3.813   3.931   2.455
    2V3OU   H20  888   3.649   3.946   2.426
    2V3OU   C21  889   3.847   3.951   2.168
    2V3OU   H11  890   3.954   3.938   2.202
    2V3OU    O5  891   3.817   4.089   2.177
    2V3OU   H18  892   3.776   4.105   2.264
    2V3OU   C22  893   3.914   3.948   1.922
    2V3OU   H12  894   3.858   4.044   1.906
    2V3OU   H13  895   3.903   3.888   1.828
    2V3OU   H14  896   4.024   3.957   1.935
    2V3OU   C11  897   3.161   3.472   1.983
    2V3OU    O1  898   3.130   3.590   1.952
    2V3OU    C9  899   3.297   3.429   2.018
    2V3OU    C7  900   3.404   3.512   1.986
    2V3OU    O9  901   3.383   3.617   1.899
    2V3OU   H25  902   3.291   3.624   1.871
    2V3OU   C17  903   2.818   3.318   1.989
    2V3OU    H7  904   2.715   3.347   1.973
    2V3OU   C18  905   2.848   3.213   2.075
    2V3OU    H8  906   2.767   3.151   2.116
    3SOL     OW  907   2.244   4.331   1.045
    3SOL    HW1  908   2.306   4.261   1.082
    3SOL    HW2  909   2.197   4.295   0.965
    4SOL     OW  910   6.743   5.364   1.933
    4SOL    HW1  911   6.644   5.379   1.934
    4SOL    HW2  912   6.774   5.343   2.026
    5SOL     OW  913   3.399   1.162   2.706
    5SOL    HW1  914   3.436   1.111   2.628
    5SOL    HW2  915   3.441   1.252   2.710
    6SOL     OW  916   3.670   1.023   2.270
    6SOL    HW1  917   3.745   1.084   2.293
    6SOL    HW2  918   3.687   0.979   2.182
    7SOL     OW  919   6.223   3.313   1.859
    7SOL    HW1  920   6.165   3.391   1.835
    7SOL    HW2  921   6.254   3.322   1.953
    8SOL     OW  922   2.468   7.026   5.316
    8SOL    HW1  923   2.402   0.027   5.246
    8SOL    HW2  924   2.508   0.082   5.356
    9SOL     OW  925   0.967   5.663   6.321
    9SOL    HW1  926   0.972   5.666   6.221
    9SOL    HW2  927   1.036   5.725   6.360
   10SOL     OW  928   1.286   4.807   5.478
   10SOL    HW1  929   1.196   4.815   5.435
   10SOL    HW2  930   1.339   4.736   5.432
   11SOL     OW  931   2.709   0.549   0.201
   11SOL    HW1  932   2.705   0.513   0.294
   11SOL    HW2  933   2.657   0.634   0.196
   12SOL     OW  934   3.934   5.717   4.522
   12SOL    HW1  935   3.842   5.740   4.490
   12SOL    HW2  936   3.930   5.685   4.616
   13SOL     OW  937   3.570   6.071   4.103
   13SOL    HW1  938   3.627   5.992   4.127
   13SOL    HW2  939   3.480   6.061   4.147
   14SOL     OW  940   4.687   5.535   6.630
   14SOL    HW1  941   4.735   5.544   6.542
   14SOL    HW2  942   4.722   5.454   6.678
   15SOL     OW  943   1.464   5.329   0.774
   15SOL    HW1  944   1.381   5.375   0.806
   15SOL    HW2  945   1.459   5.315   0.676
   16SOL     OW  946   5.981   2.430   5.928
   16SOL    HW1  947   5.946   2.452   5.837
   16SOL    HW2  948   5.954   2.337   5.954
   17SOL     OW  949   6.383   5.917   4.915
   17SOL    HW1  950   6.455   5.874   4.969
   17SOL    HW2  951   6.367   6.010   4.949
   18SOL     OW  952   3.032   1.170   6.812
   18SOL    HW1  953   3.046   1.264   6.842
   18SOL    HW2  954   3.113   1.115   6.833
   19SOL     OW  955   0.454   0.053   2.953
   19SOL    HW1  956   0.488   7.000   2.903
   19SOL    HW2  957   0.482   0.046   3.049
   20SOL     OW  958   3.337   2.114   4.009
   20SOL    HW1  959   3.264   2.176   3.982
   20SOL    HW2  960   3.336   2.033   3.950
   21SOL     OW  961   3.327   1.850   2.310
   21SOL    HW1  962   3.387   1.777   2.277
   21SOL    HW2  963   3.346   1.934   2.259
   22SOL     OW  964   2.208   0.255   0.042
   22SOL    HW1  965   2.143   0.228   0.113
   22SOL    HW2  966   2.289   0.296   0.084
   23SOL     OW  967   4.300   6.729   3.761
   23SOL    HW1  968   4.238   6.679   3.701
   23SOL    HW2  969   4.382   6.675   3.778
   24SOL     OW  970   5.280   1.783   3.816
   24SOL    HW1  971   5.300   1.693   3.778
   24SOL    HW2  972   5.230   1.773   3.902
   25SOL     OW  973   2.846   5.986   5.928
   25SOL    HW1  974   2.884   6.071   5.963
   25SOL    HW2  975   2.908   5.910   5.951
   26SOL     OW  976   6.315   1.151   0.912
   26SOL    HW1  977   6.374   1.226   0.940
   26SOL    HW2  978   6.258   1.123   0.990
   27SOL     OW  979   0.218   1.402   2.015
   27SOL    HW1  980   0.119   1.404   2.031
   27SOL    HW2  981   0.251   1.495   1.997
   28SOL     OW  982   3.845   0.720   6.954
   28SOL    HW1  983   3.785   0.799   6.965
   28SOL    HW2  984   3.792   0.636   6.964
   29SOL     OW  985   5.578   2.378   1.961
   29SOL    HW1  986   5.558   2.350   2.055
   29SOL    HW2  987   5.598   2.476   1.959
   30SOL     OW  988   3.873   0.055   5.534
   30SOL    HW1  989   3.912   0.146   5.546
   30SOL    HW2  990   3.870   0.032   5.437
   31SOL     OW  991   0.893   2.081   5.961
   31SOL    HW1  992   0.915   2.178   5.974
   31SOL    HW2  993   0.795   2.067   5.977
   32SOL     OW  994   0.456   1.341   2.972
   32SOL    HW1  995   0.459   1.416   2.906
   32SOL    HW2  996   0.522   1.271   2.945
   33SOL     OW  997   2.234   3.539   0.048
   33SOL    HW1  998   2.184   3.530   6.988
   33SOL    HW2  999   2.310   3.474   0.049
   34SOL     OW 1000   2.174   1.183   3.659
   34SOL    HW1 1001   2.221   1.166   3.572
   34SOL    HW2 1002   2.185   1.104   3.719
   35SOL     OW 1003   3.956   2.039   6.698
   35SOL    HW1 1004   3.969   1.955   6.751
   35SOL    HW2 1005   3.858   2.053   6.682
   36SOL     OW 1006   0.673   0.434   6.463
   36SOL    HW1 1007   0.750   0.486   6.426
   36SOL    HW2 1008   0.701   0.391   6.549
   37SOL     OW 1009   2.094   0.819   0.156
   37SOL    HW1 1010   2.123   0.724   0.166
   37SOL    HW2 1011   2.081   0.840   0.059
   38SOL     OW 1012   0.419   5.115   3.014
   38SOL    HW1 1013   0.416   5.210   2.984
   38SOL    HW2 1014   0.355   5.061   2.959
   39SOL     OW 1015   6.270   4.505   6.605
   39SOL    HW1 1016   6.229   4.581   6.555
   39SOL    HW2 1017   6.355   4.477   6.561
   40SOL     OW 1018   5.994   2.054   1.363
   40SOL    HW1 1019   5.916   2.110   1.390
   40SOL    HW2 1020   6.020   2.076   1.270
   41SOL     OW 1021   0.888   6.462   4.343
   41SOL    HW1 1022   0.815   6.398   4.320
   41SOL    HW2 1023   0.866   6.553   4.307
   42SOL     OW 1024   2.896   6.186   6.356
   42SOL    HW1 1025   2.853   6.118   6.297
   42SOL    HW2 1026   2.855   6.275   6.340
   43SOL     OW 1027   6.045   6.119   5.718
   43SOL    HW1 1028   6.019   6.208   5.680
   43SOL    HW2 1029   5.979   6.050   5.691
   44SOL     OW 1030   6.298   2.500   6.142
   44SOL    HW1 1031   6.201   2.515   6.162
   44SOL    HW2 1032   6.353   2.537   6.218
   45SOL     OW 1033   3.188   0.646   3.289
   45SOL    HW1 1034   3.089   0.647   3.278
   45SOL    HW2 1035   3.223   0.739   3.286
   46SOL     OW 1036   1.295   3.443   4.553
   46SOL    HW1 1037   1.296   3.540   4.576
   46SOL    HW2 1038   1.373   3.421   4.495
   47SOL     OW 1039   5.274   4.047   2.982
   47SOL    HW1 1040   5.207   4.008   2.920
   47SOL    HW2 1041   5.330   4.114   2.933
   48SOL     OW 1042   0.466   3.086   5.294
   48SOL    HW1 1043   0.552   3.051   5.257
   48SOL    HW2 1044   0.428   3.155   5.232
   49SOL     OW 1045   4.623   4.002   1.699
   49SOL    HW1 1046   4.577   4.089   1.716
   49SOL    HW2 1047   4.607   3.973   1.605
   50SOL     OW 1048   6.464   2.565   5.670
   50SOL    HW1 1049   6.448   2.484   5.614
   50SOL    HW2 1050   6.412   2.558   5.755
   51SOL     OW 1051   2.986   5.954   2.960
   51SOL    HW1 1052   3.015   5.859   2.951
   51SOL    HW2 1053   2.999   5.984   3.055
   52SOL     OW 1054   4.597   2.072   3.647
   52SOL    HW1 1055   4.604   2.135   3.724
   52SOL    HW2 1056   4.512   2.021   3.654
   53SOL     OW 1057   4.496   0.493   4.529
   53SOL    HW1 1058   4.413   0.547   4.542
   53SOL    HW2 1059   4.516   0.484   4.432
   54SOL     OW 1060   3.968   4.924   0.658
   54SOL    HW1 1061   3.985   4.837   0.706
   54SOL    HW2 1062   3.925   4.905   0.570
   55SOL     OW 1063   3.603   1.231   6.241
   55SOL    HW1 1064   3.658   1.247   6.159
   55SOL    HW2 1065   3.540   1.309   6.254
   56SOL     OW 1066   1.428   0.785   1.414
   56SOL    HW1 1067   1.414   0.858   1.482
   56SOL    HW2 1068   1.339   0.752   1.383
   57SOL     OW 1069   5.272   0.986   1.404
   57SOL    HW1 1070   5.311   0.901   1.440
   57SOL    HW2 1071   5.343   1.036   1.354
   58SOL     OW 1072   6.959   6.740   5.589
   58SOL    HW1 1073   6.972   6.645   5.617
   58SOL    HW2 1074   6.870   6.750   5.545
   59SOL     OW 1075   1.867   1.204   5.990
   59SOL    HW1 1076   1.880   1.292   5.945
   59SOL    HW2 1077   1.853   1.218   6.088
   60SOL     OW 1078   6.228   0.915   6.077
   60SOL    HW1 1079   6.220   0.959   5.988
   60SOL    HW2 1080   6.265   0.823   6.065
   61SOL     OW 1081   5.289   1.644   4.535
   61SOL    HW1 1082   5.190   1.629   4.542
   61SOL    HW2 1083   5.327   1.658   4.626
   62SOL     OW 1084   0.910   0.638   3.796
   62SOL    HW1 1085   0.811   0.641   3.804
   62SOL    HW2 1086   0.945   0.730   3.777
   63SOL     OW 1087   6.833   1.282   3.623
   63SOL    HW1 1088   6.777   1.225   3.682
   63SOL    HW2 1089   6.818   1.257   3.528
   64SOL     OW 1090   0.723   4.241   6.485
   64SOL    HW1 1091   0.747   4.287   6.399
   64SOL    HW2 1092   0.744   4.144   6.477
   65SOL     OW 1093   6.549   4.385   5.063
   65SOL    HW1 1094   6.482   4.360   4.994
   65SOL    HW2 1095   6.526   4.340   5.150
   66SOL     OW 1096   3.721   0.241   6.770
   66SOL    HW1 1097   3.821   0.243   6.764
   66SOL    HW2 1098   3.684   0.193   6.690
   67SOL     OW 1099   5.621   4.991   5.457
   67SOL    HW1 1100   5.587   5.079   5.493
   67SOL    HW2 1101   5.721   4.989   5.462
   68SOL     OW 1102   5.997   0.547   6.388
   68SOL    HW1 1103   6.081   0.595   6.365
   68SOL    HW2 1104   5.956   0.510   6.305
   69SOL     OW 1105   1.816   4.061   6.787
   69SOL    HW1 1106   1.877   3.983   6.772
   69SOL    HW2 1107   1.783   4.059   6.881
   70SOL     OW 1108   6.632   5.134   3.498
   70SOL    HW1 1109   6.579   5.218   3.488
   70SOL    HW2 1110   6.673   5.131   3.589
   71SOL     OW 1111   3.593   1.972   2.449
   71SOL    HW1 1112   3.680   2.017   2.466
   71SOL    HW2 1113   3.600   1.916   2.366
   72SOL     OW 1114   2.935   5.892   4.777
   72SOL    HW1 1115   3.000   5.873   4.704
   72SOL    HW2 1116   2.890   5.807   4.805
   73SOL     OW 1117   3.551   1.535   0.503
   73SOL    HW1 1118   3.577   1.482   0.584
   73SOL    HW2 1119   3.606   1.618   0.500
   74SOL     OW 1120   5.533   6.243   6.428
   74SOL    HW1 1121   5.455   6.260   6.367
   74SOL    HW2 1122   5.618   6.260   6.379
   75SOL     OW 1123   3.478   6.689   6.092
   75SOL    HW1 1124   3.412   6.617   6.069
   75SOL    HW2 1125   3.487   6.751   6.015
   76SOL     OW 1126   2.046   3.070   1.200
   76SOL    HW1 1127   1.983   3.121   1.259
   76SOL    HW2 1128   1.994   3.003   1.147
   77SOL     OW 1129   5.098   5.997   4.650
   77SOL    HW1 1130   5.142   5.915   4.614
   77SOL    HW2 1131   5.004   5.975   4.677
   78SOL     OW 1132   5.883   0.465   5.475
   78SOL    HW1 1133   5.886   0.401   5.552
   78SOL    HW2 1134   5.811   0.533   5.492
   79SOL     OW 1135   3.337   0.107   0.362
   79SOL    HW1 1136   3.238   0.121   0.371
   79SOL    HW2 1137   3.368   0.043   0.433
   80SOL     OW 1138   5.842   1.392   4.370
   80SOL    HW1 1139   5.765   1.359   4.315
   80SOL    HW2 1140   5.919   1.329   4.361
   81SOL     OW 1141   2.381   0.042   2.561
   81SOL    HW1 1142   2.291   0.050   2.519
   81SOL    HW2 1143   2.373   7.019   2.648
   82SOL     OW 1144   6.878   5.774   0.362
   82SOL    HW1 1145   6.905   5.678   0.368
   82SOL    HW2 1146   6.910   5.812   0.276
   83SOL     OW 1147   6.495   0.111   0.412
   83SOL    HW1 1148   6.396   0.128   0.414
   83SOL    HW2 1149   6.544   0.197   0.430
   84SOL     OW 1150   4.888   3.168   3.564
   84SOL    HW1 1151   4.855   3.083   3.521
   84SOL    HW2 1152   4.983   3.156   3.593
   85SOL     OW 1153   1.769   1.817   5.157
   85SOL    HW1 1154   1.820   1.746   5.207
   85SOL    HW2 1155   1.745   1.891   5.220
   86SOL     OW 1156   0.790   0.547   5.731
   86SOL    HW1 1157   0.744   0.594   5.807
   86SOL    HW2 1158   0.769   0.594   5.645
   87SOL     OW 1159   4.930   3.688   0.358
   87SOL    HW1 1160   4.964   3.677   0.451
   87SOL    HW2 1161   4.831   3.678   0.357
   88SOL     OW 1162   4.346   2.053   6.545
   88SOL    HW1 1163   4.301   2.104   6.619
   88SOL    HW2 1164   4.314   2.088   6.457
   89SOL     OW 1165   0.983   3.146   6.647
   89SOL    HW1 1166   0.921   3.099   6.584
   89SOL    HW2 1167   1.056   3.191   6.595
   90SOL     OW 1168   4.509   6.548   3.873
   90SOL    HW1 1169   4.416   6.520   3.896
   90SOL    HW2 1170   4.526   6.530   3.776
   91SOL     OW 1171   4.806   4.039   4.151
   91SOL    HW1 1172   4.803   4.047   4.251
   91SOL    HW2 1173   4.855   3.956   4.126
   92SOL     OW 1174   3.356   4.126   0.372
   92SOL    HW1 1175   3.431   4.184   0.340
   92SOL    HW2 1176   3.271   4.155   0.330
   93SOL     OW 1177   2.448   4.315   6.513
   93SOL    HW1 1178   2.406   4.405   6.501
   93SOL    HW2 1179   2.502   4.292   6.433
   94SOL     OW 1180   2.562   6.409   6.289
   94SOL    HW1 1181   2.563   6.381   6.385
   94SOL    HW2 1182   2.514   6.341   6.235
   95SOL     OW 1183   0.750   1.441   2.740
   95SOL    HW1 1184   0.723   1.350   2.710
   95SOL    HW2 1185   0.671   1.503   2.733
   96SOL     OW 1186   2.820   6.853   5.413
   96SOL    HW1 1187   2.891   6.921   5.395
   96SOL    HW2 1188   2.793   6.809   5.327
   97SOL     OW 1189   0.794   3.690   5.613
   97SOL    HW1 1190   0.725   3.618   5.616
   97SOL    HW2 1191   0.753   3.777   5.643
   98SOL     OW 1192   6.578   3.982   0.026
   98SOL    HW1 1193   6.620   3.892   0.029
   98SOL    HW2 1194   6.500   3.984   0.088
   99SOL     OW 1195   4.416   3.908   0.749
   99SOL    HW1 1196   4.349   3.979   0.772
   99SOL    HW2 1197   4.384   3.820   0.785
  100SOL     OW 1198   0.143   0.021   6.087
  100SOL    HW1 1199   0.181   0.026   5.995
  100SOL    HW2 1200   0.164   6.958   6.127
  101SOL     OW 1201   1.607   5.752   2.647
  101SOL    HW1 1202   1.683   5.816   2.631
  101SOL    HW2 1203   1.582   5.709   2.560
  102SOL     OW 1204   4.796   0.529   2.367
  102SOL    HW1 1205   4.744   0.609   2.339
  102SOL    HW2 1206   4.849   0.495   2.289
  103SOL     OW 1207   3.488   0.947   2.472
  103SOL    HW1 1208   3.569   0.979   2.423
  103SOL    HW2 1209   3.510   0.863   2.522
  104SOL     OW 1210   0.069   5.008   2.460
  104SOL    HW1 1211   0.122   5.091   2.441
  104SOL    HW2 1212   0.015   5.021   2.543
  105SOL     OW 1213   6.487   1.959   6.049
  105SOL    HW1 1214   6.426   1.946   6.127
  105SOL    HW2 1215   6.440   2.013   5.979
  106SOL     OW 1216   3.372   6.358   5.046
  106SOL    HW1 1217   3.273   6.346   5.056
  106SOL    HW2 1218   3.391   6.429   4.978
  107SOL     OW 1219   1.632   2.211   2.030
  107SOL    HW1 1220   1.642   2.297   2.080
  107SOL    HW2 1221   1.711   2.197   1.971
  108SOL     OW 1222   4.209   5.014   5.851
  108SOL    HW1 1223   4.305   4.990   5.864
  108SOL    HW2 1224   4.151   4.939   5.885
  109SOL     OW 1225   0.789   1.558   1.330
  109SOL    HW1 1226   0.808   1.481   1.268
  109SOL    HW2 1227   0.842   1.637   1.301
  110SOL     OW 1228   3.932   6.314   5.364
  110SOL    HW1 1229   3.899   6.255   5.290
  110SOL    HW2 1230   3.894   6.282   5.451
  111SOL     OW 1231   3.299   0.312   5.462
  111SOL    HW1 1232   3.333   0.394   5.417
  111SOL    HW2 1233   3.205   0.294   5.431
  112SOL     OW 1234   6.150   6.378   6.348
  112SOL    HW1 1235   6.127   6.469   6.313
  112SOL    HW2 1236   6.232   6.344   6.302
  113SOL     OW 1237   6.665   4.911   3.310
  113SOL    HW1 1238   6.669   4.994   3.365
  113SOL    HW2 1239   6.751   4.862   3.317
  114SOL     OW 1240   0.996   0.434   1.423
  114SOL    HW1 1241   0.951   0.368   1.484
  114SOL    HW2 1242   0.937   0.514   1.412
  115SOL     OW 1243   3.566   1.676   3.700
  115SOL    HW1 1244   3.538   1.661   3.794
  115SOL    HW2 1245   3.521   1.609   3.640
  116SOL     OW 1246   6.244   5.132   2.045
  116SOL    HW1 1247   6.195   5.046   2.060
  116SOL    HW2 1248   6.342   5.117   2.055
  117SOL     OW 1249   1.207   1.400   6.379
  117SOL    HW1 1250   1.152   1.358   6.452
  117SOL    HW2 1251   1.164   1.486   6.351
  118SOL     OW 1252   1.334   1.263   2.712
  118SOL    HW1 1253   1.286   1.334   2.762
  118SOL    HW2 1254   1.374   1.302   2.629
  119SOL     OW 1255   1.510   2.171   6.030
  119SOL    HW1 1256   1.600   2.157   6.072
  119SOL    HW2 1257   1.461   2.084   6.027
  120SOL     OW 1258   6.517   6.873   0.437
  120SOL    HW1 1259   6.553   6.810   0.368
  120SOL    HW2 1260   6.543   6.967   0.413
  121SOL     OW 1261   2.682   3.968   6.949
  121SOL    HW1 1262   2.606   4.032   6.939
  121SOL    HW2 1263   2.745   3.978   6.872
  122SOL     OW 1264   1.739   4.612   6.282
  122SOL    HW1 1265   1.814   4.635   6.343
  122SOL    HW2 1266   1.669   4.562   6.333
  123SOL     OW 1267   0.363   2.160   1.686
  123SOL    HW1 1268   0.357   2.257   1.707
  123SOL    HW2 1269   0.286   2.133   1.629
  124SOL     OW 1270   5.279   3.173   0.425
  124SOL    HW1 1271   5.213   3.226   0.371
  124SOL    HW2 1272   5.244   3.161   0.518
  125SOL     OW 1273   2.295   2.120   1.963
  125SOL    HW1 1274   2.360   2.046   1.982
  125SOL    HW2 1275   2.267   2.115   1.867
  126SOL     OW 1276   2.588   4.450   1.195
  126SOL    HW1 1277   2.665   4.409   1.145
  126SOL    HW2 1278   2.541   4.516   1.135
  127SOL     OW 1279   6.889   5.654   5.938
  127SOL    HW1 1280   6.947   5.645   5.857
  127SOL    HW2 1281   6.930   5.604   6.014
  128SOL     OW 1282   4.333   2.593   1.474
  128SOL    HW1 1283   4.272   2.670   1.453
  128SOL    HW2 1284   4.293   2.508   1.440
  129SOL     OW 1285   4.076   3.666   6.024
  129SOL    HW1 1286   4.139   3.589   6.021
  129SOL    HW2 1287   4.025   3.670   5.938
  130SOL     OW 1288   0.695   1.231   4.173
  130SOL    HW1 1289   0.742   1.143   4.174
  130SOL    HW2 1290   0.607   1.222   4.127
  131SOL     OW 1291   5.527   1.562   2.235
  131SOL    HW1 1292   5.464   1.500   2.282
  131SOL    HW2 1293   5.569   1.515   2.157
  132SOL     OW 1294   2.584   3.039   0.922
  132SOL    HW1 1295   2.518   3.098   0.969
  132SOL    HW2 1296   2.582   2.948   0.962
  133SOL     OW 1297   4.866   6.449   4.147
  133SOL    HW1 1298   4.799   6.520   4.166
  133SOL    HW2 1299   4.877   6.438   4.048
  134SOL     OW 1300   5.737   1.343   2.299
  134SOL    HW1 1301   5.701   1.411   2.236
  134SOL    HW2 1302   5.770   1.388   2.382
  135SOL     OW 1303   5.635   3.501   1.820
  135SOL    HW1 1304   5.580   3.565   1.874
  135SOL    HW2 1305   5.724   3.488   1.864
  136SOL     OW 1306   3.633   3.815   6.397
  136SOL    HW1 1307   3.693   3.735   6.395
  136SOL    HW2 1308   3.632   3.859   6.307
  137SOL     OW 1309   5.206   0.571   4.567
  137SOL    HW1 1310   5.258   0.486   4.564
  137SOL    HW2 1311   5.145   0.570   4.646
  138SOL     OW 1312   0.576   4.192   3.652
  138SOL    HW1 1313   0.663   4.192   3.603
  138SOL    HW2 1314   0.586   4.245   3.736
  139SOL     OW 1315   2.544   6.206   5.144
  139SOL    HW1 1316   2.597   6.135   5.192
  139SOL    HW2 1317   2.552   6.192   5.045
  140SOL     OW 1318   0.494   5.954   3.095
  140SOL    HW1 1319   0.573   5.893   3.093
  140SOL    HW2 1320   0.441   5.939   3.179
  141SOL     OW 1321   6.004   3.272   5.385
  141SOL    HW1 1322   6.092   3.248   5.424
  141SOL    HW2 1323   5.938   3.290   5.458
  142SOL     OW 1324   1.908   4.888   0.556
  142SOL    HW1 1325   2.006   4.869   0.545
  142SOL    HW2 1326   1.896   4.983   0.583
  143SOL     OW 1327   5.631   4.280   1.646
  143SOL    HW1 1328   5.658   4.235   1.561
  143SOL    HW2 1329   5.714   4.305   1.697
  144SOL     OW 1330   1.488   6.465   6.722
  144SOL    HW1 1331   1.506   6.510   6.809
  144SOL    HW2 1332   1.567   6.476   6.662
  145SOL     OW 1333   0.687   5.060   0.387
  145SOL    HW1 1334   0.608   5.120   0.379
  145SOL    HW2 1335   0.724   5.041   0.295
  146SOL     OW 1336   4.858   0.325   6.147
  146SOL    HW1 1337   4.928   0.367   6.089
  146SOL    HW2 1338   4.902   0.272   6.219
  147SOL     OW 1339   5.887   3.117   6.492
  147SOL    HW1 1340   5.976   3.075   6.475
  147SOL    HW2 1341   5.900   3.208   6.533
  148SOL     OW 1342   0.318   4.698   6.672
  148SOL    HW1 1343   0.320   4.655   6.582
  148SOL    HW2 1344   0.239   4.760   6.677
  149SOL     OW 1345   2.929   1.956   4.325
  149SOL    HW1 1346   2.984   1.886   4.370
  149SOL    HW2 1347   2.966   1.976   4.234
  150SOL     OW 1348   5.414   5.060   6.281
  150SOL    HW1 1349   5.425   5.159   6.276
  150SOL    HW2 1350   5.476   5.023   6.350
  151SOL     OW 1351   3.352   2.082   1.127
  151SOL    HW1 1352   3.256   2.057   1.139
  151SOL    HW2 1353   3.409   2.030   1.190
  152SOL     OW 1354   1.466   1.544   3.677
  152SOL    HW1 1355   1.431   1.462   3.632
  152SOL    HW2 1356   1.413   1.623   3.647
  153SOL     OW 1357   2.764   0.023   1.694
  153SOL    HW1 1358   2.827   6.981   1.655
  153SOL    HW2 1359   2.818   0.100   1.730
  154SOL     OW 1360   0.532   2.373   3.292
  154SOL    HW1 1361   0.526   2.346   3.388
  154SOL    HW2 1362   0.599   2.446   3.282
  155SOL     OW 1363   0.211   1.034   3.247
  155SOL    HW1 1364   0.230   1.097   3.323
  155SOL    HW2 1365   0.258   0.947   3.264
  156SOL     OW 1366   6.777   1.912   1.322
  156SOL    HW1 1367   6.779   1.841   1.393
  156SOL    HW2 1368   6.683   1.944   1.310
  157SOL     OW 1369   6.029   3.509   2.019
  157SOL    HW1 1370   5.995   3.590   2.067
  157SOL    HW2 1371   6.122   3.488   2.051
  158SOL     OW 1372   2.763   6.639   2.157
  158SOL    HW1 1373   2.734   6.723   2.203
  158SOL    HW2 1374   2.727   6.638   2.064
  159SOL     OW 1375   4.578   4.292   1.617
  159SOL    HW1 1376   4.533   4.264   1.702
  159SOL    HW2 1377   4.636   4.372   1.634
  160SOL     OW 1378   6.432   5.064   0.064
  160SOL    HW1 1379   6.428   5.075   0.163
  160SOL    HW2 1380   6.436   4.967   0.041
  161SOL     OW 1381   1.585   5.280   4.993
  161SOL    HW1 1382   1.524   5.260   5.069
  161SOL    HW2 1383   1.639   5.361   5.014
  162SOL     OW 1384   3.842   6.459   0.282
  162SOL    HW1 1385   3.853   6.557   0.302
  162SOL    HW2 1386   3.918   6.408   0.324
  163SOL     OW 1387   5.457   5.537   1.112
  163SOL    HW1 1388   5.376   5.547   1.054
  163SOL    HW2 1389   5.535   5.508   1.057
  164SOL     OW 1390   6.726   4.482   0.918
  164SOL    HW1 1391   6.657   4.549   0.887
  164SOL    HW2 1392   6.761   4.432   0.840
  165SOL     OW 1393   5.257   3.210   1.037
  165SOL    HW1 1394   5.183   3.277   1.032
  165SOL    HW2 1395   5.267   3.163   0.950
  166SOL     OW 1396   0.426   4.871   3.388
  166SOL    HW1 1397   0.368   4.951   3.406
  166SOL    HW2 1398   0.522   4.898   3.392
  167SOL     OW 1399   5.756   2.493   0.304
  167SOL    HW1 1400   5.845   2.466   0.268
  167SOL    HW2 1401   5.746   2.459   0.398
  168SOL     OW 1402   2.824   3.786   1.020
  168SOL    HW1 1403   2.813   3.710   1.083
  168SOL    HW2 1404   2.797   3.871   1.065
  169SOL     OW 1405   3.849   0.486   2.342
  169SOL    HW1 1406   3.784   0.486   2.266
  169SOL    HW2 1407   3.800   0.497   2.428
  170SOL     OW 1408   0.338   1.558   3.534
  170SOL    HW1 1409   0.400   1.479   3.541
  170SOL    HW2 1410   0.390   1.642   3.548
  171SOL     OW 1411   3.894   4.166   0.449
  171SOL    HW1 1412   3.950   4.096   0.405
  171SOL    HW2 1413   3.927   4.180   0.543
  172SOL     OW 1414   6.643   1.735   4.390
  172SOL    HW1 1415   6.626   1.832   4.403
  172SOL    HW2 1416   6.564   1.694   4.343
  173SOL     OW 1417   6.867   1.698   4.219
  173SOL    HW1 1418   6.795   1.712   4.287
  173SOL    HW2 1419   6.955   1.724   4.258
  174SOL     OW 1420   3.256   5.580   4.157
  174SOL    HW1 1421   3.193   5.591   4.234
  174SOL    HW2 1422   3.338   5.635   4.173
  175SOL     OW 1423   1.841   0.083   2.013
  175SOL    HW1 1424   1.873   0.043   1.928
  175SOL    HW2 1425   1.791   0.014   2.066
  176SOL     OW 1426   0.909   4.106   1.384
  176SOL    HW1 1427   0.968   4.045   1.437
  176SOL    HW2 1428   0.964   4.179   1.345
  177SOL     OW 1429   5.747   3.137   2.480
  177SOL    HW1 1430   5.679   3.111   2.549
  177SOL    HW2 1431   5.751   3.237   2.474
  178SOL     OW 1432   3.796   2.811   6.189
  178SOL    HW1 1433   3.803   2.908   6.165
  178SOL    HW2 1434   3.839   2.795   6.277
  179SOL     OW 1435   2.570   1.695   5.839
  179SOL    HW1 1436   2.555   1.637   5.920
  179SOL    HW2 1437   2.630   1.771   5.863
  180SOL     OW 1438   1.441   6.863   6.299
  180SOL    HW1 1439   1.402   6.791   6.357
  180SOL    HW2 1440   1.541   6.855   6.298
  181SOL     OW 1441   3.470   1.609   6.462
  181SOL    HW1 1442   3.528   1.610   6.381
  181SOL    HW2 1443   3.448   1.514   6.485
  182SOL     OW 1444   3.739   2.156   4.304
  182SOL    HW1 1445   3.643   2.127   4.303
  182SOL    HW2 1446   3.772   2.163   4.210
  183SOL     OW 1447   3.254   1.795   3.431
  183SOL    HW1 1448   3.345   1.817   3.464
  183SOL    HW2 1449   3.237   1.843   3.345
  184SOL     OW 1450   1.606   6.417   4.253
  184SOL    HW1 1451   1.577   6.466   4.171
  184SOL    HW2 1452   1.701   6.440   4.273
  185SOL     OW 1453   0.807   2.257   6.250
  185SOL    HW1 1454   0.886   2.221   6.300
  185SOL    HW2 1455   0.764   2.182   6.198
  186SOL     OW 1456   6.474   1.193   3.217
  186SOL    HW1 1457   6.383   1.216   3.251
  186SOL    HW2 1458   6.493   1.245   3.134
  187SOL     OW 1459   4.831   0.835   3.351
  187SOL    HW1 1460   4.811   0.864   3.445
  187SOL    HW2 1461   4.874   0.909   3.301
  188SOL     OW 1462   6.336   1.917   2.361
  188SOL    HW1 1463   6.388   1.842   2.320
  188SOL    HW2 1464   6.392   1.963   2.430
  189SOL     OW 1465   1.990   5.557   2.794
  189SOL    HW1 1466   2.006   5.588   2.700
  189SOL    HW2 1467   2.006   5.633   2.857
  190SOL     OW 1468   4.060   1.793   4.579
  190SOL    HW1 1469   4.108   1.742   4.650
  190SOL    HW2 1470   4.013   1.729   4.518
  191SOL     OW 1471   5.429   5.886   5.848
  191SOL    HW1 1472   5.441   5.908   5.945
  191SOL    HW2 1473   5.334   5.902   5.821
  192SOL     OW 1474   0.101   5.855   1.810
  192SOL    HW1 1475   0.093   5.923   1.884
  192SOL    HW2 1476   0.118   5.902   1.724
  193SOL     OW 1477   4.472   2.623   5.740
  193SOL    HW1 1478   4.436   2.534   5.767
  193SOL    HW2 1479   4.542   2.611   5.669
  194SOL     OW 1480   3.357   0.891   2.814
  194SOL    HW1 1481   3.319   0.868   2.904
  194SOL    HW2 1482   3.342   0.988   2.795
  195SOL     OW 1483   1.880   6.432   4.284
  195SOL    HW1 1484   1.896   6.363   4.354
  195SOL    HW2 1485   1.895   6.523   4.323
  196SOL     OW 1486   2.505   1.667   6.825
  196SOL    HW1 1487   2.552   1.671   6.913
  196SOL    HW2 1488   2.572   1.662   6.752
  197SOL     OW 1489   2.285   1.175   0.202
  197SOL    HW1 1490   2.219   1.119   0.152
  197SOL    HW2 1491   2.329   1.239   0.139
  198SOL     OW 1492   4.773   1.223   3.076
  198SOL    HW1 1493   4.675   1.218   3.092
  198SOL    HW2 1494   4.796   1.180   2.989
  199SOL     OW 1495   1.065   1.998   4.228
  199SOL    HW1 1496   1.083   2.093   4.201
  199SOL    HW2 1497   1.151   1.953   4.251
  200SOL     OW 1498   1.347   3.811   0.586
  200SOL    HW1 1499   1.259   3.852   0.607
  200SOL    HW2 1500   1.351   3.719   0.626
  201SOL     OW 1501   0.659   6.502   5.550
  201SOL    HW1 1502   0.693   6.572   5.487
  201SOL    HW2 1503   0.734   6.467   5.606
  202SOL     OW 1504   3.721   1.885   6.409
  202SOL    HW1 1505   3.716   1.914   6.314
  202SOL    HW2 1506   3.817   1.873   6.436
  203SOL     OW 1507   5.943   2.001   5.256
  203SOL    HW1 1508   6.014   1.979   5.322
  203SOL    HW2 1509   5.885   2.074   5.292
  204SOL     OW 1510   0.612   6.883   4.039
  204SOL    HW1 1511   0.689   6.929   3.994
  204SOL    HW2 1512   0.605   6.789   4.005
  205SOL     OW 1513   1.912   2.669   2.878
  205SOL    HW1 1514   1.904   2.599   2.807
  205SOL    HW2 1515   1.950   2.628   2.961
  206SOL     OW 1516   1.059   3.300   1.221
  206SOL    HW1 1517   1.087   3.257   1.136
  206SOL    HW2 1518   1.120   3.270   1.295
  207SOL     OW 1519   5.826   0.426   3.632
  207SOL    HW1 1520   5.850   0.439   3.536
  207SOL    HW2 1521   5.733   0.459   3.649
  208SOL     OW 1522   0.276   4.014   5.923
  208SOL    HW1 1523   0.321   4.103   5.932
  208SOL    HW2 1524   0.182   4.026   5.892
  209SOL     OW 1525   6.549   4.600   2.911
  209SOL    HW1 1526   6.532   4.504   2.935
  209SOL    HW2 1527   6.646   4.621   2.925
  210SOL     OW 1528   4.641   2.075   0.687
  210SOL    HW1 1529   4.579   2.058   0.763
  210SOL    HW2 1530   4.679   2.168   0.695
  211SOL     OW 1531   1.159   6.713   2.424
  211SOL    HW1 1532   1.150   6.728   2.522
  211SOL    HW2 1533   1.217   6.634   2.408
  212SOL     OW 1534   1.213   3.655   2.666
  212SOL    HW1 1535   1.235   3.579   2.727
  212SOL    HW2 1536   1.133   3.704   2.701
  213SOL     OW 1537   1.610   6.020   1.289
  213SOL    HW1 1538   1.516   5.990   1.276
  213SOL    HW2 1539   1.610   6.106   1.341
  214SOL     OW 1540   3.481   5.356   2.861
  214SOL    HW1 1541   3.546   5.410   2.915
  214SOL    HW2 1542   3.509   5.260   2.862
  215SOL     OW 1543   2.804   4.420   1.050
  215SOL    HW1 1544   2.782   4.335   1.004
  215SOL    HW2 1545   2.891   4.410   1.100
  216SOL     OW 1546   0.973   6.329   2.858
  216SOL    HW1 1547   0.927   6.263   2.797
  216SOL    HW2 1548   0.956   6.422   2.824
  217SOL     OW 1549   1.289   2.437   4.688
  217SOL    HW1 1550   1.247   2.482   4.766
  217SOL    HW2 1551   1.348   2.363   4.720
  218SOL     OW 1552   0.564   2.792   4.606
  218SOL    HW1 1553   0.530   2.698   4.611
  218SOL    HW2 1554   0.541   2.831   4.517
  219SOL     OW 1555   4.113   0.383   0.767
  219SOL    HW1 1556   4.074   0.291   0.768
  219SOL    HW2 1557   4.211   0.377   0.748
  220SOL     OW 1558   2.704   0.382   0.721
  220SOL    HW1 1559   2.717   0.427   0.632
  220SOL    HW2 1560   2.616   0.409   0.760
  221SOL     OW 1561   6.030   4.351   1.509
  221SOL    HW1 1562   6.074   4.441   1.518
  221SOL    HW2 1563   6.021   4.328   1.413
  222SOL     OW 1564   1.746   4.605   5.840
  222SOL    HW1 1565   1.662   4.639   5.882
  222SOL    HW2 1566   1.819   4.672   5.853
  223SOL     OW 1567   6.901   3.172   5.563
  223SOL    HW1 1568   6.832   3.199   5.496
  223SOL    HW2 1569   6.974   3.121   5.517
  224SOL     OW 1570   3.288   1.074   6.905
  224SOL    HW1 1571   3.291   1.098   6.808
  224SOL    HW2 1572   3.354   1.129   6.955
  225SOL     OW 1573   4.433   3.988   6.317
  225SOL    HW1 1574   4.475   3.940   6.239
  225SOL    HW2 1575   4.490   3.975   6.398
  226SOL     OW 1576   0.916   1.354   6.187
  226SOL    HW1 1577   0.974   1.341   6.268
  226SOL    HW2 1578   0.843   1.286   6.189
  227SOL     OW 1579   2.002   4.408   2.395
  227SOL    HW1 1580   2.056   4.472   2.341
  227SOL    HW2 1581   2.062   4.359   2.459
  228SOL     OW 1582   2.068   0.435   2.490
  228SOL    HW1 1583   2.058   0.512   2.553
  228SOL    HW2 1584   1.982   0.382   2.489
  229SOL     OW 1585   5.254   5.626   5.890
  229SOL    HW1 1586   5.209   5.689   5.826
  229SOL    HW2 1587   5.197   5.545   5.904
  230SOL     OW 1588   4.421   5.589   4.305
  230SOL    HW1 1589   4.405   5.533   4.224
  230SOL    HW2 1590   4.336   5.595   4.358
  231SOL     OW 1591   6.125   1.460   6.245
  231SOL    HW1 1592   6.059   1.392   6.277
  231SOL    HW2 1593   6.218   1.430   6.269
  232SOL     OW 1594   0.297   3.205   6.587
  232SOL    HW1 1595   0.364   3.247   6.525
  232SOL    HW2 1596   0.340   3.185   6.675
  233SOL     OW 1597   4.479   1.324   3.103
  233SOL    HW1 1598   4.383   1.349   3.092
  233SOL    HW2 1599   4.529   1.400   3.145
  234SOL     OW 1600   5.842   1.013   6.746
  234SOL    HW1 1601   5.898   1.001   6.828
  234SOL    HW2 1602   5.747   1.028   6.773
  235SOL     OW 1603   4.772   2.849   2.252
  235SOL    HW1 1604   4.820   2.782   2.194
  235SOL    HW2 1605   4.741   2.925   2.196
  236SOL     OW 1606   4.991   3.030   6.918
  236SOL    HW1 1607   4.897   3.020   6.885
  236SOL    HW2 1608   5.052   2.975   6.861
  237SOL     OW 1609   0.194   4.244   1.836
  237SOL    HW1 1610   0.165   4.304   1.911
  237SOL    HW2 1611   0.256   4.174   1.871
  238SOL     OW 1612   6.088   1.756   0.170
  238SOL    HW1 1613   6.160   1.818   0.137
  238SOL    HW2 1614   6.093   1.670   0.119
  239SOL     OW 1615   0.771   4.638   0.313
  239SOL    HW1 1616   0.712   4.690   0.251
  239SOL    HW2 1617   0.827   4.574   0.260
  240SOL     OW 1618   0.818   3.214   3.262
  240SOL    HW1 1619   0.865   3.196   3.348
  240SOL    HW2 1620   0.725   3.247   3.281
  241SOL     OW 1621   3.113   2.137   4.788
  241SOL    HW1 1622   3.028   2.170   4.747
  241SOL    HW2 1623   3.143   2.201   4.859
  242SOL     OW 1624   3.128   3.336   3.764
  242SOL    HW1 1625   3.187   3.362   3.688
  242SOL    HW2 1626   3.040   3.382   3.757
  243SOL     OW 1627   4.860   1.645   0.537
  243SOL    HW1 1628   4.852   1.742   0.563
  243SOL    HW2 1629   4.839   1.635   0.440
  244SOL     OW 1630   6.034   3.925   5.569
  244SOL    HW1 1631   6.077   3.968   5.490
  244SOL    HW2 1632   5.965   3.859   5.538
  245SOL     OW 1633   4.290   2.361   3.712
  245SOL    HW1 1634   4.224   2.396   3.779
  245SOL    HW2 1635   4.258   2.272   3.677
  246SOL     OW 1636   4.864   2.010   3.677
  246SOL    HW1 1637   4.872   1.922   3.723
  246SOL    HW2 1638   4.773   2.048   3.694
  247SOL     OW 1639   2.683   1.594   0.560
  247SOL    HW1 1640   2.709   1.686   0.590
  247SOL    HW2 1641   2.761   1.533   0.570
  248SOL     OW 1642   2.925   1.234   3.053
  248SOL    HW1 1643   2.916   1.281   2.965
  248SOL    HW2 1644   3.019   1.201   3.064
  249SOL     OW 1645   5.378   6.773   5.535
  249SOL    HW1 1646   5.368   6.867   5.568
  249SOL    HW2 1647   5.289   6.737   5.505
  250SOL     OW 1648   4.418   3.220   0.590
  250SOL    HW1 1649   4.400   3.314   0.560
  250SOL    HW2 1650   4.381   3.207   0.682
  251SOL     OW 1651   4.479   3.539   5.367
  251SOL    HW1 1652   4.398   3.590   5.340
  251SOL    HW2 1653   4.556   3.565   5.309
  252SOL     OW 1654   6.960   6.493   4.637
  252SOL    HW1 1655   7.022   6.516   4.713
  252SOL    HW2 1656   6.982   6.550   4.558
  253SOL     OW 1657   3.794   5.503   6.911
  253SOL    HW1 1658   3.854   5.581   6.894
  253SOL    HW2 1659   3.736   5.521   6.991
  254SOL     OW 1660   6.317   2.328   3.676
  254SOL    HW1 1661   6.411   2.339   3.708
  254SOL    HW2 1662   6.301   2.392   3.600
  255SOL     OW 1663   2.140   4.741   5.599
  255SOL    HW1 1664   2.150   4.652   5.555
  255SOL    HW2 1665   2.215   4.801   5.570
  256SOL     OW 1666   5.987   3.666   5.894
  256SOL    HW1 1667   5.921   3.736   5.867
  256SOL    HW2 1668   5.939   3.580   5.911
  257SOL     OW 1669   5.020   0.527   3.584
  257SOL    HW1 1670   5.028   0.596   3.512
  257SOL    HW2 1671   5.112   0.505   3.619
  258SOL     OW 1672   2.429   4.235   5.290
  258SOL    HW1 1673   2.436   4.314   5.229
  258SOL    HW2 1674   2.419   4.152   5.235
  259SOL     OW 1675   6.041   0.315   2.326
  259SOL    HW1 1676   5.989   0.339   2.244
  259SOL    HW2 1677   5.981   0.317   2.406
  260SOL     OW 1678   4.335   5.753   3.017
  260SOL    HW1 1679   4.288   5.778   3.102
  260SOL    HW2 1680   4.287   5.678   2.973
  261SOL     OW 1681   5.829   3.478   0.890
  261SOL    HW1 1682   5.807   3.383   0.868
  261SOL    HW2 1683   5.745   3.530   0.900
  262SOL     OW 1684   1.181   4.166   0.381
  262SOL    HW1 1685   1.120   4.141   0.455
  262SOL    HW2 1686   1.169   4.263   0.358
  263SOL     OW 1687   1.900   0.569   4.976
  263SOL    HW1 1688   1.916   0.529   4.886
  263SOL    HW2 1689   1.952   0.517   5.045
  264SOL     OW 1690   6.051   2.497   0.180
  264SOL    HW1 1691   6.046   2.538   0.089
  264SOL    HW2 1692   6.127   2.539   0.231
  265SOL     OW 1693   5.342   6.661   2.899
  265SOL    HW1 1694   5.292   6.581   2.868
  265SOL    HW2 1695   5.325   6.738   2.836
  266SOL     OW 1696   4.670   2.956   5.794
  266SOL    HW1 1697   4.753   3.011   5.782
  266SOL    HW2 1698   4.663   2.890   5.720
  267SOL     OW 1699   0.499   1.733   6.003
  267SOL    HW1 1700   0.470   1.809   6.060
  267SOL    HW2 1701   0.576   1.761   5.947
  268SOL     OW 1702   3.236   0.966   6.322
  268SOL    HW1 1703   3.220   1.049   6.270
  268SOL    HW2 1704   3.158   0.950   6.384
  269SOL     OW 1705   2.166   3.803   0.908
  269SOL    HW1 1706   2.111   3.827   0.988
  269SOL    HW2 1707   2.119   3.731   0.856
  270SOL     OW 1708   1.276   6.264   0.776
  270SOL    HW1 1709   1.247   6.266   0.680
  270SOL    HW2 1710   1.213   6.207   0.829
  271SOL     OW 1711   6.807   1.251   6.119
  271SOL    HW1 1712   6.834   1.344   6.096
  271SOL    HW2 1713   6.854   1.221   6.202
  272SOL     OW 1714   3.906   6.434   4.111
  272SOL    HW1 1715   3.994   6.392   4.092
  272SOL    HW2 1716   3.844   6.366   4.151
  273SOL     OW 1717   2.183   4.804   4.432
  273SOL    HW1 1718   2.257   4.786   4.367
  273SOL    HW2 1719   2.221   4.843   4.516
  274SOL     OW 1720   3.797   1.388   3.277
  274SOL    HW1 1721   3.827   1.318   3.342
  274SOL    HW2 1722   3.871   1.453   3.262
  275SOL     OW 1723   6.374   5.747   3.434
  275SOL    HW1 1724   6.472   5.734   3.449
  275SOL    HW2 1725   6.338   5.807   3.504
  276SOL     OW 1726   0.054   6.579   3.106
  276SOL    HW1 1727   7.011   6.606   3.173
  276SOL    HW2 1728   0.119   6.654   3.092
  277SOL     OW 1729   1.936   4.132   0.745
  277SOL    HW1 1730   2.017   4.179   0.780
  277SOL    HW2 1731   1.875   4.199   0.703
  278SOL     OW 1732   0.155   3.542   1.252
  278SOL    HW1 1733   0.085   3.590   1.304
  278SOL    HW2 1734   0.129   3.540   1.155
  279SOL     OW 1735   5.501   3.123   4.559
  279SOL    HW1 1736   5.522   3.208   4.608
  279SOL    HW2 1737   5.436   3.142   4.486
  280SOL     OW 1738   2.790   5.629   2.417
  280SOL    HW1 1739   2.723   5.652   2.487
  280SOL    HW2 1740   2.798   5.704   2.352
  281SOL     OW 1741   2.593   4.742   1.637
  281SOL    HW1 1742   2.589   4.779   1.544
  281SOL    HW2 1743   2.673   4.681   1.645
  282SOL     OW 1744   3.174   1.602   5.727
  282SOL    HW1 1745   3.144   1.556   5.643
  282SOL    HW2 1746   3.165   1.701   5.715
  283SOL     OW 1747   6.038   2.821   6.733
  283SOL    HW1 1748   6.088   2.788   6.653
  283SOL    HW2 1749   6.088   2.797   6.816
  284SOL     OW 1750   1.717   3.431   3.987
  284SOL    HW1 1751   1.670   3.475   3.911
  284SOL    HW2 1752   1.807   3.398   3.956
  285SOL     OW 1753   5.378   5.170   4.114
  285SOL    HW1 1754   5.431   5.189   4.197
  285SOL    HW2 1755   5.439   5.165   4.035
  286SOL     OW 1756   3.449   5.172   6.781
  286SOL    HW1 1757   3.527   5.227   6.753
  286SOL    HW2 1758   3.365   5.222   6.763
  287SOL     OW 1759   1.228   3.718   0.859
  287SOL    HW1 1760   1.266   3.665   0.784
  287SOL    HW2 1761   1.269   3.688   0.945
  288SOL     OW 1762   3.777   1.721   6.659
  288SOL    HW1 1763   3.689   1.767   6.675
  288SOL    HW2 1764   3.771   1.666   6.576
  289SOL     OW 1765   2.232   4.335   5.469
  289SOL    HW1 1766   2.277   4.380   5.546
  289SOL    HW2 1767   2.297   4.324   5.394
  290SOL     OW 1768   6.164   2.057   4.997
  290SOL    HW1 1769   6.139   2.152   4.980
  290SOL    HW2 1770   6.194   2.048   5.092
  291SOL     OW 1771   0.471   1.719   4.482
  291SOL    HW1 1772   0.450   1.783   4.557
  291SOL    HW2 1773   0.401   1.726   4.412
  292SOL     OW 1774   2.382   1.875   2.868
  292SOL    HW1 1775   2.368   1.971   2.843
  292SOL    HW2 1776   2.477   1.849   2.846
  293SOL     OW 1777   4.487   5.753   2.692
  293SOL    HW1 1778   4.389   5.761   2.710
  293SOL    HW2 1779   4.527   5.844   2.685
  294SOL     OW 1780   6.826   6.045   6.733
  294SOL    HW1 1781   6.744   6.020   6.783
  294SOL    HW2 1782   6.816   6.138   6.698
  295SOL     OW 1783   3.527   1.410   3.303
  295SOL    HW1 1784   3.603   1.366   3.256
  295SOL    HW2 1785   3.465   1.451   3.235
  296SOL     OW 1786   3.293   1.406   3.107
  296SOL    HW1 1787   3.287   1.412   3.007
  296SOL    HW2 1788   3.203   1.421   3.147
  297SOL     OW 1789   2.403   4.408   4.153
  297SOL    HW1 1790   2.332   4.346   4.188
  297SOL    HW2 1791   2.421   4.386   4.057
  298SOL     OW 1792   4.140   6.253   1.724
  298SOL    HW1 1793   4.237   6.232   1.709
  298SOL    HW2 1794   4.090   6.168   1.743
  299SOL     OW 1795   5.082   3.852   5.586
  299SOL    HW1 1796   5.070   3.827   5.490
  299SOL    HW2 1797   5.016   3.801   5.642
  300SOL     OW 1798   6.395   0.569   2.123
  300SOL    HW1 1799   6.435   0.652   2.083
  300SOL    HW2 1800   6.304   0.555   2.085
  301SOL     OW 1801   5.055   3.706   0.617
  301SOL    HW1 1802   5.118   3.784   0.617
  301SOL    HW2 1803   5.108   3.621   0.611
  302SOL     OW 1804   1.595   0.073   3.132
  302SOL    HW1 1805   1.670   0.140   3.137
  302SOL    HW2 1806   1.557   0.059   3.224
  303SOL     OW 1807   5.518   0.558   2.164
  303SOL    HW1 1808   5.450   0.623   2.128
  303SOL    HW2 1809   5.557   0.506   2.089
  304SOL     OW 1810   2.067   0.365   3.597
  304SOL    HW1 1811   2.067   0.449   3.652
  304SOL    HW2 1812   2.002   0.374   3.522
  305SOL     OW 1813   0.539   3.642   6.375
  305SOL    HW1 1814   0.561   3.613   6.468
  305SOL    HW2 1815   0.592   3.587   6.310
  306SOL     OW 1816   1.283   1.365   3.542
  306SOL    HW1 1817   1.338   1.283   3.524
  306SOL    HW2 1818   1.247   1.401   3.457
  307SOL     OW 1819   4.823   6.537   1.065
  307SOL    HW1 1820   4.820   6.468   1.137
  307SOL    HW2 1821   4.790   6.624   1.100
  308SOL     OW 1822   7.004   4.613   4.536
  308SOL    HW1 1823   0.012   4.522   4.512
  308SOL    HW2 1824   0.037   4.653   4.607
  309SOL     OW 1825   3.727   4.530   5.397
  309SOL    HW1 1826   3.807   4.585   5.423
  309SOL    HW2 1827   3.751   4.471   5.320
  310SOL     OW 1828   5.986   0.159   5.659
  310SOL    HW1 1829   5.900   0.210   5.660
  310SOL    HW2 1830   5.983   0.088   5.729
  311SOL     OW 1831   6.751   4.863   1.911
  311SOL    HW1 1832   6.749   4.789   1.978
  311SOL    HW2 1833   6.668   4.917   1.919
  312SOL     OW 1834   5.157   1.805   5.562
  312SOL    HW1 1835   5.186   1.858   5.641
  312SOL    HW2 1836   5.065   1.768   5.577
  313SOL     OW 1837   2.518   4.163   1.744
  313SOL    HW1 1838   2.587   4.227   1.711
  313SOL    HW2 1839   2.538   4.072   1.709
  314SOL     OW 1840   3.101   5.953   0.371
  314SOL    HW1 1841   3.090   5.902   0.285
  314SOL    HW2 1842   3.060   5.901   0.446
  315SOL     OW 1843   0.340   2.108   3.504
  315SOL    HW1 1844   0.413   2.176   3.510
  315SOL    HW2 1845   0.258   2.144   3.547
  316SOL     OW 1846   2.316   2.667   4.713
  316SOL    HW1 1847   2.217   2.683   4.715
  316SOL    HW2 1848   2.339   2.611   4.634
  317SOL     OW 1849   0.720   1.457   6.662
  317SOL    HW1 1850   0.692   1.476   6.567
  317SOL    HW2 1851   0.735   1.359   6.673
  318SOL     OW 1852   1.073   5.021   1.202
  318SOL    HW1 1853   1.072   5.110   1.249
  318SOL    HW2 1854   0.979   4.994   1.181
  319SOL     OW 1855   0.838   0.334   2.141
  319SOL    HW1 1856   0.909   0.377   2.085
  319SOL    HW2 1857   0.755   0.390   2.139
  320SOL     OW 1858   5.592   2.771   0.016
  320SOL    HW1 1859   5.594   2.771   6.941
  320SOL    HW2 1860   5.600   2.677   0.049
  321SOL     OW 1861   2.148   1.873   2.556
  321SOL    HW1 1862   2.155   1.776   2.577
  321SOL    HW2 1863   2.164   1.927   2.639
  322SOL     OW 1864   3.369   2.932   4.388
  322SOL    HW1 1865   3.464   2.938   4.420
  322SOL    HW2 1866   3.307   2.933   4.467
  323SOL     OW 1867   0.809   4.412   0.125
  323SOL    HW1 1868   0.710   4.412   0.134
  323SOL    HW2 1869   0.842   4.318   0.118
  324SOL     OW 1870   1.038   2.784   4.220
  324SOL    HW1 1871   0.947   2.821   4.237
  324SOL    HW2 1872   1.030   2.690   4.186
  325SOL     OW 1873   2.252   3.227   1.433
  325SOL    HW1 1874   2.208   3.239   1.522
  325SOL    HW2 1875   2.340   3.182   1.445
  326SOL     OW 1876   1.835   6.066   6.843
  326SOL    HW1 1877   1.868   5.979   6.880
  326SOL    HW2 1878   1.853   6.139   6.909
  327SOL     OW 1879   0.534   4.685   4.082
  327SOL    HW1 1880   0.555   4.762   4.142
  327SOL    HW2 1881   0.595   4.686   4.003
  328SOL     OW 1882   3.444   5.319   2.328
  328SOL    HW1 1883   3.475   5.399   2.276
  328SOL    HW2 1884   3.522   5.261   2.350
  329SOL     OW 1885   3.489   3.828   3.633
  329SOL    HW1 1886   3.573   3.818   3.686
  329SOL    HW2 1887   3.495   3.774   3.550
  330SOL     OW 1888   3.321   6.351   2.011
  330SOL    HW1 1889   3.332   6.383   1.918
  330SOL    HW2 1890   3.225   6.328   2.028
  331SOL     OW 1891   4.964   5.088   6.218
  331SOL    HW1 1892   5.037   5.111   6.154
  331SOL    HW2 1893   5.004   5.063   6.306
  332SOL     OW 1894   3.538   2.123   3.725
  332SOL    HW1 1895   3.572   2.088   3.813
  332SOL    HW2 1896   3.458   2.181   3.740
  333SOL     OW 1897   4.057   0.169   6.431
  333SOL    HW1 1898   3.982   0.227   6.463
  333SOL    HW2 1899   4.023   0.076   6.416
  334SOL     OW 1900   3.062   6.811   2.310
  334SOL    HW1 1901   2.973   6.856   2.321
  334SOL    HW2 1902   3.049   6.711   2.311
  335SOL     OW 1903   3.510   6.116   3.848
  335SOL    HW1 1904   3.524   6.108   3.947
  335SOL    HW2 1905   3.575   6.181   3.810
  336SOL     OW 1906   2.330   1.188   3.406
  336SOL    HW1 1907   2.403   1.221   3.466
  336SOL    HW2 1908   2.322   1.250   3.328
  337SOL     OW 1909   6.968   3.266   0.825
  337SOL    HW1 1910   6.868   3.267   0.821
  337SOL    HW2 1911   7.005   3.331   0.759
  338SOL     OW 1912   2.912   3.187   1.720
  338SOL    HW1 1913   2.960   3.115   1.769
  338SOL    HW2 1914   2.976   3.260   1.696
  339SOL     OW 1915   3.495   0.087   3.188
  339SOL    HW1 1916   3.412   0.136   3.214
  339SOL    HW2 1917   3.564   0.152   3.155
  340SOL     OW 1918   5.423   3.963   4.955
  340SOL    HW1 1919   5.386   3.967   4.862
  340SOL    HW2 1920   5.504   3.905   4.956
  341SOL     OW 1921   6.009   6.010   3.993
  341SOL    HW1 1922   5.999   6.024   4.091
  341SOL    HW2 1923   6.098   5.969   3.974
  342SOL     OW 1924   5.659   4.278   7.022
  342SOL    HW1 1925   5.559   4.284   0.005
  342SOL    HW2 1926   5.698   4.251   0.084
  343SOL     OW 1927   2.678   6.437   1.549
  343SOL    HW1 1928   2.752   6.405   1.490
  343SOL    HW2 1929   2.690   6.399   1.641
  344SOL     OW 1930   2.208   5.024   0.841
  344SOL    HW1 1931   2.125   4.970   0.843
  344SOL    HW2 1932   2.249   5.018   0.750
  345SOL     OW 1933   0.066   0.685   5.838
  345SOL    HW1 1934   7.025   0.610   5.846
  345SOL    HW2 1935   0.156   0.647   5.816
  346SOL     OW 1936   1.505   0.562   2.325
  346SOL    HW1 1937   1.423   0.615   2.344
  346SOL    HW2 1938   1.499   0.473   2.371
  347SOL     OW 1939   5.437   0.137   6.557
  347SOL    HW1 1940   5.510   0.205   6.551
  347SOL    HW2 1941   5.472   0.054   6.601
  348SOL     OW 1942   4.127   5.062   1.663
  348SOL    HW1 1943   4.087   4.987   1.611
  348SOL    HW2 1944   4.088   5.149   1.633
  349SOL     OW 1945   0.115   4.606   2.324
  349SOL    HW1 1946   0.034   4.636   2.274
  349SOL    HW2 1947   0.190   4.671   2.309
  350SOL     OW 1948   3.881   3.751   1.431
  350SOL    HW1 1949   3.927   3.731   1.518
  350SOL    HW2 1950   3.942   3.725   1.355
  351SOL     OW 1951   2.969   2.042   0.667
  351SOL    HW1 1952   3.046   2.044   0.603
  351SOL    HW2 1953   2.955   2.133   0.705
  352SOL     OW 1954   3.773   0.804   4.984
  352SOL    HW1 1955   3.682   0.846   4.981
  352SOL    HW2 1956   3.777   0.731   4.915
  353SOL     OW 1957   2.127   6.852   0.176
  353SOL    HW1 1958   2.120   6.877   0.079
  353SOL    HW2 1959   2.219   6.872   0.210
  354SOL     OW 1960   4.029   2.502   0.809
  354SOL    HW1 1961   4.002   2.436   0.880
  354SOL    HW2 1962   4.031   2.594   0.848
  355SOL     OW 1963   6.527   3.056   2.982
  355SOL    HW1 1964   6.585   3.134   2.959
  355SOL    HW2 1965   6.461   3.041   2.909
  356SOL     OW 1966   4.304   5.371   5.050
  356SOL    HW1 1967   4.376   5.347   4.985
  356SOL    HW2 1968   4.325   5.459   5.092
  357SOL     OW 1969   0.481   6.135   5.573
  357SOL    HW1 1970   0.468   6.148   5.672
  357SOL    HW2 1971   0.481   6.224   5.528
  358SOL     OW 1972   6.282   0.096   1.090
  358SOL    HW1 1973   6.191   0.124   1.120
  358SOL    HW2 1974   6.348   0.167   1.114
  359SOL     OW 1975   1.449   2.463   2.370
  359SOL    HW1 1976   1.467   2.531   2.440
  359SOL    HW2 1977   1.361   2.483   2.326
  360SOL     OW 1978   3.186   6.593   6.130
  360SOL    HW1 1979   3.256   6.523   6.112
  360SOL    HW2 1980   3.148   6.580   6.221
  361SOL     OW 1981   5.769   5.544   3.243
  361SOL    HW1 1982   5.770   5.519   3.339
  361SOL    HW2 1983   5.863   5.544   3.208
  362SOL     OW 1984   3.119   4.182   0.257
  362SOL    HW1 1985   3.132   4.239   0.176
  362SOL    HW2 1986   3.069   4.099   0.231
  363SOL     OW 1987   3.553   4.993   4.165
  363SOL    HW1 1988   3.516   4.969   4.075
  363SOL    HW2 1989   3.652   4.996   4.161
  364SOL     OW 1990   0.855   5.957   5.794
  364SOL    HW1 1991   0.765   5.932   5.758
  364SOL    HW2 1992   0.926   5.913   5.740
  365SOL     OW 1993   5.193   6.300   3.182
  365SOL    HW1 1994   5.222   6.334   3.092
  365SOL    HW2 1995   5.269   6.309   3.246
  366SOL     OW 1996   5.889   1.232   6.614
  366SOL    HW1 1997   5.874   1.150   6.670
  366SOL    HW2 1998   5.896   1.312   6.674
  367SOL     OW 1999   4.908   3.017   0.818
  367SOL    HW1 2000   4.966   2.943   0.785
  367SOL    HW2 2001   4.816   2.982   0.834
  368SOL     OW 2002   1.490   4.597   4.933
  368SOL    HW1 2003   1.502   4.637   4.842
  368SOL    HW2 2004   1.407   4.541   4.934
  369SOL     OW 2005   6.225   4.315   1.924
  369SOL    HW1 2006   6.177   4.237   1.883
  369SOL    HW2 2007   6.256   4.376   1.851
  370SOL     OW 2008   2.834   0.589   5.438
  370SOL    HW1 2009   2.846   0.501   5.484
  370SOL    HW2 2010   2.921   0.619   5.399
  371SOL     OW 2011   2.459   3.654   6.915
  371SOL    HW1 2012   2.517   3.709   6.975
  371SOL    HW2 2013   2.479   3.557   6.930
  372SOL     OW 2014   0.179   0.345   4.981
  372SOL    HW1 2015   0.192   0.427   4.925
  372SOL    HW2 2016   0.081   0.326   4.989
  373SOL     OW 2017   0.134   6.465   6.458
  373SOL    HW1 2018   0.119   6.440   6.553
  373SOL    HW2 2019   0.231   6.453   6.435
  374SOL     OW 2020   4.181   0.135   2.403
  374SOL    HW1 2021   4.106   0.153   2.339
  374SOL    HW2 2022   4.153   0.159   2.495
  375SOL     OW 2023   7.002   4.712   4.122
  375SOL    HW1 2024   6.935   4.717   4.197
  375SOL    HW2 2025   0.064   4.747   4.154
  376SOL     OW 2026   1.849   2.894   3.937
  376SOL    HW1 2027   1.863   2.910   3.839
  376SOL    HW2 2028   1.844   2.981   3.985
  377SOL     OW 2029   5.203   2.199   2.787
  377SOL    HW1 2030   5.262   2.270   2.748
  377SOL    HW2 2031   5.139   2.166   2.718
  378SOL     OW 2032   3.944   3.176   5.645
  378SOL    HW1 2033   3.931   3.087   5.689
  378SOL    HW2 2034   3.861   3.230   5.655
  379SOL     OW 2035   6.006   3.457   1.347
  379SOL    HW1 2036   5.975   3.406   1.266
  379SOL    HW2 2037   5.928   3.504   1.388
  380SOL     OW 2038   1.441   1.867   0.958
  380SOL    HW1 2039   1.383   1.853   0.878
  380SOL    HW2 2040   1.438   1.787   1.017
  381SOL     OW 2041   2.577   5.152   2.056
  381SOL    HW1 2042   2.607   5.077   2.115
  381SOL    HW2 2043   2.657   5.198   2.018
  382SOL     OW 2044   3.102   6.198   0.250
  382SOL    HW1 2045   3.052   6.198   0.164
  382SOL    HW2 2046   3.087   6.111   0.298
  383SOL     OW 2047   6.542   2.742   6.665
  383SOL    HW1 2048   6.585   2.721   6.753
  383SOL    HW2 2049   6.612   2.769   6.599
  384SOL     OW 2050   0.979   5.047   5.401
  384SOL    HW1 2051   1.069   5.048   5.357
  384SOL    HW2 2052   0.984   5.091   5.491
  385SOL     OW 2053   4.870   6.397   0.374
  385SOL    HW1 2054   4.903   6.330   0.307
  385SOL    HW2 2055   4.949   6.437   0.422
  386SOL     OW 2056   3.957   6.762   5.262
  386SOL    HW1 2057   3.889   6.695   5.290
  386SOL    HW2 2058   4.045   6.739   5.302
  387SOL     OW 2059   0.185   0.084   3.910
  387SOL    HW1 2060   0.234   0.011   3.958
  387SOL    HW2 2061   0.094   0.096   3.951
  388SOL     OW 2062   6.838   2.759   5.191
  388SOL    HW1 2063   6.783   2.805   5.122
  388SOL    HW2 2064   6.795   2.769   5.280
  389SOL     OW 2065   4.231   4.280   1.730
  389SOL    HW1 2066   4.168   4.204   1.715
  389SOL    HW2 2067   4.320   4.243   1.757
  390SOL     OW 2068   3.642   1.104   0.966
  390SOL    HW1 2069   3.708   1.162   0.919
  390SOL    HW2 2070   3.553   1.150   0.968
  391SOL     OW 2071   2.869   4.056   5.774
  391SOL    HW1 2072   2.839   4.131   5.833
  391SOL    HW2 2073   2.859   4.084   5.678
  392SOL     OW 2074   1.295   3.866   2.530
  392SOL    HW1 2075   1.368   3.917   2.575
  392SOL    HW2 2076   1.268   3.788   2.586
  393SOL     OW 2077   0.731   4.677   1.093
  393SOL    HW1 2078   0.674   4.597   1.114
  393SOL    HW2 2079   0.703   4.716   1.006
  394SOL     OW 2080   6.714   2.862   0.029
  394SOL    HW1 2081   6.743   2.851   6.960
  394SOL    HW2 2082   6.731   2.778   0.080
  395SOL     OW 2083   4.743   4.433   1.900
  395SOL    HW1 2084   4.663   4.390   1.941
  395SOL    HW2 2085   4.816   4.366   1.889
  396SOL     OW 2086   3.023   2.084   2.149
  396SOL    HW1 2087   2.974   2.159   2.103
  396SOL    HW2 2088   2.963   2.044   2.219
  397SOL     OW 2089   4.859   1.119   5.169
  397SOL    HW1 2090   4.843   1.020   5.167
  397SOL    HW2 2091   4.868   1.153   5.075
  398SOL     OW 2092   1.162   0.357   4.459
  398SOL    HW1 2093   1.153   0.361   4.559
  398SOL    HW2 2094   1.146   0.263   4.428
  399SOL     OW 2095   5.502   5.478   4.153
  399SOL    HW1 2096   5.460   5.541   4.218
  399SOL    HW2 2097   5.469   5.499   4.061
  400SOL     OW 2098   6.360   0.542   4.645
  400SOL    HW1 2099   6.329   0.495   4.562
  400SOL    HW2 2100   6.280   0.574   4.697
  401SOL     OW 2101   6.592   0.094   5.403
  401SOL    HW1 2102   6.542   0.042   5.472
  401SOL    HW2 2103   6.623   0.181   5.441
  402SOL     OW 2104   6.230   0.241   2.630
  402SOL    HW1 2105   6.232   0.150   2.588
  402SOL    HW2 2106   6.323   0.268   2.657
  403SOL     OW 2107   3.026   0.896   6.455
  403SOL    HW1 2108   2.948   0.851   6.412
  403SOL    HW2 2109   3.073   0.831   6.515
  404SOL     OW 2110   3.581   6.265   6.043
  404SOL    HW1 2111   3.573   6.171   6.010
  404SOL    HW2 2112   3.676   6.282   6.071
  405SOL     OW 2113   1.733   3.977   3.544
  405SOL    HW1 2114   1.816   4.009   3.590
  405SOL    HW2 2115   1.726   4.020   3.454
  406SOL     OW 2116   0.893   5.504   5.773
  406SOL    HW1 2117   0.835   5.451   5.712
  406SOL    HW2 2118   0.985   5.511   5.735
  407SOL     OW 2119   1.300   3.392   3.797
  407SOL    HW1 2120   1.365   3.335   3.848
  407SOL    HW2 2121   1.350   3.461   3.745
  408SOL     OW 2122   3.224   1.776   3.109
  408SOL    HW1 2123   3.200   1.778   3.013
  408SOL    HW2 2124   3.324   1.785   3.119
  409SOL     OW 2125   1.143   4.081   2.743
  409SOL    HW1 2126   1.234   4.079   2.702
  409SOL    HW2 2127   1.102   4.171   2.729
  410SOL     OW 2128   1.624   2.525   1.106
  410SOL    HW1 2129   1.610   2.583   1.026
  410SOL    HW2 2130   1.554   2.454   1.108
  411SOL     OW 2131   0.319   1.823   1.478
  411SOL    HW1 2132   0.262   1.905   1.482
  411SOL    HW2 2133   0.342   1.794   1.571
  412SOL     OW 2134   2.613   4.965   2.985
  412SOL    HW1 2135   2.643   4.904   2.912
  412SOL    HW2 2136   2.687   4.978   3.051
  413SOL     OW 2137   3.879   5.132   2.331
  413SOL    HW1 2138   3.800   5.152   2.274
  413SOL    HW2 2139   3.878   5.035   2.357
  414SOL     OW 2140   2.406   6.856   4.050
  414SOL    HW1 2141   2.398   6.854   3.951
  414SOL    HW2 2142   2.376   6.945   4.085
  415SOL     OW 2143   6.773   0.824   0.989
  415SOL    HW1 2144   6.846   0.870   1.039
  415SOL    HW2 2145   6.685   0.858   1.021
  416SOL     OW 2146   4.998   3.697   4.911
  416SOL    HW1 2147   4.918   3.655   4.954
  416SOL    HW2 2148   5.027   3.776   4.965
  417SOL     OW 2149   3.304   2.604   6.904
  417SOL    HW1 2150   3.287   2.518   6.951
  417SOL    HW2 2151   3.402   2.615   6.888
  418SOL     OW 2152   3.575   0.101   4.320
  418SOL    HW1 2153   3.565   0.002   4.307
  418SOL    HW2 2154   3.488   0.140   4.351
  419SOL     OW 2155   0.778   6.936   1.584
  419SOL    HW1 2156   0.685   6.921   1.617
  419SOL    HW2 2157   0.841   6.939   1.662
  420SOL     OW 2158   5.587   0.390   6.440
  420SOL    HW1 2159   5.669   0.335   6.458
  420SOL    HW2 2160   5.604   0.450   6.362
  421SOL     OW 2161   5.284   4.176   4.063
  421SOL    HW1 2162   5.346   4.235   4.010
  421SOL    HW2 2163   5.259   4.222   4.148
  422SOL     OW 2164   5.231   2.772   1.462
  422SOL    HW1 2165   5.308   2.791   1.401
  422SOL    HW2 2166   5.145   2.793   1.415
  423SOL     OW 2167   3.062   1.527   6.051
  423SOL    HW1 2168   3.149   1.522   6.100
  423SOL    HW2 2169   3.030   1.435   6.030
  424SOL     OW 2170   1.586   4.578   3.059
  424SOL    HW1 2171   1.664   4.591   3.119
  424SOL    HW2 2172   1.507   4.627   3.095
  425SOL     OW 2173   3.995   0.323   5.606
  425SOL    HW1 2174   4.001   0.282   5.696
  425SOL    HW2 2175   3.999   0.423   5.614
  426SOL     OW 2176   2.458   2.158   4.814
  426SOL    HW1 2177   2.515   2.237   4.838
  426SOL    HW2 2178   2.491   2.078   4.863
  427SOL     OW 2179   4.172   1.654   3.228
  427SOL    HW1 2180   4.141   1.573   3.178
  427SOL    HW2 2181   4.166   1.637   3.326
  428SOL     OW 2182   2.715   1.296   5.419
  428SOL    HW1 2183   2.802   1.326   5.381
  428SOL    HW2 2184   2.662   1.375   5.449
  429SOL     OW 2185   1.125   5.858   3.372
  429SOL    HW1 2186   1.039   5.808   3.363
  429SOL    HW2 2187   1.152   5.894   3.283
  430SOL     OW 2188   1.852   0.054   3.880
  430SOL    HW1 2189   1.813   0.143   3.906
  430SOL    HW2 2190   1.844   7.016   3.957
  431SOL     OW 2191   2.762   2.182   1.315
  431SOL    HW1 2192   2.683   2.122   1.328
  431SOL    HW2 2193   2.786   2.185   1.218
  432SOL     OW 2194   4.081   1.958   1.425
  432SOL    HW1 2195   4.147   1.989   1.357
  432SOL    HW2 2196   3.994   1.938   1.379
  433SOL     OW 2197   2.286   6.798   6.888
  433SOL    HW1 2198   2.259   6.889   6.859
  433SOL    HW2 2199   2.350   6.804   6.964
  434SOL     OW 2200   4.255   6.506   3.960
  434SOL    HW1 2201   4.217   6.595   3.987
  434SOL    HW2 2202   4.259   6.446   4.040
  435SOL     OW 2203   3.469   1.644   6.154
  435SOL    HW1 2204   3.439   1.717   6.216
  435SOL    HW2 2205   3.450   1.671   6.059
  436SOL     OW 2206   3.886   6.821   3.647
  436SOL    HW1 2207   3.950   6.894   3.622
  436SOL    HW2 2208   3.803   6.861   3.687
  437SOL     OW 2209   0.337   0.439   4.425
  437SOL    HW1 2210   0.243   0.432   4.390
  437SOL    HW2 2211   0.395   0.479   4.355
  438SOL     OW 2212   1.009   4.494   2.812
  438SOL    HW1 2213   1.108   4.494   2.823
  438SOL    HW2 2214   0.966   4.494   2.902
  439SOL     OW 2215   5.546   0.649   3.232
  439SOL    HW1 2216   5.567   0.746   3.243
  439SOL    HW2 2217   5.570   0.620   3.139
  440SOL     OW 2218   4.525   1.149   6.984
  440SOL    HW1 2219   4.462   1.216   6.945
  440SOL    HW2 2220   4.607   1.143   6.927
  441SOL     OW 2221   6.718   4.444   2.667
  441SOL    HW1 2222   6.678   4.439   2.575
  441SOL    HW2 2223   6.720   4.352   2.706
  442SOL     OW 2224   5.712   3.681   5.295
  442SOL    HW1 2225   5.771   3.745   5.345
  442SOL    HW2 2226   5.768   3.615   5.246
  443SOL     OW 2227   5.036   4.263   3.042
  443SOL    HW1 2228   5.097   4.241   3.118
  443SOL    HW2 2229   4.959   4.200   3.041
  444SOL     OW 2230   4.155   1.158   1.246
  444SOL    HW1 2231   4.153   1.234   1.180
  444SOL    HW2 2232   4.247   1.152   1.286
  445SOL     OW 2233   2.070   5.131   2.382
  445SOL    HW1 2234   2.123   5.098   2.304
  445SOL    HW2 2235   2.126   5.127   2.465
  446SOL     OW 2236   5.939   6.707   2.570
  446SOL    HW1 2237   5.908   6.802   2.562
  446SOL    HW2 2238   5.924   6.660   2.483
  447SOL     OW 2239   5.971   3.769   6.990
  447SOL    HW1 2240   5.892   3.714   7.016
  447SOL    HW2 2241   5.997   3.748   6.895
  448SOL     OW 2242   2.720   0.875   2.828
  448SOL    HW1 2243   2.672   0.950   2.874
  448SOL    HW2 2244   2.798   0.912   2.777
  449SOL     OW 2245   2.019   2.696   4.280
  449SOL    HW1 2246   2.008   2.616   4.221
  449SOL    HW2 2247   1.959   2.769   4.248
  450SOL     OW 2248   1.143   4.120   3.163
  450SOL    HW1 2249   1.216   4.175   3.123
  450SOL    HW2 2250   1.059   4.175   3.168
  451SOL     OW 2251   0.857   2.208   3.051
  451SOL    HW1 2252   0.913   2.130   3.081
  451SOL    HW2 2253   0.762   2.193   3.078
  452SOL     OW 2254   4.162   6.638   3.488
  452SOL    HW1 2255   4.068   6.614   3.463
  452SOL    HW2 2256   4.189   6.721   3.439
  453SOL     OW 2257   4.268   0.062   0.234
  453SOL    HW1 2258   4.258   0.078   0.136
  453SOL    HW2 2259   4.181   0.034   0.273
  454SOL     OW 2260   6.954   4.749   6.749
  454SOL    HW1 2261   7.005   4.681   6.803
  454SOL    HW2 2262   6.997   4.758   6.659
  455SOL     OW 2263   6.517   4.571   5.896
  455SOL    HW1 2264   6.606   4.611   5.921
  455SOL    HW2 2265   6.527   4.522   5.810
  456SOL     OW 2266   2.885   1.327   2.798
  456SOL    HW1 2267   2.857   1.279   2.715
  456SOL    HW2 2268   2.829   1.408   2.810
  457SOL     OW 2269   2.542   6.680   6.267
  457SOL    HW1 2270   2.533   6.583   6.290
  457SOL    HW2 2271   2.451   6.723   6.269
  458SOL     OW 2272   1.790   1.946   3.097
  458SOL    HW1 2273   1.747   1.865   3.058
  458SOL    HW2 2274   1.865   1.918   3.158
  459SOL     OW 2275   2.401   0.216   4.875
  459SOL    HW1 2276   2.435   0.157   4.802
  459SOL    HW2 2277   2.323   0.270   4.840
  460SOL     OW 2278   1.372   1.770   4.740
  460SOL    HW1 2279   1.410   1.691   4.788
  460SOL    HW2 2280   1.277   1.752   4.715
  461SOL     OW 2281   0.931   4.741   6.089
  461SOL    HW1 2282   1.026   4.710   6.077
  461SOL    HW2 2283   0.880   4.726   6.004
  462SOL     OW 2284   3.078   3.745   4.713
  462SOL    HW1 2285   3.049   3.688   4.637
  462SOL    HW2 2286   3.014   3.736   4.789
  463SOL     OW 2287   5.948   6.585   2.314
  463SOL    HW1 2288   6.047   6.588   2.304
  463SOL    HW2 2289   5.920   6.493   2.343
  464SOL     OW 2290   3.288   6.216   6.568
  464SOL    HW1 2291   3.279   6.255   6.476
  464SOL    HW2 2292   3.377   6.171   6.577
  465SOL     OW 2293   1.712   2.595   0.281
  465SOL    HW1 2294   1.716   2.497   0.301
  465SOL    HW2 2295   1.768   2.615   0.200
  466SOL     OW 2296   3.526   5.810   4.873
  466SOL    HW1 2297   3.494   5.821   4.968
  466SOL    HW2 2298   3.623   5.789   4.873
  467SOL     OW 2299   6.385   0.870   2.686
  467SOL    HW1 2300   6.469   0.915   2.656
  467SOL    HW2 2301   6.405   0.810   2.763
  468SOL     OW 2302   3.880   6.971   6.871
  468SOL    HW1 2303   3.939   6.996   6.794
  468SOL    HW2 2304   3.858   0.026   6.924
  469SOL     OW 2305   2.697   5.090   5.821
  469SOL    HW1 2306   2.637   5.141   5.760
  469SOL    HW2 2307   2.664   5.099   5.915
  470SOL     OW 2308   2.639   5.219   3.289
  470SOL    HW1 2309   2.636   5.169   3.202
  470SOL    HW2 2310   2.649   5.317   3.270
  471SOL     OW 2311   2.665   2.349   4.165
  471SOL    HW1 2312   2.632   2.259   4.194
  471SOL    HW2 2313   2.634   2.367   4.072
  472SOL     OW 2314   6.229   4.496   6.018
  472SOL    HW1 2315   6.230   4.537   5.927
  472SOL    HW2 2316   6.147   4.439   6.029
  473SOL     OW 2317   6.849   2.307   2.445
  473SOL    HW1 2318   6.888   2.399   2.447
  473SOL    HW2 2319   6.830   2.281   2.351
  474SOL     OW 2320   5.656   5.963   4.518
  474SOL    HW1 2321   5.724   5.894   4.492
  474SOL    HW2 2322   5.581   5.919   4.568
  475SOL     OW 2323   6.010   1.340   0.943
  475SOL    HW1 2324   5.949   1.347   0.864
  475SOL    HW2 2325   5.980   1.404   1.014
  476SOL     OW 2326   0.659   4.020   1.803
  476SOL    HW1 2327   0.747   4.019   1.851
  476SOL    HW2 2328   0.648   4.108   1.757
  477SOL     OW 2329   1.752   4.868   3.874
  477SOL    HW1 2330   1.770   4.842   3.779
  477SOL    HW2 2331   1.668   4.923   3.877
  478SOL     OW 2332   4.743   6.012   2.016
  478SOL    HW1 2333   4.654   6.005   2.062
  478SOL    HW2 2334   4.753   5.937   1.952
  479SOL     OW 2335   4.130   3.776   4.185
  479SOL    HW1 2336   4.148   3.740   4.277
  479SOL    HW2 2337   4.196   3.738   4.121
  480SOL     OW 2338   1.925   6.847   2.824
  480SOL    HW1 2339   1.886   6.920   2.769
  480SOL    HW2 2340   2.010   6.816   2.782
  481SOL     OW 2341   0.582   6.818   0.783
  481SOL    HW1 2342   0.654   6.766   0.829
  481SOL    HW2 2343   0.623   6.878   0.714
  482SOL     OW 2344   5.047   4.757   1.727
  482SOL    HW1 2345   5.120   4.698   1.762
  482SOL    HW2 2346   5.071   4.853   1.742
  483SOL     OW 2347   6.013   2.096   3.044
  483SOL    HW1 2348   6.037   2.193   3.041
  483SOL    HW2 2349   6.075   2.047   3.105
  484SOL     OW 2350   2.179   4.220   4.092
  484SOL    HW1 2351   2.202   4.179   4.004
  484SOL    HW2 2352   2.105   4.286   4.078
  485SOL     OW 2353   5.305   3.125   2.183
  485SOL    HW1 2354   5.282   3.031   2.209
  485SOL    HW2 2355   5.343   3.125   2.091
  486SOL     OW 2356   6.411   6.207   6.223
  486SOL    HW1 2357   6.451   6.238   6.137
  486SOL    HW2 2358   6.363   6.120   6.208
  487SOL     OW 2359   0.084   6.640   4.447
  487SOL    HW1 2360   0.066   6.614   4.352
  487SOL    HW2 2361   0.178   6.672   4.456
  488SOL     OW 2362   1.539   6.094   3.494
  488SOL    HW1 2363   1.468   6.088   3.564
  488SOL    HW2 2364   1.629   6.096   3.537
  489SOL     OW 2365   0.085   5.545   6.104
  489SOL    HW1 2366   0.113   5.641   6.114
  489SOL    HW2 2367   0.165   5.486   6.117
  490SOL     OW 2368   1.513   4.803   5.622
  490SOL    HW1 2369   1.424   4.807   5.578
  490SOL    HW2 2370   1.583   4.839   5.561
  491SOL     OW 2371   0.340   2.517   1.027
  491SOL    HW1 2372   0.329   2.552   0.934
  491SOL    HW2 2373   0.434   2.485   1.039
  492SOL     OW 2374   1.328   1.788   5.669
  492SOL    HW1 2375   1.273   1.761   5.590
  492SOL    HW2 2376   1.387   1.712   5.695
  493SOL     OW 2377   2.076   6.230   5.018
  493SOL    HW1 2378   2.128   6.190   4.943
  493SOL    HW2 2379   2.024   6.308   4.984
  494SOL     OW 2380   2.286   6.652   4.985
  494SOL    HW1 2381   2.364   6.607   5.027
  494SOL    HW2 2382   2.225   6.584   4.945
  495SOL     OW 2383   3.640   5.731   5.561
  495SOL    HW1 2384   3.669   5.697   5.471
  495SOL    HW2 2385   3.698   5.691   5.632
  496SOL     OW 2386   5.018   1.454   2.660
  496SOL    HW1 2387   5.039   1.380   2.724
  496SOL    HW2 2388   4.919   1.465   2.653
  497SOL     OW 2389   3.401   0.908   6.627
  497SOL    HW1 2390   3.320   0.866   6.668
  497SOL    HW2 2391   3.449   0.962   6.696
  498SOL     OW 2392   0.350   5.598   1.651
  498SOL    HW1 2393   0.322   5.552   1.567
  498SOL    HW2 2394   0.272   5.605   1.713
  499SOL     OW 2395   3.685   5.949   0.256
  499SOL    HW1 2396   3.717   6.044   0.261
  499SOL    HW2 2397   3.680   5.922   0.160
  500SOL     OW 2398   5.847   2.061   0.252
  500SOL    HW1 2399   5.772   2.125   0.231
  500SOL    HW2 2400   5.840   1.981   0.192
  501SOL     OW 2401   0.849   0.159   2.993
  501SOL    HW1 2402   0.820   0.113   2.909
  501SOL    HW2 2403   0.926   0.109   3.034
  502SOL     OW 2404   2.090   4.914   6.767
  502SOL    HW1 2405   2.097   4.985   6.697
  502SOL    HW2 2406   2.013   4.935   6.827
  503SOL     OW 2407   3.451   5.292   0.088
  503SOL    HW1 2408   3.420   5.295   7.019
  503SOL    HW2 2409   3.530   5.231   0.096
  504SOL     OW 2410   5.773   6.615   2.117
  504SOL    HW1 2411   5.809   6.627   2.024
  504SOL    HW2 2412   5.849   6.607   2.181
  505SOL     OW 2413   5.139   6.625   5.113
  505SOL    HW1 2414   5.181   6.634   5.203
  505SOL    HW2 2415   5.138   6.528   5.087
  506SOL     OW 2416   3.932   5.553   2.754
  506SOL    HW1 2417   3.956   5.604   2.671
  506SOL    HW2 2418   3.866   5.482   2.731
  507SOL     OW 2419   3.720   0.932   1.357
  507SOL    HW1 2420   3.683   0.857   1.302
  507SOL    HW2 2421   3.818   0.943   1.338
  508SOL     OW 2422   0.256   4.806   4.135
  508SOL    HW1 2423   0.352   4.790   4.111
  508SOL    HW2 2424   0.250   4.865   4.215
  509SOL     OW 2425   4.645   6.938   6.356
  509SOL    HW1 2426   4.592   7.022   6.346
  509SOL    HW2 2427   4.593   6.872   6.410
  510SOL     OW 2428   6.796   4.464   0.031
  510SOL    HW1 2429   6.772   4.505   0.119
  510SOL    HW2 2430   6.776   4.366   0.033
  511SOL     OW 2431   1.051   2.003   0.568
  511SOL    HW1 2432   0.970   2.060   0.585
  511SOL    HW2 2433   1.061   1.989   0.469
  512SOL     OW 2434   6.635   2.292   6.457
  512SOL    HW1 2435   6.564   2.361   6.449
  512SOL    HW2 2436   6.653   2.274   6.554
  513SOL     OW 2437   5.270   0.274   2.798
  513SOL    HW1 2438   5.200   0.289   2.868
  513SOL    HW2 2439   5.305   0.181   2.805
  514SOL     OW 2440   6.282   6.785   4.276
  514SOL    HW1 2441   6.251   6.696   4.244
  514SOL    HW2 2442   6.256   6.855   4.210
  515SOL     OW 2443   3.312   6.744   6.941
  515SOL    HW1 2444   3.338   6.791   6.857
  515SOL    HW2 2445   3.255   6.666   6.919
  516SOL     OW 2446   2.270   5.543   1.579
  516SOL    HW1 2447   2.199   5.605   1.612
  516SOL    HW2 2448   2.359   5.589   1.583
  517SOL     OW 2449   3.324   5.050   2.345
  517SOL    HW1 2450   3.413   5.005   2.339
  517SOL    HW2 2451   3.330   5.141   2.303
  518SOL     OW 2452   2.230   3.058   3.511
  518SOL    HW1 2453   2.209   3.147   3.550
  518SOL    HW2 2454   2.215   2.987   3.580
  519SOL     OW 2455   0.441   6.727   3.472
  519SOL    HW1 2456   0.362   6.688   3.425
  519SOL    HW2 2457   0.524   6.683   3.439
  520SOL     OW 2458   1.487   2.903   0.176
  520SOL    HW1 2459   1.569   2.958   0.158
  520SOL    HW2 2460   1.492   2.864   0.268
  521SOL     OW 2461   5.198   4.987   5.309
  521SOL    HW1 2462   5.134   5.026   5.242
  521SOL    HW2 2463   5.271   4.939   5.261
  522SOL     OW 2464   4.198   3.767   1.456
  522SOL    HW1 2465   4.219   3.807   1.546
  522SOL    HW2 2466   4.138   3.828   1.406
  523SOL     OW 2467   0.285   6.629   1.438
  523SOL    HW1 2468   0.314   6.538   1.408
  523SOL    HW2 2469   0.358   6.695   1.422
  524SOL     OW 2470   6.546   2.434   2.068
  524SOL    HW1 2471   6.488   2.515   2.079
  524SOL    HW2 2472   6.560   2.416   1.970
  525SOL     OW 2473   1.476   3.928   6.778
  525SOL    HW1 2474   1.524   3.934   6.866
  525SOL    HW2 2475   1.379   3.945   6.792
  526SOL     OW 2476   3.211   0.222   4.669
  526SOL    HW1 2477   3.115   0.197   4.666
  526SOL    HW2 2478   3.259   0.164   4.736
  527SOL     OW 2479   1.109   2.125   0.094
  527SOL    HW1 2480   1.198   2.123   0.050
  527SOL    HW2 2481   1.045   2.068   0.043
  528SOL     OW 2482   6.912   3.027   4.214
  528SOL    HW1 2483   6.821   3.003   4.177
  528SOL    HW2 2484   6.980   2.967   4.173
  529SOL     OW 2485   2.153   0.549   5.712
  529SOL    HW1 2486   2.146   0.560   5.811
  529SOL    HW2 2487   2.237   0.500   5.690
  530SOL     OW 2488   3.459   3.528   1.179
  530SOL    HW1 2489   3.501   3.608   1.138
  530SOL    HW2 2490   3.393   3.556   1.249
  531SOL     OW 2491   1.901   0.714   2.133
  531SOL    HW1 2492   1.922   0.812   2.135
  531SOL    HW2 2493   1.984   0.662   2.154
  532SOL     OW 2494   3.383   2.623   0.251
  532SOL    HW1 2495   3.425   2.561   0.317
  532SOL    HW2 2496   3.442   2.703   0.237
  533SOL     OW 2497   3.790   0.409   3.703
  533SOL    HW1 2498   3.879   0.426   3.746
  533SOL    HW2 2499   3.740   0.341   3.757
  534SOL     OW 2500   0.653   5.447   1.286
  534SOL    HW1 2501   0.730   5.471   1.227
  534SOL    HW2 2502   0.600   5.373   1.244
  535SOL     OW 2503   5.421   3.812   3.073
  535SOL    HW1 2504   5.457   3.855   3.156
  535SOL    HW2 2505   5.411   3.880   3.001
  536SOL     OW 2506   6.573   6.106   3.132
  536SOL    HW1 2507   6.653   6.141   3.082
  536SOL    HW2 2508   6.566   6.153   3.220
  537SOL     OW 2509   3.240   0.931   4.206
  537SOL    HW1 2510   3.315   0.873   4.173
  537SOL    HW2 2511   3.184   0.960   4.128
  538SOL     OW 2512   2.256   5.017   5.272
  538SOL    HW1 2513   2.260   5.115   5.290
  538SOL    HW2 2514   2.254   5.002   5.173
  539SOL     OW 2515   0.743   6.237   0.427
  539SOL    HW1 2516   0.700   6.328   0.423
  539SOL    HW2 2517   0.683   6.170   0.383
  540SOL     OW 2518   1.468   0.242   3.415
  540SOL    HW1 2519   1.453   0.152   3.373
  540SOL    HW2 2520   1.491   0.231   3.511
  541SOL     OW 2521   3.913   6.308   4.682
  541SOL    HW1 2522   3.879   6.241   4.748
  541SOL    HW2 2523   3.982   6.265   4.623
  542SOL     OW 2524   2.701   6.796   6.822
  542SOL    HW1 2525   2.679   6.745   6.739
  542SOL    HW2 2526   2.757   6.876   6.798
  543SOL     OW 2527   5.687   2.516   4.040
  543SOL    HW1 2528   5.733   2.584   3.983
  543SOL    HW2 2529   5.609   2.558   4.086
  544SOL     OW 2530   0.368   4.777   0.315
  544SOL    HW1 2531   0.430   4.831   0.258
  544SOL    HW2 2532   0.335   4.833   0.391
  545SOL     OW 2533   5.263   1.385   1.651
  545SOL    HW1 2534   5.223   1.466   1.608
  545SOL    HW2 2535   5.192   1.336   1.703
  546SOL     OW 2536   0.337   4.237   2.439
  546SOL    HW1 2537   0.323   4.240   2.538
  546SOL    HW2 2538   0.362   4.144   2.412
  547SOL     OW 2539   4.453   1.501   6.978
  547SOL    HW1 2540   4.456   1.596   6.950
  547SOL    HW2 2541   4.398   1.493   0.036
  548SOL     OW 2542   3.914   2.726   6.925
  548SOL    HW1 2543   3.917   2.687   7.017
  548SOL    HW2 2544   3.820   2.751   6.902
  549SOL     OW 2545   6.408   2.149   0.542
  549SOL    HW1 2546   6.439   2.139   0.448
  549SOL    HW2 2547   6.471   2.101   0.603
  550SOL     OW 2548   0.012   4.543   3.011
  550SOL    HW1 2549   0.102   4.587   3.015
  550SOL    HW2 2550   0.024   4.444   3.000
  551SOL     OW 2551   6.971   0.903   0.425
  551SOL    HW1 2552   0.032   0.915   0.474
  551SOL    HW2 2553   6.905   0.856   0.483
  552SOL     OW 2554   5.477   5.681   5.646
  552SOL    HW1 2555   5.409   5.631   5.593
  552SOL    HW2 2556   5.431   5.739   5.713
  553SOL     OW 2557   3.338   1.425   5.860
  553SOL    HW1 2558   3.270   1.490   5.827
  553SOL    HW2 2559   3.395   1.395   5.783
  554SOL     OW 2560   5.843   6.039   0.627
  554SOL    HW1 2561   5.834   5.956   0.681
  554SOL    HW2 2562   5.763   6.049   0.567
  555SOL     OW 2563   2.330   5.233   5.413
  555SOL    HW1 2564   2.381   5.290   5.348
  555SOL    HW2 2565   2.395   5.188   5.474
  556SOL     OW 2566   4.662   1.946   4.028
  556SOL    HW1 2567   4.563   1.952   4.017
  556SOL    HW2 2568   4.692   1.854   4.004
  557SOL     OW 2569   6.790   5.198   5.701
  557SOL    HW1 2570   6.778   5.297   5.697
  557SOL    HW2 2571   6.834   5.166   5.617
  558SOL     OW 2572   3.855   3.538   2.843
  558SOL    HW1 2573   3.949   3.557   2.816
  558SOL    HW2 2574   3.848   3.444   2.876
  559SOL     OW 2575   6.512   6.466   5.571
  559SOL    HW1 2576   6.451   6.492   5.495
  559SOL    HW2 2577   6.461   6.412   5.637
  560SOL     OW 2578   6.469   3.004   3.242
  560SOL    HW1 2579   6.402   2.935   3.269
  560SOL    HW2 2580   6.477   3.005   3.142
  561SOL     OW 2581   0.501   3.282   6.405
  561SOL    HW1 2582   0.474   3.352   6.339
  561SOL    HW2 2583   0.586   3.310   6.450
  562SOL     OW 2584   4.588   6.641   5.877
  562SOL    HW1 2585   4.513   6.691   5.834
  562SOL    HW2 2586   4.645   6.705   5.929
  563SOL     OW 2587   1.756   1.811   4.378
  563SOL    HW1 2588   1.715   1.721   4.392
  563SOL    HW2 2589   1.697   1.866   4.319
  564SOL     OW 2590   0.293   1.598   5.839
  564SOL    HW1 2591   0.341   1.616   5.925
  564SOL    HW2 2592   0.198   1.628   5.846
  565SOL     OW 2593   3.365   3.003   3.492
  565SOL    HW1 2594   3.292   3.027   3.556
  565SOL    HW2 2595   3.324   2.974   3.405
  566SOL     OW 2596   3.158   5.308   3.019
  566SOL    HW1 2597   3.206   5.221   3.019
  566SOL    HW2 2598   3.090   5.308   2.946
  567SOL     OW 2599   2.514   2.723   6.827
  567SOL    HW1 2600   2.464   2.640   6.801
  567SOL    HW2 2601   2.454   2.782   6.881
  568SOL     OW 2602   5.923   6.823   0.464
  568SOL    HW1 2603   5.902   6.741   0.409
  568SOL    HW2 2604   5.977   6.797   0.544
  569SOL     OW 2605   0.297   2.228   0.123
  569SOL    HW1 2606   0.272   2.318   0.089
  569SOL    HW2 2607   0.295   2.162   0.048
  570SOL     OW 2608   2.748   0.440   6.445
  570SOL    HW1 2609   2.713   0.412   6.534
  570SOL    HW2 2610   2.833   0.389   6.425
  571SOL     OW 2611   2.736   4.658   2.995
  571SOL    HW1 2612   2.824   4.671   2.949
  571SOL    HW2 2613   2.676   4.602   2.939
  572SOL     OW 2614   1.791   6.108   4.473
  572SOL    HW1 2615   1.753   6.054   4.548
  572SOL    HW2 2616   1.718   6.129   4.406
  573SOL     OW 2617   6.160   2.313   5.711
  573SOL    HW1 2618   6.065   2.302   5.740
  573SOL    HW2 2619   6.214   2.235   5.745
  574SOL     OW 2620   3.193   1.460   5.198
  574SOL    HW1 2621   3.163   1.556   5.199
  574SOL    HW2 2622   3.200   1.426   5.292
  575SOL     OW 2623   3.316   3.353   0.324
  575SOL    HW1 2624   3.244   3.324   0.261
  575SOL    HW2 2625   3.277   3.367   0.415
  576SOL     OW 2626   2.000   3.504   3.071
  576SOL    HW1 2627   1.995   3.476   3.167
  576SOL    HW2 2628   1.912   3.488   3.027
  577SOL     OW 2629   0.997   1.358   1.971
  577SOL    HW1 2630   0.936   1.430   1.938
  577SOL    HW2 2631   1.089   1.395   1.984
  578SOL     OW 2632   1.825   5.241   0.238
  578SOL    HW1 2633   1.747   5.296   0.207
  578SOL    HW2 2634   1.868   5.196   0.160
  579SOL     OW 2635   2.771   4.708   2.572
  579SOL    HW1 2636   2.807   4.617   2.556
  579SOL    HW2 2637   2.845   4.775   2.569
  580SOL     OW 2638   3.930   5.551   4.779
  580SOL    HW1 2639   3.967   5.476   4.725
  580SOL    HW2 2640   3.952   5.537   4.875
  581SOL     OW 2641   0.905   2.924   3.698
  581SOL    HW1 2642   0.980   2.975   3.739
  581SOL    HW2 2643   0.904   2.831   3.734
  582SOL     OW 2644   5.547   4.998   3.246
  582SOL    HW1 2645   5.558   5.018   3.343
  582SOL    HW2 2646   5.450   4.989   3.225
  583SOL     OW 2647   3.041   5.177   5.942
  583SOL    HW1 2648   3.133   5.215   5.928
  583SOL    HW2 2649   3.001   5.153   5.853
  584SOL     OW 2650   3.702   0.083   6.533
  584SOL    HW1 2651   3.668   7.016   6.548
  584SOL    HW2 2652   3.726   0.096   6.437
  585SOL     OW 2653   2.443   6.876   1.491
  585SOL    HW1 2654   2.542   6.865   1.504
  585SOL    HW2 2655   2.421   6.866   1.394
  586SOL     OW 2656   4.216   0.427   1.647
  586SOL    HW1 2657   4.213   0.327   1.644
  586SOL    HW2 2658   4.301   0.457   1.689
  587SOL     OW 2659   5.073   2.193   2.076
  587SOL    HW1 2660   5.153   2.252   2.059
  587SOL    HW2 2661   5.078   2.155   2.168
  588SOL     OW 2662   1.294   5.550   1.269
  588SOL    HW1 2663   1.337   5.627   1.223
  588SOL    HW2 2664   1.333   5.539   1.360
  589SOL     OW 2665   3.475   5.881   1.380
  589SOL    HW1 2666   3.415   5.821   1.327
  589SOL    HW2 2667   3.424   5.923   1.454
  590SOL     OW 2668   5.875   1.618   0.813
  590SOL    HW1 2669   5.866   1.521   0.792
  590SOL    HW2 2670   5.971   1.643   0.812
  591SOL     OW 2671   4.247   5.230   4.401
  591SOL    HW1 2672   4.319   5.184   4.350
  591SOL    HW2 2673   4.165   5.173   4.401
  592SOL     OW 2674   4.786   1.480   4.230
  592SOL    HW1 2675   4.814   1.575   4.243
  592SOL    HW2 2676   4.698   1.477   4.184
  593SOL     OW 2677   3.871   1.967   5.678
  593SOL    HW1 2678   3.837   1.994   5.768
  593SOL    HW2 2679   3.921   2.044   5.637
  594SOL     OW 2680   5.585   1.898   1.461
  594SOL    HW1 2681   5.519   1.945   1.519
  594SOL    HW2 2682   5.677   1.916   1.495
  595SOL     OW 2683   5.223   6.315   2.871
  595SOL    HW1 2684   5.216   6.373   2.789
  595SOL    HW2 2685   5.151   6.246   2.869
  596SOL     OW 2686   6.718   3.808   4.137
  596SOL    HW1 2687   6.707   3.797   4.236
  596SOL    HW2 2688   6.776   3.734   4.102
  597SOL     OW 2689   3.049   6.528   5.902
  597SOL    HW1 2690   3.096   6.540   5.990
  597SOL    HW2 2691   2.951   6.548   5.914
  598SOL     OW 2692   2.916   3.903   4.921
  598SOL    HW1 2693   2.862   3.929   5.001
  598SOL    HW2 2694   2.881   3.950   4.841
  599SOL     OW 2695   1.619   6.171   1.886
  599SOL    HW1 2696   1.712   6.140   1.908
  599SOL    HW2 2697   1.553   6.103   1.917
  600SOL     OW 2698   6.887   4.214   4.840
  600SOL    HW1 2699   6.946   4.173   4.771
  600SOL    HW2 2700   6.902   4.313   4.843
  601SOL     OW 2701   1.226   1.040   4.881
  601SOL    HW1 2702   1.232   0.966   4.814
  601SOL    HW2 2703   1.310   1.094   4.878
  602SOL     OW 2704   2.462   6.513   5.127
  602SOL    HW1 2705   2.471   6.444   5.054
  602SOL    HW2 2706   2.429   6.468   5.210
  603SOL     OW 2707   1.776   0.926   4.853
  603SOL    HW1 2708   1.790   1.025   4.841
  603SOL    HW2 2709   1.787   0.903   4.950
  604SOL     OW 2710   0.070   2.491   1.963
  604SOL    HW1 2711   7.000   2.521   1.969
  604SOL    HW2 2712   0.113   2.502   2.053
  605SOL     OW 2713   0.180   4.470   2.018
  605SOL    HW1 2714   0.155   4.421   2.102
  605SOL    HW2 2715   0.112   4.540   1.999
  606SOL     OW 2716   4.058   0.204   5.196
  606SOL    HW1 2717   4.092   0.182   5.105
  606SOL    HW2 2718   4.012   0.125   5.235
  607SOL     OW 2719   1.533   5.409   6.406
  607SOL    HW1 2720   1.541   5.436   6.310
  607SOL    HW2 2721   1.510   5.311   6.411
  608SOL     OW 2722   4.316   0.012   6.519
  608SOL    HW1 2723   4.231   0.065   6.512
  608SOL    HW2 2724   4.365   0.018   6.432
  609SOL     OW 2725   3.863   2.088   1.556
  609SOL    HW1 2726   3.940   2.060   1.498
  609SOL    HW2 2727   3.892   2.161   1.618
  610SOL     OW 2728   4.562   2.500   7.025
  610SOL    HW1 2729   4.567   2.590   6.980
  610SOL    HW2 2730   4.472   2.489   0.041
  611SOL     OW 2731   3.708   6.796   2.301
  611SOL    HW1 2732   3.627   6.848   2.331
  611SOL    HW2 2733   3.790   6.835   2.344
  612SOL     OW 2734   3.635   4.817   6.008
  612SOL    HW1 2735   3.715   4.774   6.050
  612SOL    HW2 2736   3.645   4.917   6.013
  613SOL     OW 2737   5.247   5.786   4.957
  613SOL    HW1 2738   5.315   5.857   4.941
  613SOL    HW2 2739   5.267   5.707   4.898
  614SOL     OW 2740   5.133   5.348   5.111
  614SOL    HW1 2741   5.183   5.361   5.197
  614SOL    HW2 2742   5.184   5.389   5.036
  615SOL     OW 2743   0.354   4.177   0.747
  615SOL    HW1 2744   0.362   4.100   0.684
  615SOL    HW2 2745   0.313   4.255   0.699
  616SOL     OW 2746   6.385   2.748   3.420
  616SOL    HW1 2747   6.327   2.678   3.461
  616SOL    HW2 2748   6.452   2.705   3.358
  617SOL     OW 2749   2.597   5.478   6.124
  617SOL    HW1 2750   2.562   5.532   6.048
  617SOL    HW2 2751   2.620   5.539   6.200
  618SOL     OW 2752   1.703   1.378   1.618
  618SOL    HW1 2753   1.695   1.470   1.657
  618SOL    HW2 2754   1.781   1.331   1.659
  619SOL     OW 2755   1.550   2.002   6.566
  619SOL    HW1 2756   1.560   2.055   6.650
  619SOL    HW2 2757   1.633   1.948   6.550
  620SOL     OW 2758   4.562   2.845   0.735
  620SOL    HW1 2759   4.583   2.914   0.805
  620SOL    HW2 2760   4.488   2.787   0.767
  621SOL     OW 2761   6.002   4.916   0.123
  621SOL    HW1 2762   5.906   4.889   0.114
  621SOL    HW2 2763   6.040   4.933   0.032
  622SOL     OW 2764   1.990   1.495   0.230
  622SOL    HW1 2765   1.919   1.566   0.236
  622SOL    HW2 2766   2.025   1.490   0.137
  623SOL     OW 2767   0.881   4.982   6.207
  623SOL    HW1 2768   0.797   4.986   6.261
  623SOL    HW2 2769   0.891   4.892   6.166
  624SOL     OW 2770   0.493   2.430   2.612
  624SOL    HW1 2771   0.517   2.462   2.520
  624SOL    HW2 2772   0.419   2.363   2.606
  625SOL     OW 2773   3.068   1.682   2.382
  625SOL    HW1 2774   3.034   1.600   2.428
  625SOL    HW2 2775   3.041   1.763   2.434
  626SOL     OW 2776   2.068   6.438   3.558
  626SOL    HW1 2777   2.150   6.381   3.566
  626SOL    HW2 2778   2.091   6.525   3.514
  627SOL     OW 2779   5.488   0.950   0.384
  627SOL    HW1 2780   5.475   0.884   0.458
  627SOL    HW2 2781   5.532   0.906   0.306
  628SOL     OW 2782   5.010   5.050   4.596
  628SOL    HW1 2783   4.999   5.147   4.572
  628SOL    HW2 2784   4.960   4.993   4.531
  629SOL     OW 2785   0.552   0.464   1.599
  629SOL    HW1 2786   0.564   0.404   1.679
  629SOL    HW2 2787   0.462   0.448   1.559
  630SOL     OW 2788   4.736   1.397   1.846
  630SOL    HW1 2789   4.698   1.323   1.790
  630SOL    HW2 2790   4.764   1.361   1.935
  631SOL     OW 2791   2.451   6.739   5.311
  631SOL    HW1 2792   2.468   6.707   5.218
  631SOL    HW2 2793   2.465   6.838   5.315
  632SOL     OW 2794   2.468   0.943   0.434
  632SOL    HW1 2795   2.466   1.043   0.435
  632SOL    HW2 2796   2.377   0.908   0.410
  633SOL     OW 2797   3.363   6.097   0.747
  633SOL    HW1 2798   3.297   6.023   0.759
  633SOL    HW2 2799   3.356   6.134   0.655
  634SOL     OW 2800   4.392   5.527   1.490
  634SOL    HW1 2801   4.365   5.561   1.399
  634SOL    HW2 2802   4.490   5.541   1.504
  635SOL     OW 2803   3.234   0.513   3.034
  635SOL    HW1 2804   3.208   0.427   3.077
  635SOL    HW2 2805   3.194   0.590   3.085
  636SOL     OW 2806   5.149   5.213   6.520
  636SOL    HW1 2807   5.172   5.232   6.615
  636SOL    HW2 2808   5.201   5.133   6.489
  637SOL     OW 2809   4.797   4.822   1.680
  637SOL    HW1 2810   4.888   4.783   1.696
  637SOL    HW2 2811   4.770   4.875   1.760
  638SOL     OW 2812   4.889   1.027   1.846
  638SOL    HW1 2813   4.797   1.043   1.810
  638SOL    HW2 2814   4.954   1.019   1.770
  639SOL     OW 2815   4.351   4.548   1.722
  639SOL    HW1 2816   4.448   4.529   1.714
  639SOL    HW2 2817   4.304   4.468   1.760
  640SOL     OW 2818   2.310   4.033   5.739
  640SOL    HW1 2819   2.226   4.040   5.793
  640SOL    HW2 2820   2.287   4.029   5.642
  641SOL     OW 2821   0.748   5.505   4.979
  641SOL    HW1 2822   0.794   5.586   5.016
  641SOL    HW2 2823   0.767   5.498   4.881
  642SOL     OW 2824   0.430   4.717   5.243
  642SOL    HW1 2825   0.452   4.762   5.156
  642SOL    HW2 2826   0.461   4.622   5.240
  643SOL     OW 2827   6.942   5.846   5.467
  643SOL    HW1 2828   6.885   5.821   5.388
  643SOL    HW2 2829   6.885   5.890   5.536
  644SOL     OW 2830   1.246   6.345   2.932
  644SOL    HW1 2831   1.158   6.331   2.886
  644SOL    HW2 2832   1.232   6.403   3.012
  645SOL     OW 2833   4.445   2.396   4.535
  645SOL    HW1 2834   4.400   2.403   4.624
  645SOL    HW2 2835   4.452   2.299   4.509
  646SOL     OW 2836   1.719   1.395   3.645
  646SOL    HW1 2837   1.800   1.437   3.603
  646SOL    HW2 2838   1.639   1.450   3.624
  647SOL     OW 2839   6.281   2.788   6.893
  647SOL    HW1 2840   6.351   2.721   6.916
  647SOL    HW2 2841   6.306   2.836   6.809
  648SOL     OW 2842   5.792   3.423   2.443
  648SOL    HW1 2843   5.725   3.446   2.372
  648SOL    HW2 2844   5.881   3.409   2.400
  649SOL     OW 2845   3.941   4.075   0.943
  649SOL    HW1 2846   3.874   4.051   1.013
  649SOL    HW2 2847   3.996   3.994   0.921
  650SOL     OW 2848   4.737   4.764   0.478
  650SOL    HW1 2849   4.711   4.793   0.386
  650SOL    HW2 2850   4.735   4.842   0.540
  651SOL     OW 2851   0.389   6.473   1.104
  651SOL    HW1 2852   0.477   6.519   1.092
  651SOL    HW2 2853   0.389   6.424   1.191
  652SOL     OW 2854   4.495   6.926   2.813
  652SOL    HW1 2855   4.440   6.848   2.782
  652SOL    HW2 2856   4.572   6.893   2.868
  653SOL     OW 2857   3.420   5.239   4.217
  653SOL    HW1 2858   3.334   5.247   4.267
  653SOL    HW2 2859   3.445   5.142   4.208
  654SOL     OW 2860   6.532   5.446   6.422
  654SOL    HW1 2861   6.630   5.426   6.417
  654SOL    HW2 2862   6.500   5.432   6.516
  655SOL     OW 2863   0.825   0.277   1.542
  655SOL    HW1 2864   0.762   0.287   1.620
  655SOL    HW2 2865   0.788   0.209   1.479
  656SOL     OW 2866   2.094   6.297   2.144
  656SOL    HW1 2867   2.068   6.307   2.239
  656SOL    HW2 2868   2.173   6.355   2.125
  657SOL     OW 2869   2.757   1.778   1.072
  657SOL    HW1 2870   2.787   1.792   0.978
  657SOL    HW2 2871   2.706   1.859   1.103
  658SOL     OW 2872   3.170   3.995   6.856
  658SOL    HW1 2873   3.140   3.991   6.951
  658SOL    HW2 2874   3.152   4.086   6.819
  659SOL     OW 2875   2.344   6.874   6.578
  659SOL    HW1 2876   2.247   6.887   6.599
  659SOL    HW2 2877   2.374   6.785   6.612
  660SOL     OW 2878   4.117   6.092   2.008
  660SOL    HW1 2879   4.083   6.185   2.019
  660SOL    HW2 2880   4.138   6.075   1.911
  661SOL     OW 2881   4.633   5.693   3.009
  661SOL    HW1 2882   4.534   5.700   3.010
  661SOL    HW2 2883   4.673   5.784   3.008
  662SOL     OW 2884   3.610   1.150   5.880
  662SOL    HW1 2885   3.528   1.096   5.899
  662SOL    HW2 2886   3.584   1.242   5.852
  663SOL     OW 2887   1.838   4.335   4.685
  663SOL    HW1 2888   1.885   4.263   4.736
  663SOL    HW2 2889   1.809   4.300   4.596
  664SOL     OW 2890   0.374   6.180   6.498
  664SOL    HW1 2891   0.383   6.268   6.451
  664SOL    HW2 2892   0.336   6.113   6.435
  665SOL     OW 2893   3.614   5.519   3.576
  665SOL    HW1 2894   3.536   5.568   3.617
  665SOL    HW2 2895   3.628   5.552   3.483
  666SOL     OW 2896   4.000   0.777   2.739
  666SOL    HW1 2897   4.036   0.828   2.661
  666SOL    HW2 2898   3.965   0.840   2.808
  667SOL     OW 2899   0.711   5.186   1.878
  667SOL    HW1 2900   0.716   5.263   1.814
  667SOL    HW2 2901   0.616   5.176   1.910
  668SOL     OW 2902   5.622   4.727   5.999
  668SOL    HW1 2903   5.621   4.676   6.085
  668SOL    HW2 2904   5.528   4.734   5.963
  669SOL     OW 2905   5.636   1.238   2.814
  669SOL    HW1 2906   5.596   1.326   2.791
  669SOL    HW2 2907   5.657   1.236   2.912
  670SOL     OW 2908   1.966   1.946   3.477
  670SOL    HW1 2909   2.022   2.029   3.481
  670SOL    HW2 2910   1.983   1.898   3.391
  671SOL     OW 2911   2.470   6.632   1.648
  671SOL    HW1 2912   2.447   6.720   1.606
  671SOL    HW2 2913   2.551   6.595   1.603
  672SOL     OW 2914   0.418   5.664   2.224
  672SOL    HW1 2915   0.342   5.690   2.165
  672SOL    HW2 2916   0.475   5.596   2.177
  673SOL     OW 2917   5.297   6.698   1.006
  673SOL    HW1 2918   5.395   6.685   0.990
  673SOL    HW2 2919   5.279   6.794   1.027
  674SOL     OW 2920   6.543   1.448   5.190
  674SOL    HW1 2921   6.573   1.510   5.118
  674SOL    HW2 2922   6.572   1.355   5.168
  675SOL     OW 2923   5.858   2.605   2.126
  675SOL    HW1 2924   5.766   2.640   2.114
  675SOL    HW2 2925   5.857   2.529   2.191
  676SOL     OW 2926   2.629   4.632   4.793
  676SOL    HW1 2927   2.564   4.560   4.817
  676SOL    HW2 2928   2.694   4.644   4.868
  677SOL     OW 2929   4.797   0.929   1.486
  677SOL    HW1 2930   4.787   0.971   1.396
  677SOL    HW2 2931   4.708   0.924   1.531
  678SOL     OW 2932   2.855   4.567   5.446
  678SOL    HW1 2933   2.912   4.642   5.479
  678SOL    HW2 2934   2.875   4.549   5.349
  679SOL     OW 2935   5.672   1.692   4.786
  679SOL    HW1 2936   5.731   1.659   4.859
  679SOL    HW2 2937   5.705   1.657   4.698
  680SOL     OW 2938   5.421   6.334   4.261
  680SOL    HW1 2939   5.388   6.315   4.168
  680SOL    HW2 2940   5.354   6.302   4.327
  681SOL     OW 2941   5.398   5.959   2.624
  681SOL    HW1 2942   5.369   5.985   2.532
  681SOL    HW2 2943   5.413   6.042   2.679
  682SOL     OW 2944   0.102   1.236   2.203
  682SOL    HW1 2945   0.101   1.148   2.156
  682SOL    HW2 2946   0.167   1.233   2.279
  683SOL     OW 2947   4.150   3.481   1.460
  683SOL    HW1 2948   4.219   3.419   1.497
  683SOL    HW2 2949   4.170   3.575   1.490
  684SOL     OW 2950   6.237   0.423   6.695
  684SOL    HW1 2951   6.273   0.361   6.764
  684SOL    HW2 2952   6.312   0.456   6.638
  685SOL     OW 2953   3.317   1.284   3.665
  685SOL    HW1 2954   3.234   1.276   3.720
  685SOL    HW2 2955   3.303   1.237   3.578
  686SOL     OW 2956   4.301   1.275   3.800
  686SOL    HW1 2957   4.350   1.210   3.858
  686SOL    HW2 2958   4.355   1.296   3.719
  687SOL     OW 2959   0.837   1.924   4.336
  687SOL    HW1 2960   0.919   1.965   4.298
  687SOL    HW2 2961   0.832   1.827   4.309
  688SOL     OW 2962   0.468   1.152   6.166
  688SOL    HW1 2963   0.521   1.183   6.088
  688SOL    HW2 2964   0.379   1.117   6.135
  689SOL     OW 2965   1.068   4.706   5.338
  689SOL    HW1 2966   0.986   4.762   5.334
  689SOL    HW2 2967   1.109   4.699   5.247
  690SOL     OW 2968   6.224   3.367   2.978
  690SOL    HW1 2969   6.228   3.268   2.992
  690SOL    HW2 2970   6.214   3.386   2.881
  691SOL     OW 2971   3.971   1.451   0.024
  691SOL    HW1 2972   4.039   1.436   0.095
  691SOL    HW2 2973   3.943   1.547   0.023
  692SOL     OW 2974   3.130   1.452   5.482
  692SOL    HW1 2975   3.175   1.364   5.499
  692SOL    HW2 2976   3.037   1.451   5.518
  693SOL     OW 2977   4.723   5.894   3.378
  693SOL    HW1 2978   4.800   5.917   3.319
  693SOL    HW2 2979   4.730   5.945   3.464
  694SOL     OW 2980   3.735   6.408   4.505
  694SOL    HW1 2981   3.715   6.503   4.531
  694SOL    HW2 2982   3.810   6.373   4.561
  695SOL     OW 2983   3.132   6.194   4.422
  695SOL    HW1 2984   3.057   6.141   4.383
  695SOL    HW2 2985   3.135   6.181   4.521
  696SOL     OW 2986   5.268   4.256   3.258
  696SOL    HW1 2987   5.315   4.306   3.185
  696SOL    HW2 2988   5.270   4.310   3.342
  697SOL     OW 2989   0.885   3.924   1.957
  697SOL    HW1 2990   0.865   3.829   1.983
  697SOL    HW2 2991   0.974   3.927   1.912
  698SOL     OW 2992   5.017   6.761   1.036
  698SOL    HW1 2993   4.973   6.672   1.047
  698SOL    HW2 2994   5.114   6.753   1.058
  699SOL     OW 2995   2.432   3.251   6.754
  699SOL    HW1 2996   2.353   3.206   6.797
  699SOL    HW2 2997   2.404   3.289   6.666
  700SOL     OW 2998   3.224   6.974   2.492
  700SOL    HW1 2999   3.229   0.046   2.472
  700SOL    HW2 3000   3.182   6.926   2.415
  701SOL     OW 3001   6.239   4.661   0.808
  701SOL    HW1 3002   6.198   4.573   0.831
  701SOL    HW2 3003   6.339   4.655   0.817
  702SOL     OW 3004   2.874   0.595   4.554
  702SOL    HW1 3005   2.803   0.528   4.575
  702SOL    HW2 3006   2.916   0.628   4.638
  703SOL     OW 3007   2.848   3.107   5.572
  703SOL    HW1 3008   2.845   3.078   5.477
  703SOL    HW2 3009   2.892   3.196   5.579
  704SOL     OW 3010   1.109   2.925   6.372
  704SOL    HW1 3011   1.027   2.872   6.393
  704SOL    HW2 3012   1.170   2.926   6.451
  705SOL     OW 3013   6.630   6.572   4.196
  705SOL    HW1 3014   6.695   6.646   4.212
  705SOL    HW2 3015   6.623   6.555   4.098
  706SOL     OW 3016   4.092   1.112   5.512
  706SOL    HW1 3017   4.013   1.051   5.503
  706SOL    HW2 3018   4.060   1.207   5.518
  707SOL     OW 3019   4.084   5.552   3.187
  707SOL    HW1 3020   4.031   5.612   3.247
  707SOL    HW2 3021   4.161   5.513   3.238
  708SOL     OW 3022   3.359   0.892   3.903
  708SOL    HW1 3023   3.363   0.793   3.907
  708SOL    HW2 3024   3.265   0.923   3.921
  709SOL     OW 3025   1.631   6.685   1.507
  709SOL    HW1 3026   1.538   6.647   1.508
  709SOL    HW2 3027   1.684   6.645   1.582
  710SOL     OW 3028   4.810   2.754   1.538
  710SOL    HW1 3029   4.711   2.757   1.525
  710SOL    HW2 3030   4.832   2.761   1.635
  711SOL     OW 3031   0.115   2.849   5.807
  711SOL    HW1 3032   0.205   2.862   5.768
  711SOL    HW2 3033   0.047   2.838   5.734
  712SOL     OW 3034   4.300   3.215   1.163
  712SOL    HW1 3035   4.340   3.221   1.071
  712SOL    HW2 3036   4.330   3.293   1.218
  713SOL     OW 3037   4.202   2.751   5.355
  713SOL    HW1 3038   4.160   2.836   5.324
  713SOL    HW2 3039   4.155   2.673   5.313
  714SOL     OW 3040   5.790   4.653   3.411
  714SOL    HW1 3041   5.862   4.705   3.365
  714SOL    HW2 3042   5.832   4.589   3.475
  715SOL     OW 3043   6.229   5.116   5.577
  715SOL    HW1 3044   6.201   5.021   5.564
  715SOL    HW2 3045   6.290   5.144   5.503
  716SOL     OW 3046   2.053   1.169   2.602
  716SOL    HW1 3047   2.039   1.079   2.643
  716SOL    HW2 3048   2.008   1.172   2.512
  717SOL     OW 3049   5.936   4.460   4.092
  717SOL    HW1 3050   6.006   4.466   4.021
  717SOL    HW2 3051   5.968   4.507   4.174
  718SOL     OW 3052   4.533   2.517   4.292
  718SOL    HW1 3053   4.587   2.596   4.322
  718SOL    HW2 3054   4.504   2.463   4.371
  719SOL     OW 3055   6.762   0.518   2.443
  719SOL    HW1 3056   6.811   0.528   2.530
  719SOL    HW2 3057   6.810   0.567   2.371
  720SOL     OW 3058   1.682   0.559   5.922
  720SOL    HW1 3059   1.731   0.473   5.914
  720SOL    HW2 3060   1.746   0.632   5.946
  721SOL     OW 3061   0.755   2.063   1.941
  721SOL    HW1 3062   0.700   2.000   1.997
  721SOL    HW2 3063   0.815   2.117   2.001
  722SOL     OW 3064   4.294   0.583   6.585
  722SOL    HW1 3065   4.342   0.540   6.661
  722SOL    HW2 3066   4.358   0.639   6.532
  723SOL     OW 3067   2.622   6.007   3.611
  723SOL    HW1 3068   2.710   6.035   3.572
  723SOL    HW2 3069   2.547   6.050   3.560
  724SOL     OW 3070   0.892   0.909   3.296
  724SOL    HW1 3071   0.950   0.844   3.345
  724SOL    HW2 3072   0.846   0.862   3.220
  725SOL     OW 3073   2.565   4.583   1.999
  725SOL    HW1 3074   2.566   4.522   1.920
  725SOL    HW2 3075   2.656   4.623   2.011
  726SOL     OW 3076   2.831   5.034   0.510
  726SOL    HW1 3077   2.918   5.058   0.466
  726SOL    HW2 3078   2.850   4.999   0.602
  727SOL     OW 3079   4.690   5.331   6.350
  727SOL    HW1 3080   4.723   5.278   6.271
  727SOL    HW2 3081   4.650   5.417   6.317
  728SOL     OW 3082   6.968   3.047   4.485
  728SOL    HW1 3083   6.923   3.067   4.398
  728SOL    HW2 3084   6.900   3.032   4.556
  729SOL     OW 3085   0.043   2.986   0.751
  729SOL    HW1 3086   0.018   3.004   0.846
  729SOL    HW2 3087   0.103   2.905   0.748
  730SOL     OW 3088   5.168   0.490   2.986
  730SOL    HW1 3089   5.167   0.585   3.015
  730SOL    HW2 3090   5.096   0.440   3.034
  731SOL     OW 3091   4.811   4.104   6.367
  731SOL    HW1 3092   4.891   4.159   6.392
  731SOL    HW2 3093   4.742   4.111   6.440
  732SOL     OW 3094   5.222   1.828   2.430
  732SOL    HW1 3095   5.176   1.803   2.515
  732SOL    HW2 3096   5.319   1.805   2.436
  733SOL     OW 3097   5.876   6.961   3.979
  733SOL    HW1 3098   5.829   6.983   3.894
  733SOL    HW2 3099   5.811   6.921   4.044
  734SOL     OW 3100   6.470   4.578   2.589
  734SOL    HW1 3101   6.563   4.595   2.619
  734SOL    HW2 3102   6.408   4.583   2.667
  735SOL     OW 3103   5.531   0.487   1.518
  735SOL    HW1 3104   5.482   0.411   1.474
  735SOL    HW2 3105   5.629   0.466   1.522
  736SOL     OW 3106   1.423   1.595   3.939
  736SOL    HW1 3107   1.368   1.526   3.986
  736SOL    HW2 3108   1.471   1.553   3.863
  737SOL     OW 3109   5.598   1.543   5.659
  737SOL    HW1 3110   5.580   1.484   5.737
  737SOL    HW2 3111   5.536   1.521   5.584
  738SOL     OW 3112   3.046   4.170   0.903
  738SOL    HW1 3113   3.089   4.099   0.847
  738SOL    HW2 3114   3.110   4.200   0.974
  739SOL     OW 3115   3.140   6.730   5.220
  739SOL    HW1 3116   3.208   6.801   5.203
  739SOL    HW2 3117   3.176   6.664   5.286
  740SOL     OW 3118   5.599   2.107   2.799
  740SOL    HW1 3119   5.676   2.057   2.838
  740SOL    HW2 3120   5.629   2.199   2.774
  741SOL     OW 3121   2.098   0.787   4.779
  741SOL    HW1 3122   2.167   0.825   4.718
  741SOL    HW2 3123   2.034   0.860   4.806
  742SOL     OW 3124   1.070   6.120   0.909
  742SOL    HW1 3125   1.065   6.024   0.883
  742SOL    HW2 3126   1.118   6.129   0.997
  743SOL     OW 3127   0.570   6.416   3.529
  743SOL    HW1 3128   0.637   6.401   3.456
  743SOL    HW2 3129   0.606   6.483   3.594
  744SOL     OW 3130   6.636   1.355   0.733
  744SOL    HW1 3131   6.629   1.438   0.677
  744SOL    HW2 3132   6.683   1.283   0.680
  745SOL     OW 3133   1.684   5.531   5.092
  745SOL    HW1 3134   1.609   5.570   5.146
  745SOL    HW2 3135   1.745   5.605   5.062
  746SOL     OW 3136   5.246   4.051   5.151
  746SOL    HW1 3137   5.161   4.007   5.124
  746SOL    HW2 3138   5.320   4.023   5.089
  747SOL     OW 3139   5.248   5.381   3.533
  747SOL    HW1 3140   5.271   5.349   3.442
  747SOL    HW2 3141   5.166   5.333   3.566
  748SOL     OW 3142   5.026   4.852   2.737
  748SOL    HW1 3143   5.045   4.929   2.677
  748SOL    HW2 3144   5.070   4.770   2.701
  749SOL     OW 3145   4.926   3.462   3.525
  749SOL    HW1 3146   4.866   3.389   3.491
  749SOL    HW2 3147   4.902   3.483   3.620
  750SOL     OW 3148   2.678   1.286   1.289
  750SOL    HW1 3149   2.695   1.384   1.276
  750SOL    HW2 3150   2.764   1.236   1.274
  751SOL     OW 3151   5.041   2.400   0.639
  751SOL    HW1 3152   5.134   2.367   0.649
  751SOL    HW2 3153   5.015   2.453   0.720
  752SOL     OW 3154   3.739   2.307   5.871
  752SOL    HW1 3155   3.740   2.360   5.956
  752SOL    HW2 3156   3.702   2.363   5.797
  753SOL     OW 3157   3.302   3.531   5.061
  753SOL    HW1 3158   3.266   3.621   5.089
  753SOL    HW2 3159   3.353   3.491   5.137
  754SOL     OW 3160   6.048   0.872   6.527
  754SOL    HW1 3161   5.976   0.924   6.573
  754SOL    HW2 3162   6.025   0.774   6.529
  755SOL     OW 3163   2.911   4.288   5.315
  755SOL    HW1 3164   2.981   4.321   5.378
  755SOL    HW2 3165   2.887   4.360   5.250
  756SOL     OW 3166   3.148   5.107   6.960
  756SOL    HW1 3167   3.212   5.046   6.914
  756SOL    HW2 3168   3.136   5.078   0.029
  757SOL     OW 3169   2.063   6.623   2.250
  757SOL    HW1 3170   2.129   6.548   2.260
  757SOL    HW2 3171   1.970   6.588   2.261
  758SOL     OW 3172   4.097   1.433   3.865
  758SOL    HW1 3173   4.176   1.373   3.853
  758SOL    HW2 3174   4.098   1.503   3.794
  759SOL     OW 3175   0.106   2.810   3.210
  759SOL    HW1 3176   0.114   2.712   3.232
  759SOL    HW2 3177   0.178   2.835   3.146
  760SOL     OW 3178   6.629   6.501   3.908
  760SOL    HW1 3179   6.529   6.501   3.896
  760SOL    HW2 3180   6.670   6.562   3.840
  761SOL     OW 3181   5.421   4.325   5.273
  761SOL    HW1 3182   5.338   4.270   5.262
  761SOL    HW2 3183   5.484   4.279   5.336
  762SOL     OW 3184   3.028   6.350   5.652
  762SOL    HW1 3185   3.022   6.445   5.620
  762SOL    HW2 3186   2.936   6.313   5.666
  763SOL     OW 3187   5.217   0.343   6.597
  763SOL    HW1 3188   5.252   0.395   6.519
  763SOL    HW2 3189   5.272   0.261   6.610
  764SOL     OW 3190   5.867   1.233   5.652
  764SOL    HW1 3191   5.896   1.144   5.617
  764SOL    HW2 3192   5.769   1.232   5.669
  765SOL     OW 3193   0.954   6.929   0.689
  765SOL    HW1 3194   0.970   6.929   0.788
  765SOL    HW2 3195   1.039   6.954   0.643
  766SOL     OW 3196   2.470   2.073   5.154
  766SOL    HW1 3197   2.520   2.153   5.121
  766SOL    HW2 3198   2.372   2.091   5.150
  767SOL     OW 3199   6.671   6.673   3.684
  767SOL    HW1 3200   6.602   6.723   3.632
  767SOL    HW2 3201   6.751   6.657   3.626
  768SOL     OW 3202   2.326   6.041   2.873
  768SOL    HW1 3203   2.362   6.134   2.870
  768SOL    HW2 3204   2.364   5.989   2.796
  769SOL     OW 3205   3.659   1.799   5.493
  769SOL    HW1 3206   3.740   1.858   5.493
  769SOL    HW2 3207   3.667   1.732   5.418
  770SOL     OW 3208   1.737   5.220   4.308
  770SOL    HW1 3209   1.724   5.180   4.399
  770SOL    HW2 3210   1.835   5.224   4.288
  771SOL     OW 3211   1.203   5.077   3.400
  771SOL    HW1 3212   1.232   5.144   3.332
  771SOL    HW2 3213   1.254   4.992   3.387
  772SOL     OW 3214   5.374   4.956   0.266
  772SOL    HW1 3215   5.304   5.026   0.279
  772SOL    HW2 3216   5.455   4.997   0.226
  773SOL     OW 3217   1.274   3.629   3.376
  773SOL    HW1 3218   1.304   3.572   3.300
  773SOL    HW2 3219   1.174   3.631   3.378
  774SOL     OW 3220   2.281   1.869   4.172
  774SOL    HW1 3221   2.361   1.892   4.229
  774SOL    HW2 3222   2.213   1.823   4.229
  775SOL     OW 3223   2.187   3.831   4.146
  775SOL    HW1 3224   2.217   3.901   4.210
  775SOL    HW2 3225   2.163   3.748   4.197
  776SOL     OW 3226   0.628   6.969   6.259
  776SOL    HW1 3227   0.711   6.920   6.287
  776SOL    HW2 3228   0.628   0.035   6.298
  777SOL     OW 3229   1.749   3.609   0.422
  777SOL    HW1 3230   1.709   3.650   0.505
  777SOL    HW2 3231   1.846   3.631   0.419
  778SOL     OW 3232   3.184   6.952   1.798
  778SOL    HW1 3233   3.207   6.887   1.871
  778SOL    HW2 3234   3.091   6.934   1.766
  779SOL     OW 3235   0.515   2.673   2.138
  779SOL    HW1 3236   0.583   2.744   2.117
  779SOL    HW2 3237   0.528   2.595   2.078
  780SOL     OW 3238   1.326   2.098   4.495
  780SOL    HW1 3239   1.381   2.058   4.568
  780SOL    HW2 3240   1.358   2.191   4.476
  781SOL     OW 3241   6.977   4.495   0.491
  781SOL    HW1 3242   6.994   4.592   0.504
  781SOL    HW2 3243   6.999   4.469   0.397
  782SOL     OW 3244   1.742   3.936   6.027
  782SOL    HW1 3245   1.801   3.874   6.078
  782SOL    HW2 3246   1.734   3.905   5.932
  783SOL     OW 3247   5.492   4.581   6.246
  783SOL    HW1 3248   5.451   4.562   6.335
  783SOL    HW2 3249   5.591   4.584   6.255
  784SOL     OW 3250   2.835   6.059   1.919
  784SOL    HW1 3251   2.815   6.157   1.917
  784SOL    HW2 3252   2.772   6.014   1.983
  785SOL     OW 3253   0.880   0.347   4.210
  785SOL    HW1 3254   0.925   0.431   4.179
  785SOL    HW2 3255   0.803   0.371   4.270
  786SOL     OW 3256   6.503   0.809   3.863
  786SOL    HW1 3257   6.486   0.891   3.808
  786SOL    HW2 3258   6.571   0.752   3.816
  787SOL     OW 3259   2.470   0.721   0.206
  787SOL    HW1 3260   2.497   0.782   0.131
  787SOL    HW2 3261   2.371   0.709   0.205
  788SOL     OW 3262   3.934   3.037   1.459
  788SOL    HW1 3263   3.901   3.059   1.551
  788SOL    HW2 3264   3.867   3.069   1.392
  789SOL     OW 3265   4.467   5.468   2.006
  789SOL    HW1 3266   4.382   5.439   2.051
  789SOL    HW2 3267   4.545   5.426   2.051
  790SOL     OW 3268   0.731   2.894   1.752
  790SOL    HW1 3269   0.745   2.808   1.703
  790SOL    HW2 3270   0.811   2.912   1.810
  791SOL     OW 3271   2.759   5.389   5.276
  791SOL    HW1 3272   2.836   5.336   5.312
  791SOL    HW2 3273   2.726   5.347   5.191
  792SOL     OW 3274   0.848   1.281   0.367
  792SOL    HW1 3275   0.825   1.214   0.438
  792SOL    HW2 3276   0.849   1.373   0.407
  793SOL     OW 3277   4.313   5.667   3.747
  793SOL    HW1 3278   4.368   5.722   3.810
  793SOL    HW2 3279   4.337   5.690   3.653
  794SOL     OW 3280   2.907   3.497   3.799
  794SOL    HW1 3281   2.926   3.519   3.703
  794SOL    HW2 3282   2.916   3.580   3.854
  795SOL     OW 3283   4.001   0.777   6.115
  795SOL    HW1 3284   3.937   0.725   6.058
  795SOL    HW2 3285   3.973   0.873   6.118
  796SOL     OW 3286   1.219   2.984   6.626
  796SOL    HW1 3287   1.125   3.012   6.646
  796SOL    HW2 3288   1.279   3.015   6.699
  797SOL     OW 3289   4.591   0.282   0.948
  797SOL    HW1 3290   4.626   0.192   0.920
  797SOL    HW2 3291   4.587   0.342   0.869
  798SOL     OW 3292   2.870   6.275   1.425
  798SOL    HW1 3293   2.963   6.312   1.423
  798SOL    HW2 3294   2.864   6.205   1.495
  799SOL     OW 3295   0.914   2.096   6.541
  799SOL    HW1 3296   0.998   2.044   6.534
  799SOL    HW2 3297   0.836   2.037   6.520
  800SOL     OW 3298   5.845   1.210   1.813
  800SOL    HW1 3299   5.860   1.309   1.822
  800SOL    HW2 3300   5.928   1.167   1.777
  801SOL     OW 3301   2.017   5.479   5.836
  801SOL    HW1 3302   2.035   5.402   5.774
  801SOL    HW2 3303   2.093   5.543   5.833
  802SOL     OW 3304   5.561   2.122   6.858
  802SOL    HW1 3305   5.490   2.102   6.926
  802SOL    HW2 3306   5.541   2.071   6.774
  803SOL     OW 3307   2.951   0.706   5.810
  803SOL    HW1 3308   2.889   0.648   5.863
  803SOL    HW2 3309   2.935   0.691   5.713
  804SOL     OW 3310   6.008   0.311   1.804
  804SOL    HW1 3311   6.051   0.400   1.793
  804SOL    HW2 3312   5.991   0.270   1.714
  805SOL     OW 3313   2.540   0.782   3.355
  805SOL    HW1 3314   2.575   0.832   3.276
  805SOL    HW2 3315   2.506   0.846   3.424
  806SOL     OW 3316   0.910   0.041   5.206
  806SOL    HW1 3317   0.990   0.086   5.166
  806SOL    HW2 3318   0.828   0.072   5.158
  807SOL     OW 3319   1.014   6.264   4.931
  807SOL    HW1 3320   1.017   6.355   4.891
  807SOL    HW2 3321   0.967   6.267   5.020
  808SOL     OW 3322   5.744   3.071   0.598
  808SOL    HW1 3323   5.656   3.070   0.550
  808SOL    HW2 3324   5.775   2.977   0.611
  809SOL     OW 3325   0.537   4.882   0.153
  809SOL    HW1 3326   0.631   4.914   0.140
  809SOL    HW2 3327   0.477   4.923   0.085
  810SOL     OW 3328   2.495   3.589   0.474
  810SOL    HW1 3329   2.478   3.492   0.490
  810SOL    HW2 3330   2.594   3.605   0.468
  811SOL     OW 3331   5.356   4.996   5.000
  811SOL    HW1 3332   5.403   5.017   4.915
  811SOL    HW2 3333   5.261   4.972   4.981
  812SOL     OW 3334   0.910   2.361   2.089
  812SOL    HW1 3335   0.924   2.276   2.140
  812SOL    HW2 3336   0.900   2.437   2.153
  813SOL     OW 3337   2.210   1.146   4.567
  813SOL    HW1 3338   2.305   1.164   4.591
  813SOL    HW2 3339   2.154   1.150   4.650
  814SOL     OW 3340   0.223   5.589   2.846
  814SOL    HW1 3341   0.188   5.551   2.760
  814SOL    HW2 3342   0.291   5.660   2.826
  815SOL     OW 3343   5.052   2.322   3.710
  815SOL    HW1 3344   5.144   2.298   3.677
  815SOL    HW2 3345   5.055   2.333   3.809
  816SOL     OW 3346   4.494   3.933   0.407
  816SOL    HW1 3347   4.549   3.925   0.491
  816SOL    HW2 3348   4.454   4.024   0.402
  817SOL     OW 3349   0.888   5.508   1.055
  817SOL    HW1 3350   0.986   5.491   1.061
  817SOL    HW2 3351   0.839   5.421   1.043
  818SOL     OW 3352   5.862   2.529   3.456
  818SOL    HW1 3353   5.881   2.479   3.541
  818SOL    HW2 3354   5.896   2.476   3.379
  819SOL     OW 3355   5.973   2.512   1.533
  819SOL    HW1 3356   6.044   2.498   1.464
  819SOL    HW2 3357   5.910   2.434   1.532
  820SOL     OW 3358   2.556   1.892   4.440
  820SOL    HW1 3359   2.559   1.797   4.410
  820SOL    HW2 3360   2.465   1.914   4.475
  821SOL     OW 3361   5.733   4.135   4.551
  821SOL    HW1 3362   5.780   4.134   4.462
  821SOL    HW2 3363   5.746   4.047   4.596
  822SOL     OW 3364   0.797   4.276   3.475
  822SOL    HW1 3365   0.712   4.317   3.442
  822SOL    HW2 3366   0.828   4.325   3.557
  823SOL     OW 3367   1.280   3.313   5.843
  823SOL    HW1 3368   1.229   3.340   5.924
  823SOL    HW2 3369   1.227   3.246   5.791
  824SOL     OW 3370   5.495   1.130   4.955
  824SOL    HW1 3371   5.474   1.226   4.934
  824SOL    HW2 3372   5.448   1.104   5.039
  825SOL     OW 3373   6.159   6.031   0.819
  825SOL    HW1 3374   6.164   6.123   0.858
  825SOL    HW2 3375   6.128   6.037   0.724
  826SOL     OW 3376   3.988   1.370   5.880
  826SOL    HW1 3377   4.084   1.391   5.862
  826SOL    HW2 3378   3.938   1.455   5.900
  827SOL     OW 3379   3.094   4.034   4.680
  827SOL    HW1 3380   3.089   3.935   4.693
  827SOL    HW2 3381   3.138   4.076   4.760
  828SOL     OW 3382   6.122   5.248   4.145
  828SOL    HW1 3383   6.144   5.306   4.068
  828SOL    HW2 3384   6.204   5.201   4.177
  829SOL     OW 3385   3.474   2.886   2.383
  829SOL    HW1 3386   3.458   2.826   2.304
  829SOL    HW2 3387   3.559   2.936   2.369
  830SOL     OW 3388   5.977   4.754   6.779
  830SOL    HW1 3389   6.027   4.804   6.850
  830SOL    HW2 3390   5.980   4.805   6.693
  831SOL     OW 3391   5.316   6.149   1.515
  831SOL    HW1 3392   5.329   6.070   1.575
  831SOL    HW2 3393   5.221   6.155   1.487
  832SOL     OW 3394   3.901   1.492   4.779
  832SOL    HW1 3395   3.857   1.520   4.694
  832SOL    HW2 3396   3.836   1.443   4.837
  833SOL     OW 3397   1.242   3.912   6.045
  833SOL    HW1 3398   1.237   3.813   6.063
  833SOL    HW2 3399   1.337   3.942   6.054
  834SOL     OW 3400   4.576   3.631   6.654
  834SOL    HW1 3401   4.562   3.653   6.751
  834SOL    HW2 3402   4.673   3.615   6.637
  835SOL     OW 3403   1.399   0.339   4.233
  835SOL    HW1 3404   1.380   0.414   4.296
  835SOL    HW2 3405   1.408   0.254   4.284
  836SOL     OW 3406   3.492   2.244   5.630
  836SOL    HW1 3407   3.512   2.266   5.725
  836SOL    HW2 3408   3.487   2.144   5.620
  837SOL     OW 3409   1.475   0.422   1.406
  837SOL    HW1 3410   1.435   0.495   1.461
  837SOL    HW2 3411   1.403   0.376   1.354
  838SOL     OW 3412   2.444   5.660   3.965
  838SOL    HW1 3413   2.430   5.686   3.870
  838SOL    HW2 3414   2.355   5.658   4.012
  839SOL     OW 3415   2.100   1.177   0.921
  839SOL    HW1 3416   2.167   1.227   0.866
  839SOL    HW2 3417   2.109   1.206   1.017
  840SOL     OW 3418   5.944   5.438   6.763
  840SOL    HW1 3419   5.978   5.407   6.674
  840SOL    HW2 3420   5.867   5.500   6.749
  841SOL     OW 3421   4.399   5.323   5.812
  841SOL    HW1 3422   4.314   5.277   5.785
  841SOL    HW2 3423   4.461   5.327   5.734
  842SOL     OW 3424   3.081   0.075   6.763
  842SOL    HW1 3425   3.080   0.100   6.860
  842SOL    HW2 3426   2.987   0.068   6.729
  843SOL     OW 3427   1.677   1.976   1.372
  843SOL    HW1 3428   1.583   1.978   1.404
  843SOL    HW2 3429   1.717   1.886   1.392
  844SOL     OW 3430   0.479   6.827   1.361
  844SOL    HW1 3431   0.450   6.843   1.266
  844SOL    HW2 3432   0.571   6.787   1.361
  845SOL     OW 3433   4.036   1.728   2.784
  845SOL    HW1 3434   3.950   1.717   2.733
  845SOL    HW2 3435   4.107   1.762   2.722
  846SOL     OW 3436   3.004   1.220   6.518
  846SOL    HW1 3437   2.924   1.256   6.471
  846SOL    HW2 3438   2.987   1.218   6.617
  847SOL     OW 3439   2.451   3.409   1.595
  847SOL    HW1 3440   2.421   3.404   1.690
  847SOL    HW2 3441   2.500   3.325   1.571
  848SOL     OW 3442   5.937   6.620   5.927
  848SOL    HW1 3443   5.865   6.555   5.904
  848SOL    HW2 3444   6.020   6.598   5.878
  849SOL     OW 3445   5.706   3.864   0.221
  849SOL    HW1 3446   5.735   3.781   0.174
  849SOL    HW2 3447   5.757   3.874   0.307
  850SOL     OW 3448   6.444   0.847   4.897
  850SOL    HW1 3449   6.381   0.816   4.826
  850SOL    HW2 3450   6.484   0.767   4.942
  851SOL     OW 3451   6.590   3.212   0.032
  851SOL    HW1 3452   6.528   3.135   0.021
  851SOL    HW2 3453   6.637   3.231   6.971
  852SOL     OW 3454   6.814   4.379   1.153
  852SOL    HW1 3455   6.796   4.433   1.071
  852SOL    HW2 3456   6.900   4.409   1.195
  853SOL     OW 3457   2.026   4.460   0.593
  853SOL    HW1 3458   2.073   4.523   0.655
  853SOL    HW2 3459   1.949   4.417   0.640
  854SOL     OW 3460   6.020   6.312   0.084
  854SOL    HW1 3461   5.953   6.272   0.022
  854SOL    HW2 3462   5.981   6.317   0.176
  855SOL     OW 3463   6.994   0.745   0.214
  855SOL    HW1 3464   6.998   0.813   0.287
  855SOL    HW2 3465   6.917   0.766   0.153
  856SOL     OW 3466   1.967   6.566   6.528
  856SOL    HW1 3467   2.043   6.506   6.552
  856SOL    HW2 3468   2.001   6.660   6.518
  857SOL     OW 3469   0.108   4.193   3.276
  857SOL    HW1 3470   0.161   4.130   3.219
  857SOL    HW2 3471   0.091   4.151   3.365
  858SOL     OW 3472   3.643   3.403   0.668
  858SOL    HW1 3473   3.592   3.488   0.664
  858SOL    HW2 3474   3.725   3.410   0.611
  859SOL     OW 3475   4.775   6.041   5.715
  859SOL    HW1 3476   4.832   6.106   5.765
  859SOL    HW2 3477   4.709   6.091   5.659
  860SOL     OW 3478   5.471   2.838   5.741
  860SOL    HW1 3479   5.443   2.760   5.798
  860SOL    HW2 3480   5.392   2.873   5.690
  861SOL     OW 3481   2.128   5.325   2.837
  861SOL    HW1 3482   2.079   5.411   2.825
  861SOL    HW2 3483   2.064   5.249   2.825
  862SOL     OW 3484   1.920   4.611   3.754
  862SOL    HW1 3485   2.009   4.653   3.769
  862SOL    HW2 3486   1.931   4.512   3.742
  863SOL     OW 3487   6.723   0.213   5.948
  863SOL    HW1 3488   6.648   0.206   5.882
  863SOL    HW2 3489   6.803   0.253   5.904
  864SOL     OW 3490   4.288   6.815   6.052
  864SOL    HW1 3491   4.228   6.740   6.080
  864SOL    HW2 3492   4.381   6.796   6.083
  865SOL     OW 3493   2.036   5.904   4.905
  865SOL    HW1 3494   2.079   5.950   4.827
  865SOL    HW2 3495   2.064   5.808   4.906
  866SOL     OW 3496   2.684   6.966   0.459
  866SOL    HW1 3497   2.734   0.017   0.501
  866SOL    HW2 3498   2.621   6.928   0.526
  867SOL     OW 3499   6.033   2.265   0.873
  867SOL    HW1 3500   5.934   2.260   0.884
  867SOL    HW2 3501   6.057   2.247   0.777
  868SOL     OW 3502   0.594   1.880   2.058
  868SOL    HW1 3503   0.669   1.823   2.025
  868SOL    HW2 3504   0.526   1.891   1.985
  869SOL     OW 3505   6.942   3.882   3.942
  869SOL    HW1 3506   6.857   3.849   3.982
  869SOL    HW2 3507   6.933   3.979   3.918
  870SOL     OW 3508   3.472   5.033   1.522
  870SOL    HW1 3509   3.565   5.053   1.553
  870SOL    HW2 3510   3.445   4.942   1.554
  871SOL     OW 3511   4.737   2.192   4.126
  871SOL    HW1 3512   4.717   2.104   4.083
  871SOL    HW2 3513   4.678   2.263   4.086
  872SOL     OW 3514   6.700   2.084   4.794
  872SOL    HW1 3515   6.721   2.181   4.787
  872SOL    HW2 3516   6.600   2.071   4.794
  873SOL     OW 3517   4.821   6.525   5.775
  873SOL    HW1 3518   4.872   6.575   5.846
  873SOL    HW2 3519   4.723   6.528   5.796
  874SOL     OW 3520   6.238   4.269   6.747
  874SOL    HW1 3521   6.227   4.352   6.693
  874SOL    HW2 3522   6.271   4.293   6.839
  875SOL     OW 3523   5.757   5.262   1.039
  875SOL    HW1 3524   5.734   5.258   1.136
  875SOL    HW2 3525   5.704   5.335   0.996
  876SOL     OW 3526   0.615   5.447   2.132
  876SOL    HW1 3527   0.700   5.434   2.183
  876SOL    HW2 3528   0.629   5.417   2.037
  877SOL     OW 3529   3.091   4.828   6.635
  877SOL    HW1 3530   3.019   4.865   6.694
  877SOL    HW2 3531   3.073   4.854   6.540
  878SOL     OW 3532   4.290   6.714   4.263
  878SOL    HW1 3533   4.215   6.734   4.200
  878SOL    HW2 3534   4.302   6.790   4.326
  879SOL     OW 3535   3.813   0.508   1.730
  879SOL    HW1 3536   3.810   0.563   1.646
  879SOL    HW2 3537   3.893   0.533   1.784
  880SOL     OW 3538   3.542   4.146   3.783
  880SOL    HW1 3539   3.509   4.193   3.701
  880SOL    HW2 3540   3.596   4.066   3.756
  881SOL     OW 3541   4.621   2.616   4.907
  881SOL    HW1 3542   4.643   2.691   4.969
  881SOL    HW2 3543   4.703   2.562   4.889
  882SOL     OW 3544   1.036   3.390   4.582
  882SOL    HW1 3545   0.983   3.473   4.601
  882SOL    HW2 3546   1.133   3.414   4.570
  883SOL     OW 3547   2.781   0.620   2.496
  883SOL    HW1 3548   2.707   0.669   2.541
  883SOL    HW2 3549   2.833   0.684   2.439
  884SOL     OW 3550   4.954   2.993   5.685
  884SOL    HW1 3551   4.938   2.899   5.655
  884SOL    HW2 3552   4.971   3.051   5.606
  885SOL     OW 3553   3.016   1.145   5.635
  885SOL    HW1 3554   3.099   1.191   5.604
  885SOL    HW2 3555   3.038   1.053   5.665
  886SOL     OW 3556   3.735   0.305   0.127
  886SOL    HW1 3557   3.689   0.217   0.141
  886SOL    HW2 3558   3.699   0.348   0.044
  887SOL     OW 3559   4.081   0.001   3.984
  887SOL    HW1 3560   3.985   7.021   3.958
  887SOL    HW2 3561   4.088   0.028   4.080
  888SOL     OW 3562   0.746   5.956   2.562
  888SOL    HW1 3563   0.664   5.952   2.506
  888SOL    HW2 3564   0.817   5.898   2.522
  889SOL     OW 3565   0.563   3.870   0.750
  889SOL    HW1 3566   0.553   3.785   0.802
  889SOL    HW2 3567   0.637   3.924   0.790
  890SOL     OW 3568   1.928   5.205   3.652
  890SOL    HW1 3569   1.987   5.218   3.572
  890SOL    HW2 3570   1.837   5.176   3.621
  891SOL     OW 3571   5.547   5.848   0.761
  891SOL    HW1 3572   5.484   5.920   0.730
  891SOL    HW2 3573   5.504   5.759   0.750
  892SOL     OW 3574   2.523   3.676   5.524
  892SOL    HW1 3575   2.542   3.744   5.453
  892SOL    HW2 3576   2.504   3.722   5.610
  893SOL     OW 3577   2.684   0.015   2.863
  893SOL    HW1 3578   2.720   0.037   2.954
  893SOL    HW2 3579   2.684   6.941   2.851
  894SOL     OW 3580   0.829   3.217   1.342
  894SOL    HW1 3581   0.919   3.246   1.310
  894SOL    HW2 3582   0.793   3.283   1.407
  895SOL     OW 3583   0.543   4.336   3.313
  895SOL    HW1 3584   0.447   4.340   3.340
  895SOL    HW2 3585   0.562   4.249   3.268
  896SOL     OW 3586   5.830   4.707   0.436
  896SOL    HW1 3587   5.826   4.626   0.378
  896SOL    HW2 3588   5.842   4.680   0.531
  897SOL     OW 3589   4.869   1.357   0.170
  897SOL    HW1 3590   4.828   1.370   0.080
  897SOL    HW2 3591   4.914   1.268   0.173
  898SOL     OW 3592   3.231   6.186   2.633
  898SOL    HW1 3593   3.271   6.120   2.696
  898SOL    HW2 3594   3.135   6.201   2.656
  899SOL     OW 3595   0.256   5.843   6.578
  899SOL    HW1 3596   0.249   5.920   6.515
  899SOL    HW2 3597   0.214   5.868   6.666
  900SOL     OW 3598   6.169   6.583   0.304
  900SOL    HW1 3599   6.075   6.582   0.268
  900SOL    HW2 3600   6.194   6.676   0.329
  901SOL     OW 3601   2.258   1.113   2.916
  901SOL    HW1 3602   2.170   1.081   2.880
  901SOL    HW2 3603   2.245   1.199   2.964
  902SOL     OW 3604   6.824   2.710   0.671
  902SOL    HW1 3605   6.822   2.809   0.652
  902SOL    HW2 3606   6.842   2.695   0.768
  903SOL     OW 3607   6.698   2.282   6.740
  903SOL    HW1 3608   6.796   2.265   6.755
  903SOL    HW2 3609   6.645   2.223   6.801
  904SOL     OW 3610   2.657   2.451   3.312
  904SOL    HW1 3611   2.574   2.397   3.305
  904SOL    HW2 3612   2.734   2.392   3.333
  905SOL     OW 3613   5.020   2.199   0.164
  905SOL    HW1 3614   5.082   2.224   0.090
  905SOL    HW2 3615   5.052   2.238   0.250
  906SOL     OW 3616   0.361   2.216   5.804
  906SOL    HW1 3617   0.452   2.174   5.806
  906SOL    HW2 3618   0.307   2.183   5.882
  907SOL     OW 3619   5.173   3.792   0.123
  907SOL    HW1 3620   5.198   3.847   0.203
  907SOL    HW2 3621   5.075   3.803   0.105
  908SOL     OW 3622   2.557   4.792   2.742
  908SOL    HW1 3623   2.570   4.888   2.718
  908SOL    HW2 3624   2.628   4.737   2.698
  909SOL     OW 3625   4.395   5.850   0.725
  909SOL    HW1 3626   4.297   5.840   0.742
  909SOL    HW2 3627   4.438   5.759   0.723
  910SOL     OW 3628   3.067   2.902   1.222
  910SOL    HW1 3629   2.971   2.914   1.249
  910SOL    HW2 3630   3.124   2.895   1.304
  911SOL     OW 3631   1.134   6.046   6.669
  911SOL    HW1 3632   1.160   6.071   6.762
  911SOL    HW2 3633   1.034   6.043   6.662
  912SOL     OW 3634   5.663   2.361   2.789
  912SOL    HW1 3635   5.757   2.379   2.761
  912SOL    HW2 3636   5.647   2.402   2.879
  913SOL     OW 3637   4.756   5.955   2.994
  913SOL    HW1 3638   4.841   5.929   3.039
  913SOL    HW2 3639   4.716   6.034   3.042
  914SOL     OW 3640   1.871   0.271   6.295
  914SOL    HW1 3641   1.785   0.322   6.305
  914SOL    HW2 3642   1.884   0.212   6.374
  915SOL     OW 3643   5.986   4.302   6.260
  915SOL    HW1 3644   6.081   4.297   6.289
  915SOL    HW2 3645   5.982   4.307   6.160
  916SOL     OW 3646   1.579   2.609   1.992
  916SOL    HW1 3647   1.667   2.578   2.029
  916SOL    HW2 3648   1.596   2.664   1.910
  917SOL     OW 3649   6.955   6.166   0.683
  917SOL    HW1 3650   0.002   6.233   0.696
  917SOL    HW2 3651   6.867   6.212   0.678
  918SOL     OW 3652   3.046   0.003   0.427
  918SOL    HW1 3653   3.068   0.051   0.512
  918SOL    HW2 3654   3.116   6.960   0.408
  919SOL     OW 3655   5.474   1.201   3.211
  919SOL    HW1 3656   5.552   1.263   3.215
  919SOL    HW2 3657   5.504   1.112   3.174
  920SOL     OW 3658   2.061   4.893   1.699
  920SOL    HW1 3659   2.113   4.952   1.637
  920SOL    HW2 3660   2.124   4.844   1.758
  921SOL     OW 3661   4.958   5.331   4.601
  921SOL    HW1 3662   5.034   5.364   4.656
  921SOL    HW2 3663   4.872   5.346   4.650
  922SOL     OW 3664   3.417   3.904   4.468
  922SOL    HW1 3665   3.412   4.003   4.455
  922SOL    HW2 3666   3.510   3.873   4.447
  923SOL     OW 3667   2.356   2.688   6.038
  923SOL    HW1 3668   2.423   2.630   5.991
  923SOL    HW2 3669   2.357   2.780   5.998
  924SOL     OW 3670   6.342   3.777   2.135
  924SOL    HW1 3671   6.289   3.831   2.201
  924SOL    HW2 3672   6.407   3.719   2.184
  925SOL     OW 3673   6.603   2.552   0.183
  925SOL    HW1 3674   6.605   2.633   0.242
  925SOL    HW2 3675   6.694   2.509   0.183
  926SOL     OW 3676   6.810   1.795   0.784
  926SOL    HW1 3677   6.904   1.794   0.820
  926SOL    HW2 3678   6.746   1.777   0.858
  927SOL     OW 3679   6.013   3.906   3.566
  927SOL    HW1 3680   6.007   3.823   3.509
  927SOL    HW2 3681   5.921   3.934   3.592
  928SOL     OW 3682   2.649   6.372   0.591
  928SOL    HW1 3683   2.614   6.307   0.523
  928SOL    HW2 3684   2.611   6.351   0.681
  929SOL     OW 3685   6.828   0.795   6.996
  929SOL    HW1 3686   6.813   0.704   0.010
  929SOL    HW2 3687   6.875   0.786   6.908
  930SOL     OW 3688   4.423   5.565   6.650
  930SOL    HW1 3689   4.521   5.569   6.629
  930SOL    HW2 3690   4.410   5.547   6.747
  931SOL     OW 3691   6.442   2.001   3.986
  931SOL    HW1 3692   6.396   1.990   4.074
  931SOL    HW2 3693   6.507   1.926   3.973
  932SOL     OW 3694   3.124   1.692   3.918
  932SOL    HW1 3695   3.122   1.607   3.971
  932SOL    HW2 3696   3.046   1.694   3.855
  933SOL     OW 3697   1.378   4.581   2.604
  933SOL    HW1 3698   1.456   4.531   2.569
  933SOL    HW2 3699   1.354   4.655   2.540
  934SOL     OW 3700   2.607   5.983   6.125
  934SOL    HW1 3701   2.534   5.916   6.113
  934SOL    HW2 3702   2.678   5.968   6.055
  935SOL     OW 3703   5.066   4.054   3.355
  935SOL    HW1 3704   5.136   4.120   3.327
  935SOL    HW2 3705   5.088   3.964   3.315
  936SOL     OW 3706   1.544   0.013   6.088
  936SOL    HW1 3707   1.469   6.996   6.137
  936SOL    HW2 3708   1.626   6.983   6.098
  937SOL     OW 3709   4.827   1.388   5.786
  937SOL    HW1 3710   4.911   1.443   5.795
  937SOL    HW2 3711   4.794   1.393   5.691
  938SOL     OW 3712   6.968   5.891   3.808
  938SOL    HW1 3713   6.883   5.904   3.859
  938SOL    HW2 3714   0.018   5.928   3.861
  939SOL     OW 3715   6.973   7.014   4.522
  939SOL    HW1 3716   6.977   6.936   4.460
  939SOL    HW2 3717   0.005   0.061   4.487
  940SOL     OW 3718   0.832   4.912   1.185
  940SOL    HW1 3719   0.752   4.956   1.225
  940SOL    HW2 3720   0.807   4.821   1.153
  941SOL     OW 3721   5.054   0.126   6.848
  941SOL    HW1 3722   5.020   0.122   6.754
  941SOL    HW2 3723   4.978   0.110   6.911
  942SOL     OW 3724   6.532   6.409   1.372
  942SOL    HW1 3725   6.592   6.330   1.371
  942SOL    HW2 3726   6.584   6.491   1.347
  943SOL     OW 3727   2.586   5.079   2.614
  943SOL    HW1 3728   2.494   5.094   2.578
  943SOL    HW2 3729   2.654   5.103   2.544
  944SOL     OW 3730   0.600   5.931   4.204
  944SOL    HW1 3731   0.689   5.937   4.158
  944SOL    HW2 3732   0.605   5.977   4.293
  945SOL     OW 3733   0.742   5.200   5.323
  945SOL    HW1 3734   0.839   5.177   5.319
  945SOL    HW2 3735   0.728   5.291   5.285
  946SOL     OW 3736   5.016   4.656   4.555
  946SOL    HW1 3737   4.975   4.673   4.644
  946SOL    HW2 3738   5.114   4.677   4.559
  947SOL     OW 3739   4.038   3.306   3.835
  947SOL    HW1 3740   3.963   3.242   3.853
  947SOL    HW2 3741   4.060   3.306   3.738
  948SOL     OW 3742   5.233   1.121   2.582
  948SOL    HW1 3743   5.250   1.027   2.609
  948SOL    HW2 3744   5.138   1.131   2.552
  949SOL     OW 3745   2.873   6.359   0.315
  949SOL    HW1 3746   2.939   6.324   0.247
  949SOL    HW2 3747   2.878   6.303   0.397
  950SOL     OW 3748   6.284   5.694   2.136
  950SOL    HW1 3749   6.261   5.600   2.160
  950SOL    HW2 3750   6.381   5.711   2.158
  951SOL     OW 3751   1.566   0.236   3.682
  951SOL    HW1 3752   1.549   0.222   3.780
  951SOL    HW2 3753   1.645   0.295   3.670
  952SOL     OW 3754   3.776   1.740   2.635
  952SOL    HW1 3755   3.715   1.683   2.580
  952SOL    HW2 3756   3.724   1.816   2.673
  953SOL     OW 3757   0.154   6.187   4.923
  953SOL    HW1 3758   0.081   6.254   4.930
  953SOL    HW2 3759   0.171   6.146   5.013
  954SOL     OW 3760   4.564   5.479   2.353
  954SOL    HW1 3761   4.584   5.477   2.451
  954SOL    HW2 3762   4.636   5.528   2.305
  955SOL     OW 3763   1.830   4.231   0.474
  955SOL    HW1 3764   1.809   4.328   0.469
  955SOL    HW2 3765   1.756   4.178   0.433
  956SOL     OW 3766   0.527   1.003   1.059
  956SOL    HW1 3767   0.590   0.934   1.096
  956SOL    HW2 3768   0.572   1.092   1.057
  957SOL     OW 3769   6.221   1.140   1.958
  957SOL    HW1 3770   6.214   1.055   1.907
  957SOL    HW2 3771   6.129   1.176   1.975
  958SOL     OW 3772   5.144   6.381   1.811
  958SOL    HW1 3773   5.065   6.402   1.870
  958SOL    HW2 3774   5.111   6.361   1.718
  959SOL     OW 3775   3.719   6.907   4.802
  959SOL    HW1 3776   3.774   6.946   4.728
  959SOL    HW2 3777   3.771   6.837   4.850
  960SOL     OW 3778   1.039   0.698   0.963
  960SOL    HW1 3779   1.057   0.792   0.993
  960SOL    HW2 3780   0.958   0.696   0.905
  961SOL     OW 3781   3.276   6.919   3.253
  961SOL    HW1 3782   3.338   6.990   3.219
  961SOL    HW2 3783   3.308   6.829   3.222
  962SOL     OW 3784   6.409   6.864   5.027
  962SOL    HW1 3785   6.406   6.839   5.124
  962SOL    HW2 3786   6.473   6.940   5.014
  963SOL     OW 3787   4.478   1.969   1.468
  963SOL    HW1 3788   4.452   1.965   1.372
  963SOL    HW2 3789   4.559   1.911   1.483
  964SOL     OW 3790   4.914   4.579   4.906
  964SOL    HW1 3791   4.937   4.670   4.941
  964SOL    HW2 3792   4.858   4.588   4.823
  965SOL     OW 3793   5.759   2.145   2.362
  965SOL    HW1 3794   5.722   2.083   2.294
  965SOL    HW2 3795   5.857   2.127   2.374
  966SOL     OW 3796   5.020   2.081   3.428
  966SOL    HW1 3797   4.969   2.043   3.505
  966SOL    HW2 3798   4.955   2.114   3.359
  967SOL     OW 3799   4.044   4.797   5.958
  967SOL    HW1 3800   4.046   4.711   6.008
  967SOL    HW2 3801   3.969   4.854   5.992
  968SOL     OW 3802   3.405   0.259   1.779
  968SOL    HW1 3803   3.464   0.180   1.766
  968SOL    HW2 3804   3.355   0.277   1.694
  969SOL     OW 3805   3.412   5.296   6.126
  969SOL    HW1 3806   3.508   5.324   6.126
  969SOL    HW2 3807   3.380   5.287   6.031
  970SOL     OW 3808   6.395   0.741   5.572
  970SOL    HW1 3809   6.432   0.687   5.648
  970SOL    HW2 3810   6.468   0.796   5.531
  971SOL     OW 3811   6.801   4.200   2.818
  971SOL    HW1 3812   6.790   4.101   2.819
  971SOL    HW2 3813   6.893   4.224   2.850
  972SOL     OW 3814   6.685   2.403   1.147
  972SOL    HW1 3815   6.647   2.324   1.099
  972SOL    HW2 3816   6.658   2.401   1.243
  973SOL     OW 3817   0.365   4.276   5.983
  973SOL    HW1 3818   0.332   4.355   5.932
  973SOL    HW2 3819   0.454   4.297   6.023
  974SOL     OW 3820   0.493   4.778   3.642
  974SOL    HW1 3821   0.499   4.769   3.543
  974SOL    HW2 3822   0.428   4.851   3.665
  975SOL     OW 3823   2.222   6.862   1.637
  975SOL    HW1 3824   2.301   6.889   1.582
  975SOL    HW2 3825   2.140   6.861   1.580
  976SOL     OW 3826   6.440   4.229   1.670
  976SOL    HW1 3827   6.364   4.165   1.680
  976SOL    HW2 3828   6.406   4.323   1.678
  977SOL     OW 3829   0.803   1.732   1.956
  977SOL    HW1 3830   0.808   1.650   2.012
  977SOL    HW2 3831   0.841   1.713   1.865
  978SOL     OW 3832   5.804   2.123   1.752
  978SOL    HW1 3833   5.791   2.177   1.835
  978SOL    HW2 3834   5.886   2.067   1.760
  979SOL     OW 3835   0.019   3.365   6.293
  979SOL    HW1 3836   0.027   3.434   6.365
  979SOL    HW2 3837   0.018   3.274   6.335
  980SOL     OW 3838   4.111   1.358   4.840
  980SOL    HW1 3839   4.040   1.402   4.784
  980SOL    HW2 3840   4.075   1.339   4.931
  981SOL     OW 3841   6.996   0.038   4.841
  981SOL    HW1 3842   0.059   0.079   4.820
  981SOL    HW2 3843   6.924   0.106   4.827
  982SOL     OW 3844   0.465   1.979   5.363
  982SOL    HW1 3845   0.450   1.895   5.310
  982SOL    HW2 3846   0.394   1.987   5.433
  983SOL     OW 3847   6.779   3.646   3.172
  983SOL    HW1 3848   6.834   3.665   3.253
  983SOL    HW2 3849   6.683   3.667   3.191
  984SOL     OW 3850   1.909   2.167   2.974
  984SOL    HW1 3851   1.861   2.084   3.003
  984SOL    HW2 3852   1.884   2.190   2.880
  985SOL     OW 3853   6.119   3.547   3.917
  985SOL    HW1 3854   6.134   3.509   3.826
  985SOL    HW2 3855   6.021   3.559   3.932
  986SOL     OW 3856   4.891   4.122   1.339
  986SOL    HW1 3857   4.870   4.080   1.427
  986SOL    HW2 3858   4.889   4.053   1.267
  987SOL     OW 3859   5.563   6.009   3.385
  987SOL    HW1 3860   5.545   5.977   3.292
  987SOL    HW2 3861   5.477   6.033   3.429
  988SOL     OW 3862   3.670   3.908   1.714
  988SOL    HW1 3863   3.670   3.894   1.813
  988SOL    HW2 3864   3.745   3.969   1.689
  989SOL     OW 3865   6.948   2.457   0.474
  989SOL    HW1 3866   6.871   2.394   0.471
  989SOL    HW2 3867   6.916   2.546   0.507
  990SOL     OW 3868   2.956   0.686   3.152
  990SOL    HW1 3869   2.924   0.755   3.217
  990SOL    HW2 3870   2.884   0.666   3.086
  991SOL     OW 3871   6.701   4.069   3.971
  991SOL    HW1 3872   6.699   4.038   4.066
  991SOL    HW2 3873   6.691   3.991   3.910
  992SOL     OW 3874   0.937   2.882   1.152
  992SOL    HW1 3875   1.015   2.896   1.213
  992SOL    HW2 3876   0.861   2.940   1.181
  993SOL     OW 3877   1.206   4.070   1.396
  993SOL    HW1 3878   1.189   3.981   1.353
  993SOL    HW2 3879   1.199   4.142   1.327
  994SOL     OW 3880   3.775   6.348   1.339
  994SOL    HW1 3881   3.700   6.284   1.352
  994SOL    HW2 3882   3.764   6.426   1.401
  995SOL     OW 3883   4.706   3.547   5.892
  995SOL    HW1 3884   4.790   3.600   5.903
  995SOL    HW2 3885   4.632   3.607   5.861
  996SOL     OW 3886   4.039   6.328   5.725
  996SOL    HW1 3887   4.034   6.231   5.745
  996SOL    HW2 3888   3.969   6.352   5.657
  997SOL     OW 3889   1.580   6.728   3.371
  997SOL    HW1 3890   1.504   6.663   3.364
  997SOL    HW2 3891   1.616   6.727   3.464
  998SOL     OW 3892   6.211   0.086   5.965
  998SOL    HW1 3893   6.222   0.111   6.061
  998SOL    HW2 3894   6.114   0.086   5.941
  999SOL     OW 3895   4.728   3.560   1.479
  999SOL    HW1 3896   4.784   3.477   1.480
  999SOL    HW2 3897   4.740   3.609   1.566
 1000SOL     OW 3898   4.168   1.363   1.034
 1000SOL    HW1 3899   4.149   1.456   1.067
 1000SOL    HW2 3900   4.101   1.339   0.964
 1001SOL     OW 3901   2.464   6.394   1.978
 1001SOL    HW1 3902   2.385   6.398   1.917
 1001SOL    HW2 3903   2.463   6.307   2.028
 1002SOL     OW 3904   4.913   2.228   1.826
 1002SOL    HW1 3905   4.897   2.327   1.831
 1002SOL    HW2 3906   4.967   2.199   1.905
 1003SOL     OW 3907   1.444   6.185   2.639
 1003SOL    HW1 3908   1.492   6.174   2.552
 1003SOL    HW2 3909   1.352   6.219   2.622
 1004SOL     OW 3910   6.669   1.244   2.796
 1004SOL    HW1 3911   6.707   1.302   2.723
 1004SOL    HW2 3912   6.614   1.172   2.754
 1005SOL     OW 3913   1.767   4.387   4.331
 1005SOL    HW1 3914   1.865   4.398   4.347
 1005SOL    HW2 3915   1.731   4.468   4.286
 1006SOL     OW 3916   2.387   4.398   0.617
 1006SOL    HW1 3917   2.339   4.416   0.531
 1006SOL    HW2 3918   2.460   4.331   0.601
 1007SOL     OW 3919   4.577   1.748   6.875
 1007SOL    HW1 3920   4.549   1.776   6.783
 1007SOL    HW2 3921   4.677   1.745   6.880
 1008SOL     OW 3922   0.785   4.020   5.161
 1008SOL    HW1 3923   0.868   4.008   5.216
 1008SOL    HW2 3924   0.804   4.080   5.084
 1009SOL     OW 3925   5.988   5.080   5.206
 1009SOL    HW1 3926   6.045   5.006   5.172
 1009SOL    HW2 3927   5.979   5.072   5.306
 1010SOL     OW 3928   2.002   2.798   1.591
 1010SOL    HW1 3929   1.933   2.798   1.519
 1010SOL    HW2 3930   2.093   2.798   1.550
 1011SOL     OW 3931   1.026   5.426   2.888
 1011SOL    HW1 3932   1.028   5.468   2.798
 1011SOL    HW2 3933   0.938   5.444   2.932
 1012SOL     OW 3934   6.541   0.177   2.340
 1012SOL    HW1 3935   6.533   0.268   2.298
 1012SOL    HW2 3936   6.628   0.171   2.389
 1013SOL     OW 3937   6.899   0.886   6.321
 1013SOL    HW1 3938   6.936   0.897   6.229
 1013SOL    HW2 3939   6.864   0.974   6.352
 1014SOL     OW 3940   1.295   4.537   4.264
 1014SOL    HW1 3941   1.251   4.542   4.353
 1014SOL    HW2 3942   1.317   4.442   4.243
 1015SOL     OW 3943   2.966   0.282   6.386
 1015SOL    HW1 3944   3.061   0.259   6.404
 1015SOL    HW2 3945   2.926   0.213   6.325
 1016SOL     OW 3946   5.180   4.208   1.175
 1016SOL    HW1 3947   5.206   4.226   1.080
 1016SOL    HW2 3948   5.175   4.295   1.225
 1017SOL     OW 3949   2.255   1.649   1.910
 1017SOL    HW1 3950   2.235   1.731   1.856
 1017SOL    HW2 3951   2.178   1.629   1.971
 1018SOL     OW 3952   0.010   4.656   3.562
 1018SOL    HW1 3953   0.073   4.578   3.556
 1018SOL    HW2 3954   0.018   4.711   3.479
 1019SOL     OW 3955   6.576   5.036   0.559
 1019SOL    HW1 3956   6.633   5.117   0.544
 1019SOL    HW2 3957   6.625   4.956   0.525
 1020SOL     OW 3958   6.982   0.446   1.396
 1020SOL    HW1 3959   0.024   0.506   1.354
 1020SOL    HW2 3960   6.907   0.501   1.433
 1021SOL     OW 3961   6.573   5.678   2.096
 1021SOL    HW1 3962   6.582   5.661   1.998
 1021SOL    HW2 3963   6.630   5.613   2.146
 1022SOL     OW 3964   3.006   6.217   5.992
 1022SOL    HW1 3965   2.918   6.254   6.021
 1022SOL    HW2 3966   3.037   6.266   5.910
 1023SOL     OW 3967   6.632   0.970   2.639
 1023SOL    HW1 3968   6.687   1.030   2.581
 1023SOL    HW2 3969   6.684   0.886   2.658
 1024SOL     OW 3970   1.004   1.162   4.604
 1024SOL    HW1 3971   0.938   1.234   4.625
 1024SOL    HW2 3972   0.978   1.116   4.519
 1025SOL     OW 3973   5.191   3.418   6.907
 1025SOL    HW1 3974   5.198   3.516   6.893
 1025SOL    HW2 3975   5.125   3.399   6.980
 1026SOL     OW 3976   3.113   2.593   1.702
 1026SOL    HW1 3977   3.156   2.514   1.657
 1026SOL    HW2 3978   3.075   2.564   1.790
 1027SOL     OW 3979   1.071   6.138   1.584
 1027SOL    HW1 3980   0.998   6.171   1.644
 1027SOL    HW2 3981   1.056   6.042   1.563
 1028SOL     OW 3982   1.133   6.229   3.255
 1028SOL    HW1 3983   1.187   6.311   3.236
 1028SOL    HW2 3984   1.182   6.148   3.223
 1029SOL     OW 3985   1.144   2.050   5.777
 1029SOL    HW1 3986   1.164   2.106   5.858
 1029SOL    HW2 3987   1.045   2.034   5.773
 1030SOL     OW 3988   3.289   3.115   1.783
 1030SOL    HW1 3989   3.216   3.175   1.748
 1030SOL    HW2 3990   3.269   3.092   1.879
 1031SOL     OW 3991   3.592   3.225   1.669
 1031SOL    HW1 3992   3.600   3.191   1.763
 1031SOL    HW2 3993   3.542   3.311   1.669
 1032SOL     OW 3994   2.413   1.288   5.172
 1032SOL    HW1 3995   2.411   1.386   5.151
 1032SOL    HW2 3996   2.498   1.248   5.138
 1033SOL     OW 3997   1.376   6.013   2.269
 1033SOL    HW1 3998   1.309   5.969   2.329
 1033SOL    HW2 3999   1.339   6.099   2.234
 1034SOL     OW 4000   2.869   6.380   4.348
 1034SOL    HW1 4001   2.941   6.312   4.336
 1034SOL    HW2 4002   2.908   6.472   4.339
 1035SOL     OW 4003   0.668   2.567   5.988
 1035SOL    HW1 4004   0.765   2.547   6.005
 1035SOL    HW2 4005   0.631   2.619   6.064
 1036SOL     OW 4006   4.801   1.279   1.422
 1036SOL    HW1 4007   4.887   1.236   1.398
 1036SOL    HW2 4008   4.728   1.244   1.364
 1037SOL     OW 4009   1.811   2.333   2.407
 1037SOL    HW1 4010   1.889   2.295   2.357
 1037SOL    HW2 4011   1.750   2.379   2.343
 1038SOL     OW 4012   2.198   1.024   6.960
 1038SOL    HW1 4013   2.140   0.972   6.898
 1038SOL    HW2 4014   2.231   1.107   6.913
 1039SOL     OW 4015   3.160   3.062   3.714
 1039SOL    HW1 4016   3.155   3.024   3.807
 1039SOL    HW2 4017   3.181   3.160   3.719
 1040SOL     OW 4018   5.172   1.008   3.316
 1040SOL    HW1 4019   5.196   1.038   3.408
 1040SOL    HW2 4020   5.077   1.030   3.297
 1041SOL     OW 4021   6.875   6.702   4.246
 1041SOL    HW1 4022   6.907   6.746   4.162
 1041SOL    HW2 4023   6.919   6.612   4.255
 1042SOL     OW 4024   4.689   5.096   2.526
 1042SOL    HW1 4025   4.657   5.004   2.502
 1042SOL    HW2 4026   4.741   5.133   2.450
 1043SOL     OW 4027   3.456   1.490   3.530
 1043SOL    HW1 4028   3.493   1.453   3.445
 1043SOL    HW2 4029   3.407   1.418   3.579
 1044SOL     OW 4030   6.158   5.590   1.328
 1044SOL    HW1 4031   6.079   5.529   1.328
 1044SOL    HW2 4032   6.127   5.685   1.321
 1045SOL     OW 4033   2.369   0.214   3.423
 1045SOL    HW1 4034   2.421   0.241   3.341
 1045SOL    HW2 4035   2.299   0.149   3.396
 1046SOL     OW 4036   2.342   1.036   1.278
 1046SOL    HW1 4037   2.387   0.978   1.209
 1046SOL    HW2 4038   2.349   1.132   1.251
 1047SOL     OW 4039   3.445   6.849   4.004
 1047SOL    HW1 4040   3.478   6.889   3.918
 1047SOL    HW2 4041   3.348   6.826   3.994
 1048SOL     OW 4042   2.535   6.151   2.138
 1048SOL    HW1 4043   2.493   6.062   2.152
 1048SOL    HW2 4044   2.616   6.159   2.196
 1049SOL     OW 4045   4.545   0.022   4.247
 1049SOL    HW1 4046   4.469   7.016   4.304
 1049SOL    HW2 4047   4.525   0.001   4.151
 1050SOL     OW 4048   4.012   5.156   3.153
 1050SOL    HW1 4049   3.945   5.227   3.131
 1050SOL    HW2 4050   3.974   5.094   3.222
 1051SOL     OW 4051   6.939   6.596   0.561
 1051SOL    HW1 4052   6.889   6.555   0.486
 1051SOL    HW2 4053   6.891   6.579   0.647
 1052SOL     OW 4054   4.079   0.496   5.942
 1052SOL    HW1 4055   4.076   0.584   5.989
 1052SOL    HW2 4056   4.150   0.439   5.982
 1053SOL     OW 4057   5.463   3.752   1.964
 1053SOL    HW1 4058   5.441   3.679   2.029
 1053SOL    HW2 4059   5.382   3.809   1.949
 1054SOL     OW 4060   3.122   3.955   0.781
 1054SOL    HW1 4061   3.135   3.915   0.691
 1054SOL    HW2 4062   3.110   3.883   0.849
 1055SOL     OW 4063   5.333   5.455   6.478
 1055SOL    HW1 4064   5.249   5.486   6.522
 1055SOL    HW2 4065   5.386   5.534   6.447
 1056SOL     OW 4066   2.280   3.992   0.761
 1056SOL    HW1 4067   2.297   3.957   0.669
 1056SOL    HW2 4068   2.241   3.920   0.818
 1057SOL     OW 4069   3.286   1.475   2.085
 1057SOL    HW1 4070   3.232   1.464   2.002
 1057SOL    HW2 4071   3.347   1.397   2.096
 1058SOL     OW 4072   3.891   2.065   3.083
 1058SOL    HW1 4073   3.966   2.006   3.053
 1058SOL    HW2 4074   3.902   2.086   3.180
 1059SOL     OW 4075   2.281   6.496   1.815
 1059SOL    HW1 4076   2.347   6.550   1.763
 1059SOL    HW2 4077   2.196   6.548   1.824
 1060SOL     OW 4078   0.472   5.449   4.297
 1060SOL    HW1 4079   0.376   5.422   4.290
 1060SOL    HW2 4080   0.488   5.530   4.240
 1061SOL     OW 4081   6.433   4.261   6.993
 1061SOL    HW1 4082   6.528   4.287   7.014
 1061SOL    HW2 4083   6.417   4.167   7.022
 1062SOL     OW 4084   4.085   6.348   5.062
 1062SOL    HW1 4085   4.116   6.412   5.133
 1062SOL    HW2 4086   3.989   6.366   5.040
 1063SOL     OW 4087   0.872   0.051   5.798
 1063SOL    HW1 4088   0.962   0.008   5.800
 1063SOL    HW2 4089   0.843   0.072   5.891
 1064SOL     OW 4090   0.803   4.497   1.746
 1064SOL    HW1 4091   0.790   4.538   1.656
 1064SOL    HW2 4092   0.840   4.565   1.809
 1065SOL     OW 4093   3.624   1.058   3.821
 1065SOL    HW1 4094   3.567   0.990   3.775
 1065SOL    HW2 4095   3.647   1.027   3.913
 1066SOL     OW 4096   4.989   6.961   2.298
 1066SOL    HW1 4097   4.947   0.003   2.359
 1066SOL    HW2 4098   4.990   6.872   2.343
 1067SOL     OW 4099   2.740   1.404   0.323
 1067SOL    HW1 4100   2.653   1.453   0.327
 1067SOL    HW2 4101   2.735   1.334   0.251
 1068SOL     OW 4102   6.515   4.019   1.214
 1068SOL    HW1 4103   6.613   4.025   1.197
 1068SOL    HW2 4104   6.483   4.102   1.259
 1069SOL     OW 4105   5.647   4.415   0.713
 1069SOL    HW1 4106   5.611   4.495   0.664
 1069SOL    HW2 4107   5.739   4.395   0.681
 1070SOL     OW 4108   2.080   0.066   2.443
 1070SOL    HW1 4109   2.073   0.130   2.366
 1070SOL    HW2 4110   2.000   0.078   2.502
 1071SOL     OW 4111   0.417   2.222   4.920
 1071SOL    HW1 4112   0.487   2.158   4.888
 1071SOL    HW2 4113   0.413   2.221   5.019
 1072SOL     OW 4114   2.301   0.589   1.490
 1072SOL    HW1 4115   2.365   0.654   1.449
 1072SOL    HW2 4116   2.280   0.618   1.583
 1073SOL     OW 4117   5.814   1.838   3.149
 1073SOL    HW1 4118   5.818   1.898   3.069
 1073SOL    HW2 4119   5.720   1.833   3.182
 1074SOL     OW 4120   2.713   5.200   2.393
 1074SOL    HW1 4121   2.721   5.121   2.333
 1074SOL    HW2 4122   2.733   5.283   2.342
 1075SOL     OW 4123   5.700   1.489   5.094
 1075SOL    HW1 4124   5.681   1.488   5.192
 1075SOL    HW2 4125   5.756   1.568   5.070
 1076SOL     OW 4126   2.187   4.029   5.479
 1076SOL    HW1 4127   2.216   3.953   5.421
 1076SOL    HW2 4128   2.207   4.116   5.432
 1077SOL     OW 4129   0.112   0.538   0.344
 1077SOL    HW1 4130   0.072   0.608   0.285
 1077SOL    HW2 4131   0.083   0.447   0.313
 1078SOL     OW 4132   6.419   6.855   3.560
 1078SOL    HW1 4133   6.453   6.828   3.470
 1078SOL    HW2 4134   6.319   6.851   3.560
 1079SOL     OW 4135   1.353   5.196   2.734
 1079SOL    HW1 4136   1.337   5.242   2.822
 1079SOL    HW2 4137   1.278   5.218   2.672
 1080SOL     OW 4138   2.193   5.770   5.281
 1080SOL    HW1 4139   2.220   5.831   5.207
 1080SOL    HW2 4140   2.203   5.675   5.252
 1081SOL     OW 4141   6.956   5.822   4.574
 1081SOL    HW1 4142   6.894   5.822   4.496
 1081SOL    HW2 4143   0.003   5.888   4.559
 1082SOL     OW 4144   6.194   1.097   5.865
 1082SOL    HW1 4145   6.156   1.029   5.802
 1082SOL    HW2 4146   6.119   1.151   5.904
 1083SOL     OW 4147   4.863   4.333   0.434
 1083SOL    HW1 4148   4.805   4.314   0.354
 1083SOL    HW2 4149   4.881   4.248   0.483
 1084SOL     OW 4150   6.133   0.060   6.704
 1084SOL    HW1 4151   6.110   0.025   6.795
 1084SOL    HW2 4152   6.069   0.133   6.679
 1085SOL     OW 4153   1.753   3.392   4.498
 1085SOL    HW1 4154   1.654   3.386   4.510
 1085SOL    HW2 4155   1.789   3.460   4.562
 1086SOL     OW 4156   6.545   4.429   6.145
 1086SOL    HW1 4157   6.604   4.354   6.116
 1086SOL    HW2 4158   6.509   4.476   6.064
 1087SOL     OW 4159   1.310   1.366   5.135
 1087SOL    HW1 4160   1.297   1.278   5.179
 1087SOL    HW2 4161   1.400   1.369   5.091
 1088SOL     OW 4162   0.473   5.213   3.525
 1088SOL    HW1 4163   0.571   5.200   3.539
 1088SOL    HW2 4164   0.422   5.144   3.576
 1089SOL     OW 4165   0.152   5.368   4.923
 1089SOL    HW1 4166   0.250   5.363   4.938
 1089SOL    HW2 4167   0.133   5.368   4.825
 1090SOL     OW 4168   5.920   1.839   3.713
 1090SOL    HW1 4169   5.944   1.936   3.703
 1090SOL    HW2 4170   5.851   1.815   3.646
 1091SOL     OW 4171   2.144   3.290   3.649
 1091SOL    HW1 4172   2.170   3.269   3.744
 1091SOL    HW2 4173   2.094   3.376   3.647
 1092SOL     OW 4174   0.747   5.107   1.514
 1092SOL    HW1 4175   0.842   5.078   1.522
 1092SOL    HW2 4176   0.743   5.204   1.489
 1093SOL     OW 4177   2.694   6.763   1.451
 1093SOL    HW1 4178   2.775   6.811   1.418
 1093SOL    HW2 4179   2.720   6.703   1.527
 1094SOL     OW 4180   0.767   6.726   2.748
 1094SOL    HW1 4181   0.710   6.713   2.667
 1094SOL    HW2 4182   0.718   6.693   2.829
 1095SOL     OW 4183   0.242   2.310   6.427
 1095SOL    HW1 4184   0.230   2.351   6.336
 1095SOL    HW2 4185   0.238   2.382   6.496
 1096SOL     OW 4186   2.980   5.586   0.968
 1096SOL    HW1 4187   3.047   5.515   0.989
 1096SOL    HW2 4188   2.952   5.632   1.053
 1097SOL     OW 4189   2.220   5.640   3.548
 1097SOL    HW1 4190   2.189   5.587   3.628
 1097SOL    HW2 4191   2.142   5.657   3.488
 1098SOL     OW 4192   5.998   4.109   6.725
 1098SOL    HW1 4193   6.079   4.165   6.742
 1098SOL    HW2 4194   6.012   4.054   6.642
 1099SOL     OW 4195   4.293   1.394   6.207
 1099SOL    HW1 4196   4.280   1.338   6.125
 1099SOL    HW2 4197   4.386   1.383   6.241
 1100SOL     OW 4198   3.837   1.292   3.721
 1100SOL    HW1 4199   3.786   1.281   3.806
 1100SOL    HW2 4200   3.917   1.232   3.722
 1101SOL     OW 4201   5.453   3.597   5.231
 1101SOL    HW1 4202   5.383   3.572   5.298
 1101SOL    HW2 4203   5.521   3.656   5.275
 1102SOL     OW 4204   2.362   0.935   4.713
 1102SOL    HW1 4205   2.458   0.950   4.691
 1102SOL    HW2 4206   2.344   0.963   4.807
 1103SOL     OW 4207   2.789   1.830   6.953
 1103SOL    HW1 4208   2.721   1.808   7.023
 1103SOL    HW2 4209   2.745   1.882   6.880
 1104SOL     OW 4210   1.123   4.199   3.447
 1104SOL    HW1 4211   1.037   4.250   3.461
 1104SOL    HW2 4212   1.117   4.147   3.362
 1105SOL     OW 4213   5.541   2.342   5.432
 1105SOL    HW1 4214   5.518   2.435   5.403
 1105SOL    HW2 4215   5.457   2.293   5.455
 1106SOL     OW 4216   0.667   1.256   0.161
 1106SOL    HW1 4217   0.708   1.337   0.203
 1106SOL    HW2 4218   0.638   1.192   0.232
 1107SOL     OW 4219   1.382   0.177   6.468
 1107SOL    HW1 4220   1.407   0.088   6.430
 1107SOL    HW2 4221   1.402   0.249   6.401
 1108SOL     OW 4222   3.726   6.639   4.225
 1108SOL    HW1 4223   3.817   6.680   4.214
 1108SOL    HW2 4224   3.733   6.540   4.211
 1109SOL     OW 4225   6.284   1.348   3.647
 1109SOL    HW1 4226   6.368   1.390   3.613
 1109SOL    HW2 4227   6.279   1.253   3.618
 1110SOL     OW 4228   3.434   1.016   3.085
 1110SOL    HW1 4229   3.504   0.957   3.125
 1110SOL    HW2 4230   3.473   1.106   3.065
 1111SOL     OW 4231   4.574   4.204   6.225
 1111SOL    HW1 4232   4.511   4.158   6.288
 1111SOL    HW2 4233   4.666   4.169   6.239
 1112SOL     OW 4234   6.553   6.748   3.361
 1112SOL    HW1 4235   6.592   6.769   3.271
 1112SOL    HW2 4236   6.528   6.651   3.364
 1113SOL     OW 4237   6.614   3.860   2.484
 1113SOL    HW1 4238   6.669   3.857   2.567
 1113SOL    HW2 4239   6.618   3.772   2.437
 1114SOL     OW 4240   4.142   2.356   6.095
 1114SOL    HW1 4241   4.141   2.287   6.023
 1114SOL    HW2 4242   4.139   2.447   6.054
 1115SOL     OW 4243   3.677   4.452   5.673
 1115SOL    HW1 4244   3.772   4.429   5.693
 1115SOL    HW2 4245   3.674   4.509   5.591
 1116SOL     OW 4246   5.236   0.856   0.295
 1116SOL    HW1 4247   5.298   0.900   0.360
 1116SOL    HW2 4248   5.249   0.897   0.204
 1117SOL     OW 4249   0.759   2.280   1.176
 1117SOL    HW1 4250   0.701   2.240   1.247
 1117SOL    HW2 4251   0.786   2.209   1.111
 1118SOL     OW 4252   2.759   5.894   6.330
 1118SOL    HW1 4253   2.838   5.866   6.275
 1118SOL    HW2 4254   2.681   5.912   6.270
 1119SOL     OW 4255   4.292   4.630   2.606
 1119SOL    HW1 4256   4.257   4.709   2.555
 1119SOL    HW2 4257   4.219   4.562   2.614
 1120SOL     OW 4258   6.394   5.751   1.207
 1120SOL    HW1 4259   6.392   5.766   1.306
 1120SOL    HW2 4260   6.335   5.674   1.185
 1121SOL     OW 4261   0.597   5.392   4.539
 1121SOL    HW1 4262   0.536   5.440   4.601
 1121SOL    HW2 4263   0.574   5.415   4.444
 1122SOL     OW 4264   5.660   3.246   2.116
 1122SOL    HW1 4265   5.583   3.233   2.054
 1122SOL    HW2 4266   5.682   3.160   2.162
 1123SOL     OW 4267   4.549   2.248   3.006
 1123SOL    HW1 4268   4.476   2.310   2.978
 1123SOL    HW2 4269   4.517   2.154   2.998
 1124SOL     OW 4270   1.617   3.142   5.060
 1124SOL    HW1 4271   1.635   3.226   5.111
 1124SOL    HW2 4272   1.561   3.081   5.116
 1125SOL     OW 4273   1.510   3.614   5.215
 1125SOL    HW1 4274   1.547   3.674   5.144
 1125SOL    HW2 4275   1.484   3.668   5.295
 1126SOL     OW 4276   4.256   5.557   5.603
 1126SOL    HW1 4277   4.227   5.586   5.512
 1126SOL    HW2 4278   4.274   5.459   5.603
 1127SOL     OW 4279   5.522   6.319   3.962
 1127SOL    HW1 4280   5.580   6.247   3.999
 1127SOL    HW2 4281   5.460   6.280   3.893
 1128SOL     OW 4282   6.002   0.757   3.905
 1128SOL    HW1 4283   6.042   0.849   3.895
 1128SOL    HW2 4284   5.902   0.764   3.902
 1129SOL     OW 4285   1.992   6.458   0.842
 1129SOL    HW1 4286   2.028   6.529   0.782
 1129SOL    HW2 4287   2.050   6.376   0.836
 1130SOL     OW 4288   2.116   5.408   2.282
 1130SOL    HW1 4289   2.213   5.423   2.300
 1130SOL    HW2 4290   2.086   5.325   2.329
 1131SOL     OW 4291   1.468   6.933   4.084
 1131SOL    HW1 4292   1.525   6.895   4.011
 1131SOL    HW2 4293   1.387   6.975   4.043
 1132SOL     OW 4294   4.737   0.648   2.637
 1132SOL    HW1 4295   4.763   0.732   2.591
 1132SOL    HW2 4296   4.715   0.578   2.569
 1133SOL     OW 4297   1.653   0.377   5.337
 1133SOL    HW1 4298   1.633   0.400   5.432
 1133SOL    HW2 4299   1.602   0.438   5.276
 1134SOL     OW 4300   5.146   6.573   2.236
 1134SOL    HW1 4301   5.163   6.563   2.138
 1134SOL    HW2 4302   5.062   6.627   2.251
 1135SOL     OW 4303   2.666   6.496   4.178
 1135SOL    HW1 4304   2.684   6.576   4.121
 1135SOL    HW2 4305   2.751   6.464   4.220
 1136SOL     OW 4306   3.501   6.166   3.212
 1136SOL    HW1 4307   3.554   6.247   3.185
 1136SOL    HW2 4308   3.554   6.111   3.276
 1137SOL     OW 4309   0.762   6.058   6.948
 1137SOL    HW1 4310   0.698   6.031   6.875
 1137SOL    HW2 4311   0.710   6.090   0.002
 1138SOL     OW 4312   1.642   3.048   5.491
 1138SOL    HW1 4313   1.547   3.078   5.482
 1138SOL    HW2 4314   1.700   3.102   5.430
 1139SOL     OW 4315   2.391   4.825   4.242
 1139SOL    HW1 4316   2.348   4.887   4.177
 1139SOL    HW2 4317   2.353   4.733   4.232
 1140SOL     OW 4318   1.929   1.266   1.747
 1140SOL    HW1 4319   1.914   1.216   1.662
 1140SOL    HW2 4320   2.020   1.245   1.783
 1141SOL     OW 4321   6.085   5.522   6.155
 1141SOL    HW1 4322   5.991   5.511   6.122
 1141SOL    HW2 4323   6.084   5.574   6.241
 1142SOL     OW 4324   2.398   6.934   3.778
 1142SOL    HW1 4325   2.309   6.925   3.734
 1142SOL    HW2 4326   2.431   0.002   3.767
 1143SOL     OW 4327   1.177   3.311   2.100
 1143SOL    HW1 4328   1.167   3.408   2.123
 1143SOL    HW2 4329   1.087   3.266   2.105
 1144SOL     OW 4330   5.484   4.167   2.813
 1144SOL    HW1 4331   5.513   4.263   2.813
 1144SOL    HW2 4332   5.476   4.135   2.718
 1145SOL     OW 4333   1.545   2.633   0.741
 1145SOL    HW1 4334   1.513   2.554   0.690
 1145SOL    HW2 4335   1.498   2.638   0.829
 1146SOL     OW 4336   0.406   1.730   0.964
 1146SOL    HW1 4337   0.348   1.808   0.988
 1146SOL    HW2 4338   0.463   1.706   1.043
 1147SOL     OW 4339   2.757   5.704   1.187
 1147SOL    HW1 4340   2.703   5.762   1.248
 1147SOL    HW2 4341   2.850   5.696   1.222
 1148SOL     OW 4342   4.226   6.513   1.801
 1148SOL    HW1 4343   4.162   6.441   1.774
 1148SOL    HW2 4344   4.179   6.601   1.803
 1149SOL     OW 4345   6.152   2.999   1.671
 1149SOL    HW1 4346   6.188   3.093   1.672
 1149SOL    HW2 4347   6.070   2.994   1.728
 1150SOL     OW 4348   1.032   4.585   0.089
 1150SOL    HW1 4349   0.970   4.506   0.084
 1150SOL    HW2 4350   1.064   4.609   7.024
 1151SOL     OW 4351   6.207   4.925   3.949
 1151SOL    HW1 4352   6.223   4.964   3.858
 1151SOL    HW2 4353   6.112   4.942   3.977
 1152SOL     OW 4354   4.385   0.358   0.693
 1152SOL    HW1 4355   4.443   0.440   0.693
 1152SOL    HW2 4356   4.355   0.339   0.600
 1153SOL     OW 4357   7.013   0.127   1.445
 1153SOL    HW1 4358   0.063   0.080   1.400
 1153SOL    HW2 4359   7.016   0.224   1.421
 1154SOL     OW 4360   1.321   3.609   2.194
 1154SOL    HW1 4361   1.292   3.579   2.285
 1154SOL    HW2 4362   1.397   3.674   2.204
 1155SOL     OW 4363   1.919   6.384   4.835
 1155SOL    HW1 4364   1.901   6.287   4.815
 1155SOL    HW2 4365   1.921   6.436   4.750
 1156SOL     OW 4366   4.517   1.578   4.906
 1156SOL    HW1 4367   4.511   1.673   4.877
 1156SOL    HW2 4368   4.458   1.522   4.848
 1157SOL     OW 4369   4.683   0.424   5.308
 1157SOL    HW1 4370   4.598   0.392   5.349
 1157SOL    HW2 4371   4.738   0.472   5.377
 1158SOL     OW 4372   5.249   5.942   4.245
 1158SOL    HW1 4373   5.151   5.956   4.230
 1158SOL    HW2 4374   5.269   5.953   4.342
 1159SOL     OW 4375   6.365   6.205   2.973
 1159SOL    HW1 4376   6.412   6.196   2.885
 1159SOL    HW2 4377   6.427   6.180   3.047
 1160SOL     OW 4378   4.088   6.764   0.783
 1160SOL    HW1 4379   4.106   6.672   0.751
 1160SOL    HW2 4380   4.133   6.778   0.872
 1161SOL     OW 4381   6.580   5.166   6.015
 1161SOL    HW1 4382   6.597   5.212   6.102
 1161SOL    HW2 4383   6.589   5.233   5.941
 1162SOL     OW 4384   2.174   2.518   5.907
 1162SOL    HW1 4385   2.236   2.579   5.955
 1162SOL    HW2 4386   2.223   2.472   5.833
 1163SOL     OW 4387   6.045   4.111   1.835
 1163SOL    HW1 4388   5.996   4.087   1.751
 1163SOL    HW2 4389   5.982   4.106   1.912
 1164SOL     OW 4390   5.514   2.347   4.655
 1164SOL    HW1 4391   5.546   2.333   4.748
 1164SOL    HW2 4392   5.458   2.430   4.650
 1165SOL     OW 4393   4.562   6.222   3.633
 1165SOL    HW1 4394   4.628   6.271   3.577
 1165SOL    HW2 4395   4.478   6.208   3.581
 1166SOL     OW 4396   1.841   6.373   6.759
 1166SOL    HW1 4397   1.812   6.352   6.852
 1166SOL    HW2 4398   1.787   6.450   6.724
 1167SOL     OW 4399   4.810   4.026   1.928
 1167SOL    HW1 4400   4.790   4.090   2.002
 1167SOL    HW2 4401   4.732   4.022   1.865
 1168SOL     OW 4402   6.019   2.073   2.412
 1168SOL    HW1 4403   6.094   2.106   2.356
 1168SOL    HW2 4404   6.045   1.986   2.454
 1169SOL     OW 4405   5.986   1.863   6.042
 1169SOL    HW1 4406   6.048   1.788   6.067
 1169SOL    HW2 4407   5.977   1.867   5.943
 1170SOL     OW 4408   4.397   0.132   2.800
 1170SOL    HW1 4409   4.435   0.188   2.874
 1170SOL    HW2 4410   4.432   0.039   2.807
 1171SOL     OW 4411   2.469   0.247   0.531
 1171SOL    HW1 4412   2.395   0.300   0.573
 1171SOL    HW2 4413   2.431   0.165   0.488
 1172SOL     OW 4414   4.917   3.279   0.803
 1172SOL    HW1 4415   4.909   3.188   0.844
 1172SOL    HW2 4416   4.834   3.331   0.822
 1173SOL     OW 4417   2.212   0.717   0.993
 1173SOL    HW1 4418   2.185   0.780   1.065
 1173SOL    HW2 4419   2.131   0.687   0.942
 1174SOL     OW 4420   3.602   3.705   1.554
 1174SOL    HW1 4421   3.611   3.772   1.629
 1174SOL    HW2 4422   3.692   3.667   1.532
 1175SOL     OW 4423   4.260   3.144   5.657
 1175SOL    HW1 4424   4.161   3.151   5.653
 1175SOL    HW2 4425   4.287   3.048   5.652
 1176SOL     OW 4426   4.884   3.189   5.917
 1176SOL    HW1 4427   4.873   3.250   5.839
 1176SOL    HW2 4428   4.839   3.228   5.997
 1177SOL     OW 4429   6.474   3.500   5.372
 1177SOL    HW1 4430   6.555   3.493   5.314
 1177SOL    HW2 4431   6.499   3.480   5.467
 1178SOL     OW 4432   2.770   3.490   0.660
 1178SOL    HW1 4433   2.748   3.447   0.572
 1178SOL    HW2 4434   2.834   3.432   0.710
 1179SOL     OW 4435   2.282   5.845   0.117
 1179SOL    HW1 4436   2.212   5.801   0.174
 1179SOL    HW2 4437   2.369   5.845   0.166
 1180SOL     OW 4438   2.939   5.859   2.586
 1180SOL    HW1 4439   3.009   5.819   2.646
 1180SOL    HW2 4440   2.884   5.787   2.545
 1181SOL     OW 4441   0.096   5.276   6.514
 1181SOL    HW1 4442   0.068   5.277   6.418
 1181SOL    HW2 4443   0.043   5.207   6.564
 1182SOL     OW 4444   4.224   5.829   3.254
 1182SOL    HW1 4445   4.125   5.820   3.269
 1182SOL    HW2 4446   4.247   5.926   3.245
 1183SOL     OW 4447   1.851   4.411   0.843
 1183SOL    HW1 4448   1.754   4.435   0.845
 1183SOL    HW2 4449   1.897   4.451   0.922
 1184SOL     OW 4450   0.591   0.542   4.891
 1184SOL    HW1 4451   0.570   0.454   4.849
 1184SOL    HW2 4452   0.689   0.547   4.912
 1185SOL     OW 4453   0.595   0.866   6.931
 1185SOL    HW1 4454   0.506   0.855   6.976
 1185SOL    HW2 4455   0.582   0.876   6.832
 1186SOL     OW 4456   4.896   5.699   4.972
 1186SOL    HW1 4457   4.883   5.774   4.906
 1186SOL    HW2 4458   4.961   5.633   4.935
 1187SOL     OW 4459   6.512   6.437   0.237
 1187SOL    HW1 4460   6.549   6.521   0.198
 1187SOL    HW2 4461   6.461   6.459   0.320
 1188SOL     OW 4462   3.482   6.147   5.213
 1188SOL    HW1 4463   3.456   6.222   5.153
 1188SOL    HW2 4464   3.409   6.131   5.280
 1189SOL     OW 4465   6.809   2.971   3.061
 1189SOL    HW1 4466   6.855   2.982   3.149
 1189SOL    HW2 4467   6.714   2.945   3.076
 1190SOL     OW 4468   2.314   6.342   3.668
 1190SOL    HW1 4469   2.330   6.246   3.643
 1190SOL    HW2 4470   2.380   6.370   3.738
 1191SOL     OW 4471   4.456   4.895   3.510
 1191SOL    HW1 4472   4.436   4.967   3.444
 1191SOL    HW2 4473   4.372   4.847   3.534
 1192SOL     OW 4474   3.845   5.383   3.153
 1192SOL    HW1 4475   3.923   5.439   3.181
 1192SOL    HW2 4476   3.786   5.436   3.092
 1193SOL     OW 4477   6.262   4.213   4.490
 1193SOL    HW1 4478   6.174   4.226   4.535
 1193SOL    HW2 4479   6.275   4.116   4.469
 1194SOL     OW 4480   5.217   6.747   1.403
 1194SOL    HW1 4481   5.288   6.676   1.399
 1194SOL    HW2 4482   5.229   6.808   1.325
 1195SOL     OW 4483   6.318   4.477   1.742
 1195SOL    HW1 4484   6.408   4.517   1.725
 1195SOL    HW2 4485   6.255   4.506   1.670
 1196SOL     OW 4486   0.093   5.968   2.965
 1196SOL    HW1 4487   0.142   5.903   3.023
 1196SOL    HW2 4488   0.007   5.994   3.009
 1197SOL     OW 4489   3.923   0.696   6.363
 1197SOL    HW1 4490   3.958   0.720   6.272
 1197SOL    HW2 4491   3.977   0.742   6.433
 1198SOL     OW 4492   1.137   3.216   1.672
 1198SOL    HW1 4493   1.190   3.279   1.729
 1198SOL    HW2 4494   1.039   3.232   1.688
 1199SOL     OW 4495   4.559   4.890   1.993
 1199SOL    HW1 4496   4.514   4.873   2.080
 1199SOL    HW2 4497   4.640   4.832   1.986
 1200SOL     OW 4498   3.482   3.621   3.121
 1200SOL    HW1 4499   3.573   3.580   3.113
 1200SOL    HW2 4500   3.444   3.635   3.029
 1201SOL     OW 4501   1.419   1.178   4.292
 1201SOL    HW1 4502   1.472   1.260   4.269
 1201SOL    HW2 4503   1.359   1.198   4.369
 1202SOL     OW 4504   0.931   5.586   6.586
 1202SOL    HW1 4505   0.937   5.615   6.491
 1202SOL    HW2 4506   1.003   5.631   6.640
 1203SOL     OW 4507   5.621   6.115   6.828
 1203SOL    HW1 4508   5.562   6.147   6.754
 1203SOL    HW2 4509   5.591   6.024   6.857
 1204SOL     OW 4510   3.015   0.023   0.908
 1204SOL    HW1 4511   3.003   6.954   0.880
 1204SOL    HW2 4512   3.034   0.080   0.828
 1205SOL     OW 4513   5.684   4.166   1.407
 1205SOL    HW1 4514   5.710   4.151   1.311
 1205SOL    HW2 4515   5.585   4.164   1.415
 1206SOL     OW 4516   3.369   2.903   5.295
 1206SOL    HW1 4517   3.398   2.942   5.382
 1206SOL    HW2 4518   3.426   2.939   5.222
 1207SOL     OW 4519   1.812   6.850   0.975
 1207SOL    HW1 4520   1.854   6.872   0.887
 1207SOL    HW2 4521   1.848   6.912   1.045
 1208SOL     OW 4522   3.063   3.907   0.498
 1208SOL    HW1 4523   2.985   3.969   0.498
 1208SOL    HW2 4524   3.104   3.905   0.406
 1209SOL     OW 4525   4.248   0.780   5.504
 1209SOL    HW1 4526   4.260   0.793   5.602
 1209SOL    HW2 4527   4.315   0.714   5.470
 1210SOL     OW 4528   2.758   0.459   3.241
 1210SOL    HW1 4529   2.739   0.499   3.331
 1210SOL    HW2 4530   2.737   0.526   3.170
 1211SOL     OW 4531   1.658   3.900   1.371
 1211SOL    HW1 4532   1.723   3.958   1.420
 1211SOL    HW2 4533   1.707   3.836   1.312
 1212SOL     OW 4534   6.723   0.452   6.582
 1212SOL    HW1 4535   6.713   0.419   6.488
 1212SOL    HW2 4536   6.811   0.423   6.619
 1213SOL     OW 4537   6.351   2.462   0.226
 1213SOL    HW1 4538   6.448   2.485   0.218
 1213SOL    HW2 4539   6.311   2.511   0.303
 1214SOL     OW 4540   6.898   2.954   0.332
 1214SOL    HW1 4541   6.962   3.029   0.316
 1214SOL    HW2 4542   6.806   2.984   0.308
 1215SOL     OW 4543   1.377   3.742   4.057
 1215SOL    HW1 4544   1.424   3.805   4.118
 1215SOL    HW2 4545   1.413   3.753   3.964
 1216SOL     OW 4546   4.996   1.005   1.079
 1216SOL    HW1 4547   5.081   0.956   1.099
 1216SOL    HW2 4548   5.013   1.072   1.007
 1217SOL     OW 4549   1.290   4.923   1.095
 1217SOL    HW1 4550   1.329   5.001   1.045
 1217SOL    HW2 4551   1.217   4.956   1.155
 1218SOL     OW 4552   1.788   4.847   4.615
 1218SOL    HW1 4553   1.837   4.903   4.547
 1218SOL    HW2 4554   1.810   4.881   4.706
 1219SOL     OW 4555   5.499   5.295   2.110
 1219SOL    HW1 4556   5.573   5.274   2.174
 1219SOL    HW2 4557   5.458   5.383   2.134
 1220SOL     OW 4558   0.803   5.268   3.385
 1220SOL    HW1 4559   0.888   5.319   3.394
 1220SOL    HW2 4560   0.788   5.213   3.467
 1221SOL     OW 4561   4.822   3.332   5.691
 1221SOL    HW1 4562   4.758   3.409   5.689
 1221SOL    HW2 4563   4.786   3.256   5.637
 1222SOL     OW 4564   6.259   6.659   6.640
 1222SOL    HW1 4565   6.340   6.713   6.618
 1222SOL    HW2 4566   6.277   6.562   6.621
 1223SOL     OW 4567   3.907   0.485   1.118
 1223SOL    HW1 4568   3.843   0.473   1.193
 1223SOL    HW2 4569   3.901   0.579   1.083
 1224SOL     OW 4570   2.232   5.993   0.705
 1224SOL    HW1 4571   2.167   5.970   0.633
 1224SOL    HW2 4572   2.189   5.976   0.794
 1225SOL     OW 4573   3.631   3.944   6.167
 1225SOL    HW1 4574   3.707   4.003   6.194
 1225SOL    HW2 4575   3.565   3.997   6.114
 1226SOL     OW 4576   2.741   5.303   1.122
 1226SOL    HW1 4577   2.684   5.376   1.086
 1226SOL    HW2 4578   2.752   5.232   1.052
 1227SOL     OW 4579   0.054   3.521   6.496
 1227SOL    HW1 4580   0.085   3.528   6.591
 1227SOL    HW2 4581   0.028   3.611   6.462
 1228SOL     OW 4582   4.259   3.035   6.545
 1228SOL    HW1 4583   4.259   3.100   6.469
 1228SOL    HW2 4584   4.172   3.041   6.593
 1229SOL     OW 4585   3.834   4.757   6.193
 1229SOL    HW1 4586   3.850   4.670   6.147
 1229SOL    HW2 4587   3.920   4.791   6.231
 1230SOL     OW 4588   4.366   0.758   4.455
 1230SOL    HW1 4589   4.364   0.856   4.473
 1230SOL    HW2 4590   4.461   0.727   4.448
 1231SOL     OW 4591   0.949   3.733   5.114
 1231SOL    HW1 4592   0.909   3.666   5.177
 1231SOL    HW2 4593   0.958   3.821   5.160
 1232SOL     OW 4594   1.177   1.889   5.418
 1232SOL    HW1 4595   1.112   1.962   5.398
 1232SOL    HW2 4596   1.268   1.928   5.431
 1233SOL     OW 4597   1.825   3.440   4.869
 1233SOL    HW1 4598   1.751   3.390   4.824
 1233SOL    HW2 4599   1.875   3.378   4.930
 1234SOL     OW 4600   6.512   4.005   4.604
 1234SOL    HW1 4601   6.487   3.953   4.522
 1234SOL    HW2 4602   6.440   3.996   4.673
 1235SOL     OW 4603   6.981   6.046   2.433
 1235SOL    HW1 4604   0.006   5.960   2.435
 1235SOL    HW2 4605   0.011   6.119   2.473
 1236SOL     OW 4606   5.574   0.983   6.798
 1236SOL    HW1 4607   5.582   1.011   6.894
 1236SOL    HW2 4608   5.516   1.047   6.749
 1237SOL     OW 4609   2.732   5.148   6.725
 1237SOL    HW1 4610   2.738   5.093   6.641
 1237SOL    HW2 4611   2.793   5.227   6.717
 1238SOL     OW 4612   1.826   1.136   0.991
 1238SOL    HW1 4613   1.906   1.164   0.938
 1238SOL    HW2 4614   1.780   1.060   0.945
 1239SOL     OW 4615   6.945   6.133   6.441
 1239SOL    HW1 4616   6.879   6.187   6.389
 1239SOL    HW2 4617   6.918   6.133   6.538
 1240SOL     OW 4618   5.653   5.900   1.897
 1240SOL    HW1 4619   5.709   5.965   1.948
 1240SOL    HW2 4620   5.618   5.943   1.814
 1241SOL     OW 4621   6.631   3.128   4.179
 1241SOL    HW1 4622   6.597   3.098   4.268
 1241SOL    HW2 4623   6.655   3.225   4.183
 1242SOL     OW 4624   1.803   3.618   0.722
 1242SOL    HW1 4625   1.782   3.599   0.818
 1242SOL    HW2 4626   1.816   3.716   0.709
 1243SOL     OW 4627   1.349   6.096   5.537
 1243SOL    HW1 4628   1.432   6.073   5.587
 1243SOL    HW2 4629   1.305   6.012   5.504
 1244SOL     OW 4630   0.249   6.333   2.771
 1244SOL    HW1 4631   0.178   6.345   2.840
 1244SOL    HW2 4632   0.339   6.332   2.816
 1245SOL     OW 4633   4.144   3.879   6.235
 1245SOL    HW1 4634   4.131   3.798   6.178
 1245SOL    HW2 4635   4.231   3.871   6.284
 1246SOL     OW 4636   2.214   6.783   2.070
 1246SOL    HW1 4637   2.174   6.749   1.985
 1246SOL    HW2 4638   2.157   6.752   2.147
 1247SOL     OW 4639   2.933   0.302   6.674
 1247SOL    HW1 4640   2.930   0.273   6.579
 1247SOL    HW2 4641   3.018   0.271   6.716
 1248SOL     OW 4642   1.848   6.934   4.098
 1248SOL    HW1 4643   1.905   6.943   4.180
 1248SOL    HW2 4644   1.754   6.913   4.125
 1249SOL     OW 4645   5.505   2.839   2.268
 1249SOL    HW1 4646   5.409   2.828   2.243
 1249SOL    HW2 4647   5.514   2.834   2.367
 1250SOL     OW 4648   0.581   4.499   4.525
 1250SOL    HW1 4649   0.596   4.500   4.426
 1250SOL    HW2 4650   0.483   4.496   4.544
 1251SOL     OW 4651   4.173   0.296   4.880
 1251SOL    HW1 4652   4.209   0.203   4.892
 1251SOL    HW2 4653   4.139   0.306   4.786
 1252SOL     OW 4654   3.570   3.641   5.803
 1252SOL    HW1 4655   3.608   3.667   5.714
 1252SOL    HW2 4656   3.617   3.692   5.875
 1253SOL     OW 4657   3.849   5.771   1.568
 1253SOL    HW1 4658   3.787   5.776   1.645
 1253SOL    HW2 4659   3.834   5.685   1.519
 1254SOL     OW 4660   6.277   2.917   2.516
 1254SOL    HW1 4661   6.256   2.819   2.515
 1254SOL    HW2 4662   6.193   2.969   2.528
 1255SOL     OW 4663   6.699   0.929   4.991
 1255SOL    HW1 4664   6.773   0.866   4.967
 1255SOL    HW2 4665   6.621   0.914   4.929
 1256SOL     OW 4666   0.026   0.045   2.864
 1256SOL    HW1 4667   6.968   0.077   2.908
 1256SOL    HW2 4668   0.102   0.103   2.893
 1257SOL     OW 4669   0.554   0.062   3.504
 1257SOL    HW1 4670   0.531   0.159   3.504
 1257SOL    HW2 4671   0.474   0.009   3.474
 1258SOL     OW 4672   0.681   5.521   3.415
 1258SOL    HW1 4673   0.729   5.433   3.414
 1258SOL    HW2 4674   0.636   5.534   3.503
 1259SOL     OW 4675   3.810   1.857   4.650
 1259SOL    HW1 4676   3.906   1.828   4.649
 1259SOL    HW2 4677   3.804   1.956   4.662
 1260SOL     OW 4678   0.863   1.655   0.089
 1260SOL    HW1 4679   0.807   1.618   0.015
 1260SOL    HW2 4680   0.949   1.605   0.095
 1261SOL     OW 4681   0.025   5.530   0.132
 1261SOL    HW1 4682   0.062   5.477   0.056
 1261SOL    HW2 4683   6.959   5.562   0.108
 1262SOL     OW 4684   5.412   5.558   2.150
 1262SOL    HW1 4685   5.364   5.614   2.082
 1262SOL    HW2 4686   5.497   5.602   2.175
 1263SOL     OW 4687   0.651   1.621   2.394
 1263SOL    HW1 4688   0.702   1.599   2.477
 1263SOL    HW2 4689   0.659   1.718   2.374
 1264SOL     OW 4690   1.126   3.778   5.612
 1264SOL    HW1 4691   1.030   3.799   5.630
 1264SOL    HW2 4692   1.159   3.833   5.535
 1265SOL     OW 4693   6.527   5.502   4.476
 1265SOL    HW1 4694   6.519   5.478   4.573
 1265SOL    HW2 4695   6.561   5.423   4.425
 1266SOL     OW 4696   0.814   0.865   4.405
 1266SOL    HW1 4697   0.877   0.792   4.428
 1266SOL    HW2 4698   0.753   0.883   4.483
 1267SOL     OW 4699   5.154   0.263   2.019
 1267SOL    HW1 4700   5.225   0.217   2.072
 1267SOL    HW2 4701   5.096   0.317   2.080
 1268SOL     OW 4702   4.226   2.406   5.580
 1268SOL    HW1 4703   4.258   2.374   5.669
 1268SOL    HW2 4704   4.161   2.481   5.592
 1269SOL     OW 4705   5.149   2.527   4.473
 1269SOL    HW1 4706   5.105   2.456   4.528
 1269SOL    HW2 4707   5.099   2.612   4.482
 1270SOL     OW 4708   2.082   4.744   2.496
 1270SOL    HW1 4709   2.173   4.782   2.516
 1270SOL    HW2 4710   2.072   4.733   2.397
 1271SOL     OW 4711   1.678   0.866   1.079
 1271SOL    HW1 4712   1.599   0.902   1.129
 1271SOL    HW2 4713   1.706   0.779   1.120
 1272SOL     OW 4714   6.548   3.514   6.713
 1272SOL    HW1 4715   6.477   3.573   6.674
 1272SOL    HW2 4716   6.511   3.468   6.795
 1273SOL     OW 4717   1.245   4.340   4.655
 1273SOL    HW1 4718   1.315   4.286   4.609
 1273SOL    HW2 4719   1.214   4.293   4.737
 1274SOL     OW 4720   0.483   4.624   1.871
 1274SOL    HW1 4721   0.566   4.605   1.925
 1274SOL    HW2 4722   0.437   4.538   1.850
 1275SOL     OW 4723   3.047   0.815   3.931
 1275SOL    HW1 4724   3.029   0.910   3.905
 1275SOL    HW2 4725   2.960   0.769   3.948
 1276SOL     OW 4726   5.561   4.549   3.963
 1276SOL    HW1 4727   5.495   4.476   3.943
 1276SOL    HW2 4728   5.585   4.546   4.060
 1277SOL     OW 4729   0.912   5.672   0.067
 1277SOL    HW1 4730   0.895   5.658   0.165
 1277SOL    HW2 4731   0.826   5.667   0.018
 1278SOL     OW 4732   1.599   6.999   3.395
 1278SOL    HW1 4733   1.619   6.910   3.355
 1278SOL    HW2 4734   1.536   6.987   3.472
 1279SOL     OW 4735   2.783   3.839   5.917
 1279SOL    HW1 4736   2.855   3.770   5.904
 1279SOL    HW2 4737   2.807   3.922   5.865
 1280SOL     OW 4738   3.558   1.163   4.150
 1280SOL    HW1 4739   3.498   1.183   4.072
 1280SOL    HW2 4740   3.510   1.186   4.234
 1281SOL     OW 4741   3.260   6.130   3.860
 1281SOL    HW1 4742   3.360   6.137   3.859
 1281SOL    HW2 4743   3.232   6.064   3.929
 1282SOL     OW 4744   6.487   3.053   0.726
 1282SOL    HW1 4745   6.441   3.103   0.653
 1282SOL    HW2 4746   6.522   2.966   0.690
 1283SOL     OW 4747   6.177   3.886   5.163
 1283SOL    HW1 4748   6.259   3.861   5.215
 1283SOL    HW2 4749   6.171   3.828   5.082
 1284SOL     OW 4750   3.971   0.976   1.209
 1284SOL    HW1 4751   4.003   0.883   1.228
 1284SOL    HW2 4752   4.038   1.041   1.244
 1285SOL     OW 4753   3.616   1.422   4.861
 1285SOL    HW1 4754   3.589   1.516   4.882
 1285SOL    HW2 4755   3.680   1.390   4.930
 1286SOL     OW 4756   4.994   3.043   1.638
 1286SOL    HW1 4757   4.997   2.971   1.568
 1286SOL    HW2 4758   4.900   3.054   1.669
 1287SOL     OW 4759   5.705   4.821   4.997
 1287SOL    HW1 4760   5.624   4.791   4.946
 1287SOL    HW2 4761   5.715   4.766   5.080
 1288SOL     OW 4762   4.511   4.504   6.553
 1288SOL    HW1 4763   4.572   4.560   6.610
 1288SOL    HW2 4764   4.518   4.533   6.458
 1289SOL     OW 4765   6.811   0.649   1.488
 1289SOL    HW1 4766   6.716   0.621   1.500
 1289SOL    HW2 4767   6.814   0.735   1.438
 1290SOL     OW 4768   1.521   0.565   0.407
 1290SOL    HW1 4769   1.578   0.631   0.455
 1290SOL    HW2 4770   1.575   0.484   0.384
 1291SOL     OW 4771   6.369   5.062   4.138
 1291SOL    HW1 4772   6.460   5.025   4.155
 1291SOL    HW2 4773   6.307   4.989   4.110
 1292SOL     OW 4774   0.114   5.494   2.618
 1292SOL    HW1 4775   0.019   5.521   2.635
 1292SOL    HW2 4776   0.116   5.410   2.564
 1293SOL     OW 4777   2.239   1.775   6.840
 1293SOL    HW1 4778   2.248   1.848   6.908
 1293SOL    HW2 4779   2.322   1.719   6.840
 1294SOL     OW 4780   1.927   4.696   6.495
 1294SOL    HW1 4781   1.955   4.699   6.591
 1294SOL    HW2 4782   2.004   4.665   6.439
 1295SOL     OW 4783   0.438   3.861   1.196
 1295SOL    HW1 4784   0.344   3.890   1.211
 1295SOL    HW2 4785   0.447   3.763   1.216
 1296SOL     OW 4786   5.061   6.982   5.696
 1296SOL    HW1 4787   5.009   6.904   5.660
 1296SOL    HW2 4788   5.074   6.971   5.794
 1297SOL     OW 4789   0.901   6.896   2.425
 1297SOL    HW1 4790   0.936   6.945   2.345
 1297SOL    HW2 4791   0.873   6.804   2.398
 1298SOL     OW 4792   5.495   6.054   3.090
 1298SOL    HW1 4793   5.441   6.135   3.066
 1298SOL    HW2 4794   5.582   6.083   3.130
 1299SOL     OW 4795   2.169   3.165   4.304
 1299SOL    HW1 4796   2.168   3.096   4.233
 1299SOL    HW2 4797   2.198   3.124   4.391
 1300SOL     OW 4798   2.062   3.496   0.936
 1300SOL    HW1 4799   1.967   3.467   0.930
 1300SOL    HW2 4800   2.122   3.420   0.909
 1301SOL     OW 4801   0.692   0.695   1.619
 1301SOL    HW1 4802   0.635   0.614   1.609
 1301SOL    HW2 4803   0.699   0.721   1.715
 1302SOL     OW 4804   5.663   0.631   5.538
 1302SOL    HW1 4805   5.594   0.632   5.466
 1302SOL    HW2 4806   5.701   0.722   5.550
 1303SOL     OW 4807   3.794   6.847   1.730
 1303SOL    HW1 4808   3.828   6.859   1.637
 1303SOL    HW2 4809   3.865   6.872   1.795
 1304SOL     OW 4810   1.101   1.339   1.031
 1304SOL    HW1 4811   1.027   1.358   1.096
 1304SOL    HW2 4812   1.174   1.290   1.078
 1305SOL     OW 4813   5.032   4.258   5.997
 1305SOL    HW1 4814   5.109   4.278   5.937
 1305SOL    HW2 4815   5.041   4.310   6.082
 1306SOL     OW 4816   1.088   6.014   4.913
 1306SOL    HW1 4817   1.070   6.110   4.932
 1306SOL    HW2 4818   1.105   6.002   4.815
 1307SOL     OW 4819   1.886   3.114   4.082
 1307SOL    HW1 4820   1.970   3.164   4.059
 1307SOL    HW2 4821   1.853   3.144   4.171
 1308SOL     OW 4822   6.220   5.922   6.597
 1308SOL    HW1 4823   6.151   5.983   6.559
 1308SOL    HW2 4824   6.184   5.829   6.603
 1309SOL     OW 4825   5.135   4.833   5.942
 1309SOL    HW1 4826   5.124   4.902   5.871
 1309SOL    HW2 4827   5.213   4.857   6.000
 1310SOL     OW 4828   0.596   3.651   3.886
 1310SOL    HW1 4829   0.561   3.584   3.820
 1310SOL    HW2 4830   0.689   3.625   3.912
 1311SOL     OW 4831   6.356   5.508   0.010
 1311SOL    HW1 4832   6.323   5.428   0.059
 1311SOL    HW2 4833   6.282   5.545   6.979
 1312SOL     OW 4834   1.062   1.074   5.746
 1312SOL    HW1 4835   1.024   1.044   5.833
 1312SOL    HW2 4836   1.161   1.078   5.753
 1313SOL     OW 4837   6.024   5.519   3.152
 1313SOL    HW1 4838   6.115   5.523   3.109
 1313SOL    HW2 4839   5.999   5.424   3.169
 1314SOL     OW 4840   3.096   1.786   4.453
 1314SOL    HW1 4841   3.130   1.693   4.466
 1314SOL    HW2 4842   3.049   1.816   4.536
 1315SOL     OW 4843   6.725   0.630   3.660
 1315SOL    HW1 4844   6.789   0.707   3.663
 1315SOL    HW2 4845   6.732   0.578   3.745
 1316SOL     OW 4846   4.063   0.020   5.702
 1316SOL    HW1 4847   3.990   0.018   5.634
 1316SOL    HW2 4848   4.034   0.074   5.781
 1317SOL     OW 4849   2.043   4.309   5.650
 1317SOL    HW1 4850   2.104   4.293   5.572
 1317SOL    HW2 4851   1.955   4.341   5.616
 1318SOL     OW 4852   2.167   3.165   6.783
 1318SOL    HW1 4853   2.073   3.146   6.813
 1318SOL    HW2 4854   2.186   3.113   6.700
 1319SOL     OW 4855   7.019   5.863   0.128
 1319SOL    HW1 4856   6.971   5.948   0.107
 1319SOL    HW2 4857   7.019   5.804   0.047
 1320SOL     OW 4858   3.205   2.794   6.603
 1320SOL    HW1 4859   3.167   2.808   6.694
 1320SOL    HW2 4860   3.279   2.727   6.607
 1321SOL     OW 4861   4.936   1.997   7.010
 1321SOL    HW1 4862   5.015   1.966   6.958
 1321SOL    HW2 4863   4.962   2.073   0.043
 1322SOL     OW 4864   3.254   1.208   5.503
 1322SOL    HW1 4865   3.351   1.196   5.523
 1322SOL    HW2 4866   3.227   1.144   5.431
 1323SOL     OW 4867   3.436   6.903   0.592
 1323SOL    HW1 4868   3.439   6.846   0.510
 1323SOL    HW2 4869   3.383   6.858   0.663
 1324SOL     OW 4870   1.422   3.770   0.322
 1324SOL    HW1 4871   1.401   3.808   0.412
 1324SOL    HW2 4872   1.406   3.671   0.323
 1325SOL     OW 4873   2.980   5.945   5.609
 1325SOL    HW1 4874   2.992   5.906   5.700
 1325SOL    HW2 4875   3.068   5.947   5.561
 1326SOL     OW 4876   4.677   4.448   4.989
 1326SOL    HW1 4877   4.768   4.488   4.982
 1326SOL    HW2 4878   4.675   4.360   4.942
 1327SOL     OW 4879   0.177   0.021   1.295
 1327SOL    HW1 4880   0.176   0.047   1.198
 1327SOL    HW2 4881   0.228   6.962   1.307
 1328SOL     OW 4882   1.153   2.960   6.110
 1328SOL    HW1 4883   1.140   2.958   6.209
 1328SOL    HW2 4884   1.154   3.055   6.079
 1329SOL     OW 4885   0.468   1.501   2.758
 1329SOL    HW1 4886   0.470   1.589   2.805
 1329SOL    HW2 4887   0.384   1.492   2.706
 1330SOL     OW 4888   0.165   2.030   0.835
 1330SOL    HW1 4889   0.186   1.955   0.772
 1330SOL    HW2 4890   0.172   1.998   0.929
 1331SOL     OW 4891   4.533   2.005   2.666
 1331SOL    HW1 4892   4.487   1.950   2.736
 1331SOL    HW2 4893   4.531   2.101   2.693
 1332SOL     OW 4894   1.929   0.523   0.532
 1332SOL    HW1 4895   1.888   0.474   0.610
 1332SOL    HW2 4896   1.962   0.612   0.563
 1333SOL     OW 4897   3.453   4.006   3.149
 1333SOL    HW1 4898   3.430   3.980   3.055
 1333SOL    HW2 4899   3.546   4.043   3.151
 1334SOL     OW 4900   6.920   1.768   3.076
 1334SOL    HW1 4901   6.864   1.708   3.020
 1334SOL    HW2 4902   6.952   1.845   3.021
 1335SOL     OW 4903   1.661   3.087   1.409
 1335SOL    HW1 4904   1.739   3.149   1.409
 1335SOL    HW2 4905   1.692   2.994   1.424
 1336SOL     OW 4906   3.948   1.340   5.440
 1336SOL    HW1 4907   3.915   1.339   5.535
 1336SOL    HW2 4908   3.872   1.323   5.378
 1337SOL     OW 4909   6.938   1.185   2.989
 1337SOL    HW1 4910   6.849   1.203   2.948
 1337SOL    HW2 4911   6.974   1.098   2.954
 1338SOL     OW 4912   6.107   4.061   3.936
 1338SOL    HW1 4913   6.157   4.007   3.868
 1338SOL    HW2 4914   6.144   4.154   3.939
 1339SOL     OW 4915   0.340   0.386   0.020
 1339SOL    HW1 4916   0.276   0.326   0.067
 1339SOL    HW2 4917   0.301   0.478   0.014
 1340SOL     OW 4918   4.659   1.710   2.273
 1340SOL    HW1 4919   4.653   1.791   2.332
 1340SOL    HW2 4920   4.650   1.738   2.177
 1341SOL     OW 4921   4.633   6.316   0.458
 1341SOL    HW1 4922   4.710   6.328   0.396
 1341SOL    HW2 4923   4.660   6.339   0.551
 1342SOL     OW 4924   3.023   5.745   0.542
 1342SOL    HW1 4925   3.121   5.722   0.539
 1342SOL    HW2 4926   2.970   5.662   0.555
 1343SOL     OW 4927   5.992   5.257   3.194
 1343SOL    HW1 4928   6.020   5.249   3.098
 1343SOL    HW2 4929   5.940   5.175   3.220
 1344SOL     OW 4930   0.572   6.390   4.306
 1344SOL    HW1 4931   0.583   6.334   4.224
 1344SOL    HW2 4932   0.498   6.353   4.363
 1345SOL     OW 4933   0.646   5.054   2.251
 1345SOL    HW1 4934   0.579   5.022   2.185
 1345SOL    HW2 4935   0.737   5.051   2.211
 1346SOL     OW 4936   2.033   5.253   5.998
 1346SOL    HW1 4937   1.996   5.345   5.983
 1346SOL    HW2 4938   2.118   5.242   5.947
 1347SOL     OW 4939   1.633   0.389   5.647
 1347SOL    HW1 4940   1.721   0.435   5.645
 1347SOL    HW2 4941   1.603   0.377   5.742
 1348SOL     OW 4942   0.441   5.830   5.522
 1348SOL    HW1 4943   0.537   5.822   5.497
 1348SOL    HW2 4944   0.426   5.916   5.572
 1349SOL     OW 4945   5.498   2.710   4.050
 1349SOL    HW1 4946   5.421   2.670   4.001
 1349SOL    HW2 4947   5.530   2.791   4.001
 1350SOL     OW 4948   3.778   4.414   0.397
 1350SOL    HW1 4949   3.804   4.321   0.422
 1350SOL    HW2 4950   3.861   4.466   0.373
 1351SOL     OW 4951   6.234   1.718   3.776
 1351SOL    HW1 4952   6.332   1.732   3.761
 1351SOL    HW2 4953   6.182   1.754   3.699
 1352SOL     OW 4954   0.207   0.192   1.992
 1352SOL    HW1 4955   0.125   0.146   2.026
 1352SOL    HW2 4956   0.258   0.230   2.070
 1353SOL     OW 4957   0.595   2.069   0.718
 1353SOL    HW1 4958   0.498   2.070   0.693
 1353SOL    HW2 4959   0.630   1.976   0.708
 1354SOL     OW 4960   6.947   3.923   2.085
 1354SOL    HW1 4961   6.932   4.020   2.066
 1354SOL    HW2 4962   6.942   3.908   2.184
 1355SOL     OW 4963   6.242   3.618   4.146
 1355SOL    HW1 4964   6.201   3.602   4.056
 1355SOL    HW2 4965   6.314   3.688   4.138
 1356SOL     OW 4966   3.708   3.032   2.362
 1356SOL    HW1 4967   3.639   3.102   2.383
 1356SOL    HW2 4968   3.773   3.025   2.437
 1357SOL     OW 4969   6.861   3.579   6.193
 1357SOL    HW1 4970   6.865   3.671   6.154
 1357SOL    HW2 4971   6.952   3.539   6.190
 1358SOL     OW 4972   6.452   0.010   0.095
 1358SOL    HW1 4973   6.355   0.029   0.106
 1358SOL    HW2 4974   6.465   6.961   0.030
 1359SOL     OW 4975   6.153   4.618   1.499
 1359SOL    HW1 4976   6.199   4.698   1.537
 1359SOL    HW2 4977   6.135   4.632   1.402
 1360SOL     OW 4978   3.406   3.368   0.033
 1360SOL    HW1 4979   3.466   3.410   6.991
 1360SOL    HW2 4980   3.374   3.438   0.098
 1361SOL     OW 4981   0.143   4.921   5.168
 1361SOL    HW1 4982   0.186   4.995   5.220
 1361SOL    HW2 4983   0.123   4.844   5.229
 1362SOL     OW 4984   4.054   3.291   2.757
 1362SOL    HW1 4985   4.103   3.377   2.741
 1362SOL    HW2 4986   4.095   3.219   2.701
 1363SOL     OW 4987   0.016   5.539   5.156
 1363SOL    HW1 4988   0.013   5.486   5.241
 1363SOL    HW2 4989   0.041   5.479   5.080
 1364SOL     OW 4990   4.066   4.800   6.345
 1364SOL    HW1 4991   4.121   4.722   6.375
 1364SOL    HW2 4992   4.127   4.871   6.308
 1365SOL     OW 4993   0.816   4.383   6.257
 1365SOL    HW1 4994   0.791   4.476   6.230
 1365SOL    HW2 4995   0.893   4.386   6.320
 1366SOL     OW 4996   1.700   0.189   5.124
 1366SOL    HW1 4997   1.700   0.113   5.189
 1366SOL    HW2 4998   1.669   0.272   5.171
 1367SOL     OW 4999   1.594   1.890   2.627
 1367SOL    HW1 5000   1.647   1.956   2.574
 1367SOL    HW2 5001   1.501   1.887   2.592
 1368SOL     OW 5002   5.617   6.805   4.367
 1368SOL    HW1 5003   5.602   6.714   4.328
 1368SOL    HW2 5004   5.530   6.842   4.400
 1369SOL     OW 5005   0.910   6.282   3.137
 1369SOL    HW1 5006   0.941   6.287   3.042
 1369SOL    HW2 5007   0.990   6.283   3.198
 1370SOL     OW 5008   3.157   0.539   1.580
 1370SOL    HW1 5009   3.203   0.620   1.617
 1370SOL    HW2 5010   3.079   0.567   1.525
 1371SOL     OW 5011   4.382   0.504   5.811
 1371SOL    HW1 5012   4.337   0.590   5.787
 1371SOL    HW2 5013   4.384   0.494   5.911
 1372SOL     OW 5014   2.282   2.488   1.055
 1372SOL    HW1 5015   2.203   2.486   1.117
 1372SOL    HW2 5016   2.305   2.582   1.033
 1373SOL     OW 5017   0.019   4.924   1.042
 1373SOL    HW1 5018   0.045   5.004   1.096
 1373SOL    HW2 5019   6.953   4.894   1.067
 1374SOL     OW 5020   4.136   2.197   0.937
 1374SOL    HW1 5021   4.050   2.248   0.946
 1374SOL    HW2 5022   4.156   2.181   0.840
 1375SOL     OW 5023   6.879   5.009   5.862
 1375SOL    HW1 5024   6.976   5.032   5.852
 1375SOL    HW2 5025   6.823   5.074   5.810
 1376SOL     OW 5026   4.792   2.782   3.737
 1376SOL    HW1 5027   4.756   2.813   3.824
 1376SOL    HW2 5028   4.883   2.743   3.750
 1377SOL     OW 5029   0.315   4.809   5.463
 1377SOL    HW1 5030   0.310   4.908   5.453
 1377SOL    HW2 5031   0.374   4.771   5.392
 1378SOL     OW 5032   0.987   2.555   6.734
 1378SOL    HW1 5033   1.004   2.463   6.699
 1378SOL    HW2 5034   0.943   2.549   6.823
 1379SOL     OW 5035   3.389   5.905   3.126
 1379SOL    HW1 5036   3.293   5.926   3.107
 1379SOL    HW2 5037   3.444   5.987   3.116
 1380SOL     OW 5038   6.574   6.947   2.691
 1380SOL    HW1 5039   6.669   6.945   2.662
 1380SOL    HW2 5040   6.569   6.955   2.790
 1381SOL     OW 5041   6.048   2.812   0.250
 1381SOL    HW1 5042   6.040   2.782   0.155
 1381SOL    HW2 5043   6.126   2.874   0.259
 1382SOL     OW 5044   5.811   4.945   6.280
 1382SOL    HW1 5045   5.829   4.861   6.228
 1382SOL    HW2 5046   5.780   5.017   6.217
 1383SOL     OW 5047   1.057   0.552   0.245
 1383SOL    HW1 5048   0.978   0.531   0.302
 1383SOL    HW2 5049   1.128   0.594   0.301
 1384SOL     OW 5050   4.077   1.304   3.183
 1384SOL    HW1 5051   4.048   1.365   3.109
 1384SOL    HW2 5052   4.024   1.219   3.179
 1385SOL     OW 5053   6.323   2.795   2.909
 1385SOL    HW1 5054   6.395   2.837   2.852
 1385SOL    HW2 5055   6.266   2.736   2.852
 1386SOL     OW 5056   2.204   3.032   4.523
 1386SOL    HW1 5057   2.230   2.950   4.473
 1386SOL    HW2 5058   2.207   3.014   4.621
 1387SOL     OW 5059   3.526   0.449   5.119
 1387SOL    HW1 5060   3.580   0.397   5.184
 1387SOL    HW2 5061   3.443   0.483   5.163
 1388SOL     OW 5062   6.363   0.827   4.111
 1388SOL    HW1 5063   6.401   0.791   4.026
 1388SOL    HW2 5064   6.323   0.753   4.165
 1389SOL     OW 5065   5.737   0.029   4.717
 1389SOL    HW1 5066   5.668   0.061   4.782
 1389SOL    HW2 5067   5.824   0.015   4.763
 1390SOL     OW 5068   4.162   1.572   1.733
 1390SOL    HW1 5069   4.077   1.523   1.756
 1390SOL    HW2 5070   4.210   1.595   1.818
 1391SOL     OW 5071   5.943   0.715   4.635
 1391SOL    HW1 5072   5.950   0.795   4.575
 1391SOL    HW2 5073   5.885   0.737   4.713
 1392SOL     OW 5074   5.007   5.707   6.809
 1392SOL    HW1 5075   4.911   5.731   6.795
 1392SOL    HW2 5076   5.012   5.624   6.865
 1393SOL     OW 5077   6.542   1.325   6.108
 1393SOL    HW1 5078   6.493   1.290   6.027
 1393SOL    HW2 5079   6.621   1.268   6.126
 1394SOL     OW 5080   4.063   6.998   3.499
 1394SOL    HW1 5081   4.155   6.964   3.479
 1394SOL    HW2 5082   4.061   0.072   3.490
 1395SOL     OW 5083   1.661   4.873   2.867
 1395SOL    HW1 5084   1.714   4.851   2.785
 1395SOL    HW2 5085   1.685   4.809   2.940
 1396SOL     OW 5086   2.638   0.990   4.673
 1396SOL    HW1 5087   2.736   0.998   4.654
 1396SOL    HW2 5088   2.624   0.980   4.772
 1397SOL     OW 5089   0.553   5.324   3.973
 1397SOL    HW1 5090   0.630   5.299   4.031
 1397SOL    HW2 5091   0.468   5.296   4.017
 1398SOL     OW 5092   0.901   1.513   0.861
 1398SOL    HW1 5093   0.985   1.490   0.813
 1398SOL    HW2 5094   0.882   1.445   0.932
 1399SOL     OW 5095   3.682   0.450   0.693
 1399SOL    HW1 5096   3.621   0.379   0.656
 1399SOL    HW2 5097   3.694   0.435   0.791
 1400SOL     OW 5098   6.214   0.324   4.215
 1400SOL    HW1 5099   6.151   0.290   4.285
 1400SOL    HW2 5100   6.178   0.303   4.124
 1401SOL     OW 5101   5.699   0.287   2.961
 1401SOL    HW1 5102   5.677   0.383   2.977
 1401SOL    HW2 5103   5.779   0.262   3.016
 1402SOL     OW 5104   5.753   3.826   1.647
 1402SOL    HW1 5105   5.798   3.738   1.658
 1402SOL    HW2 5106   5.808   3.885   1.587
 1403SOL     OW 5107   3.637   2.830   6.940
 1403SOL    HW1 5108   3.541   2.848   6.960
 1403SOL    HW2 5109   3.693   2.856   7.019
 1404SOL     OW 5110   4.437   6.785   1.046
 1404SOL    HW1 5111   4.382   6.729   1.108
 1404SOL    HW2 5112   4.426   6.882   1.070
 1405SOL     OW 5113   2.444   3.015   1.360
 1405SOL    HW1 5114   2.481   2.931   1.400
 1405SOL    HW2 5115   2.514   3.085   1.358
 1406SOL     OW 5116   2.802   3.556   1.182
 1406SOL    HW1 5117   2.713   3.557   1.229
 1406SOL    HW2 5118   2.875   3.541   1.248
 1407SOL     OW 5119   0.191   3.263   0.974
 1407SOL    HW1 5120   0.106   3.255   0.921
 1407SOL    HW2 5121   0.264   3.296   0.915
 1408SOL     OW 5122   5.773   5.871   6.548
 1408SOL    HW1 5123   5.776   5.968   6.572
 1408SOL    HW2 5124   5.782   5.861   6.449
 1409SOL     OW 5125   0.071   1.264   5.945
 1409SOL    HW1 5126   0.077   1.236   6.041
 1409SOL    HW2 5127   0.036   1.357   5.941
 1410SOL     OW 5128   3.559   2.131   6.167
 1410SOL    HW1 5129   3.570   2.119   6.068
 1410SOL    HW2 5130   3.641   2.173   6.205
 1411SOL     OW 5131   4.128   5.823   0.784
 1411SOL    HW1 5132   4.099   5.869   0.700
 1411SOL    HW2 5133   4.104   5.726   0.780
 1412SOL     OW 5134   1.818   2.613   0.626
 1412SOL    HW1 5135   1.722   2.626   0.654
 1412SOL    HW2 5136   1.823   2.539   0.560
 1413SOL     OW 5137   1.780   1.514   4.681
 1413SOL    HW1 5138   1.766   1.495   4.779
 1413SOL    HW2 5139   1.853   1.455   4.647
 1414SOL     OW 5140   1.291   3.856   2.061
 1414SOL    HW1 5141   1.242   3.920   2.121
 1414SOL    HW2 5142   1.288   3.764   2.100
 1415SOL     OW 5143   1.736   1.974   3.839
 1415SOL    HW1 5144   1.835   1.965   3.828
 1415SOL    HW2 5145   1.713   2.069   3.860
 1416SOL     OW 5146   4.286   6.938   5.423
 1416SOL    HW1 5147   4.218   6.883   5.471
 1416SOL    HW2 5148   4.301   7.024   5.472
 1417SOL     OW 5149   3.892   3.003   5.959
 1417SOL    HW1 5150   3.798   3.006   5.925
 1417SOL    HW2 5151   3.928   3.096   5.966
 1418SOL     OW 5152   3.703   4.251   6.591
 1418SOL    HW1 5153   3.643   4.181   6.551
 1418SOL    HW2 5154   3.712   4.234   6.689
 1419SOL     OW 5155   2.159   4.694   3.509
 1419SOL    HW1 5156   2.060   4.705   3.502
 1419SOL    HW2 5157   2.186   4.611   3.461
 1420SOL     OW 5158   3.518   5.668   3.197
 1420SOL    HW1 5159   3.444   5.609   3.230
 1420SOL    HW2 5160   3.478   5.750   3.154
 1421SOL     OW 5161   1.538   5.395   5.890
 1421SOL    HW1 5162   1.585   5.394   5.978
 1421SOL    HW2 5163   1.447   5.355   5.900
 1422SOL     OW 5164   2.340   3.513   5.794
 1422SOL    HW1 5165   2.243   3.497   5.776
 1422SOL    HW2 5166   2.376   3.577   5.726
 1423SOL     OW 5167   4.633   1.245   4.822
 1423SOL    HW1 5168   4.565   1.185   4.864
 1423SOL    HW2 5169   4.721   1.232   4.868
 1424SOL     OW 5170   5.676   2.723   6.751
 1424SOL    HW1 5171   5.713   2.815   6.735
 1424SOL    HW2 5172   5.752   2.660   6.766
 1425SOL     OW 5173   4.351   6.444   3.474
 1425SOL    HW1 5174   4.266   6.497   3.475
 1425SOL    HW2 5175   4.332   6.349   3.500
 1426SOL     OW 5176   2.983   2.374   6.645
 1426SOL    HW1 5177   3.036   2.434   6.585
 1426SOL    HW2 5178   2.920   2.428   6.700
 1427SOL     OW 5179   1.557   1.298   3.231
 1427SOL    HW1 5180   1.607   1.220   3.194
 1427SOL    HW2 5181   1.580   1.381   3.180
 1428SOL     OW 5182   6.999   3.739   3.699
 1428SOL    HW1 5183   6.971   3.771   3.789
 1428SOL    HW2 5184   7.000   3.639   3.697
 1429SOL     OW 5185   5.822   0.791   0.703
 1429SOL    HW1 5186   5.905   0.801   0.648
 1429SOL    HW2 5187   5.775   0.707   0.677
 1430SOL     OW 5188   2.094   3.718   3.411
 1430SOL    HW1 5189   2.033   3.787   3.450
 1430SOL    HW2 5190   2.163   3.762   3.354
 1431SOL     OW 5191   2.111   1.689   5.674
 1431SOL    HW1 5192   2.021   1.732   5.678
 1431SOL    HW2 5193   2.110   1.606   5.730
 1432SOL     OW 5194   2.895   1.830   2.227
 1432SOL    HW1 5195   2.883   1.826   2.127
 1432SOL    HW2 5196   2.977   1.780   2.253
 1433SOL     OW 5197   2.912   0.017   4.424
 1433SOL    HW1 5198   2.985   0.017   4.493
 1433SOL    HW2 5199   2.905   6.952   4.383
 1434SOL     OW 5200   0.200   3.330   0.068
 1434SOL    HW1 5201   0.211   3.281   7.008
 1434SOL    HW2 5202   0.212   3.428   0.052
 1435SOL     OW 5203   0.906   0.150   4.614
 1435SOL    HW1 5204   0.954   0.126   4.529
 1435SOL    HW2 5205   0.918   0.076   4.681
 1436SOL     OW 5206   5.657   1.673   0.993
 1436SOL    HW1 5207   5.733   1.660   0.929
 1436SOL    HW2 5208   5.692   1.677   1.086
 1437SOL     OW 5209   4.662   0.382   5.942
 1437SOL    HW1 5210   4.736   0.335   5.991
 1437SOL    HW2 5211   4.687   0.478   5.930
 1438SOL     OW 5212   2.706   0.523   1.599
 1438SOL    HW1 5213   2.764   0.601   1.622
 1438SOL    HW2 5214   2.736   0.443   1.650
 1439SOL     OW 5215   7.016   5.018   0.088
 1439SOL    HW1 5216   6.962   4.978   0.013
 1439SOL    HW2 5217   6.954   5.055   0.158
 1440SOL     OW 5218   2.894   3.464   3.156
 1440SOL    HW1 5219   2.926   3.559   3.159
 1440SOL    HW2 5220   2.905   3.427   3.064
 1441SOL     OW 5221   6.872   2.501   3.461
 1441SOL    HW1 5222   6.854   2.598   3.476
 1441SOL    HW2 5223   6.955   2.475   3.510
 1442SOL     OW 5224   4.924   4.436   0.709
 1442SOL    HW1 5225   4.889   4.430   0.616
 1442SOL    HW2 5226   4.942   4.531   0.733
 1443SOL     OW 5227   0.879   2.072   3.407
 1443SOL    HW1 5228   0.909   2.072   3.312
 1443SOL    HW2 5229   0.924   2.146   3.457
 1444SOL     OW 5230   4.231   0.806   3.430
 1444SOL    HW1 5231   4.132   0.821   3.435
 1444SOL    HW2 5232   4.271   0.873   3.367
 1445SOL     OW 5233   6.324   2.839   1.881
 1445SOL    HW1 5234   6.256   2.806   1.816
 1445SOL    HW2 5235   6.385   2.903   1.834
 1446SOL     OW 5236   3.608   1.527   1.558
 1446SOL    HW1 5237   3.526   1.472   1.538
 1446SOL    HW2 5238   3.604   1.560   1.652
 1447SOL     OW 5239   6.437   1.131   4.792
 1447SOL    HW1 5240   6.344   1.163   4.809
 1447SOL    HW2 5241   6.446   1.037   4.826
 1448SOL     OW 5242   5.424   0.810   6.420
 1448SOL    HW1 5243   5.467   0.857   6.343
 1448SOL    HW2 5244   5.327   0.833   6.425
 1449SOL     OW 5245   5.041   5.628   1.245
 1449SOL    HW1 5246   5.023   5.608   1.149
 1449SOL    HW2 5247   4.957   5.616   1.298
 1450SOL     OW 5248   5.818   2.799   3.107
 1450SOL    HW1 5249   5.839   2.895   3.123
 1450SOL    HW2 5250   5.742   2.791   3.043
 1451SOL     OW 5251   1.621   6.374   2.745
 1451SOL    HW1 5252   1.680   6.398   2.668
 1451SOL    HW2 5253   1.547   6.315   2.713
 1452SOL     OW 5254   4.933   1.144   5.424
 1452SOL    HW1 5255   4.865   1.100   5.483
 1452SOL    HW2 5256   4.905   1.134   5.328
 1453SOL     OW 5257   5.333   4.692   5.052
 1453SOL    HW1 5258   5.257   4.643   5.094
 1453SOL    HW2 5259   5.348   4.778   5.101
 1454SOL     OW 5260   4.849   3.632   1.778
 1454SOL    HW1 5261   4.890   3.544   1.756
 1454SOL    HW2 5262   4.878   3.662   1.869
 1455SOL     OW 5263   1.418   2.096   1.915
 1455SOL    HW1 5264   1.498   2.128   1.967
 1455SOL    HW2 5265   1.353   2.172   1.905
 1456SOL     OW 5266   6.297   6.443   4.518
 1456SOL    HW1 5267   6.328   6.391   4.597
 1456SOL    HW2 5268   6.312   6.541   4.535
 1457SOL     OW 5269   1.742   0.723   3.324
 1457SOL    HW1 5270   1.838   0.698   3.339
 1457SOL    HW2 5271   1.686   0.640   3.322
 1458SOL     OW 5272   5.910   6.293   6.105
 1458SOL    HW1 5273   5.896   6.256   6.013
 1458SOL    HW2 5274   6.006   6.318   6.116
 1459SOL     OW 5275   2.402   6.482   6.887
 1459SOL    HW1 5276   2.376   6.568   6.930
 1459SOL    HW2 5277   2.333   6.412   6.908
 1460SOL     OW 5278   1.559   7.003   6.953
 1460SOL    HW1 5279   1.499   0.023   7.019
 1460SOL    HW2 5280   1.549   0.019   6.863
 1461SOL     OW 5281   5.343   4.454   2.334
 1461SOL    HW1 5282   5.336   4.361   2.298
 1461SOL    HW2 5283   5.350   4.518   2.257
 1462SOL     OW 5284   5.701   1.020   0.035
 1462SOL    HW1 5285   5.793   1.001   0.001
 1462SOL    HW2 5286   5.686   1.119   0.036
 1463SOL     OW 5287   1.087   1.089   5.117
 1463SOL    HW1 5288   1.016   1.153   5.086
 1463SOL    HW2 5289   1.152   1.073   5.042
 1464SOL     OW 5290   0.053   6.424   1.011
 1464SOL    HW1 5291   0.086   6.478   1.088
 1464SOL    HW2 5292   0.109   6.342   1.001
 1465SOL     OW 5293   0.282   0.146   4.790
 1465SOL    HW1 5294   0.280   0.214   4.864
 1465SOL    HW2 5295   0.347   0.176   4.720
 1466SOL     OW 5296   5.844   5.076   3.284
 1466SOL    HW1 5297   5.763   5.017   3.278
 1466SOL    HW2 5298   5.872   5.083   3.380
 1467SOL     OW 5299   0.449   1.807   3.605
 1467SOL    HW1 5300   0.372   1.870   3.610
 1467SOL    HW2 5301   0.526   1.853   3.560
 1468SOL     OW 5302   5.336   5.845   3.223
 1468SOL    HW1 5303   5.295   5.913   3.284
 1468SOL    HW2 5304   5.374   5.890   3.143
 1469SOL     OW 5305   0.862   1.550   2.166
 1469SOL    HW1 5306   0.927   1.477   2.147
 1469SOL    HW2 5307   0.866   1.574   2.263
 1470SOL     OW 5308   1.066   1.035   2.793
 1470SOL    HW1 5309   1.048   1.121   2.842
 1470SOL    HW2 5310   1.066   0.959   2.858
 1471SOL     OW 5311   0.793   0.182   0.023
 1471SOL    HW1 5312   0.836   0.194   0.112
 1471SOL    HW2 5313   0.695   0.169   0.036
 1472SOL     OW 5314   4.998   0.396   5.915
 1472SOL    HW1 5315   4.950   0.484   5.914
 1472SOL    HW2 5316   4.976   0.345   5.832
 1473SOL     OW 5317   6.146   3.750   3.302
 1473SOL    HW1 5318   6.171   3.752   3.205
 1473SOL    HW2 5319   6.212   3.696   3.353
 1474SOL     OW 5320   5.121   5.193   4.220
 1474SOL    HW1 5321   5.066   5.111   4.200
 1474SOL    HW2 5322   5.208   5.187   4.172
 1475SOL     OW 5323   7.022   0.982   2.848
 1475SOL    HW1 5324   7.000   0.931   2.932
 1475SOL    HW2 5325   0.008   0.917   2.773
 1476SOL     OW 5326   7.014   1.945   1.906
 1476SOL    HW1 5327   0.065   1.956   1.969
 1476SOL    HW2 5328   6.983   2.035   1.875
 1477SOL     OW 5329   2.666   5.842   5.043
 1477SOL    HW1 5330   2.666   5.876   5.137
 1477SOL    HW2 5331   2.640   5.745   5.042
 1478SOL     OW 5332   6.350   4.394   0.482
 1478SOL    HW1 5333   6.257   4.426   0.499
 1478SOL    HW2 5334   6.371   4.400   0.385
 1479SOL     OW 5335   1.806   4.933   0.307
 1479SOL    HW1 5336   1.712   4.896   0.306
 1479SOL    HW2 5337   1.850   4.909   0.393
 1480SOL     OW 5338   2.852   1.270   0.546
 1480SOL    HW1 5339   2.794   1.267   0.465
 1480SOL    HW2 5340   2.947   1.249   0.519
 1481SOL     OW 5341   5.609   2.151   6.087
 1481SOL    HW1 5342   5.612   2.058   6.051
 1481SOL    HW2 5343   5.701   2.180   6.112
 1482SOL     OW 5344   6.029   0.332   6.534
 1482SOL    HW1 5345   6.096   0.348   6.606
 1482SOL    HW2 5346   5.998   0.419   6.496
 1483SOL     OW 5347   5.961   1.964   0.498
 1483SOL    HW1 5348   5.875   1.914   0.506
 1483SOL    HW2 5349   5.958   2.022   0.417
 1484SOL     OW 5350   6.688   5.339   3.194
 1484SOL    HW1 5351   6.692   5.408   3.121
 1484SOL    HW2 5352   6.610   5.279   3.179
 1485SOL     OW 5353   5.329   2.598   3.858
 1485SOL    HW1 5354   5.397   2.559   3.795
 1485SOL    HW2 5355   5.282   2.674   3.813
 1486SOL     OW 5356   4.379   1.828   2.265
 1486SOL    HW1 5357   4.395   1.752   2.328
 1486SOL    HW2 5358   4.397   1.799   2.172
 1487SOL     OW 5359   6.522   0.973   5.478
 1487SOL    HW1 5360   6.495   0.967   5.382
 1487SOL    HW2 5361   6.445   1.003   5.533
 1488SOL     OW 5362   4.491   1.453   2.657
 1488SOL    HW1 5363   4.569   1.515   2.667
 1488SOL    HW2 5364   4.504   1.373   2.716
 1489SOL     OW 5365   3.190   5.487   4.914
 1489SOL    HW1 5366   3.145   5.543   4.983
 1489SOL    HW2 5367   3.124   5.461   4.844
 1490SOL     OW 5368   1.234   2.725   0.431
 1490SOL    HW1 5369   1.224   2.800   0.366
 1490SOL    HW2 5370   1.330   2.717   0.457
 1491SOL     OW 5371   6.777   2.533   3.792
 1491SOL    HW1 5372   6.694   2.582   3.820
 1491SOL    HW2 5373   6.853   2.598   3.788
 1492SOL     OW 5374   5.117   2.014   1.633
 1492SOL    HW1 5375   5.017   2.017   1.644
 1492SOL    HW2 5376   5.157   1.969   1.713
 1493SOL     OW 5377   5.086   0.170   5.197
 1493SOL    HW1 5378   5.021   0.227   5.146
 1493SOL    HW2 5379   5.053   0.075   5.199
 1494SOL     OW 5380   4.393   2.369   5.814
 1494SOL    HW1 5381   4.446   2.378   5.898
 1494SOL    HW2 5382   4.416   2.283   5.769
 1495SOL     OW 5383   1.071   3.162   2.550
 1495SOL    HW1 5384   1.017   3.225   2.494
 1495SOL    HW2 5385   1.124   3.215   2.617
 1496SOL     OW 5386   0.455   6.956   2.549
 1496SOL    HW1 5387   0.516   0.005   2.523
 1496SOL    HW2 5388   0.374   6.994   2.595
 1497SOL     OW 5389   6.616   5.276   4.332
 1497SOL    HW1 5390   6.568   5.219   4.267
 1497SOL    HW2 5391   6.660   5.219   4.401
 1498SOL     OW 5392   2.335   5.467   7.017
 1498SOL    HW1 5393   2.371   5.492   0.081
 1498SOL    HW2 5394   2.236   5.481   7.016
 1499SOL     OW 5395   1.385   3.818   5.406
 1499SOL    HW1 5396   1.453   3.790   5.474
 1499SOL    HW2 5397   1.346   3.906   5.433
 1500SOL     OW 5398   4.895   6.587   0.003
 1500SOL    HW1 5399   4.815   6.534   6.999
 1500SOL    HW2 5400   4.878   6.684   7.014
 1501SOL     OW 5401   4.089   6.795   6.265
 1501SOL    HW1 5402   4.138   6.789   6.352
 1501SOL    HW2 5403   4.129   6.868   6.210
 1502SOL     OW 5404   6.436   6.508   0.491
 1502SOL    HW1 5405   6.351   6.489   0.540
 1502SOL    HW2 5406   6.474   6.595   0.522
 1503SOL     OW 5407   3.280   2.968   6.419
 1503SOL    HW1 5408   3.251   2.898   6.485
 1503SOL    HW2 5409   3.202   3.024   6.393
 1504SOL     OW 5410   3.410   6.566   4.853
 1504SOL    HW1 5411   3.467   6.600   4.778
 1504SOL    HW2 5412   3.328   6.522   4.815
 1505SOL     OW 5413   5.754   6.032   6.095
 1505SOL    HW1 5414   5.660   6.065   6.089
 1505SOL    HW2 5415   5.816   6.109   6.106
 1506SOL     OW 5416   0.929   5.871   4.432
 1506SOL    HW1 5417   0.840   5.843   4.470
 1506SOL    HW2 5418   0.957   5.806   4.361
 1507SOL     OW 5419   2.047   1.508   5.037
 1507SOL    HW1 5420   2.027   1.595   4.992
 1507SOL    HW2 5421   2.142   1.507   5.067
 1508SOL     OW 5422   4.861   6.851   0.740
 1508SOL    HW1 5423   4.821   6.935   0.775
 1508SOL    HW2 5424   4.890   6.793   0.816
 1509SOL     OW 5425   4.513   3.094   0.361
 1509SOL    HW1 5426   4.474   3.142   0.440
 1509SOL    HW2 5427   4.474   3.131   0.277
 1510SOL     OW 5428   6.890   1.706   3.934
 1510SOL    HW1 5429   6.949   1.786   3.924
 1510SOL    HW2 5430   6.884   1.680   4.030
 1511SOL     OW 5431   2.666   2.929   0.475
 1511SOL    HW1 5432   2.681   2.855   0.541
 1511SOL    HW2 5433   2.655   3.016   0.525
 1512SOL     OW 5434   0.183   1.200   1.590
 1512SOL    HW1 5435   0.110   1.226   1.527
 1512SOL    HW2 5436   0.268   1.184   1.540
 1513SOL     OW 5437   3.444   0.593   3.603
 1513SOL    HW1 5438   3.510   0.589   3.528
 1513SOL    HW2 5439   3.352   0.579   3.567
 1514SOL     OW 5440   6.043   1.648   4.807
 1514SOL    HW1 5441   6.006   1.643   4.714
 1514SOL    HW2 5442   6.125   1.590   4.813
 1515SOL     OW 5443   6.869   4.941   5.050
 1515SOL    HW1 5444   6.930   5.012   5.013
 1515SOL    HW2 5445   6.923   4.861   5.075
 1516SOL     OW 5446   0.494   1.637   0.582
 1516SOL    HW1 5447   0.427   1.571   0.618
 1516SOL    HW2 5448   0.479   1.648   0.484
 1517SOL     OW 5449   4.825   5.588   3.228
 1517SOL    HW1 5450   4.748   5.587   3.165
 1517SOL    HW2 5451   4.813   5.661   3.295
 1518SOL     OW 5452   0.115   4.396   1.227
 1518SOL    HW1 5453   0.061   4.317   1.256
 1518SOL    HW2 5454   0.179   4.369   1.155
 1519SOL     OW 5455   5.999   4.210   0.340
 1519SOL    HW1 5456   6.097   4.203   0.359
 1519SOL    HW2 5457   5.974   4.142   0.271
 1520SOL     OW 5458   1.907   3.886   3.186
 1520SOL    HW1 5459   2.007   3.892   3.195
 1520SOL    HW2 5460   1.879   3.922   3.097
 1521SOL     OW 5461   2.434   3.678   6.659
 1521SOL    HW1 5462   2.431   3.658   6.757
 1521SOL    HW2 5463   2.377   3.758   6.640
 1522SOL     OW 5464   5.947   1.805   6.786
 1522SOL    HW1 5465   5.931   1.871   6.860
 1522SOL    HW2 5466   6.035   1.759   6.801
 1523SOL     OW 5467   6.644   2.609   1.670
 1523SOL    HW1 5468   6.687   2.592   1.581
 1523SOL    HW2 5469   6.605   2.701   1.671
 1524SOL     OW 5470   6.931   1.138   1.914
 1524SOL    HW1 5471   6.906   1.051   1.871
 1524SOL    HW2 5472   7.021   1.130   1.956
 1525SOL     OW 5473   4.385   2.042   5.967
 1525SOL    HW1 5474   4.426   2.069   5.880
 1525SOL    HW2 5475   4.289   2.069   5.969
 1526SOL     OW 5476   6.817   2.584   1.887
 1526SOL    HW1 5477   6.828   2.670   1.936
 1526SOL    HW2 5478   6.745   2.593   1.819
 1527SOL     OW 5479   3.455   1.978   5.582
 1527SOL    HW1 5480   3.547   1.938   5.577
 1527SOL    HW2 5481   3.393   1.925   5.524
 1528SOL     OW 5482   5.055   6.310   3.511
 1528SOL    HW1 5483   5.077   6.330   3.416
 1528SOL    HW2 5484   4.959   6.284   3.518
 1529SOL     OW 5485   3.453   0.154   6.089
 1529SOL    HW1 5486   3.374   0.134   6.147
 1529SOL    HW2 5487   3.534   0.169   6.147
 1530SOL     OW 5488   3.385   6.451   2.261
 1530SOL    HW1 5489   3.387   6.410   2.169
 1530SOL    HW2 5490   3.347   6.384   2.326
 1531SOL     OW 5491   6.006   6.978   4.810
 1531SOL    HW1 5492   6.042   6.963   4.902
 1531SOL    HW2 5493   5.999   6.890   4.763
 1532SOL     OW 5494   3.213   2.148   5.310
 1532SOL    HW1 5495   3.246   2.072   5.253
 1532SOL    HW2 5496   3.193   2.227   5.252
 1533SOL     OW 5497   6.598   3.054   6.646
 1533SOL    HW1 5498   6.605   3.138   6.701
 1533SOL    HW2 5499   6.534   2.991   6.691
 1534SOL     OW 5500   0.393   6.380   1.368
 1534SOL    HW1 5501   0.485   6.391   1.407
 1534SOL    HW2 5502   0.338   6.323   1.428
 1535SOL     OW 5503   4.465   4.551   4.262
 1535SOL    HW1 5504   4.476   4.650   4.257
 1535SOL    HW2 5505   4.482   4.521   4.356
 1536SOL     OW 5506   2.615   5.578   4.998
 1536SOL    HW1 5507   2.586   5.486   5.024
 1536SOL    HW2 5508   2.695   5.571   4.938
 1537SOL     OW 5509   1.598   5.493   4.776
 1537SOL    HW1 5510   1.602   5.426   4.850
 1537SOL    HW2 5511   1.577   5.447   4.690
 1538SOL     OW 5512   2.633   5.082   6.979
 1538SOL    HW1 5513   2.692   5.066   0.032
 1538SOL    HW2 5514   2.689   5.096   6.898
 1539SOL     OW 5515   3.637   4.556   1.608
 1539SOL    HW1 5516   3.652   4.462   1.639
 1539SOL    HW2 5517   3.600   4.610   1.684
 1540SOL     OW 5518   0.957   0.281   4.862
 1540SOL    HW1 5519   0.879   0.275   4.924
 1540SOL    HW2 5520   0.938   0.229   4.779
 1541SOL     OW 5521   4.918   2.541   0.934
 1541SOL    HW1 5522   4.821   2.564   0.944
 1541SOL    HW2 5523   4.971   2.588   1.005
 1542SOL     OW 5524   0.723   6.707   1.357
 1542SOL    HW1 5525   0.792   6.779   1.350
 1542SOL    HW2 5526   0.753   6.638   1.423
 1543SOL     OW 5527   3.493   3.813   4.056
 1543SOL    HW1 5528   3.408   3.852   4.091
 1543SOL    HW2 5529   3.486   3.713   4.054
 1544SOL     OW 5530   3.236   4.134   2.811
 1544SOL    HW1 5531   3.245   4.232   2.829
 1544SOL    HW2 5532   3.174   4.094   2.879
 1545SOL     OW 5533   5.890   0.310   4.759
 1545SOL    HW1 5534   5.844   0.236   4.710
 1545SOL    HW2 5535   5.987   0.286   4.771
 1546SOL     OW 5536   6.626   5.985   5.855
 1546SOL    HW1 5537   6.607   5.903   5.910
 1546SOL    HW2 5538   6.579   6.064   5.896
 1547SOL     OW 5539   3.043   5.823   2.232
 1547SOL    HW1 5540   3.116   5.877   2.273
 1547SOL    HW2 5541   3.081   5.737   2.196
 1548SOL     OW 5542   5.003   4.078   4.784
 1548SOL    HW1 5543   5.102   4.077   4.767
 1548SOL    HW2 5544   4.972   4.173   4.792
 1549SOL     OW 5545   6.807   2.343   1.464
 1549SOL    HW1 5546   6.820   2.359   1.562
 1549SOL    HW2 5547   6.879   2.283   1.429
 1550SOL     OW 5548   1.770   5.698   4.285
 1550SOL    HW1 5549   1.745   5.781   4.235
 1550SOL    HW2 5550   1.801   5.723   4.377
 1551SOL     OW 5551   2.345   2.759   0.941
 1551SOL    HW1 5552   2.438   2.792   0.922
 1551SOL    HW2 5553   2.298   2.824   0.999
 1552SOL     OW 5554   1.396   0.964   1.005
 1552SOL    HW1 5555   1.321   0.985   0.942
 1552SOL    HW2 5556   1.409   0.866   1.009
 1553SOL     OW 5557   5.910   1.812   6.530
 1553SOL    HW1 5558   6.005   1.792   6.504
 1553SOL    HW2 5559   5.901   1.808   6.629
 1554SOL     OW 5560   3.821   1.768   1.819
 1554SOL    HW1 5561   3.794   1.864   1.824
 1554SOL    HW2 5562   3.888   1.756   1.746
 1555SOL     OW 5563   3.538   1.332   5.666
 1555SOL    HW1 5564   3.547   1.261   5.597
 1555SOL    HW2 5565   3.568   1.420   5.628
 1556SOL     OW 5566   3.908   0.719   0.975
 1556SOL    HW1 5567   3.941   0.674   0.892
 1556SOL    HW2 5568   3.981   0.775   1.014
 1557SOL     OW 5569   1.731   2.199   1.202
 1557SOL    HW1 5570   1.715   2.110   1.245
 1557SOL    HW2 5571   1.657   2.261   1.227
 1558SOL     OW 5572   6.513   3.586   5.947
 1558SOL    HW1 5573   6.496   3.665   6.006
 1558SOL    HW2 5574   6.556   3.513   6.001
 1559SOL     OW 5575   1.783   4.674   3.214
 1559SOL    HW1 5576   1.827   4.651   3.301
 1559SOL    HW2 5577   1.836   4.744   3.168
 1560SOL     OW 5578   3.665   1.227   1.669
 1560SOL    HW1 5579   3.712   1.224   1.757
 1560SOL    HW2 5580   3.727   1.263   1.599
 1561SOL     OW 5581   5.907   5.706   1.802
 1561SOL    HW1 5582   5.859   5.709   1.714
 1561SOL    HW2 5583   5.943   5.796   1.824
 1562SOL     OW 5584   3.453   6.790   2.141
 1562SOL    HW1 5585   3.495   6.701   2.126
 1562SOL    HW2 5586   3.427   6.800   2.237
 1563SOL     OW 5587   3.873   2.187   4.065
 1563SOL    HW1 5588   3.919   2.100   4.045
 1563SOL    HW2 5589   3.941   2.257   4.085
 1564SOL     OW 5590   1.288   2.222   2.217
 1564SOL    HW1 5591   1.193   2.251   2.225
 1564SOL    HW2 5592   1.341   2.294   2.172
 1565SOL     OW 5593   3.761   0.607   4.338
 1565SOL    HW1 5594   3.699   0.572   4.268
 1565SOL    HW2 5595   3.851   0.623   4.297
 1566SOL     OW 5596   4.591   4.304   3.130
 1566SOL    HW1 5597   4.596   4.224   3.189
 1566SOL    HW2 5598   4.609   4.277   3.035
 1567SOL     OW 5599   5.147   6.419   5.440
 1567SOL    HW1 5600   5.145   6.342   5.376
 1567SOL    HW2 5601   5.190   6.391   5.525
 1568SOL     OW 5602   2.162   6.311   3.264
 1568SOL    HW1 5603   2.114   6.256   3.195
 1568SOL    HW2 5604   2.183   6.401   3.225
 1569SOL     OW 5605   2.361   0.184   3.737
 1569SOL    HW1 5606   2.401   0.222   3.820
 1569SOL    HW2 5607   2.399   0.230   3.657
 1570SOL     OW 5608   3.433   6.721   0.176
 1570SOL    HW1 5609   3.493   6.649   0.142
 1570SOL    HW2 5610   3.360   6.738   0.109
 1571SOL     OW 5611   0.983   2.264   3.884
 1571SOL    HW1 5612   1.030   2.307   3.806
 1571SOL    HW2 5613   1.051   2.225   3.946
 1572SOL     OW 5614   1.893   4.651   1.987
 1572SOL    HW1 5615   1.920   4.569   2.037
 1572SOL    HW2 5616   1.812   4.631   1.931
 1573SOL     OW 5617   5.023   5.019   0.927
 1573SOL    HW1 5618   5.033   4.995   1.023
 1573SOL    HW2 5619   5.108   5.001   0.878
 1574SOL     OW 5620   0.057   3.771   2.620
 1574SOL    HW1 5621   0.126   3.844   2.626
 1574SOL    HW2 5622   0.096   3.693   2.571
 1575SOL     OW 5623   0.791   1.075   0.522
 1575SOL    HW1 5624   0.858   1.001   0.525
 1575SOL    HW2 5625   0.719   1.052   0.457
 1576SOL     OW 5626   0.517   6.536   2.067
 1576SOL    HW1 5627   0.593   6.548   2.002
 1576SOL    HW2 5628   0.542   6.467   2.135
 1577SOL     OW 5629   4.188   0.040   6.142
 1577SOL    HW1 5630   4.265   0.057   6.205
 1577SOL    HW2 5631   4.222   7.019   6.061
 1578SOL     OW 5632   5.176   0.662   0.466
 1578SOL    HW1 5633   5.238   0.655   0.545
 1578SOL    HW2 5634   5.208   0.734   0.405
 1579SOL     OW 5635   1.779   2.833   1.393
 1579SOL    HW1 5636   1.737   2.746   1.419
 1579SOL    HW2 5637   1.814   2.827   1.300
 1580SOL     OW 5638   3.697   3.910   3.344
 1580SOL    HW1 5639   3.682   3.946   3.252
 1580SOL    HW2 5640   3.630   3.838   3.363
 1581SOL     OW 5641   0.027   4.327   5.902
 1581SOL    HW1 5642   0.065   4.300   5.814
 1581SOL    HW2 5643   0.040   4.253   5.969
 1582SOL     OW 5644   4.695   6.517   6.161
 1582SOL    HW1 5645   4.602   6.554   6.155
 1582SOL    HW2 5646   4.761   6.590   6.144
 1583SOL     OW 5647   1.274   5.721   5.511
 1583SOL    HW1 5648   1.266   5.763   5.421
 1583SOL    HW2 5649   1.358   5.667   5.516
 1584SOL     OW 5650   0.618   5.032   6.805
 1584SOL    HW1 5651   0.526   5.072   6.808
 1584SOL    HW2 5652   0.627   4.976   6.723
 1585SOL     OW 5653   4.125   0.026   3.160
 1585SOL    HW1 5654   4.045   7.012   3.206
 1585SOL    HW2 5655   4.132   7.014   3.067
 1586SOL     OW 5656   2.967   5.820   4.199
 1586SOL    HW1 5657   2.995   5.750   4.265
 1586SOL    HW2 5658   2.945   5.776   4.111
 1587SOL     OW 5659   2.313   6.051   6.321
 1587SOL    HW1 5660   2.279   6.064   6.414
 1587SOL    HW2 5661   2.389   5.986   6.323
 1588SOL     OW 5662   6.104   6.973   2.673
 1588SOL    HW1 5663   6.019   6.999   2.627
 1588SOL    HW2 5664   6.176   6.958   2.605
 1589SOL     OW 5665   6.580   4.268   3.198
 1589SOL    HW1 5666   6.679   4.259   3.209
 1589SOL    HW2 5667   6.534   4.221   3.274
 1590SOL     OW 5668   6.841   1.432   3.135
 1590SOL    HW1 5669   6.886   1.348   3.104
 1590SOL    HW2 5670   6.754   1.444   3.085
 1591SOL     OW 5671   0.740   6.099   1.566
 1591SOL    HW1 5672   0.688   6.171   1.520
 1591SOL    HW2 5673   0.772   6.133   1.655
 1592SOL     OW 5674   1.391   4.113   0.248
 1592SOL    HW1 5675   1.371   4.091   0.153
 1592SOL    HW2 5676   1.306   4.137   0.296
 1593SOL     OW 5677   1.125   0.229   6.585
 1593SOL    HW1 5678   1.221   0.215   6.563
 1593SOL    HW2 5679   1.116   0.301   6.654
 1594SOL     OW 5680   6.501   0.272   1.418
 1594SOL    HW1 5681   6.571   0.202   1.409
 1594SOL    HW2 5682   6.463   0.270   1.511
 1595SOL     OW 5683   1.305   4.063   0.010
 1595SOL    HW1 5684   1.217   4.036   6.996
 1595SOL    HW2 5685   1.348   4.132   6.977
 1596SOL     OW 5686   5.969   4.425   2.004
 1596SOL    HW1 5687   6.067   4.434   1.988
 1596SOL    HW2 5688   5.953   4.366   2.083
 1597SOL     OW 5689   3.256   6.549   0.524
 1597SOL    HW1 5690   3.227   6.485   0.595
 1597SOL    HW2 5691   3.250   6.504   0.434
 1598SOL     OW 5692   1.815   5.533   6.868
 1598SOL    HW1 5693   1.745   5.509   6.800
 1598SOL    HW2 5694   1.861   5.450   6.898
 1599SOL     OW 5695   4.188   5.051   4.124
 1599SOL    HW1 5696   4.126   4.987   4.079
 1599SOL    HW2 5697   4.188   5.035   4.222
 1600SOL     OW 5698   3.325   6.884   2.713
 1600SOL    HW1 5699   3.282   6.927   2.634
 1600SOL    HW2 5700   3.424   6.894   2.707
 1601SOL     OW 5701   5.816   6.292   4.056
 1601SOL    HW1 5702   5.796   6.221   4.124
 1601SOL    HW2 5703   5.915   6.293   4.037
 1602SOL     OW 5704   4.067   5.060   3.699
 1602SOL    HW1 5705   4.165   5.048   3.679
 1602SOL    HW2 5706   4.053   5.147   3.747
 1603SOL     OW 5707   2.985   6.117   3.823
 1603SOL    HW1 5708   3.079   6.091   3.804
 1603SOL    HW2 5709   2.938   6.138   3.737
 1604SOL     OW 5710   3.921   4.801   2.143
 1604SOL    HW1 5711   3.834   4.787   2.095
 1604SOL    HW2 5712   3.909   4.781   2.240
 1605SOL     OW 5713   4.445   4.982   1.480
 1605SOL    HW1 5714   4.364   4.942   1.522
 1605SOL    HW2 5715   4.493   4.912   1.427
 1606SOL     OW 5716   4.244   6.216   4.881
 1606SOL    HW1 5717   4.216   6.245   4.789
 1606SOL    HW2 5718   4.184   6.257   4.949
 1607SOL     OW 5719   4.995   5.907   3.148
 1607SOL    HW1 5720   5.083   5.897   3.102
 1607SOL    HW2 5721   5.002   5.872   3.241
 1608SOL     OW 5722   6.505   0.265   2.744
 1608SOL    HW1 5723   6.596   0.225   2.739
 1608SOL    HW2 5724   6.483   0.288   2.839
 1609SOL     OW 5725   2.701   6.587   0.795
 1609SOL    HW1 5726   2.786   6.635   0.816
 1609SOL    HW2 5727   2.686   6.585   0.696
 1610SOL     OW 5728   4.579   0.056   0.304
 1610SOL    HW1 5729   4.489   0.066   0.348
 1610SOL    HW2 5730   4.595   0.133   0.243
 1611SOL     OW 5731   1.048   3.817   1.167
 1611SOL    HW1 5732   0.990   3.889   1.127
 1611SOL    HW2 5733   0.999   3.730   1.166
 1612SOL     OW 5734   3.342   6.566   1.296
 1612SOL    HW1 5735   3.360   6.496   1.365
 1612SOL    HW2 5736   3.279   6.530   1.228
 1613SOL     OW 5737   0.030   5.764   2.448
 1613SOL    HW1 5738   6.977   5.704   2.464
 1613SOL    HW2 5739   0.036   5.786   2.351
 1614SOL     OW 5740   5.811   2.961   6.693
 1614SOL    HW1 5741   5.818   3.026   6.616
 1614SOL    HW2 5742   5.897   2.912   6.703
 1615SOL     OW 5743   0.630   4.976   6.277
 1615SOL    HW1 5744   0.616   5.072   6.302
 1615SOL    HW2 5745   0.601   4.961   6.183
 1616SOL     OW 5746   2.470   1.188   4.854
 1616SOL    HW1 5747   2.471   1.288   4.857
 1616SOL    HW2 5748   2.542   1.153   4.914
 1617SOL     OW 5749   4.846   6.552   3.693
 1617SOL    HW1 5750   4.827   6.640   3.736
 1617SOL    HW2 5751   4.760   6.512   3.660
 1618SOL     OW 5752   2.769   6.263   3.279
 1618SOL    HW1 5753   2.706   6.237   3.352
 1618SOL    HW2 5754   2.824   6.184   3.252
 1619SOL     OW 5755   1.085   5.127   0.105
 1619SOL    HW1 5756   0.993   5.088   0.110
 1619SOL    HW2 5757   1.136   5.103   0.187
 1620SOL     OW 5758   3.554   5.076   0.731
 1620SOL    HW1 5759   3.549   4.997   0.791
 1620SOL    HW2 5760   3.649   5.107   0.724
 1621SOL     OW 5761   5.957   6.612   1.038
 1621SOL    HW1 5762   5.946   6.711   1.034
 1621SOL    HW2 5763   5.921   6.578   1.125
 1622SOL     OW 5764   0.804   3.775   4.872
 1622SOL    HW1 5765   0.832   3.769   4.968
 1622SOL    HW2 5766   0.716   3.823   4.865
 1623SOL     OW 5767   0.518   2.004   4.632
 1623SOL    HW1 5768   0.424   1.978   4.653
 1623SOL    HW2 5769   0.531   2.010   4.533
 1624SOL     OW 5770   4.347   0.993   0.755
 1624SOL    HW1 5771   4.372   1.042   0.838
 1624SOL    HW2 5772   4.428   0.947   0.718
 1625SOL     OW 5773   2.170   4.774   1.004
 1625SOL    HW1 5774   2.255   4.823   0.985
 1625SOL    HW2 5775   2.108   4.832   1.056
 1626SOL     OW 5776   3.235   2.016   1.557
 1626SOL    HW1 5777   3.147   2.044   1.594
 1626SOL    HW2 5778   3.225   1.993   1.461
 1627SOL     OW 5779   4.498   2.512   3.820
 1627SOL    HW1 5780   4.543   2.576   3.758
 1627SOL    HW2 5781   4.422   2.468   3.772
 1628SOL     OW 5782   5.186   5.684   6.328
 1628SOL    HW1 5783   5.158   5.656   6.420
 1628SOL    HW2 5784   5.247   5.763   6.334
 1629SOL     OW 5785   2.708   1.723   2.432
 1629SOL    HW1 5786   2.782   1.719   2.365
 1629SOL    HW2 5787   2.679   1.817   2.445
 1630SOL     OW 5788   0.604   4.275   0.434
 1630SOL    HW1 5789   0.554   4.359   0.413
 1630SOL    HW2 5790   0.550   4.196   0.405
 1631SOL     OW 5791   0.441   3.502   0.498
 1631SOL    HW1 5792   0.433   3.455   0.410
 1631SOL    HW2 5793   0.537   3.521   0.518
 1632SOL     OW 5794   6.444   4.262   2.624
 1632SOL    HW1 5795   6.450   4.249   2.723
 1632SOL    HW2 5796   6.348   4.278   2.598
 1633SOL     OW 5797   4.952   3.518   3.794
 1633SOL    HW1 5798   4.922   3.510   3.889
 1633SOL    HW2 5799   5.049   3.542   3.791
 1634SOL     OW 5800   4.915   0.608   4.787
 1634SOL    HW1 5801   4.972   0.596   4.868
 1634SOL    HW2 5802   4.907   0.521   4.738
 1635SOL     OW 5803   3.552   5.412   4.867
 1635SOL    HW1 5804   3.595   5.322   4.868
 1635SOL    HW2 5805   3.452   5.402   4.868
 1636SOL     OW 5806   5.096   5.810   1.519
 1636SOL    HW1 5807   5.055   5.750   1.588
 1636SOL    HW2 5808   5.064   5.784   1.428
 1637SOL     OW 5809   0.154   6.898   2.208
 1637SOL    HW1 5810   0.113   6.983   2.176
 1637SOL    HW2 5811   0.245   6.917   2.246
 1638SOL     OW 5812   6.923   3.403   1.853
 1638SOL    HW1 5813   6.828   3.424   1.877
 1638SOL    HW2 5814   6.981   3.482   1.873
 1639SOL     OW 5815   5.547   3.684   2.313
 1639SOL    HW1 5816   5.454   3.664   2.281
 1639SOL    HW2 5817   5.611   3.618   2.275
 1640SOL     OW 5818   6.577   0.400   0.594
 1640SOL    HW1 5819   6.481   0.425   0.581
 1640SOL    HW2 5820   6.613   0.447   0.675
 1641SOL     OW 5821   6.884   2.117   2.666
 1641SOL    HW1 5822   6.911   2.171   2.746
 1641SOL    HW2 5823   6.870   2.178   2.588
 1642SOL     OW 5824   5.368   2.609   5.856
 1642SOL    HW1 5825   5.428   2.559   5.919
 1642SOL    HW2 5826   5.284   2.635   5.904
 1643SOL     OW 5827   3.611   5.357   4.370
 1643SOL    HW1 5828   3.557   5.314   4.298
 1643SOL    HW2 5829   3.572   5.334   4.459
 1644SOL     OW 5830   5.970   3.302   0.542
 1644SOL    HW1 5831   5.946   3.283   0.638
 1644SOL    HW2 5832   5.908   3.252   0.482
 1645SOL     OW 5833   2.769   1.003   6.052
 1645SOL    HW1 5834   2.760   1.049   6.140
 1645SOL    HW2 5835   2.683   1.011   6.001
 1646SOL     OW 5836   0.861   5.490   0.597
 1646SOL    HW1 5837   0.921   5.566   0.624
 1646SOL    HW2 5838   0.910   5.404   0.609
 1647SOL     OW 5839   6.134   2.672   4.600
 1647SOL    HW1 5840   6.217   2.660   4.654
 1647SOL    HW2 5841   6.135   2.763   4.558
 1648SOL     OW 5842   5.341   6.403   0.567
 1648SOL    HW1 5843   5.438   6.385   0.551
 1648SOL    HW2 5844   5.293   6.317   0.584
 1649SOL     OW 5845   2.896   0.526   3.612
 1649SOL    HW1 5846   2.950   0.605   3.641
 1649SOL    HW2 5847   2.818   0.557   3.558
 1650SOL     OW 5848   2.801   5.537   6.898
 1650SOL    HW1 5849   2.706   5.509   6.883
 1650SOL    HW2 5850   2.852   5.531   6.813
 1651SOL     OW 5851   0.775   2.947   3.958
 1651SOL    HW1 5852   0.735   2.889   3.887
 1651SOL    HW2 5853   0.752   3.043   3.939
 1652SOL     OW 5854   0.904   3.001   1.484
 1652SOL    HW1 5855   0.851   3.063   1.427
 1652SOL    HW2 5856   0.859   2.991   1.573
 1653SOL     OW 5857   6.951   4.981   2.751
 1653SOL    HW1 5858   6.864   4.932   2.743
 1653SOL    HW2 5859   6.934   5.071   2.792
 1654SOL     OW 5860   0.536   3.270   2.254
 1654SOL    HW1 5861   0.513   3.233   2.164
 1654SOL    HW2 5862   0.620   3.227   2.287
 1655SOL     OW 5863   6.817   0.539   4.554
 1655SOL    HW1 5864   6.734   0.596   4.552
 1655SOL    HW2 5865   6.832   0.506   4.647
 1656SOL     OW 5866   2.085   5.580   4.434
 1656SOL    HW1 5867   2.184   5.577   4.446
 1656SOL    HW2 5868   2.058   5.517   4.361
 1657SOL     OW 5869   0.144   0.111   5.823
 1657SOL    HW1 5870   0.095   0.027   5.797
 1657SOL    HW2 5871   0.129   0.181   5.754
 1658SOL     OW 5872   6.801   0.037   0.431
 1658SOL    HW1 5873   6.745   0.091   0.368
 1658SOL    HW2 5874   6.793   0.073   0.523
 1659SOL     OW 5875   4.200   6.754   6.504
 1659SOL    HW1 5876   4.121   6.695   6.520
 1659SOL    HW2 5877   4.284   6.704   6.525
 1660SOL     OW 5878   1.450   6.647   1.844
 1660SOL    HW1 5879   1.496   6.727   1.806
 1660SOL    HW2 5880   1.451   6.573   1.776
 1661SOL     OW 5881   3.704   5.359   2.662
 1661SOL    HW1 5882   3.624   5.379   2.719
 1661SOL    HW2 5883   3.728   5.263   2.670
 1662SOL     OW 5884   6.848   1.309   5.479
 1662SOL    HW1 5885   6.946   1.320   5.465
 1662SOL    HW2 5886   6.798   1.368   5.415
 1663SOL     OW 5887   4.573   4.577   0.908
 1663SOL    HW1 5888   4.642   4.649   0.916
 1663SOL    HW2 5889   4.501   4.591   0.976
 1664SOL     OW 5890   0.546   7.025   4.957
 1664SOL    HW1 5891   0.486   0.077   4.978
 1664SOL    HW2 5892   0.601   7.002   5.037
 1665SOL     OW 5893   2.257   3.613   1.407
 1665SOL    HW1 5894   2.247   3.597   1.505
 1665SOL    HW2 5895   2.209   3.540   1.357
 1666SOL     OW 5896   5.630   0.528   6.218
 1666SOL    HW1 5897   5.563   0.580   6.165
 1666SOL    HW2 5898   5.718   0.527   6.170
 1667SOL     OW 5899   0.337   6.438   0.811
 1667SOL    HW1 5900   0.423   6.396   0.782
 1667SOL    HW2 5901   0.325   6.424   0.910
 1668SOL     OW 5902   5.085   4.209   3.845
 1668SOL    HW1 5903   5.140   4.153   3.907
 1668SOL    HW2 5904   4.989   4.181   3.853
 1669SOL     OW 5905   0.091   3.648   5.381
 1669SOL    HW1 5906   0.078   3.625   5.477
 1669SOL    HW2 5907   0.032   3.591   5.324
 1670SOL     OW 5908   2.242   4.491   6.021
 1670SOL    HW1 5909   2.158   4.532   6.055
 1670SOL    HW2 5910   2.236   4.479   5.922
 1671SOL     OW 5911   4.775   1.645   1.727
 1671SOL    HW1 5912   4.815   1.720   1.781
 1671SOL    HW2 5913   4.774   1.562   1.782
 1672SOL     OW 5914   0.644   2.962   0.135
 1672SOL    HW1 5915   0.669   3.012   0.051
 1672SOL    HW2 5916   0.623   3.027   0.207
 1673SOL     OW 5917   2.366   1.369   4.349
 1673SOL    HW1 5918   2.376   1.289   4.409
 1673SOL    HW2 5919   2.330   1.446   4.402
 1674SOL     OW 5920   4.652   2.674   2.658
 1674SOL    HW1 5921   4.638   2.615   2.579
 1674SOL    HW2 5922   4.698   2.758   2.629
 1675SOL     OW 5923   5.737   0.423   1.076
 1675SOL    HW1 5924   5.651   0.421   1.026
 1675SOL    HW2 5925   5.733   0.491   1.149
 1676SOL     OW 5926   2.197   2.064   2.800
 1676SOL    HW1 5927   2.110   2.034   2.839
 1676SOL    HW2 5928   2.188   2.158   2.767
 1677SOL     OW 5929   4.120   3.588   3.815
 1677SOL    HW1 5930   4.098   3.491   3.808
 1677SOL    HW2 5931   4.117   3.629   3.724
 1678SOL     OW 5932   0.355   6.691   0.696
 1678SOL    HW1 5933   0.321   6.620   0.757
 1678SOL    HW2 5934   0.442   6.728   0.732
 1679SOL     OW 5935   1.937   1.721   4.918
 1679SOL    HW1 5936   1.913   1.782   4.842
 1679SOL    HW2 5937   1.891   1.752   5.001
 1680SOL     OW 5938   4.621   2.639   4.528
 1680SOL    HW1 5939   4.709   2.646   4.575
 1680SOL    HW2 5940   4.558   2.585   4.584
 1681SOL     OW 5941   2.150   5.952   3.897
 1681SOL    HW1 5942   2.176   5.906   3.811
 1681SOL    HW2 5943   2.127   6.047   3.877
 1682SOL     OW 5944   2.416   6.755   5.649
 1682SOL    HW1 5945   2.443   6.729   5.556
 1682SOL    HW2 5946   2.317   6.753   5.656
 1683SOL     OW 5947   5.649   4.905   2.479
 1683SOL    HW1 5948   5.712   4.922   2.403
 1683SOL    HW2 5949   5.634   4.807   2.488
 1684SOL     OW 5950   1.843   5.030   1.813
 1684SOL    HW1 5951   1.924   4.979   1.786
 1684SOL    HW2 5952   1.821   5.009   1.908
 1685SOL     OW 5953   0.753   1.634   5.406
 1685SOL    HW1 5954   0.774   1.599   5.314
 1685SOL    HW2 5955   0.721   1.729   5.399
 1686SOL     OW 5956   5.017   5.224   3.615
 1686SOL    HW1 5957   5.076   5.147   3.637
 1686SOL    HW2 5958   4.930   5.214   3.662
 1687SOL     OW 5959   6.733   3.543   2.568
 1687SOL    HW1 5960   6.648   3.534   2.620
 1687SOL    HW2 5961   6.809   3.559   2.631
 1688SOL     OW 5962   2.121   2.178   3.496
 1688SOL    HW1 5963   2.191   2.246   3.475
 1688SOL    HW2 5964   2.032   2.212   3.464
 1689SOL     OW 5965   5.912   0.911   2.012
 1689SOL    HW1 5966   5.998   0.889   1.967
 1689SOL    HW2 5967   5.843   0.936   1.944
 1690SOL     OW 5968   0.662   4.203   4.203
 1690SOL    HW1 5969   0.640   4.289   4.249
 1690SOL    HW2 5970   0.595   4.133   4.228
 1691SOL     OW 5971   5.364   3.034   4.977
 1691SOL    HW1 5972   5.421   3.115   4.961
 1691SOL    HW2 5973   5.422   2.960   5.010
 1692SOL     OW 5974   5.782   4.954   2.243
 1692SOL    HW1 5975   5.749   4.936   2.151
 1692SOL    HW2 5976   5.878   4.926   2.250
 1693SOL     OW 5977   6.659   0.753   5.782
 1693SOL    HW1 5978   6.681   0.839   5.829
 1693SOL    HW2 5979   6.596   0.700   5.838
 1694SOL     OW 5980   5.560   0.710   4.574
 1694SOL    HW1 5981   5.476   0.750   4.536
 1694SOL    HW2 5982   5.545   0.686   4.670
 1695SOL     OW 5983   4.001   0.435   6.893
 1695SOL    HW1 5984   4.076   0.493   6.926
 1695SOL    HW2 5985   3.966   0.471   6.807
 1696SOL     OW 5986   4.757   5.430   0.136
 1696SOL    HW1 5987   4.659   5.441   0.156
 1696SOL    HW2 5988   4.778   5.333   0.127
 1697SOL     OW 5989   5.852   1.851   1.190
 1697SOL    HW1 5990   5.903   1.907   1.256
 1697SOL    HW2 5991   5.912   1.827   1.114
 1698SOL     OW 5992   2.946   0.749   2.328
 1698SOL    HW1 5993   3.009   0.681   2.292
 1698SOL    HW2 5994   2.913   0.808   2.254
 1699SOL     OW 5995   2.793   1.030   6.777
 1699SOL    HW1 5996   2.882   1.059   6.814
 1699SOL    HW2 5997   2.763   1.095   6.708
 1700SOL     OW 5998   6.099   3.381   3.202
 1700SOL    HW1 5999   6.169   3.373   3.131
 1700SOL    HW2 6000   6.087   3.292   3.247
 1701SOL     OW 6001   6.526   4.878   4.700
 1701SOL    HW1 6002   6.506   4.781   4.689
 1701SOL    HW2 6003   6.620   4.890   4.730
 1702SOL     OW 6004   1.736   2.070   5.638
 1702SOL    HW1 6005   1.668   2.136   5.605
 1702SOL    HW2 6006   1.827   2.111   5.637
 1703SOL     OW 6007   3.192   1.636   6.452
 1703SOL    HW1 6008   3.289   1.662   6.451
 1703SOL    HW2 6009   3.184   1.539   6.429
 1704SOL     OW 6010   3.093   1.541   0.842
 1704SOL    HW1 6011   3.004   1.503   0.817
 1704SOL    HW2 6012   3.161   1.515   0.774
 1705SOL     OW 6013   3.708   1.453   1.933
 1705SOL    HW1 6014   3.660   1.365   1.925
 1705SOL    HW2 6015   3.649   1.526   1.898
 1706SOL     OW 6016   4.426   2.023   0.871
 1706SOL    HW1 6017   4.338   1.983   0.900
 1706SOL    HW2 6018   4.443   2.107   0.923
 1707SOL     OW 6019   4.504   1.027   2.501
 1707SOL    HW1 6020   4.517   1.126   2.502
 1707SOL    HW2 6021   4.470   0.997   2.590
 1708SOL     OW 6022   3.305   5.176   2.064
 1708SOL    HW1 6023   3.327   5.255   2.007
 1708SOL    HW2 6024   3.354   5.096   2.030
 1709SOL     OW 6025   5.195   5.857   0.819
 1709SOL    HW1 6026   5.223   5.941   0.866
 1709SOL    HW2 6027   5.218   5.863   0.722
 1710SOL     OW 6028   4.563   5.272   2.704
 1710SOL    HW1 6029   4.607   5.204   2.645
 1710SOL    HW2 6030   4.580   5.250   2.800
 1711SOL     OW 6031   3.328   5.564   6.251
 1711SOL    HW1 6032   3.333   5.553   6.350
 1711SOL    HW2 6033   3.393   5.502   6.207
 1712SOL     OW 6034   0.313   2.223   4.273
 1712SOL    HW1 6035   0.248   2.242   4.347
 1712SOL    HW2 6036   0.374   2.301   4.261
 1713SOL     OW 6037   3.754   0.629   3.083
 1713SOL    HW1 6038   3.793   0.543   3.114
 1713SOL    HW2 6039   3.710   0.616   2.994
 1714SOL     OW 6040   3.725   2.718   6.628
 1714SOL    HW1 6041   3.687   2.776   6.556
 1714SOL    HW2 6042   3.796   2.768   6.677
 1715SOL     OW 6043   1.389   6.358   2.270
 1715SOL    HW1 6044   1.391   6.438   2.211
 1715SOL    HW2 6045   1.396   6.387   2.366
 1716SOL     OW 6046   4.355   0.573   3.950
 1716SOL    HW1 6047   4.359   0.626   4.035
 1716SOL    HW2 6048   4.309   0.486   3.967
 1717SOL     OW 6049   3.688   6.016   5.637
 1717SOL    HW1 6050   3.647   5.944   5.581
 1717SOL    HW2 6051   3.711   5.979   5.727
 1718SOL     OW 6052   1.998   2.583   1.791
 1718SOL    HW1 6053   1.977   2.612   1.885
 1718SOL    HW2 6054   2.000   2.663   1.731
 1719SOL     OW 6055   0.874   5.084   2.081
 1719SOL    HW1 6056   0.816   5.129   2.012
 1719SOL    HW2 6057   0.950   5.145   2.105
 1720SOL     OW 6058   6.918   2.813   5.666
 1720SOL    HW1 6059   6.888   2.908   5.657
 1720SOL    HW2 6060   6.842   2.758   5.700
 1721SOL     OW 6061   1.023   1.760   1.652
 1721SOL    HW1 6062   1.023   1.795   1.745
 1721SOL    HW2 6063   1.056   1.666   1.651
 1722SOL     OW 6064   3.098   2.116   2.885
 1722SOL    HW1 6065   3.029   2.157   2.944
 1722SOL    HW2 6066   3.108   2.170   2.801
 1723SOL     OW 6067   5.041   2.584   0.004
 1723SOL    HW1 6068   4.963   2.521   0.012
 1723SOL    HW2 6069   5.040   2.648   0.081
 1724SOL     OW 6070   6.321   2.153   1.250
 1724SOL    HW1 6071   6.287   2.176   1.341
 1724SOL    HW2 6072   6.243   2.132   1.190
 1725SOL     OW 6073   2.468   5.500   6.535
 1725SOL    HW1 6074   2.504   5.422   6.587
 1725SOL    HW2 6075   2.373   5.482   6.509
 1726SOL     OW 6076   5.548   3.919   3.837
 1726SOL    HW1 6077   5.524   3.892   3.930
 1726SOL    HW2 6078   5.464   3.931   3.783
 1727SOL     OW 6079   3.244   3.690   3.548
 1727SOL    HW1 6080   3.325   3.724   3.500
 1727SOL    HW2 6081   3.165   3.746   3.522
 1728SOL     OW 6082   4.795   2.788   5.100
 1728SOL    HW1 6083   4.740   2.870   5.109
 1728SOL    HW2 6084   4.816   2.752   5.192
 1729SOL     OW 6085   1.983   3.919   1.982
 1729SOL    HW1 6086   1.983   3.968   1.895
 1729SOL    HW2 6087   1.905   3.948   2.037
 1730SOL     OW 6088   2.707   4.812   5.741
 1730SOL    HW1 6089   2.677   4.906   5.758
 1730SOL    HW2 6090   2.633   4.749   5.764
 1731SOL     OW 6091   5.750   4.007   3.726
 1731SOL    HW1 6092   5.824   4.017   3.793
 1731SOL    HW2 6093   5.666   3.978   3.773
 1732SOL     OW 6094   1.806   4.967   6.427
 1732SOL    HW1 6095   1.869   4.901   6.467
 1732SOL    HW2 6096   1.858   5.040   6.381
 1733SOL     OW 6097   2.774   3.553   0.087
 1733SOL    HW1 6098   2.851   3.550   0.151
 1733SOL    HW2 6099   2.737   3.460   0.076
 1734SOL     OW 6100   6.765   2.911   1.582
 1734SOL    HW1 6101   6.803   2.896   1.673
 1734SOL    HW2 6102   6.810   2.989   1.539
 1735SOL     OW 6103   3.917   5.555   6.629
 1735SOL    HW1 6104   3.920   5.468   6.678
 1735SOL    HW2 6105   3.864   5.544   6.544
 1736SOL     OW 6106   4.736   3.502   0.851
 1736SOL    HW1 6107   4.727   3.460   0.941
 1736SOL    HW2 6108   4.785   3.589   0.860
 1737SOL     OW 6109   4.483   1.403   4.648
 1737SOL    HW1 6110   4.540   1.444   4.576
 1737SOL    HW2 6111   4.540   1.347   4.708
 1738SOL     OW 6112   1.080   3.743   4.070
 1738SOL    HW1 6113   1.051   3.724   4.164
 1738SOL    HW2 6114   1.178   3.726   4.062
 1739SOL     OW 6115   5.226   0.276   4.147
 1739SOL    HW1 6116   5.175   0.257   4.231
 1739SOL    HW2 6117   5.162   0.295   4.073
 1740SOL     OW 6118   6.853   2.236   4.493
 1740SOL    HW1 6119   6.803   2.321   4.478
 1740SOL    HW2 6120   6.926   2.253   4.560
 1741SOL     OW 6121   0.895   1.887   4.625
 1741SOL    HW1 6122   0.960   1.953   4.662
 1741SOL    HW2 6123   0.847   1.927   4.547
 1742SOL     OW 6124   6.132   5.996   6.163
 1742SOL    HW1 6125   6.221   5.966   6.199
 1742SOL    HW2 6126   6.081   6.042   6.236
 1743SOL     OW 6127   1.556   1.138   2.806
 1743SOL    HW1 6128   1.524   1.050   2.843
 1743SOL    HW2 6129   1.478   1.187   2.766
 1744SOL     OW 6130   4.778   2.277   3.553
 1744SOL    HW1 6131   4.862   2.286   3.607
 1744SOL    HW2 6132   4.741   2.185   3.564
 1745SOL     OW 6133   6.321   6.451   1.514
 1745SOL    HW1 6134   6.274   6.537   1.496
 1745SOL    HW2 6135   6.391   6.436   1.445
 1746SOL     OW 6136   1.546   4.370   3.348
 1746SOL    HW1 6137   1.503   4.306   3.411
 1746SOL    HW2 6138   1.640   4.388   3.376
 1747SOL     OW 6139   3.236   0.959   2.372
 1747SOL    HW1 6140   3.216   1.020   2.295
 1747SOL    HW2 6141   3.329   0.977   2.405
 1748SOL     OW 6142   0.152   1.743   4.208
 1748SOL    HW1 6143   0.202   1.792   4.280
 1748SOL    HW2 6144   0.109   1.809   4.146
 1749SOL     OW 6145   2.374   5.269   1.362
 1749SOL    HW1 6146   2.388   5.171   1.374
 1749SOL    HW2 6147   2.277   5.291   1.374
 1750SOL     OW 6148   4.656   0.696   5.605
 1750SOL    HW1 6149   4.597   0.647   5.670
 1750SOL    HW2 6150   4.721   0.632   5.565
 1751SOL     OW 6151   6.064   2.548   5.142
 1751SOL    HW1 6152   6.086   2.543   5.239
 1751SOL    HW2 6153   5.991   2.615   5.127
 1752SOL     OW 6154   6.763   0.883   1.330
 1752SOL    HW1 6155   6.793   0.823   1.256
 1752SOL    HW2 6156   6.663   0.876   1.340
 1753SOL     OW 6157   6.059   1.098   1.669
 1753SOL    HW1 6158   6.096   1.006   1.680
 1753SOL    HW2 6159   6.066   1.126   1.573
 1754SOL     OW 6160   2.738   5.435   5.801
 1754SOL    HW1 6161   2.671   5.457   5.871
 1754SOL    HW2 6162   2.695   5.380   5.729
 1755SOL     OW 6163   6.214   0.015   5.375
 1755SOL    HW1 6164   6.121   0.049   5.390
 1755SOL    HW2 6165   6.264   0.081   5.319
 1756SOL     OW 6166   5.544   0.511   5.880
 1756SOL    HW1 6167   5.559   0.563   5.797
 1756SOL    HW2 6168   5.630   0.469   5.910
 1757SOL     OW 6169   2.252   4.904   5.016
 1757SOL    HW1 6170   2.187   4.973   4.983
 1757SOL    HW2 6171   2.313   4.878   4.941
 1758SOL     OW 6172   2.016   6.201   4.646
 1758SOL    HW1 6173   1.930   6.170   4.606
 1758SOL    HW2 6174   2.023   6.300   4.637
 1759SOL     OW 6175   1.206   6.214   0.517
 1759SOL    HW1 6176   1.146   6.244   0.443
 1759SOL    HW2 6177   1.301   6.223   0.488
 1760SOL     OW 6178   6.251   0.920   5.126
 1760SOL    HW1 6179   6.349   0.910   5.141
 1760SOL    HW2 6180   6.230   0.898   5.031
 1761SOL     OW 6181   6.762   2.097   1.667
 1761SOL    HW1 6182   6.670   2.123   1.638
 1761SOL    HW2 6183   6.787   2.011   1.621
 1762SOL     OW 6184   0.484   1.531   5.366
 1762SOL    HW1 6185   0.444   1.538   5.457
 1762SOL    HW2 6186   0.581   1.558   5.371
 1763SOL     OW 6187   0.501   3.768   4.146
 1763SOL    HW1 6188   0.503   3.849   4.204
 1763SOL    HW2 6189   0.547   3.787   4.059
 1764SOL     OW 6190   1.482   4.956   2.349
 1764SOL    HW1 6191   1.515   4.936   2.257
 1764SOL    HW2 6192   1.547   5.016   2.395
 1765SOL     OW 6193   5.604   3.246   1.688
 1765SOL    HW1 6194   5.615   3.303   1.769
 1765SOL    HW2 6195   5.680   3.181   1.682
 1766SOL     OW 6196   4.053   5.048   4.359
 1766SOL    HW1 6197   3.965   5.090   4.340
 1766SOL    HW2 6198   4.050   4.951   4.335
 1767SOL     OW 6199   0.310   4.977   2.788
 1767SOL    HW1 6200   0.250   5.057   2.789
 1767SOL    HW2 6201   0.256   4.895   2.767
 1768SOL     OW 6202   5.007   6.732   2.437
 1768SOL    HW1 6203   4.932   6.693   2.491
 1768SOL    HW2 6204   5.093   6.687   2.462
 1769SOL     OW 6205   5.373   0.028   6.309
 1769SOL    HW1 6206   5.365   0.104   6.246
 1769SOL    HW2 6207   5.393   0.063   6.401
 1770SOL     OW 6208   2.358   5.241   6.335
 1770SOL    HW1 6209   2.372   5.196   6.423
 1770SOL    HW2 6210   2.264   5.273   6.327
 1771SOL     OW 6211   0.655   4.098   5.768
 1771SOL    HW1 6212   0.639   4.079   5.865
 1771SOL    HW2 6213   0.634   4.017   5.714
 1772SOL     OW 6214   2.213   4.590   4.229
 1772SOL    HW1 6215   2.166   4.539   4.301
 1772SOL    HW2 6216   2.284   4.534   4.189
 1773SOL     OW 6217   0.665   6.942   5.188
 1773SOL    HW1 6218   0.708   6.865   5.233
 1773SOL    HW2 6219   0.602   6.987   5.252
 1774SOL     OW 6220   5.991   5.697   1.133
 1774SOL    HW1 6221   6.022   5.612   1.090
 1774SOL    HW2 6222   5.894   5.710   1.113
 1775SOL     OW 6223   2.331   5.516   6.163
 1775SOL    HW1 6224   2.251   5.473   6.204
 1775SOL    HW2 6225   2.412   5.462   6.183
 1776SOL     OW 6226   4.104   1.002   5.803
 1776SOL    HW1 6227   4.012   1.007   5.842
 1776SOL    HW2 6228   4.104   1.044   5.712
 1777SOL     OW 6229   4.771   6.762   6.636
 1777SOL    HW1 6230   4.702   6.822   6.678
 1777SOL    HW2 6231   4.858   6.774   6.683
 1778SOL     OW 6232   6.100   0.239   3.991
 1778SOL    HW1 6233   6.132   0.162   3.935
 1778SOL    HW2 6234   6.063   0.310   3.932
 1779SOL     OW 6235   5.695   5.928   3.770
 1779SOL    HW1 6236   5.604   5.962   3.745
 1779SOL    HW2 6237   5.716   5.953   3.865
 1780SOL     OW 6238   1.774   5.366   5.288
 1780SOL    HW1 6239   1.760   5.431   5.214
 1780SOL    HW2 6240   1.851   5.396   5.345
 1781SOL     OW 6241   4.205   0.369   4.083
 1781SOL    HW1 6242   4.261   0.346   4.163
 1781SOL    HW2 6243   4.114   0.397   4.113
 1782SOL     OW 6244   1.620   1.802   2.870
 1782SOL    HW1 6245   1.716   1.776   2.862
 1782SOL    HW2 6246   1.586   1.831   2.780
 1783SOL     OW 6247   1.520   4.472   6.540
 1783SOL    HW1 6248   1.538   4.417   6.622
 1783SOL    HW2 6249   1.568   4.433   6.462
 1784SOL     OW 6250   2.442   0.518   0.759
 1784SOL    HW1 6251   2.476   0.603   0.718
 1784SOL    HW2 6252   2.445   0.525   0.858
 1785SOL     OW 6253   1.516   6.467   3.999
 1785SOL    HW1 6254   1.520   6.414   3.915
 1785SOL    HW2 6255   1.427   6.454   4.043
 1786SOL     OW 6256   1.061   5.847   0.996
 1786SOL    HW1 6257   0.972   5.821   1.032
 1786SOL    HW2 6258   1.055   5.859   0.897
 1787SOL     OW 6259   1.778   3.929   5.747
 1787SOL    HW1 6260   1.742   3.844   5.709
 1787SOL    HW2 6261   1.865   3.952   5.703
 1788SOL     OW 6262   4.646   4.048   0.646
 1788SOL    HW1 6263   4.653   4.141   0.683
 1788SOL    HW2 6264   4.587   3.993   0.705
 1789SOL     OW 6265   6.688   3.786   2.017
 1789SOL    HW1 6266   6.723   3.870   2.057
 1789SOL    HW2 6267   6.606   3.806   1.963
 1790SOL     OW 6268   2.736   2.337   4.494
 1790SOL    HW1 6269   2.727   2.377   4.403
 1790SOL    HW2 6270   2.697   2.400   4.562
 1791SOL     OW 6271   5.566   0.011   3.578
 1791SOL    HW1 6272   5.476   0.024   3.621
 1791SOL    HW2 6273   5.558   0.034   3.480
 1792SOL     OW 6274   6.914   1.366   5.042
 1792SOL    HW1 6275   6.967   1.356   4.957
 1792SOL    HW2 6276   6.936   1.453   5.085
 1793SOL     OW 6277   0.221   1.164   5.713
 1793SOL    HW1 6278   0.217   1.064   5.723
 1793SOL    HW2 6279   0.207   1.207   5.802
 1794SOL     OW 6280   0.460   6.694   6.220
 1794SOL    HW1 6281   0.439   6.703   6.122
 1794SOL    HW2 6282   0.513   6.773   6.250
 1795SOL     OW 6283   5.791   5.038   6.815
 1795SOL    HW1 6284   5.787   5.105   6.740
 1795SOL    HW2 6285   5.886   5.026   6.843
 1796SOL     OW 6286   0.700   6.564   6.119
 1796SOL    HW1 6287   0.704   6.593   6.024
 1796SOL    HW2 6288   0.604   6.561   6.149
 1797SOL     OW 6289   2.240   5.978   4.625
 1797SOL    HW1 6290   2.328   5.961   4.581
 1797SOL    HW2 6291   2.167   5.974   4.557
 1798SOL     OW 6292   2.881   3.610   4.491
 1798SOL    HW1 6293   2.821   3.638   4.566
 1798SOL    HW2 6294   2.917   3.519   4.508
 1799SOL     OW 6295   3.224   1.040   0.138
 1799SOL    HW1 6296   3.294   1.093   0.186
 1799SOL    HW2 6297   3.246   1.036   0.041
 1800SOL     OW 6298   5.104   3.355   4.887
 1800SOL    HW1 6299   5.171   3.353   4.813
 1800SOL    HW2 6300   5.039   3.280   4.876
 1801SOL     OW 6301   0.985   2.109   2.152
 1801SOL    HW1 6302   1.080   2.092   2.126
 1801SOL    HW2 6303   0.948   2.027   2.196
 1802SOL     OW 6304   6.891   4.888   3.628
 1802SOL    HW1 6305   6.901   4.894   3.728
 1802SOL    HW2 6306   6.906   4.794   3.599
 1803SOL     OW 6307   1.362   6.842   3.184
 1803SOL    HW1 6308   1.341   6.896   3.266
 1803SOL    HW2 6309   1.453   6.802   3.193
 1804SOL     OW 6310   2.075   3.537   5.728
 1804SOL    HW1 6311   2.081   3.590   5.643
 1804SOL    HW2 6312   2.050   3.443   5.707
 1805SOL     OW 6313   0.194   6.006   6.352
 1805SOL    HW1 6314   0.214   6.057   6.269
 1805SOL    HW2 6315   0.106   6.036   6.389
 1806SOL     OW 6316   6.700   1.757   2.356
 1806SOL    HW1 6317   6.646   1.691   2.304
 1806SOL    HW2 6318   6.727   1.832   2.295
 1807SOL     OW 6319   6.659   3.453   1.975
 1807SOL    HW1 6320   6.616   3.452   2.065
 1807SOL    HW2 6321   6.590   3.439   1.904
 1808SOL     OW 6322   5.180   1.951   5.811
 1808SOL    HW1 6323   5.182   1.926   5.908
 1808SOL    HW2 6324   5.201   2.048   5.802
 1809SOL     OW 6325   3.784   1.561   5.935
 1809SOL    HW1 6326   3.822   1.648   5.967
 1809SOL    HW2 6327   3.708   1.578   5.872
 1810SOL     OW 6328   0.409   0.183   3.778
 1810SOL    HW1 6329   0.391   0.275   3.742
 1810SOL    HW2 6330   0.332   0.154   3.834
 1811SOL     OW 6331   4.642   5.806   2.433
 1811SOL    HW1 6332   4.584   5.792   2.513
 1811SOL    HW2 6333   4.738   5.808   2.461
 1812SOL     OW 6334   4.748   0.123   4.997
 1812SOL    HW1 6335   4.806   0.045   5.018
 1812SOL    HW2 6336   4.665   0.120   5.053
 1813SOL     OW 6337   4.542   4.478   2.532
 1813SOL    HW1 6338   4.456   4.515   2.566
 1813SOL    HW2 6339   4.549   4.496   2.433
 1814SOL     OW 6340   0.106   6.388   0.665
 1814SOL    HW1 6341   0.071   6.464   0.610
 1814SOL    HW2 6342   0.190   6.416   0.711
 1815SOL     OW 6343   5.990   5.973   1.783
 1815SOL    HW1 6344   5.946   6.050   1.828
 1815SOL    HW2 6345   5.966   5.972   1.686
 1816SOL     OW 6346   4.506   5.594   6.346
 1816SOL    HW1 6347   4.444   5.549   6.410
 1816SOL    HW2 6348   4.453   5.631   6.270
 1817SOL     OW 6349   1.289   2.034   3.717
 1817SOL    HW1 6350   1.229   1.984   3.655
 1817SOL    HW2 6351   1.272   2.004   3.811
 1818SOL     OW 6352   2.103   6.774   0.603
 1818SOL    HW1 6353   2.133   6.865   0.574
 1818SOL    HW2 6354   2.093   6.716   0.522
 1819SOL     OW 6355   2.475   4.843   3.298
 1819SOL    HW1 6356   2.433   4.815   3.212
 1819SOL    HW2 6357   2.403   4.875   3.361
 1820SOL     OW 6358   3.707   0.918   4.317
 1820SOL    HW1 6359   3.666   0.958   4.235
 1820SOL    HW2 6360   3.660   0.833   4.341
 1821SOL     OW 6361   3.892   1.931   2.371
 1821SOL    HW1 6362   3.854   1.841   2.394
 1821SOL    HW2 6363   3.881   1.992   2.450
 1822SOL     OW 6364   0.014   3.037   2.290
 1822SOL    HW1 6365   0.067   3.060   2.209
 1822SOL    HW2 6366   6.952   3.084   2.287
 1823SOL     OW 6367   3.913   6.833   2.505
 1823SOL    HW1 6368   3.996   6.783   2.527
 1823SOL    HW2 6369   3.836   6.795   2.557
 1824SOL     OW 6370   3.606   2.972   0.867
 1824SOL    HW1 6371   3.566   3.043   0.809
 1824SOL    HW2 6372   3.677   2.924   0.816
 1825SOL     OW 6373   2.098   1.613   4.677
 1825SOL    HW1 6374   2.038   1.634   4.753
 1825SOL    HW2 6375   2.068   1.529   4.632
 1826SOL     OW 6376   3.370   2.256   1.841
 1826SOL    HW1 6377   3.466   2.278   1.858
 1826SOL    HW2 6378   3.335   2.198   1.915
 1827SOL     OW 6379   5.439   4.201   0.678
 1827SOL    HW1 6380   5.522   4.163   0.719
 1827SOL    HW2 6381   5.449   4.203   0.578
 1828SOL     OW 6382   1.134   3.228   5.327
 1828SOL    HW1 6383   1.177   3.184   5.406
 1828SOL    HW2 6384   1.170   3.321   5.317
 1829SOL     OW 6385   3.401   0.955   3.630
 1829SOL    HW1 6386   3.472   1.024   3.632
 1829SOL    HW2 6387   3.370   0.936   3.723
 1830SOL     OW 6388   5.420   6.547   5.287
 1830SOL    HW1 6389   5.335   6.496   5.282
 1830SOL    HW2 6390   5.489   6.493   5.336
 1831SOL     OW 6391   4.964   5.431   1.974
 1831SOL    HW1 6392   4.945   5.341   1.937
 1831SOL    HW2 6393   5.029   5.479   1.916
 1832SOL     OW 6394   2.893   3.173   0.557
 1832SOL    HW1 6395   2.810   3.132   0.594
 1832SOL    HW2 6396   2.973   3.121   0.586
 1833SOL     OW 6397   5.077   0.269   0.942
 1833SOL    HW1 6398   5.135   0.287   1.021
 1833SOL    HW2 6399   5.061   0.170   0.935
 1834SOL     OW 6400   2.179   2.636   6.631
 1834SOL    HW1 6401   2.223   2.656   6.719
 1834SOL    HW2 6402   2.101   2.696   6.618
 1835SOL     OW 6403   6.980   5.683   0.954
 1835SOL    HW1 6404   6.942   5.774   0.938
 1835SOL    HW2 6405   6.926   5.636   1.023
 1836SOL     OW 6406   5.499   2.435   1.616
 1836SOL    HW1 6407   5.509   2.374   1.695
 1836SOL    HW2 6408   5.568   2.507   1.621
 1837SOL     OW 6409   2.804   1.847   6.436
 1837SOL    HW1 6410   2.872   1.846   6.363
 1837SOL    HW2 6411   2.714   1.868   6.397
 1838SOL     OW 6412   6.375   0.672   0.663
 1838SOL    HW1 6413   6.327   0.756   0.690
 1838SOL    HW2 6414   6.459   0.663   0.715
 1839SOL     OW 6415   6.402   1.072   6.946
 1839SOL    HW1 6416   6.373   1.005   7.014
 1839SOL    HW2 6417   6.389   1.034   6.854
 1840SOL     OW 6418   4.656   6.854   3.578
 1840SOL    HW1 6419   4.577   6.906   3.547
 1840SOL    HW2 6420   4.653   6.846   3.678
 1841SOL     OW 6421   2.020   1.280   2.104
 1841SOL    HW1 6422   2.068   1.368   2.101
 1841SOL    HW2 6423   1.967   1.274   2.188
 1842SOL     OW 6424   1.575   5.333   0.126
 1842SOL    HW1 6425   1.527   5.246   0.110
 1842SOL    HW2 6426   1.515   5.396   0.175
 1843SOL     OW 6427   3.827   1.077   4.897
 1843SOL    HW1 6428   3.844   1.063   4.800
 1843SOL    HW2 6429   3.826   0.989   4.944
 1844SOL     OW 6430   5.567   1.781   6.791
 1844SOL    HW1 6431   5.640   1.841   6.758
 1844SOL    HW2 6432   5.528   1.819   6.875
 1845SOL     OW 6433   1.464   1.001   2.409
 1845SOL    HW1 6434   1.380   1.013   2.461
 1845SOL    HW2 6435   1.442   0.963   2.318
 1846SOL     OW 6436   4.385   1.254   2.178
 1846SOL    HW1 6437   4.428   1.284   2.092
 1846SOL    HW2 6438   4.455   1.244   2.248
 1847SOL     OW 6439   2.387   0.367   5.699
 1847SOL    HW1 6440   2.391   0.326   5.608
 1847SOL    HW2 6441   2.335   0.307   5.760
 1848SOL     OW 6442   2.524   5.834   4.549
 1848SOL    HW1 6443   2.485   5.898   4.483
 1848SOL    HW2 6444   2.618   5.861   4.569
 1849SOL     OW 6445   4.840   2.811   1.804
 1849SOL    HW1 6446   4.753   2.852   1.833
 1849SOL    HW2 6447   4.907   2.821   1.878
 1850SOL     OW 6448   4.913   1.498   1.535
 1850SOL    HW1 6449   4.859   1.543   1.606
 1850SOL    HW2 6450   4.859   1.424   1.494
 1851SOL     OW 6451   6.822   3.767   5.089
 1851SOL    HW1 6452   6.724   3.770   5.107
 1851SOL    HW2 6453   6.839   3.775   4.991
 1852SOL     OW 6454   1.564   5.660   2.392
 1852SOL    HW1 6455   1.539   5.722   2.317
 1852SOL    HW2 6456   1.648   5.611   2.368
 1853SOL     OW 6457   0.126   2.412   4.525
 1853SOL    HW1 6458   0.189   2.386   4.598
 1853SOL    HW2 6459   0.076   2.495   4.552
 1854SOL     OW 6460   0.350   6.657   3.764
 1854SOL    HW1 6461   0.392   6.746   3.748
 1854SOL    HW2 6462   0.372   6.596   3.687
 1855SOL     OW 6463   4.862   3.269   5.090
 1855SOL    HW1 6464   4.887   3.220   5.006
 1855SOL    HW2 6465   4.841   3.364   5.068
 1856SOL     OW 6466   3.580   2.562   6.848
 1856SOL    HW1 6467   3.621   2.632   6.789
 1856SOL    HW2 6468   3.635   2.479   6.845
 1857SOL     OW 6469   4.867   1.262   0.501
 1857SOL    HW1 6470   4.771   1.277   0.521
 1857SOL    HW2 6471   4.922   1.330   0.550
 1858SOL     OW 6472   4.272   2.079   4.209
 1858SOL    HW1 6473   4.238   2.023   4.284
 1858SOL    HW2 6474   4.257   2.176   4.231
 1859SOL     OW 6475   5.618   2.088   3.872
 1859SOL    HW1 6476   5.567   2.130   3.948
 1859SOL    HW2 6477   5.673   2.012   3.906
 1860SOL     OW 6478   1.281   1.190   4.564
 1860SOL    HW1 6479   1.184   1.185   4.589
 1860SOL    HW2 6480   1.337   1.158   4.641
 1861SOL     OW 6481   6.665   0.219   3.189
 1861SOL    HW1 6482   6.710   0.264   3.266
 1861SOL    HW2 6483   6.734   0.195   3.120
 1862SOL     OW 6484   2.363   6.125   6.576
 1862SOL    HW1 6485   2.431   6.191   6.544
 1862SOL    HW2 6486   2.310   6.165   6.650
 1863SOL     OW 6487   0.701   3.053   1.133
 1863SOL    HW1 6488   0.633   3.104   1.079
 1863SOL    HW2 6489   0.723   3.105   1.216
 1864SOL     OW 6490   3.604   5.824   2.627
 1864SOL    HW1 6491   3.519   5.808   2.677
 1864SOL    HW2 6492   3.628   5.742   2.576
 1865SOL     OW 6493   5.413   0.936   6.175
 1865SOL    HW1 6494   5.359   0.995   6.116
 1865SOL    HW2 6495   5.408   0.842   6.142
 1866SOL     OW 6496   0.023   4.815   3.351
 1866SOL    HW1 6497   0.029   4.914   3.339
 1866SOL    HW2 6498   6.980   4.778   3.288
 1867SOL     OW 6499   2.612   2.235   0.846
 1867SOL    HW1 6500   2.640   2.312   0.902
 1867SOL    HW2 6501   2.603   2.153   0.903
 1868SOL     OW 6502   5.663   4.243   5.437
 1868SOL    HW1 6503   5.664   4.181   5.514
 1868SOL    HW2 6504   5.650   4.337   5.470
 1869SOL     OW 6505   4.966   1.666   4.095
 1869SOL    HW1 6506   5.046   1.678   4.036
 1869SOL    HW2 6507   4.895   1.616   4.045
 1870SOL     OW 6508   0.270   4.993   4.339
 1870SOL    HW1 6509   0.338   5.002   4.412
 1870SOL    HW2 6510   0.182   5.029   4.371
 1871SOL     OW 6511   1.035   6.524   0.553
 1871SOL    HW1 6512   1.060   6.440   0.506
 1871SOL    HW2 6513   0.936   6.530   0.561
 1872SOL     OW 6514   2.878   2.679   1.037
 1872SOL    HW1 6515   2.921   2.647   1.121
 1872SOL    HW2 6516   2.949   2.711   0.973
 1873SOL     OW 6517   6.660   1.147   0.247
 1873SOL    HW1 6518   6.644   1.079   0.176
 1873SOL    HW2 6519   6.651   1.239   0.208
 1874SOL     OW 6520   0.474   6.193   0.019
 1874SOL    HW1 6521   0.486   6.187   6.946
 1874SOL    HW2 6522   0.378   6.212   0.039
 1875SOL     OW 6523   6.195   4.748   0.229
 1875SOL    HW1 6524   6.150   4.835   0.208
 1875SOL    HW2 6525   6.254   4.760   0.310
 1876SOL     OW 6526   0.097   6.011   6.753
 1876SOL    HW1 6527   0.001   5.984   6.748
 1876SOL    HW2 6528   0.108   6.081   6.823
 1877SOL     OW 6529   0.193   0.713   2.120
 1877SOL    HW1 6530   0.211   0.691   2.024
 1877SOL    HW2 6531   0.153   0.634   2.166
 1878SOL     OW 6532   6.572   4.486   3.616
 1878SOL    HW1 6533   6.632   4.541   3.674
 1878SOL    HW2 6534   6.589   4.389   3.633
 1879SOL     OW 6535   4.307   5.531   4.702
 1879SOL    HW1 6536   4.321   5.567   4.794
 1879SOL    HW2 6537   4.367   5.453   4.687
 1880SOL     OW 6538   0.766   1.473   4.047
 1880SOL    HW1 6539   0.765   1.373   4.053
 1880SOL    HW2 6540   0.675   1.508   4.067
 1881SOL     OW 6541   1.243   1.441   4.172
 1881SOL    HW1 6542   1.339   1.424   4.195
 1881SOL    HW2 6543   1.185   1.374   4.220
 1882SOL     OW 6544   1.541   5.710   6.900
 1882SOL    HW1 6545   1.507   5.798   6.865
 1882SOL    HW2 6546   1.612   5.676   6.839
 1883SOL     OW 6547   1.625   3.100   2.738
 1883SOL    HW1 6548   1.541   3.155   2.735
 1883SOL    HW2 6549   1.672   3.116   2.825
 1884SOL     OW 6550   3.378   0.472   0.157
 1884SOL    HW1 6551   3.327   0.466   0.243
 1884SOL    HW2 6552   3.408   0.566   0.142
 1885SOL     OW 6553   6.957   2.133   1.386
 1885SOL    HW1 6554   6.895   2.056   1.399
 1885SOL    HW2 6555   6.951   2.165   1.291
 1886SOL     OW 6556   2.885   2.957   6.742
 1886SOL    HW1 6557   2.958   3.008   6.697
 1886SOL    HW2 6558   2.905   2.950   6.840
 1887SOL     OW 6559   0.969   6.397   5.631
 1887SOL    HW1 6560   0.912   6.331   5.681
 1887SOL    HW2 6561   0.995   6.357   5.543
 1888SOL     OW 6562   2.024   2.251   5.878
 1888SOL    HW1 6563   1.930   2.284   5.871
 1888SOL    HW2 6564   2.084   2.325   5.909
 1889SOL     OW 6565   4.254   2.628   0.348
 1889SOL    HW1 6566   4.202   2.712   0.335
 1889SOL    HW2 6567   4.351   2.646   0.339
 1890SOL     OW 6568   6.583   5.342   6.692
 1890SOL    HW1 6569   6.508   5.276   6.703
 1890SOL    HW2 6570   6.567   5.421   6.752
 1891SOL     OW 6571   6.417   3.503   5.679
 1891SOL    HW1 6572   6.452   3.542   5.764
 1891SOL    HW2 6573   6.394   3.406   5.693
 1892SOL     OW 6574   4.148   5.948   1.778
 1892SOL    HW1 6575   4.081   5.874   1.786
 1892SOL    HW2 6576   4.238   5.913   1.805
 1893SOL     OW 6577   3.979   1.933   4.070
 1893SOL    HW1 6578   3.923   1.906   4.148
 1893SOL    HW2 6579   3.977   1.861   4.001
 1894SOL     OW 6580   3.923   3.569   0.686
 1894SOL    HW1 6581   3.884   3.661   0.682
 1894SOL    HW2 6582   3.944   3.546   0.782
 1895SOL     OW 6583   5.471   0.197   3.064
 1895SOL    HW1 6584   5.545   0.215   3.000
 1895SOL    HW2 6585   5.447   0.282   3.112
 1896SOL     OW 6586   7.008   1.591   5.170
 1896SOL    HW1 6587   0.045   1.574   5.247
 1896SOL    HW2 6588   7.005   1.689   5.151
 1897SOL     OW 6589   5.938   4.840   3.037
 1897SOL    HW1 6590   5.847   4.799   3.045
 1897SOL    HW2 6591   5.978   4.850   3.128
 1898SOL     OW 6592   6.073   4.476   0.487
 1898SOL    HW1 6593   6.052   4.497   0.392
 1898SOL    HW2 6594   6.030   4.544   0.546
 1899SOL     OW 6595   0.985   2.916   2.620
 1899SOL    HW1 6596   0.977   2.906   2.719
 1899SOL    HW2 6597   1.016   3.008   2.597
 1900SOL     OW 6598   2.119   5.400   6.303
 1900SOL    HW1 6599   2.120   5.422   6.400
 1900SOL    HW2 6600   2.051   5.329   6.285
 1901SOL     OW 6601   1.479   1.192   6.747
 1901SOL    HW1 6602   1.459   1.284   6.781
 1901SOL    HW2 6603   1.396   1.136   6.753
 1902SOL     OW 6604   0.708   3.206   4.541
 1902SOL    HW1 6605   0.642   3.133   4.560
 1902SOL    HW2 6606   0.801   3.173   4.557
 1903SOL     OW 6607   6.553   2.982   3.951
 1903SOL    HW1 6608   6.550   3.066   3.899
 1903SOL    HW2 6609   6.570   3.003   4.048
 1904SOL     OW 6610   6.297   6.598   3.794
 1904SOL    HW1 6611   6.298   6.685   3.843
 1904SOL    HW2 6612   6.230   6.537   3.837
 1905SOL     OW 6613   6.579   2.349   3.688
 1905SOL    HW1 6614   6.583   2.367   3.590
 1905SOL    HW2 6615   6.649   2.403   3.734
 1906SOL     OW 6616   2.669   0.427   6.751
 1906SOL    HW1 6617   2.761   0.389   6.754
 1906SOL    HW2 6618   2.621   0.405   6.836
 1907SOL     OW 6619   3.712   6.331   3.780
 1907SOL    HW1 6620   3.804   6.371   3.785
 1907SOL    HW2 6621   3.669   6.358   3.693
 1908SOL     OW 6622   4.600   1.208   6.566
 1908SOL    HW1 6623   4.543   1.200   6.647
 1908SOL    HW2 6624   4.614   1.304   6.543
 1909SOL     OW 6625   2.294   5.267   4.351
 1909SOL    HW1 6626   2.306   5.226   4.261
 1909SOL    HW2 6627   2.283   5.366   4.342
 1910SOL     OW 6628   5.339   1.518   5.977
 1910SOL    HW1 6629   5.348   1.616   5.959
 1910SOL    HW2 6630   5.426   1.473   5.957
 1911SOL     OW 6631   6.207   2.857   4.937
 1911SOL    HW1 6632   6.155   2.886   5.018
 1911SOL    HW2 6633   6.187   2.920   4.861
 1912SOL     OW 6634   3.523   6.730   3.097
 1912SOL    HW1 6635   3.428   6.707   3.121
 1912SOL    HW2 6636   3.585   6.683   3.159
 1913SOL     OW 6637   1.701   5.179   5.728
 1913SOL    HW1 6638   1.637   5.240   5.774
 1913SOL    HW2 6639   1.686   5.183   5.629
 1914SOL     OW 6640   3.664   2.495   6.105
 1914SOL    HW1 6641   3.740   2.466   6.163
 1914SOL    HW2 6642   3.691   2.576   6.053
 1915SOL     OW 6643   3.666   0.102   5.727
 1915SOL    HW1 6644   3.579   0.136   5.691
 1915SOL    HW2 6645   3.718   0.059   5.653
 1916SOL     OW 6646   3.384   6.324   1.459
 1916SOL    HW1 6647   3.398   6.317   1.558
 1916SOL    HW2 6648   3.454   6.271   1.412
 1917SOL     OW 6649   3.040   3.302   4.323
 1917SOL    HW1 6650   2.970   3.279   4.255
 1917SOL    HW2 6651   3.091   3.383   4.293
 1918SOL     OW 6652   5.639   6.132   4.279
 1918SOL    HW1 6653   5.570   6.190   4.322
 1918SOL    HW2 6654   5.675   6.067   4.346
 1919SOL     OW 6655   6.693   6.599   1.768
 1919SOL    HW1 6656   6.659   6.505   1.773
 1919SOL    HW2 6657   6.710   6.633   1.861
 1920SOL     OW 6658   6.768   6.151   4.168
 1920SOL    HW1 6659   6.863   6.164   4.138
 1920SOL    HW2 6660   6.726   6.240   4.185
 1921SOL     OW 6661   1.019   6.648   6.804
 1921SOL    HW1 6662   1.117   6.629   6.801
 1921SOL    HW2 6663   0.970   6.583   6.745
 1922SOL     OW 6664   3.788   3.806   0.760
 1922SOL    HW1 6665   3.750   3.896   0.740
 1922SOL    HW2 6666   3.854   3.813   0.834
 1923SOL     OW 6667   1.672   1.485   0.505
 1923SOL    HW1 6668   1.660   1.390   0.534
 1923SOL    HW2 6669   1.669   1.545   0.586
 1924SOL     OW 6670   0.721   4.448   1.999
 1924SOL    HW1 6671   0.764   4.445   1.909
 1924SOL    HW2 6672   0.789   4.475   2.068
 1925SOL     OW 6673   3.053   4.316   1.401
 1925SOL    HW1 6674   2.956   4.339   1.411
 1925SOL    HW2 6675   3.106   4.363   1.472
 1926SOL     OW 6676   1.391   6.668   3.749
 1926SOL    HW1 6677   1.356   6.581   3.784
 1926SOL    HW2 6678   1.479   6.689   3.793
 1927SOL     OW 6679   3.248   4.021   6.526
 1927SOL    HW1 6680   3.185   3.995   6.453
 1927SOL    HW2 6681   3.209   4.096   6.579
 1928SOL     OW 6682   6.366   4.140   5.960
 1928SOL    HW1 6683   6.359   4.056   5.906
 1928SOL    HW2 6684   6.311   4.211   5.918
 1929SOL     OW 6685   0.634   6.384   1.512
 1929SOL    HW1 6686   0.732   6.404   1.519
 1929SOL    HW2 6687   0.590   6.403   1.600
 1930SOL     OW 6688   5.559   4.393   5.842
 1930SOL    HW1 6689   5.474   4.361   5.800
 1930SOL    HW2 6690   5.568   4.354   5.933
 1931SOL     OW 6691   0.407   2.874   4.083
 1931SOL    HW1 6692   0.436   2.970   4.084
 1931SOL    HW2 6693   0.487   2.814   4.085
 1932SOL     OW 6694   5.402   4.181   1.374
 1932SOL    HW1 6695   5.357   4.140   1.454
 1932SOL    HW2 6696   5.341   4.176   1.295
 1933SOL     OW 6697   3.080   4.730   0.827
 1933SOL    HW1 6698   3.151   4.691   0.768
 1933SOL    HW2 6699   3.007   4.663   0.841
 1934SOL     OW 6700   1.032   6.273   6.043
 1934SOL    HW1 6701   0.942   6.238   6.068
 1934SOL    HW2 6702   1.054   6.243   5.950
 1935SOL     OW 6703   2.522   0.544   3.895
 1935SOL    HW1 6704   2.505   0.449   3.924
 1935SOL    HW2 6705   2.442   0.577   3.846
 1936SOL     OW 6706   6.399   5.642   4.953
 1936SOL    HW1 6707   6.383   5.727   4.904
 1936SOL    HW2 6708   6.338   5.571   4.918
 1937SOL     OW 6709   3.834   6.402   1.873
 1937SOL    HW1 6710   3.766   6.470   1.847
 1937SOL    HW2 6711   3.858   6.346   1.793
 1938SOL     OW 6712   4.047   1.126   3.732
 1938SOL    HW1 6713   4.088   1.036   3.717
 1938SOL    HW2 6714   4.102   1.177   3.797
 1939SOL     OW 6715   1.767   1.232   3.848
 1939SOL    HW1 6716   1.779   1.310   3.785
 1939SOL    HW2 6717   1.690   1.177   3.818
 1940SOL     OW 6718   6.655   5.286   0.057
 1940SOL    HW1 6719   6.636   5.349   0.132
 1940SOL    HW2 6720   6.589   5.211   0.059
 1941SOL     OW 6721   5.256   3.963   2.027
 1941SOL    HW1 6722   5.306   4.034   1.978
 1941SOL    HW2 6723   5.275   3.971   2.125
 1942SOL     OW 6724   6.531   4.714   2.337
 1942SOL    HW1 6725   6.531   4.631   2.393
 1942SOL    HW2 6726   6.487   4.788   2.387
 1943SOL     OW 6727   2.656   4.640   3.573
 1943SOL    HW1 6728   2.652   4.669   3.478
 1943SOL    HW2 6729   2.738   4.677   3.616
 1944SOL     OW 6730   6.344   0.877   0.123
 1944SOL    HW1 6731   6.247   0.858   0.131
 1944SOL    HW2 6732   6.394   0.830   0.196
 1945SOL     OW 6733   3.761   5.208   3.868
 1945SOL    HW1 6734   3.668   5.188   3.836
 1945SOL    HW2 6735   3.783   5.303   3.846
 1946SOL     OW 6736   1.400   0.342   6.931
 1946SOL    HW1 6737   1.402   0.412   6.859
 1946SOL    HW2 6738   1.367   0.382   7.016
 1947SOL     OW 6739   5.413   5.684   3.508
 1947SOL    HW1 6740   5.355   5.619   3.459
 1947SOL    HW2 6741   5.494   5.705   3.452
 1948SOL     OW 6742   6.783   5.815   4.370
 1948SOL    HW1 6743   6.709   5.851   4.426
 1948SOL    HW2 6744   6.745   5.767   4.291
 1949SOL     OW 6745   4.349   4.145   6.669
 1949SOL    HW1 6746   4.353   4.200   6.753
 1949SOL    HW2 6747   4.308   4.056   6.689
 1950SOL     OW 6748   3.186   3.962   6.236
 1950SOL    HW1 6749   3.104   3.932   6.284
 1950SOL    HW2 6750   3.262   3.901   6.257
 1951SOL     OW 6751   6.033   1.240   6.395
 1951SOL    HW1 6752   6.099   1.164   6.391
 1951SOL    HW2 6753   5.970   1.225   6.472
 1952SOL     OW 6754   3.829   1.947   0.373
 1952SOL    HW1 6755   3.928   1.962   0.370
 1952SOL    HW2 6756   3.784   2.012   0.312
 1953SOL     OW 6757   6.915   2.272   6.405
 1953SOL    HW1 6758   6.822   2.242   6.423
 1953SOL    HW2 6759   6.977   2.234   6.474
 1954SOL     OW 6760   3.667   2.029   3.966
 1954SOL    HW1 6761   3.742   2.092   3.987
 1954SOL    HW2 6762   3.645   1.974   4.047
 1955SOL     OW 6763   0.267   6.247   2.163
 1955SOL    HW1 6764   0.268   6.152   2.132
 1955SOL    HW2 6765   0.279   6.308   2.085
 1956SOL     OW 6766   5.606   5.817   2.910
 1956SOL    HW1 6767   5.587   5.912   2.935
 1956SOL    HW2 6768   5.690   5.786   2.954
 1957SOL     OW 6769   0.625   6.310   4.774
 1957SOL    HW1 6770   0.694   6.318   4.846
 1957SOL    HW2 6771   0.620   6.396   4.723
 1958SOL     OW 6772   5.388   3.545   5.572
 1958SOL    HW1 6773   5.482   3.544   5.539
 1958SOL    HW2 6774   5.325   3.538   5.494
 1959SOL     OW 6775   1.247   2.352   6.363
 1959SOL    HW1 6776   1.249   2.449   6.338
 1959SOL    HW2 6777   1.330   2.330   6.415
 1960SOL     OW 6778   5.906   4.974   0.450
 1960SOL    HW1 6779   5.895   4.876   0.436
 1960SOL    HW2 6780   5.861   5.001   0.535
 1961SOL     OW 6781   5.808   4.310   3.774
 1961SOL    HW1 6782   5.775   4.230   3.826
 1961SOL    HW2 6783   5.900   4.334   3.805
 1962SOL     OW 6784   1.305   6.028   3.198
 1962SOL    HW1 6785   1.383   6.082   3.228
 1962SOL    HW2 6786   1.310   6.015   3.099
 1963SOL     OW 6787   0.909   0.395   2.688
 1963SOL    HW1 6788   0.951   0.414   2.777
 1963SOL    HW2 6789   0.919   0.474   2.628
 1964SOL     OW 6790   4.343   2.194   2.304
 1964SOL    HW1 6791   4.265   2.258   2.296
 1964SOL    HW2 6792   4.314   2.114   2.357
 1965SOL     OW 6793   1.110   3.528   2.974
 1965SOL    HW1 6794   1.023   3.503   3.017
 1965SOL    HW2 6795   1.110   3.626   2.955
 1966SOL     OW 6796   6.986   5.376   5.385
 1966SOL    HW1 6797   6.925   5.408   5.457
 1966SOL    HW2 6798   6.944   5.298   5.338
 1967SOL     OW 6799   4.442   2.891   5.433
 1967SOL    HW1 6800   4.353   2.853   5.407
 1967SOL    HW2 6801   4.431   2.955   5.509
 1968SOL     OW 6802   2.683   6.439   0.146
 1968SOL    HW1 6803   2.650   6.355   0.102
 1968SOL    HW2 6804   2.763   6.418   0.203
 1969SOL     OW 6805   6.360   2.402   1.484
 1969SOL    HW1 6806   6.417   2.473   1.443
 1969SOL    HW2 6807   6.271   2.401   1.440
 1970SOL     OW 6808   1.976   6.974   4.684
 1970SOL    HW1 6809   2.063   6.930   4.706
 1970SOL    HW2 6810   1.901   6.909   4.695
 1971SOL     OW 6811   0.340   6.458   6.829
 1971SOL    HW1 6812   0.296   6.485   6.915
 1971SOL    HW2 6813   0.389   6.537   6.792
 1972SOL     OW 6814   0.616   4.558   3.515
 1972SOL    HW1 6815   0.568   4.529   3.598
 1972SOL    HW2 6816   0.584   4.504   3.437
 1973SOL     OW 6817   3.510   2.523   1.365
 1973SOL    HW1 6818   3.542   2.616   1.383
 1973SOL    HW2 6819   3.524   2.466   1.447
 1974SOL     OW 6820   5.472   0.358   3.856
 1974SOL    HW1 6821   5.504   0.269   3.890
 1974SOL    HW2 6822   5.443   0.414   3.934
 1975SOL     OW 6823   3.328   0.625   3.929
 1975SOL    HW1 6824   3.253   0.603   3.867
 1975SOL    HW2 6825   3.413   0.590   3.892
 1976SOL     OW 6826   0.188   6.199   0.462
 1976SOL    HW1 6827   0.162   6.104   0.479
 1976SOL    HW2 6828   0.140   6.259   0.526
 1977SOL     OW 6829   1.015   2.382   4.635
 1977SOL    HW1 6830   0.976   2.400   4.545
 1977SOL    HW2 6831   1.114   2.397   4.631
 1978SOL     OW 6832   0.259   1.406   4.491
 1978SOL    HW1 6833   0.192   1.472   4.525
 1978SOL    HW2 6834   0.331   1.393   4.559
 1979SOL     OW 6835   6.766   4.503   4.526
 1979SOL    HW1 6836   6.857   4.543   4.537
 1979SOL    HW2 6837   6.770   4.405   4.545
 1980SOL     OW 6838   3.438   0.059   1.450
 1980SOL    HW1 6839   3.416   0.144   1.498
 1980SOL    HW2 6840   3.453   0.077   1.353
 1981SOL     OW 6841   5.033   2.967   2.009
 1981SOL    HW1 6842   5.055   2.986   1.914
 1981SOL    HW2 6843   4.942   3.002   2.031
 1982SOL     OW 6844   5.676   5.021   4.609
 1982SOL    HW1 6845   5.734   5.073   4.671
 1982SOL    HW2 6846   5.580   5.042   4.628
 1983SOL     OW 6847   1.249   2.889   3.465
 1983SOL    HW1 6848   1.188   2.934   3.400
 1983SOL    HW2 6849   1.269   2.950   3.541
 1984SOL     OW 6850   4.516   1.838   6.055
 1984SOL    HW1 6851   4.456   1.908   6.015
 1984SOL    HW2 6852   4.463   1.780   6.116
 1985SOL     OW 6853   1.349   0.948   1.646
 1985SOL    HW1 6854   1.435   0.949   1.697
 1985SOL    HW2 6855   1.281   0.895   1.696
 1986SOL     OW 6856   1.412   2.211   6.932
 1986SOL    HW1 6857   1.486   2.226   6.866
 1986SOL    HW2 6858   1.324   2.228   6.888
 1987SOL     OW 6859   2.493   3.469   1.279
 1987SOL    HW1 6860   2.459   3.514   1.362
 1987SOL    HW2 6861   2.415   3.448   1.220
 1988SOL     OW 6862   4.883   3.538   6.936
 1988SOL    HW1 6863   4.930   3.457   6.971
 1988SOL    HW2 6864   4.885   3.610   7.005
 1989SOL     OW 6865   2.085   0.133   4.877
 1989SOL    HW1 6866   2.140   0.201   4.829
 1989SOL    HW2 6867   2.007   0.106   4.821
 1990SOL     OW 6868   2.925   1.057   0.979
 1990SOL    HW1 6869   2.869   0.996   0.922
 1990SOL    HW2 6870   3.020   1.025   0.978
 1991SOL     OW 6871   3.308   5.706   4.730
 1991SOL    HW1 6872   3.328   5.788   4.784
 1991SOL    HW2 6873   3.293   5.628   4.792
 1992SOL     OW 6874   2.154   6.878   5.126
 1992SOL    HW1 6875   2.212   6.808   5.086
 1992SOL    HW2 6876   2.203   6.965   5.130
 1993SOL     OW 6877   3.328   3.999   5.274
 1993SOL    HW1 6878   3.331   3.956   5.184
 1993SOL    HW2 6879   3.419   4.001   5.313
 1994SOL     OW 6880   6.640   1.965   2.007
 1994SOL    HW1 6881   6.706   1.991   1.937
 1994SOL    HW2 6882   6.688   1.949   2.093
 1995SOL     OW 6883   6.477   1.890   1.588
 1995SOL    HW1 6884   6.424   1.814   1.551
 1995SOL    HW2 6885   6.462   1.896   1.687
 1996SOL     OW 6886   3.395   4.225   0.047
 1996SOL    HW1 6887   3.454   4.217   0.127
 1996SOL    HW2 6888   3.442   4.276   7.002
 1997SOL     OW 6889   5.492   0.618   4.852
 1997SOL    HW1 6890   5.570   0.556   4.859
 1997SOL    HW2 6891   5.508   0.699   4.908
 1998SOL     OW 6892   2.773   4.056   6.407
 1998SOL    HW1 6893   2.776   4.102   6.318
 1998SOL    HW2 6894   2.710   3.979   6.403
 1999SOL     OW 6895   2.315   7.011   1.857
 1999SOL    HW1 6896   2.286   6.925   1.816
 1999SOL    HW2 6897   2.269   0.061   1.811
 2000SOL     OW 6898   4.324   0.932   5.102
 2000SOL    HW1 6899   4.292   1.002   5.167
 2000SOL    HW2 6900   4.245   0.887   5.061
 2001SOL     OW 6901   3.000   1.880   1.351
 2001SOL    HW1 6902   3.047   1.798   1.384
 2001SOL    HW2 6903   2.901   1.862   1.350
 2002SOL     OW 6904   1.956   6.258   6.062
 2002SOL    HW1 6905   1.933   6.172   6.106
 2002SOL    HW2 6906   1.878   6.320   6.066
 2003SOL     OW 6907   5.602   6.790   3.361
 2003SOL    HW1 6908   5.530   6.851   3.395
 2003SOL    HW2 6909   5.561   6.721   3.301
 2004SOL     OW 6910   3.354   0.896   5.569
 2004SOL    HW1 6911   3.276   0.833   5.564
 2004SOL    HW2 6912   3.370   0.920   5.665
 2005SOL     OW 6913   2.196   6.312   6.263
 2005SOL    HW1 6914   2.248   6.229   6.284
 2005SOL    HW2 6915   2.152   6.302   6.174
 2006SOL     OW 6916   4.265   4.692   4.044
 2006SOL    HW1 6917   4.292   4.601   4.075
 2006SOL    HW2 6918   4.300   4.761   4.108
 2007SOL     OW 6919   5.113   5.283   0.099
 2007SOL    HW1 6920   5.208   5.307   0.080
 2007SOL    HW2 6921   5.101   5.184   0.089
 2008SOL     OW 6922   6.706   6.411   3.235
 2008SOL    HW1 6923   6.612   6.430   3.265
 2008SOL    HW2 6924   6.760   6.380   3.313
 2009SOL     OW 6925   0.197   0.642   1.863
 2009SOL    HW1 6926   0.105   0.625   1.828
 2009SOL    HW2 6927   0.239   0.718   1.812
 2010SOL     OW 6928   0.976   0.992   1.017
 2010SOL    HW1 6929   0.970   1.009   1.115
 2010SOL    HW2 6930   0.932   1.067   0.968
 2011SOL     OW 6931   6.389   2.271   5.106
 2011SOL    HW1 6932   6.307   2.248   5.158
 2011SOL    HW2 6933   6.365   2.332   5.030
 2012SOL     OW 6934   1.481   4.275   1.722
 2012SOL    HW1 6935   1.440   4.364   1.700
 2012SOL    HW2 6936   1.466   4.211   1.647
 2013SOL     OW 6937   6.123   1.741   2.665
 2013SOL    HW1 6938   6.028   1.773   2.663
 2013SOL    HW2 6939   6.169   1.779   2.745
 2014SOL     OW 6940   1.730   6.056   3.671
 2014SOL    HW1 6941   1.732   6.130   3.738
 2014SOL    HW2 6942   1.751   5.969   3.717
 2015SOL     OW 6943   3.660   0.502   0.313
 2015SOL    HW1 6944   3.598   0.455   0.376
 2015SOL    HW2 6945   3.688   0.439   0.240
 2016SOL     OW 6946   0.658   5.473   3.740
 2016SOL    HW1 6947   0.747   5.429   3.729
 2016SOL    HW2 6948   0.603   5.421   3.805
 2017SOL     OW 6949   2.189   5.825   3.181
 2017SOL    HW1 6950   2.180   5.737   3.228
 2017SOL    HW2 6951   2.251   5.884   3.232
 2018SOL     OW 6952   0.468   5.626   5.850
 2018SOL    HW1 6953   0.530   5.548   5.834
 2018SOL    HW2 6954   0.381   5.609   5.804
 2019SOL     OW 6955   5.765   2.267   0.901
 2019SOL    HW1 6956   5.738   2.244   0.994
 2019SOL    HW2 6957   5.736   2.361   0.879
 2020SOL     OW 6958   2.336   5.215   4.056
 2020SOL    HW1 6959   2.266   5.214   3.984
 2020SOL    HW2 6960   2.394   5.296   4.044
 2021SOL     OW 6961   1.656   0.817   2.549
 2021SOL    HW1 6962   1.650   0.911   2.515
 2021SOL    HW2 6963   1.574   0.766   2.522
 2022SOL     OW 6964   2.502   3.673   1.663
 2022SOL    HW1 6965   2.435   3.652   1.734
 2022SOL    HW2 6966   2.510   3.596   1.600
 2023SOL     OW 6967   6.925   1.081   6.659
 2023SOL    HW1 6968   6.841   1.057   6.706
 2023SOL    HW2 6969   6.971   1.155   6.709
 2024SOL     OW 6970   6.351   0.625   3.662
 2024SOL    HW1 6971   6.375   0.530   3.646
 2024SOL    HW2 6972   6.393   0.657   3.747
 2025SOL     OW 6973   0.298   2.181   1.129
 2025SOL    HW1 6974   0.366   2.230   1.074
 2025SOL    HW2 6975   0.217   2.240   1.141
 2026SOL     OW 6976   2.228   2.248   5.447
 2026SOL    HW1 6977   2.281   2.164   5.449
 2026SOL    HW2 6978   2.201   2.269   5.353
 2027SOL     OW 6979   0.927   1.140   2.125
 2027SOL    HW1 6980   0.952   1.148   2.221
 2027SOL    HW2 6981   0.967   1.215   2.073
 2028SOL     OW 6982   3.775   1.720   0.524
 2028SOL    HW1 6983   3.784   1.800   0.464
 2028SOL    HW2 6984   3.795   1.746   0.618
 2029SOL     OW 6985   0.946   1.240   6.442
 2029SOL    HW1 6986   0.999   1.155   6.443
 2029SOL    HW2 6987   0.891   1.246   6.525
 2030SOL     OW 6988   1.767   2.452   3.943
 2030SOL    HW1 6989   1.720   2.364   3.954
 2030SOL    HW2 6990   1.795   2.463   3.848
 2031SOL     OW 6991   5.500   6.066   2.191
 2031SOL    HW1 6992   5.577   6.075   2.254
 2031SOL    HW2 6993   5.415   6.083   2.241
 2032SOL     OW 6994   4.993   6.085   0.324
 2032SOL    HW1 6995   4.973   6.081   0.422
 2032SOL    HW2 6996   4.909   6.104   0.274
 2033SOL     OW 6997   4.816   4.575   6.419
 2033SOL    HW1 6998   4.740   4.547   6.361
 2033SOL    HW2 6999   4.785   4.647   6.482
 2034SOL     OW 7000   2.461   6.508   2.983
 2034SOL    HW1 7001   2.553   6.506   3.021
 2034SOL    HW2 7002   2.397   6.545   3.050
 2035SOL     OW 7003   0.214   1.487   2.638
 2035SOL    HW1 7004   0.193   1.579   2.671
 2035SOL    HW2 7005   0.129   1.437   2.621
 2036SOL     OW 7006   0.309   5.244   0.908
 2036SOL    HW1 7007   0.248   5.322   0.895
 2036SOL    HW2 7008   0.383   5.249   0.842
 2037SOL     OW 7009   6.959   2.413   5.454
 2037SOL    HW1 7010   6.993   2.342   5.393
 2037SOL    HW2 7011   6.860   2.401   5.469
 2038SOL     OW 7012   0.535   1.798   4.856
 2038SOL    HW1 7013   0.511   1.732   4.927
 2038SOL    HW2 7014   0.625   1.838   4.877
 2039SOL     OW 7015   6.269   5.929   3.974
 2039SOL    HW1 7016   6.325   5.915   4.056
 2039SOL    HW2 7017   6.292   5.860   3.905
 2040SOL     OW 7018   3.940   3.225   4.640
 2040SOL    HW1 7019   3.864   3.289   4.627
 2040SOL    HW2 7020   3.926   3.174   4.725
 2041SOL     OW 7021   5.915   4.749   6.094
 2041SOL    HW1 7022   6.012   4.729   6.108
 2041SOL    HW2 7023   5.898   4.764   5.996
 2042SOL     OW 7024   5.274   5.167   0.964
 2042SOL    HW1 7025   5.185   5.192   0.926
 2042SOL    HW2 7026   5.263   5.140   1.059
 2043SOL     OW 7027   6.249   5.203   2.495
 2043SOL    HW1 7028   6.190   5.280   2.519
 2043SOL    HW2 7029   6.240   5.132   2.565
 2044SOL     OW 7030   5.489   6.842   1.865
 2044SOL    HW1 7031   5.450   6.854   1.773
 2044SOL    HW2 7032   5.576   6.891   1.871
 2045SOL     OW 7033   2.137   4.588   6.373
 2045SOL    HW1 7034   2.143   4.506   6.316
 2045SOL    HW2 7035   2.223   4.601   6.422
 2046SOL     OW 7036   6.895   0.475   4.292
 2046SOL    HW1 7037   6.889   0.498   4.389
 2046SOL    HW2 7038   6.839   0.394   4.273
 2047SOL     OW 7039   4.697   2.449   1.493
 2047SOL    HW1 7040   4.676   2.441   1.395
 2047SOL    HW2 7041   4.736   2.540   1.511
 2048SOL     OW 7042   3.994   0.068   0.301
 2048SOL    HW1 7043   3.981   0.100   0.394
 2048SOL    HW2 7044   3.919   0.009   0.274
 2049SOL     OW 7045   4.893   1.672   6.621
 2049SOL    HW1 7046   4.821   1.736   6.646
 2049SOL    HW2 7047   4.911   1.678   6.522
 2050SOL     OW 7048   5.892   2.401   3.690
 2050SOL    HW1 7049   5.968   2.428   3.748
 2050SOL    HW2 7050   5.810   2.388   3.746
 2051SOL     OW 7051   1.107   5.394   0.265
 2051SOL    HW1 7052   1.168   5.358   0.194
 2051SOL    HW2 7053   1.024   5.339   0.268
 2052SOL     OW 7054   0.665   2.828   6.870
 2052SOL    HW1 7055   0.587   2.890   6.886
 2052SOL    HW2 7056   0.750   2.875   6.894
 2053SOL     OW 7057   6.283   0.437   0.505
 2053SOL    HW1 7058   6.280   0.520   0.561
 2053SOL    HW2 7059   6.313   0.461   0.412
 2054SOL     OW 7060   5.885   3.184   0.814
 2054SOL    HW1 7061   5.980   3.159   0.831
 2054SOL    HW2 7062   5.849   3.129   0.738
 2055SOL     OW 7063   5.624   2.523   3.292
 2055SOL    HW1 7064   5.548   2.542   3.354
 2055SOL    HW2 7065   5.710   2.528   3.344
 2056SOL     OW 7066   2.289   1.303   3.135
 2056SOL    HW1 7067   2.249   1.385   3.178
 2056SOL    HW2 7068   2.380   1.324   3.101
 2057SOL     OW 7069   5.796   1.949   4.064
 2057SOL    HW1 7070   5.810   1.850   4.073
 2057SOL    HW2 7071   5.884   1.994   4.050
 2058SOL     OW 7072   6.991   1.911   3.478
 2058SOL    HW1 7073   6.931   1.990   3.489
 2058SOL    HW2 7074   0.044   1.920   3.539
 2059SOL     OW 7075   2.003   0.781   6.526
 2059SOL    HW1 7076   2.053   0.815   6.446
 2059SOL    HW2 7077   2.052   0.704   6.567
 2060SOL     OW 7078   0.278   4.805   1.970
 2060SOL    HW1 7079   0.336   4.743   1.917
 2060SOL    HW2 7080   0.193   4.822   1.919
 2061SOL     OW 7081   6.832   1.281   2.251
 2061SOL    HW1 7082   6.854   1.370   2.291
 2061SOL    HW2 7083   6.917   1.230   2.234
 2062SOL     OW 7084   4.558   0.162   2.217
 2062SOL    HW1 7085   4.493   0.221   2.265
 2062SOL    HW2 7086   4.625   0.218   2.169
 2063SOL     OW 7087   1.612   2.415   6.222
 2063SOL    HW1 7088   1.546   2.366   6.279
 2063SOL    HW2 7089   1.675   2.350   6.180
 2064SOL     OW 7090   1.022   2.086   5.346
 2064SOL    HW1 7091   0.998   2.073   5.250
 2064SOL    HW2 7092   1.033   2.183   5.366
 2065SOL     OW 7093   6.008   3.354   2.261
 2065SOL    HW1 7094   6.069   3.283   2.294
 2065SOL    HW2 7095   6.027   3.373   2.165
 2066SOL     OW 7096   0.578   6.062   4.435
 2066SOL    HW1 7097   0.492   6.113   4.434
 2066SOL    HW2 7098   0.655   6.126   4.434
 2067SOL     OW 7099   6.561   6.638   0.777
 2067SOL    HW1 7100   6.559   6.683   0.867
 2067SOL    HW2 7101   6.655   6.613   0.755
 2068SOL     OW 7102   2.526   1.476   5.557
 2068SOL    HW1 7103   2.538   1.529   5.473
 2068SOL    HW2 7104   2.430   1.446   5.564
 2069SOL     OW 7105   0.695   2.706   2.583
 2069SOL    HW1 7106   0.627   2.643   2.545
 2069SOL    HW2 7107   0.706   2.688   2.681
 2070SOL     OW 7108   1.194   0.295   2.379
 2070SOL    HW1 7109   1.212   0.361   2.452
 2070SOL    HW2 7110   1.097   0.274   2.375
 2071SOL     OW 7111   0.766   6.401   3.336
 2071SOL    HW1 7112   0.797   6.343   3.261
 2071SOL    HW2 7113   0.839   6.408   3.405
 2072SOL     OW 7114   5.105   5.966   2.094
 2072SOL    HW1 7115   5.103   5.894   2.164
 2072SOL    HW2 7116   5.079   6.053   2.136
 2073SOL     OW 7117   4.042   0.030   4.867
 2073SOL    HW1 7118   4.010   0.025   4.772
 2073SOL    HW2 7119   4.053   6.964   4.903
 2074SOL     OW 7120   6.914   2.073   0.374
 2074SOL    HW1 7121   6.959   2.145   0.320
 2074SOL    HW2 7122   6.837   2.113   0.424
 2075SOL     OW 7123   4.378   3.500   1.150
 2075SOL    HW1 7124   4.411   3.504   1.244
 2075SOL    HW2 7125   4.318   3.577   1.132
 2076SOL     OW 7126   5.507   5.878   6.918
 2076SOL    HW1 7127   5.473   5.830   6.836
 2076SOL    HW2 7128   5.593   5.837   6.947
 2077SOL     OW 7129   5.185   1.647   2.221
 2077SOL    HW1 7130   5.263   1.585   2.219
 2077SOL    HW2 7131   5.209   1.729   2.273
 2078SOL     OW 7132   2.985   5.843   6.138
 2078SOL    HW1 7133   3.058   5.847   6.206
 2078SOL    HW2 7134   3.008   5.774   6.069
 2079SOL     OW 7135   5.662   0.831   3.558
 2079SOL    HW1 7136   5.619   0.741   3.567
 2079SOL    HW2 7137   5.635   0.888   3.635
 2080SOL     OW 7138   2.857   2.205   4.744
 2080SOL    HW1 7139   2.835   2.229   4.839
 2080SOL    HW2 7140   2.781   2.154   4.704
 2081SOL     OW 7141   0.888   6.606   5.235
 2081SOL    HW1 7142   0.938   6.660   5.167
 2081SOL    HW2 7143   0.839   6.668   5.296
 2082SOL     OW 7144   5.810   0.255   1.303
 2082SOL    HW1 7145   5.776   0.323   1.237
 2082SOL    HW2 7146   5.740   0.186   1.319
 2083SOL     OW 7147   3.718   5.599   0.136
 2083SOL    HW1 7148   3.706   5.694   0.105
 2083SOL    HW2 7149   3.632   5.566   0.174
 2084SOL     OW 7150   6.999   2.262   3.245
 2084SOL    HW1 7151   6.923   2.287   3.185
 2084SOL    HW2 7152   0.059   2.261   3.192
 2085SOL     OW 7153   4.696   1.026   6.785
 2085SOL    HW1 7154   4.698   1.095   6.713
 2085SOL    HW2 7155   4.693   0.935   6.744
 2086SOL     OW 7156   3.460   4.777   6.606
 2086SOL    HW1 7157   3.546   4.744   6.645
 2086SOL    HW2 7158   3.432   4.716   6.531
 2087SOL     OW 7159   4.875   6.647   2.959
 2087SOL    HW1 7160   4.912   6.624   3.049
 2087SOL    HW2 7161   4.918   6.589   2.890
 2088SOL     OW 7162   3.188   6.716   0.985
 2088SOL    HW1 7163   3.208   6.791   1.048
 2088SOL    HW2 7164   3.176   6.631   1.036
 2089SOL     OW 7165   4.712   1.671   0.307
 2089SOL    HW1 7166   4.733   1.642   0.214
 2089SOL    HW2 7167   4.615   1.653   0.327
 2090SOL     OW 7168   3.814   3.983   4.482
 2090SOL    HW1 7169   3.742   4.034   4.434
 2090SOL    HW2 7170   3.810   4.004   4.580
 2091SOL     OW 7171   0.417   5.873   0.483
 2091SOL    HW1 7172   0.331   5.858   0.435
 2091SOL    HW2 7173   0.401   5.936   0.560
 2092SOL     OW 7174   5.595   6.128   0.500
 2092SOL    HW1 7175   5.508   6.099   0.539
 2092SOL    HW2 7176   5.589   6.223   0.470
 2093SOL     OW 7177   1.497   2.224   2.525
 2093SOL    HW1 7178   1.405   2.183   2.532
 2093SOL    HW2 7179   1.498   2.290   2.451
 2094SOL     OW 7180   5.804   0.575   1.925
 2094SOL    HW1 7181   5.845   0.572   2.016
 2094SOL    HW2 7182   5.772   0.484   1.900
 2095SOL     OW 7183   5.363   6.344   3.721
 2095SOL    HW1 7184   5.418   6.427   3.712
 2095SOL    HW2 7185   5.277   6.366   3.768
 2096SOL     OW 7186   4.896   3.646   2.566
 2096SOL    HW1 7187   4.902   3.546   2.570
 2096SOL    HW2 7188   4.890   3.675   2.470
 2097SOL     OW 7189   0.651   2.746   6.599
 2097SOL    HW1 7190   0.583   2.801   6.549
 2097SOL    HW2 7191   0.681   2.796   6.680
 2098SOL     OW 7192   4.138   6.266   4.112
 2098SOL    HW1 7193   4.148   6.167   4.100
 2098SOL    HW2 7194   4.191   6.295   4.191
 2099SOL     OW 7195   2.802   0.916   5.128
 2099SOL    HW1 7196   2.772   0.910   5.224
 2099SOL    HW2 7197   2.856   0.998   5.115
 2100SOL     OW 7198   3.655   3.800   6.684
 2100SOL    HW1 7199   3.682   3.789   6.588
 2100SOL    HW2 7200   3.565   3.844   6.688
 2101SOL     OW 7201   0.813   7.001   2.706
 2101SOL    HW1 7202   0.775   6.924   2.758
 2101SOL    HW2 7203   0.859   6.967   2.625
 2102SOL     OW 7204   0.409   5.471   2.624
 2102SOL    HW1 7205   0.453   5.435   2.542
 2102SOL    HW2 7206   0.318   5.504   2.602
 2103SOL     OW 7207   3.189   3.571   6.938
 2103SOL    HW1 7208   3.160   3.631   6.863
 2103SOL    HW2 7209   3.169   3.615   7.026
 2104SOL     OW 7210   1.705   3.291   6.280
 2104SOL    HW1 7211   1.791   3.253   6.246
 2104SOL    HW2 7212   1.629   3.252   6.228
 2105SOL     OW 7213   5.485   5.370   2.952
 2105SOL    HW1 7214   5.420   5.345   2.879
 2105SOL    HW2 7215   5.524   5.287   2.991
 2106SOL     OW 7216   4.214   5.260   6.561
 2106SOL    HW1 7217   4.291   5.197   6.558
 2106SOL    HW2 7218   4.181   5.268   6.655
 2107SOL     OW 7219   3.886   3.640   5.500
 2107SOL    HW1 7220   3.974   3.594   5.513
 2107SOL    HW2 7221   3.829   3.586   5.438
 2108SOL     OW 7222   6.168   5.563   5.346
 2108SOL    HW1 7223   6.161   5.494   5.419
 2108SOL    HW2 7224   6.248   5.543   5.289
 2109SOL     OW 7225   5.362   6.348   3.385
 2109SOL    HW1 7226   5.366   6.373   3.481
 2109SOL    HW2 7227   5.446   6.377   3.339
 2110SOL     OW 7228   2.654   4.799   6.733
 2110SOL    HW1 7229   2.693   4.846   6.654
 2110SOL    HW2 7230   2.569   4.844   6.760
 2111SOL     OW 7231   0.899   2.487   6.108
 2111SOL    HW1 7232   0.994   2.517   6.116
 2111SOL    HW2 7233   0.882   2.413   6.172
 2112SOL     OW 7234   4.283   2.453   1.773
 2112SOL    HW1 7235   4.278   2.465   1.674
 2112SOL    HW2 7236   4.373   2.483   1.806
 2113SOL     OW 7237   1.743   6.836   3.018
 2113SOL    HW1 7238   1.744   6.924   3.066
 2113SOL    HW2 7239   1.783   6.847   2.927
 2114SOL     OW 7240   1.517   3.966   0.764
 2114SOL    HW1 7241   1.438   3.934   0.712
 2114SOL    HW2 7242   1.521   4.066   0.760
 2115SOL     OW 7243   2.304   4.451   3.418
 2115SOL    HW1 7244   2.375   4.460   3.348
 2115SOL    HW2 7245   2.218   4.422   3.376
 2116SOL     OW 7246   6.443   3.945   3.118
 2116SOL    HW1 7247   6.466   3.989   3.205
 2116SOL    HW2 7248   6.399   4.010   3.058
 2117SOL     OW 7249   0.099   4.798   1.745
 2117SOL    HW1 7250   0.140   4.872   1.691
 2117SOL    HW2 7251   0.013   4.770   1.704
 2118SOL     OW 7252   0.099   3.350   2.202
 2118SOL    HW1 7253   0.073   3.396   2.117
 2118SOL    HW2 7254   0.085   3.252   2.192
 2119SOL     OW 7255   1.943   5.603   0.890
 2119SOL    HW1 7256   1.953   5.659   0.972
 2119SOL    HW2 7257   1.986   5.514   0.905
 2120SOL     OW 7258   6.146   4.324   2.559
 2120SOL    HW1 7259   6.081   4.336   2.634
 2120SOL    HW2 7260   6.181   4.414   2.531
 2121SOL     OW 7261   0.598   5.454   5.251
 2121SOL    HW1 7262   0.498   5.455   5.252
 2121SOL    HW2 7263   0.630   5.479   5.160
 2122SOL     OW 7264   5.803   4.563   5.415
 2122SOL    HW1 7265   5.781   4.518   5.501
 2122SOL    HW2 7266   5.718   4.587   5.367
 2123SOL     OW 7267   0.049   4.305   2.673
 2123SOL    HW1 7268   0.018   4.320   2.767
 2123SOL    HW2 7269   0.145   4.277   2.674
 2124SOL     OW 7270   1.494   1.751   1.414
 2124SOL    HW1 7271   1.588   1.732   1.442
 2124SOL    HW2 7272   1.447   1.800   1.488
 2125SOL     OW 7273   1.684   1.224   6.971
 2125SOL    HW1 7274   1.598   1.181   6.942
 2125SOL    HW2 7275   1.726   1.170   0.017
 2126SOL     OW 7276   2.420   1.346   0.037
 2126SOL    HW1 7277   2.402   1.350   6.965
 2126SOL    HW2 7278   2.392   1.433   0.079
 2127SOL     OW 7279   6.046   2.515   4.364
 2127SOL    HW1 7280   5.970   2.451   4.376
 2127SOL    HW2 7281   6.045   2.583   4.437
 2128SOL     OW 7282   0.279   4.510   4.577
 2128SOL    HW1 7283   0.264   4.575   4.503
 2128SOL    HW2 7284   0.217   4.531   4.653
 2129SOL     OW 7285   4.884   2.776   5.542
 2129SOL    HW1 7286   4.918   2.685   5.562
 2129SOL    HW2 7287   4.811   2.771   5.473
 2130SOL     OW 7288   5.291   6.743   2.523
 2130SOL    HW1 7289   5.285   6.773   2.618
 2130SOL    HW2 7290   5.387   6.731   2.497
 2131SOL     OW 7291   0.131   1.274   0.321
 2131SOL    HW1 7292   0.041   1.232   0.332
 2131SOL    HW2 7293   0.193   1.238   0.389
 2132SOL     OW 7294   3.327   2.886   0.861
 2132SOL    HW1 7295   3.425   2.900   0.850
 2132SOL    HW2 7296   3.311   2.832   0.944
 2133SOL     OW 7297   2.586   2.277   5.925
 2133SOL    HW1 7298   2.678   2.287   5.886
 2133SOL    HW2 7299   2.529   2.226   5.861
 2134SOL     OW 7300   6.522   1.963   1.317
 2134SOL    HW1 7301   6.497   1.926   1.406
 2134SOL    HW2 7302   6.449   2.023   1.284
 2135SOL     OW 7303   0.972   4.199   4.097
 2135SOL    HW1 7304   0.912   4.127   4.133
 2135SOL    HW2 7305   0.921   4.256   4.034
 2136SOL     OW 7306   2.918   5.601   1.679
 2136SOL    HW1 7307   2.876   5.538   1.615
 2136SOL    HW2 7308   2.846   5.655   1.724
 2137SOL     OW 7309   3.002   5.429   4.683
 2137SOL    HW1 7310   2.940   5.378   4.623
 2137SOL    HW2 7311   3.090   5.441   4.636
 2138SOL     OW 7312   6.199   0.990   3.292
 2138SOL    HW1 7313   6.163   0.907   3.335
 2138SOL    HW2 7314   6.187   0.984   3.193
 2139SOL     OW 7315   3.285   0.866   5.180
 2139SOL    HW1 7316   3.364   0.927   5.192
 2139SOL    HW2 7317   3.267   0.854   5.082
 2140SOL     OW 7318   3.074   0.685   5.286
 2140SOL    HW1 7319   3.031   0.631   5.213
 2140SOL    HW2 7320   3.149   0.739   5.247
 2141SOL     OW 7321   6.193   3.896   2.305
 2141SOL    HW1 7322   6.124   3.837   2.347
 2141SOL    HW2 7323   6.226   3.963   2.372
 2142SOL     OW 7324   1.555   2.841   4.215
 2142SOL    HW1 7325   1.650   2.846   4.244
 2142SOL    HW2 7326   1.550   2.795   4.126
 2143SOL     OW 7327   1.817   5.623   1.260
 2143SOL    HW1 7328   1.738   5.603   1.202
 2143SOL    HW2 7329   1.888   5.554   1.244
 2144SOL     OW 7330   0.059   5.312   4.674
 2144SOL    HW1 7331   0.075   5.404   4.638
 2144SOL    HW2 7332   6.986   5.295   4.678
 2145SOL     OW 7333   3.871   6.760   4.525
 2145SOL    HW1 7334   3.931   6.730   4.600
 2145SOL    HW2 7335   3.921   6.756   4.439
 2146SOL     OW 7336   2.314   2.249   0.862
 2146SOL    HW1 7337   2.333   2.320   0.929
 2146SOL    HW2 7338   2.398   2.200   0.839
 2147SOL     OW 7339   6.554   1.773   5.634
 2147SOL    HW1 7340   6.517   1.686   5.603
 2147SOL    HW2 7341   6.633   1.797   5.579
 2148SOL     OW 7342   0.042   3.177   6.539
 2148SOL    HW1 7343   7.016   3.261   6.558
 2148SOL    HW2 7344   0.139   3.199   6.531
 2149SOL     OW 7345   1.183   0.965   0.833
 2149SOL    HW1 7346   1.109   0.976   0.899
 2149SOL    HW2 7347   1.145   0.953   0.741
 2150SOL     OW 7348   2.674   2.661   1.689
 2150SOL    HW1 7349   2.682   2.563   1.671
 2150SOL    HW2 7350   2.631   2.674   1.779
 2151SOL     OW 7351   0.944   6.564   0.202
 2151SOL    HW1 7352   0.850   6.587   0.176
 2151SOL    HW2 7353   0.996   6.539   0.120
 2152SOL     OW 7354   4.197   5.873   2.150
 2152SOL    HW1 7355   4.165   5.955   2.102
 2152SOL    HW2 7356   4.214   5.800   2.084
 2153SOL     OW 7357   4.432   0.965   2.757
 2153SOL    HW1 7358   4.470   0.894   2.815
 2153SOL    HW2 7359   4.333   0.969   2.770
 2154SOL     OW 7360   2.709   6.909   3.379
 2154SOL    HW1 7361   2.754   6.857   3.307
 2154SOL    HW2 7362   2.656   6.848   3.437
 2155SOL     OW 7363   4.300   7.020   1.181
 2155SOL    HW1 7364   4.310   0.093   1.165
 2155SOL    HW2 7365   4.284   7.004   1.278
 2156SOL     OW 7366   6.707   1.194   3.351
 2156SOL    HW1 7367   6.621   1.180   3.303
 2156SOL    HW2 7368   6.744   1.284   3.326
 2157SOL     OW 7369   4.516   6.019   4.043
 2157SOL    HW1 7370   4.432   6.030   3.989
 2157SOL    HW2 7371   4.559   6.109   4.056
 2158SOL     OW 7372   4.022   0.109   0.742
 2158SOL    HW1 7373   4.075   0.041   0.691
 2158SOL    HW2 7374   3.945   0.063   0.788
 2159SOL     OW 7375   1.373   0.894   5.430
 2159SOL    HW1 7376   1.472   0.893   5.417
 2159SOL    HW2 7377   1.333   0.813   5.389
 2160SOL     OW 7378   5.003   5.369   0.367
 2160SOL    HW1 7379   5.013   5.278   0.325
 2160SOL    HW2 7380   5.017   5.439   0.297
 2161SOL     OW 7381   0.954   3.906   2.424
 2161SOL    HW1 7382   0.946   3.812   2.458
 2161SOL    HW2 7383   1.036   3.914   2.368
 2162SOL     OW 7384   2.637   0.138   3.506
 2162SOL    HW1 7385   2.665   0.053   3.460
 2162SOL    HW2 7386   2.544   0.161   3.477
 2163SOL     OW 7387   1.785   3.357   0.285
 2163SOL    HW1 7388   1.742   3.431   0.337
 2163SOL    HW2 7389   1.852   3.396   0.222
 2164SOL     OW 7390   2.707   2.351   0.246
 2164SOL    HW1 7391   2.741   2.360   0.153
 2164SOL    HW2 7392   2.634   2.417   0.262
 2165SOL     OW 7393   0.787   1.695   4.192
 2165SOL    HW1 7394   0.779   1.604   4.151
 2165SOL    HW2 7395   0.695   1.730   4.214
 2166SOL     OW 7396   0.457   4.512   3.738
 2166SOL    HW1 7397   0.415   4.449   3.803
 2166SOL    HW2 7398   0.418   4.604   3.751
 2167SOL     OW 7399   1.365   2.810   3.881
 2167SOL    HW1 7400   1.348   2.898   3.926
 2167SOL    HW2 7401   1.461   2.786   3.890
 2168SOL     OW 7402   1.326   2.104   3.206
 2168SOL    HW1 7403   1.339   2.168   3.130
 2168SOL    HW2 7404   1.416   2.077   3.241
 2169SOL     OW 7405   0.714   0.804   1.143
 2169SOL    HW1 7406   0.802   0.802   1.095
 2169SOL    HW2 7407   0.707   0.724   1.203
 2170SOL     OW 7408   0.498   4.344   4.880
 2170SOL    HW1 7409   0.572   4.411   4.875
 2170SOL    HW2 7410   0.534   4.253   4.860
 2171SOL     OW 7411   0.054   5.658   1.449
 2171SOL    HW1 7412   0.026   5.715   1.371
 2171SOL    HW2 7413   0.133   5.603   1.423
 2172SOL     OW 7414   0.574   2.140   5.170
 2172SOL    HW1 7415   0.629   2.077   5.115
 2172SOL    HW2 7416   0.515   2.087   5.231
 2173SOL     OW 7417   5.592   0.323   5.469
 2173SOL    HW1 7418   5.636   0.396   5.417
 2173SOL    HW2 7419   5.593   0.238   5.416
 2174SOL     OW 7420   0.608   6.184   5.245
 2174SOL    HW1 7421   0.532   6.119   5.254
 2174SOL    HW2 7422   0.685   6.153   5.300
 2175SOL     OW 7423   2.072   3.024   5.434
 2175SOL    HW1 7424   2.026   2.961   5.497
 2175SOL    HW2 7425   2.123   2.971   5.366
 2176SOL     OW 7426   4.993   2.809   1.374
 2176SOL    HW1 7427   4.952   2.882   1.320
 2176SOL    HW2 7428   4.928   2.777   1.443
 2177SOL     OW 7429   6.709   0.899   3.020
 2177SOL    HW1 7430   6.613   0.923   3.038
 2177SOL    HW2 7431   6.759   0.894   3.106
 2178SOL     OW 7432   1.101   1.506   1.628
 2178SOL    HW1 7433   1.162   1.515   1.549
 2178SOL    HW2 7434   1.014   1.468   1.598
 2179SOL     OW 7435   1.995   4.287   6.738
 2179SOL    HW1 7436   1.908   4.276   6.786
 2179SOL    HW2 7437   1.979   4.328   6.648
 2180SOL     OW 7438   1.723   3.699   2.522
 2180SOL    HW1 7439   1.762   3.735   2.607
 2180SOL    HW2 7440   1.797   3.681   2.457
 2181SOL     OW 7441   4.736   4.620   4.711
 2181SOL    HW1 7442   4.641   4.628   4.741
 2181SOL    HW2 7443   4.743   4.548   4.642
 2182SOL     OW 7444   0.776   4.649   3.312
 2182SOL    HW1 7445   0.725   4.624   3.393
 2182SOL    HW2 7446   0.752   4.742   3.284
 2183SOL     OW 7447   2.958   3.387   6.866
 2183SOL    HW1 7448   2.961   3.485   6.886
 2183SOL    HW2 7449   3.037   3.342   6.907
 2184SOL     OW 7450   5.773   0.366   0.288
 2184SOL    HW1 7451   5.772   0.463   0.262
 2184SOL    HW2 7452   5.690   0.322   0.255
 2185SOL     OW 7453   0.746   1.204   6.686
 2185SOL    HW1 7454   0.702   1.194   6.775
 2185SOL    HW2 7455   0.710   1.136   6.622
 2186SOL     OW 7456   6.290   5.143   4.980
 2186SOL    HW1 7457   6.271   5.240   4.997
 2186SOL    HW2 7458   6.304   5.129   4.882
 2187SOL     OW 7459   0.164   5.217   2.777
 2187SOL    HW1 7460   0.069   5.246   2.781
 2187SOL    HW2 7461   0.220   5.277   2.835
 2188SOL     OW 7462   2.542   5.454   6.844
 2188SOL    HW1 7463   2.473   5.458   6.916
 2188SOL    HW2 7464   2.517   5.384   6.777
 2189SOL     OW 7465   2.566   1.320   2.230
 2189SOL    HW1 7466   2.605   1.332   2.139
 2189SOL    HW2 7467   2.596   1.233   2.268
 2190SOL     OW 7468   6.857   3.205   2.127
 2190SOL    HW1 7469   6.802   3.123   2.113
 2190SOL    HW2 7470   6.797   3.283   2.145
 2191SOL     OW 7471   2.342   1.551   5.046
 2191SOL    HW1 7472   2.328   1.637   4.997
 2191SOL    HW2 7473   2.409   1.496   4.996
 2192SOL     OW 7474   5.573   0.273   2.490
 2192SOL    HW1 7475   5.541   0.367   2.505
 2192SOL    HW2 7476   5.495   0.211   2.487
 2193SOL     OW 7477   6.315   0.011   6.326
 2193SOL    HW1 7478   6.349   0.045   6.414
 2193SOL    HW2 7479   6.373   6.962   6.294
 2194SOL     OW 7480   0.377   4.019   5.153
 2194SOL    HW1 7481   0.399   3.939   5.209
 2194SOL    HW2 7482   0.443   4.092   5.173
 2195SOL     OW 7483   0.214   5.575   5.792
 2195SOL    HW1 7484   0.225   5.476   5.786
 2195SOL    HW2 7485   0.188   5.599   5.885
 2196SOL     OW 7486   2.871   6.297   5.198
 2196SOL    HW1 7487   2.866   6.387   5.241
 2196SOL    HW2 7488   2.783   6.276   5.155
 2197SOL     OW 7489   2.832   3.053   6.094
 2197SOL    HW1 7490   2.900   3.121   6.066
 2197SOL    HW2 7491   2.879   2.974   6.134
 2198SOL     OW 7492   6.688   0.176   0.184
 2198SOL    HW1 7493   6.599   0.134   0.162
 2198SOL    HW2 7494   6.673   0.261   0.235
 2199SOL     OW 7495   5.088   6.829   4.896
 2199SOL    HW1 7496   5.039   6.742   4.901
 2199SOL    HW2 7497   5.116   6.846   4.801
 2200SOL     OW 7498   3.420   1.329   3.908
 2200SOL    HW1 7499   3.520   1.329   3.912
 2200SOL    HW2 7500   3.390   1.316   3.814
 2201SOL     OW 7501   6.144   2.942   3.460
 2201SOL    HW1 7502   6.176   2.905   3.372
 2201SOL    HW2 7503   6.212   2.923   3.530
 2202SOL     OW 7504   3.190   5.338   2.456
 2202SOL    HW1 7505   3.272   5.336   2.399
 2202SOL    HW2 7506   3.153   5.246   2.463
 2203SOL     OW 7507   2.559   4.111   1.371
 2203SOL    HW1 7508   2.528   4.049   1.443
 2203SOL    HW2 7509   2.569   4.203   1.408
 2204SOL     OW 7510   4.328   2.813   1.177
 2204SOL    HW1 7511   4.250   2.759   1.209
 2204SOL    HW2 7512   4.301   2.909   1.169
 2205SOL     OW 7513   1.564   6.692   0.589
 2205SOL    HW1 7514   1.579   6.657   0.497
 2205SOL    HW2 7515   1.614   6.636   0.655
 2206SOL     OW 7516   2.216   4.313   6.307
 2206SOL    HW1 7517   2.279   4.240   6.331
 2206SOL    HW2 7518   2.124   4.274   6.293
 2207SOL     OW 7519   3.187   5.903   0.760
 2207SOL    HW1 7520   3.197   5.811   0.724
 2207SOL    HW2 7521   3.105   5.908   0.818
 2208SOL     OW 7522   0.771   5.817   3.247
 2208SOL    HW1 7523   0.835   5.793   3.174
 2208SOL    HW2 7524   0.711   5.739   3.265
 2209SOL     OW 7525   2.316   6.131   4.849
 2209SOL    HW1 7526   2.293   6.087   4.763
 2209SOL    HW2 7527   2.410   6.107   4.874
 2210SOL     OW 7528   6.513   5.901   2.463
 2210SOL    HW1 7529   6.482   5.926   2.555
 2210SOL    HW2 7530   6.506   5.801   2.452
 2211SOL     OW 7531   6.286   0.926   0.773
 2211SOL    HW1 7532   6.245   0.949   0.685
 2211SOL    HW2 7533   6.304   1.010   0.824
 2212SOL     OW 7534   2.096   5.642   6.485
 2212SOL    HW1 7535   2.004   5.681   6.475
 2212SOL    HW2 7536   2.162   5.716   6.502
 2213SOL     OW 7537   4.770   2.377   4.836
 2213SOL    HW1 7538   4.851   2.343   4.882
 2213SOL    HW2 7539   4.688   2.334   4.875
 2214SOL     OW 7540   3.517   2.990   5.566
 2214SOL    HW1 7541   3.427   3.031   5.581
 2214SOL    HW2 7542   3.570   3.048   5.502
 2215SOL     OW 7543   5.590   1.773   6.448
 2215SOL    HW1 7544   5.657   1.742   6.381
 2215SOL    HW2 7545   5.542   1.694   6.486
 2216SOL     OW 7546   0.672   6.648   5.856
 2216SOL    HW1 7547   0.682   6.747   5.844
 2216SOL    HW2 7548   0.653   6.605   5.768
 2217SOL     OW 7549   4.452   0.791   3.807
 2217SOL    HW1 7550   4.439   0.722   3.879
 2217SOL    HW2 7551   4.476   0.746   3.721
 2218SOL     OW 7552   0.153   4.960   6.796
 2218SOL    HW1 7553   0.126   4.910   6.878
 2218SOL    HW2 7554   0.077   5.017   6.765
 2219SOL     OW 7555   6.148   1.864   0.979
 2219SOL    HW1 7556   6.221   1.881   0.913
 2219SOL    HW2 7557   6.060   1.861   0.931
 2220SOL     OW 7558   1.979   6.165   5.657
 2220SOL    HW1 7559   2.037   6.213   5.722
 2220SOL    HW2 7560   1.966   6.222   5.575
 2221SOL     OW 7561   6.848   1.679   4.583
 2221SOL    HW1 7562   6.830   1.582   4.597
 2221SOL    HW2 7563   6.785   1.715   4.514
 2222SOL     OW 7564   6.058   6.734   0.730
 2222SOL    HW1 7565   5.996   6.656   0.739
 2222SOL    HW2 7566   6.139   6.718   0.786
 2223SOL     OW 7567   6.877   1.032   5.987
 2223SOL    HW1 7568   6.942   1.054   5.915
 2223SOL    HW2 7569   6.848   1.115   6.034
 2224SOL     OW 7570   5.911   3.712   2.153
 2224SOL    HW1 7571   5.906   3.780   2.080
 2224SOL    HW2 7572   5.928   3.757   2.240
 2225SOL     OW 7573   0.219   6.787   3.103
 2225SOL    HW1 7574   0.287   6.802   3.174
 2225SOL    HW2 7575   0.229   6.856   3.031
 2226SOL     OW 7576   3.847   5.437   0.745
 2226SOL    HW1 7577   3.876   5.342   0.733
 2226SOL    HW2 7578   3.803   5.470   0.661
 2227SOL     OW 7579   4.546   2.747   1.487
 2227SOL    HW1 7580   4.493   2.663   1.485
 2227SOL    HW2 7581   4.534   2.793   1.576
 2228SOL     OW 7582   4.736   5.313   0.483
 2228SOL    HW1 7583   4.663   5.382   0.484
 2228SOL    HW2 7584   4.807   5.340   0.418
 2229SOL     OW 7585   3.479   3.570   4.854
 2229SOL    HW1 7586   3.460   3.650   4.797
 2229SOL    HW2 7587   3.412   3.565   4.928
 2230SOL     OW 7588   5.348   5.873   1.587
 2230SOL    HW1 7589   5.391   5.799   1.638
 2230SOL    HW2 7590   5.252   5.852   1.571
 2231SOL     OW 7591   0.880   0.616   6.383
 2231SOL    HW1 7592   0.962   0.673   6.393
 2231SOL    HW2 7593   0.837   0.634   6.294
 2232SOL     OW 7594   0.404   1.124   5.114
 2232SOL    HW1 7595   0.383   1.149   5.020
 2232SOL    HW2 7596   0.412   1.024   5.121
 2233SOL     OW 7597   3.042   3.384   0.804
 2233SOL    HW1 7598   3.132   3.422   0.828
 2233SOL    HW2 7599   3.052   3.287   0.781
 2234SOL     OW 7600   4.127   1.527   0.668
 2234SOL    HW1 7601   4.165   1.618   0.685
 2234SOL    HW2 7602   4.072   1.529   0.584
 2235SOL     OW 7603   2.519   0.510   2.423
 2235SOL    HW1 7604   2.487   0.510   2.518
 2235SOL    HW2 7605   2.589   0.580   2.412
 2236SOL     OW 7606   1.872   3.707   6.093
 2236SOL    HW1 7607   1.799   3.641   6.082
 2236SOL    HW2 7608   1.959   3.659   6.105
 2237SOL     OW 7609   6.007   4.492   4.414
 2237SOL    HW1 7610   6.009   4.480   4.513
 2237SOL    HW2 7611   5.922   4.538   4.388
 2238SOL     OW 7612   4.865   4.969   2.201
 2238SOL    HW1 7613   4.796   5.041   2.189
 2238SOL    HW2 7614   4.842   4.915   2.282
 2239SOL     OW 7615   4.355   5.510   4.041
 2239SOL    HW1 7616   4.374   5.599   3.998
 2239SOL    HW2 7617   4.419   5.442   4.006
 2240SOL     OW 7618   3.695   5.690   2.098
 2240SOL    HW1 7619   3.726   5.763   2.158
 2240SOL    HW2 7620   3.765   5.671   2.029
 2241SOL     OW 7621   6.690   6.997   2.010
 2241SOL    HW1 7622   6.685   0.071   2.010
 2241SOL    HW2 7623   6.629   6.961   2.081
 2242SOL     OW 7624   5.342   3.283   2.550
 2242SOL    HW1 7625   5.404   3.290   2.472
 2242SOL    HW2 7626   5.292   3.369   2.560
 2243SOL     OW 7627   1.960   6.596   0.037
 2243SOL    HW1 7628   2.019   6.522   0.068
 2243SOL    HW2 7629   1.981   6.618   6.967
 2244SOL     OW 7630   2.948   0.334   1.280
 2244SOL    HW1 7631   2.916   0.278   1.204
 2244SOL    HW2 7632   2.870   0.381   1.322
 2245SOL     OW 7633   6.770   1.776   0.505
 2245SOL    HW1 7634   6.855   1.751   0.459
 2245SOL    HW2 7635   6.790   1.805   0.599
 2246SOL     OW 7636   1.992   0.604   4.146
 2246SOL    HW1 7637   2.051   0.559   4.079
 2246SOL    HW2 7638   2.042   0.619   4.231
 2247SOL     OW 7639   3.132   3.715   2.533
 2247SOL    HW1 7640   3.203   3.684   2.471
 2247SOL    HW2 7641   3.156   3.806   2.569
 2248SOL     OW 7642   6.507   4.315   4.425
 2248SOL    HW1 7643   6.434   4.263   4.469
 2248SOL    HW2 7644   6.591   4.305   4.479
 2249SOL     OW 7645   4.150   6.739   4.034
 2249SOL    HW1 7646   4.188   6.764   3.945
 2249SOL    HW2 7647   4.077   6.803   4.058
 2250SOL     OW 7648   3.154   3.777   5.493
 2250SOL    HW1 7649   3.179   3.808   5.401
 2250SOL    HW2 7650   3.055   3.764   5.498
 2251SOL     OW 7651   5.547   0.112   5.924
 2251SOL    HW1 7652   5.451   0.133   5.906
 2251SOL    HW2 7653   5.582   0.050   5.854
 2252SOL     OW 7654   5.141   1.849   2.700
 2252SOL    HW1 7655   5.227   1.896   2.720
 2252SOL    HW2 7656   5.074   1.871   2.770
 2253SOL     OW 7657   0.116   3.579   6.775
 2253SOL    HW1 7658   0.081   3.665   6.738
 2253SOL    HW2 7659   0.131   3.588   6.873
 2254SOL     OW 7660   3.653   3.481   3.403
 2254SOL    HW1 7661   3.739   3.490   3.454
 2254SOL    HW2 7662   3.627   3.385   3.397
 2255SOL     OW 7663   2.973   3.407   5.608
 2255SOL    HW1 7664   2.917   3.380   5.686
 2255SOL    HW2 7665   2.914   3.445   5.536
 2256SOL     OW 7666   4.916   6.824   2.090
 2256SOL    HW1 7667   4.954   6.898   2.146
 2256SOL    HW2 7668   4.880   6.862   2.005
 2257SOL     OW 7669   1.050   1.276   4.280
 2257SOL    HW1 7670   1.001   1.195   4.248
 2257SOL    HW2 7671   0.985   1.350   4.294
 2258SOL     OW 7672   2.188   5.697   4.077
 2258SOL    HW1 7673   2.122   5.641   4.126
 2258SOL    HW2 7674   2.144   5.781   4.046
 2259SOL     OW 7675   5.116   2.835   5.323
 2259SOL    HW1 7676   5.085   2.756   5.270
 2259SOL    HW2 7677   5.093   2.919   5.274
 2260SOL     OW 7678   0.549   3.608   1.221
 2260SOL    HW1 7679   0.491   3.546   1.273
 2260SOL    HW2 7680   0.606   3.555   1.157
 2261SOL     OW 7681   6.826   4.345   0.682
 2261SOL    HW1 7682   6.885   4.288   0.740
 2261SOL    HW2 7683   6.882   4.396   0.617
 2262SOL     OW 7684   6.255   6.928   3.044
 2262SOL    HW1 7685   6.224   7.010   2.997
 2262SOL    HW2 7686   6.182   6.893   3.103
 2263SOL     OW 7687   1.879   5.797   0.588
 2263SOL    HW1 7688   1.928   5.882   0.606
 2263SOL    HW2 7689   1.942   5.719   0.596
 2264SOL     OW 7690   2.539   0.023   6.480
 2264SOL    HW1 7691   2.482   0.089   6.431
 2264SOL    HW2 7692   2.480   6.983   6.527
 2265SOL     OW 7693   2.070   0.626   4.404
 2265SOL    HW1 7694   2.167   0.645   4.417
 2265SOL    HW2 7695   2.016   0.706   4.429
 2266SOL     OW 7696   4.844   1.730   6.342
 2266SOL    HW1 7697   4.842   1.696   6.248
 2266SOL    HW2 7698   4.767   1.793   6.356
 2267SOL     OW 7699   4.998   2.808   4.890
 2267SOL    HW1 7700   4.950   2.765   4.967
 2267SOL    HW2 7701   4.955   2.895   4.868
 2268SOL     OW 7702   6.169   4.034   6.522
 2268SOL    HW1 7703   6.243   4.030   6.588
 2268SOL    HW2 7704   6.188   4.107   6.456
 2269SOL     OW 7705   1.127   3.563   5.016
 2269SOL    HW1 7706   1.063   3.630   5.052
 2269SOL    HW2 7707   1.139   3.489   5.082
 2270SOL     OW 7708   3.778   3.157   6.443
 2270SOL    HW1 7709   3.857   3.161   6.505
 2270SOL    HW2 7710   3.805   3.192   6.353
 2271SOL     OW 7711   5.548   4.597   7.001
 2271SOL    HW1 7712   5.547   4.574   0.073
 2271SOL    HW2 7713   5.643   4.607   6.971
 2272SOL     OW 7714   6.724   1.049   6.844
 2272SOL    HW1 7715   6.730   0.983   6.919
 2272SOL    HW2 7716   6.709   1.140   6.882
 2273SOL     OW 7717   1.652   2.426   2.204
 2273SOL    HW1 7718   1.706   2.510   2.209
 2273SOL    HW2 7719   1.568   2.437   2.256
 2274SOL     OW 7720   0.655   1.762   6.292
 2274SOL    HW1 7721   0.576   1.783   6.234
 2274SOL    HW2 7722   0.739   1.774   6.239
 2275SOL     OW 7723   5.971   6.280   2.870
 2275SOL    HW1 7724   6.029   6.335   2.809
 2275SOL    HW2 7725   6.023   6.200   2.902
 2276SOL     OW 7726   1.370   5.836   1.523
 2276SOL    HW1 7727   1.408   5.922   1.558
 2276SOL    HW2 7728   1.327   5.853   1.435
 2277SOL     OW 7729   3.338   3.808   4.713
 2277SOL    HW1 7730   3.251   3.761   4.703
 2277SOL    HW2 7731   3.358   3.860   4.630
 2278SOL     OW 7732   6.074   2.412   3.901
 2278SOL    HW1 7733   6.074   2.451   3.994
 2278SOL    HW2 7734   6.137   2.335   3.897
 2279SOL     OW 7735   6.615   6.854   5.290
 2279SOL    HW1 7736   6.691   6.839   5.227
 2279SOL    HW2 7737   6.628   6.942   5.337
 2280SOL     OW 7738   6.597   0.432   4.734
 2280SOL    HW1 7739   6.605   0.334   4.713
 2280SOL    HW2 7740   6.537   0.475   4.667
 2281SOL     OW 7741   2.946   0.716   1.791
 2281SOL    HW1 7742   2.896   0.759   1.866
 2281SOL    HW2 7743   3.035   0.685   1.824
 2282SOL     OW 7744   5.419   6.232   5.539
 2282SOL    HW1 7745   5.417   6.176   5.456
 2282SOL    HW2 7746   5.510   6.229   5.580
 2283SOL     OW 7747   1.504   0.670   1.966
 2283SOL    HW1 7748   1.467   0.758   1.995
 2283SOL    HW2 7749   1.552   0.627   2.043
 2284SOL     OW 7750   1.164   3.378   6.119
 2284SOL    HW1 7751   1.215   3.331   6.191
 2284SOL    HW2 7752   1.066   3.359   6.130
 2285SOL     OW 7753   1.339   3.098   0.298
 2285SOL    HW1 7754   1.397   3.040   0.241
 2285SOL    HW2 7755   1.370   3.193   0.290
 2286SOL     OW 7756   5.712   0.252   3.452
 2286SOL    HW1 7757   5.754   0.241   3.542
 2286SOL    HW2 7758   5.784   0.255   3.382
 2287SOL     OW 7759   2.473   0.918   3.799
 2287SOL    HW1 7760   2.572   0.921   3.816
 2287SOL    HW2 7761   2.456   0.926   3.701
 2288SOL     OW 7762   0.034   5.169   3.807
 2288SOL    HW1 7763   0.105   5.206   3.867
 2288SOL    HW2 7764   0.065   5.175   3.712
 2289SOL     OW 7765   0.140   5.269   0.582
 2289SOL    HW1 7766   0.147   5.323   0.666
 2289SOL    HW2 7767   0.065   5.305   0.526
 2290SOL     OW 7768   0.412   3.971   1.515
 2290SOL    HW1 7769   0.462   3.982   1.429
 2290SOL    HW2 7770   0.475   3.983   1.592
 2291SOL     OW 7771   2.481   2.524   5.670
 2291SOL    HW1 7772   2.399   2.467   5.682
 2291SOL    HW2 7773   2.547   2.476   5.612
 2292SOL     OW 7774   1.817   1.301   4.204
 2292SOL    HW1 7775   1.886   1.360   4.161
 2292SOL    HW2 7776   1.809   1.216   4.151
 2293SOL     OW 7777   5.346   5.800   2.045
 2293SOL    HW1 7778   5.274   5.868   2.056
 2293SOL    HW2 7779   5.429   5.830   2.092
 2294SOL     OW 7780   3.105   0.215   6.998
 2294SOL    HW1 7781   3.201   0.244   6.992
 2294SOL    HW2 7782   3.062   0.256   0.052
 2295SOL     OW 7783   0.404   1.652   2.257
 2295SOL    HW1 7784   0.329   1.675   2.319
 2295SOL    HW2 7785   0.488   1.638   2.310
 2296SOL     OW 7786   2.931   6.765   0.839
 2296SOL    HW1 7787   3.015   6.726   0.878
 2296SOL    HW2 7788   2.943   6.779   0.741
 2297SOL     OW 7789   3.806   4.339   5.183
 2297SOL    HW1 7790   3.834   4.246   5.160
 2297SOL    HW2 7791   3.864   4.405   5.136
 2298SOL     OW 7792   3.674   2.762   1.691
 2298SOL    HW1 7793   3.616   2.843   1.699
 2298SOL    HW2 7794   3.618   2.680   1.704
 2299SOL     OW 7795   5.813   0.703   6.680
 2299SOL    HW1 7796   5.756   0.624   6.704
 2299SOL    HW2 7797   5.754   0.777   6.645
 2300SOL     OW 7798   2.326   5.296   1.774
 2300SOL    HW1 7799   2.273   5.319   1.855
 2300SOL    HW2 7800   2.311   5.366   1.704
 2301SOL     OW 7801   2.883   3.390   2.899
 2301SOL    HW1 7802   2.913   3.434   2.814
 2301SOL    HW2 7803   2.784   3.400   2.908
 2302SOL     OW 7804   3.579   0.230   2.226
 2302SOL    HW1 7805   3.601   0.309   2.168
 2302SOL    HW2 7806   3.541   0.157   2.169
 2303SOL     OW 7807   1.453   3.465   5.671
 2303SOL    HW1 7808   1.374   3.429   5.720
 2303SOL    HW2 7809   1.487   3.394   5.609
 2304SOL     OW 7810   2.670   0.600   3.501
 2304SOL    HW1 7811   2.612   0.674   3.467
 2304SOL    HW2 7812   2.614   0.535   3.552
 2305SOL     OW 7813   3.757   5.780   3.158
 2305SOL    HW1 7814   3.667   5.740   3.177
 2305SOL    HW2 7815   3.776   5.775   3.060
 2306SOL     OW 7816   1.966   5.787   1.429
 2306SOL    HW1 7817   1.908   5.815   1.506
 2306SOL    HW2 7818   1.915   5.726   1.369
 2307SOL     OW 7819   2.550   4.759   2.420
 2307SOL    HW1 7820   2.644   4.761   2.452
 2307SOL    HW2 7821   2.539   4.688   2.351
 2308SOL     OW 7822   1.374   6.829   6.691
 2308SOL    HW1 7823   1.333   6.743   6.659
 2308SOL    HW2 7824   1.334   6.853   6.780
 2309SOL     OW 7825   2.494   6.539   0.350
 2309SOL    HW1 7826   2.541   6.623   0.377
 2309SOL    HW2 7827   2.553   6.487   0.287
 2310SOL     OW 7828   6.163   6.202   1.281
 2310SOL    HW1 7829   6.222   6.149   1.220
 2310SOL    HW2 7830   6.159   6.157   1.370
 2311SOL     OW 7831   2.876   6.573   2.492
 2311SOL    HW1 7832   2.964   6.566   2.445
 2311SOL    HW2 7833   2.854   6.669   2.508
 2312SOL     OW 7834   3.452   6.781   3.490
 2312SOL    HW1 7835   3.446   6.712   3.562
 2312SOL    HW2 7836   3.389   6.856   3.510
 2313SOL     OW 7837   4.732   5.351   2.116
 2313SOL    HW1 7838   4.783   5.360   2.030
 2313SOL    HW2 7839   4.781   5.400   2.188
 2314SOL     OW 7840   5.913   0.868   3.526
 2314SOL    HW1 7841   5.970   0.810   3.584
 2314SOL    HW2 7842   5.816   0.849   3.543
 2315SOL     OW 7843   5.076   3.510   5.116
 2315SOL    HW1 7844   4.995   3.567   5.105
 2315SOL    HW2 7845   5.097   3.465   5.029
 2316SOL     OW 7846   2.792   1.617   5.255
 2316SOL    HW1 7847   2.770   1.590   5.161
 2316SOL    HW2 7848   2.752   1.707   5.274
 2317SOL     OW 7849   6.429   6.431   3.625
 2317SOL    HW1 7850   6.373   6.496   3.675
 2317SOL    HW2 7851   6.526   6.451   3.641
 2318SOL     OW 7852   2.179   3.388   4.504
 2318SOL    HW1 7853   2.244   3.340   4.446
 2318SOL    HW2 7854   2.156   3.329   4.582
 2319SOL     OW 7855   3.087   5.366   5.236
 2319SOL    HW1 7856   3.088   5.318   5.324
 2319SOL    HW2 7857   3.052   5.304   5.165
 2320SOL     OW 7858   1.188   2.584   4.911
 2320SOL    HW1 7859   1.094   2.616   4.898
 2320SOL    HW2 7860   1.192   2.522   4.989
 2321SOL     OW 7861   2.291   5.711   6.827
 2321SOL    HW1 7862   2.197   5.677   6.815
 2321SOL    HW2 7863   2.308   5.726   6.925
 2322SOL     OW 7864   2.185   4.561   2.272
 2322SOL    HW1 7865   2.200   4.514   2.185
 2322SOL    HW2 7866   2.272   4.585   2.313
 2323SOL     OW 7867   3.386   4.843   1.686
 2323SOL    HW1 7868   3.447   4.773   1.724
 2323SOL    HW2 7869   3.296   4.835   1.728
 2324SOL     OW 7870   6.518   6.337   1.017
 2324SOL    HW1 7871   6.434   6.364   1.065
 2324SOL    HW2 7872   6.584   6.412   1.021
 2325SOL     OW 7873   0.488   4.587   1.373
 2325SOL    HW1 7874   0.560   4.539   1.322
 2325SOL    HW2 7875   0.415   4.523   1.395
 2326SOL     OW 7876   1.373   6.420   6.379
 2326SOL    HW1 7877   1.472   6.415   6.385
 2326SOL    HW2 7878   1.333   6.330   6.396
 2327SOL     OW 7879   0.642   1.156   2.943
 2327SOL    HW1 7880   0.689   1.181   2.859
 2327SOL    HW2 7881   0.704   1.169   3.021
 2328SOL     OW 7882   1.464   1.818   3.098
 2328SOL    HW1 7883   1.524   1.851   3.170
 2328SOL    HW2 7884   1.509   1.830   3.009
 2329SOL     OW 7885   0.704   4.492   4.928
 2329SOL    HW1 7886   0.783   4.472   4.870
 2329SOL    HW2 7887   0.727   4.476   5.024
 2330SOL     OW 7888   6.963   2.667   0.946
 2330SOL    HW1 7889   6.873   2.694   0.980
 2330SOL    HW2 7890   0.007   2.699   1.010
 2331SOL     OW 7891   3.881   5.021   0.233
 2331SOL    HW1 7892   3.917   4.952   0.297
 2331SOL    HW2 7893   3.954   5.084   0.209
 2332SOL     OW 7894   6.976   6.910   5.804
 2332SOL    HW1 7895   6.983   6.847   5.726
 2332SOL    HW2 7896   7.003   6.862   5.888
 2333SOL     OW 7897   6.855   4.697   3.200
 2333SOL    HW1 7898   6.772   4.650   3.227
 2333SOL    HW2 7899   6.923   4.630   3.169
 2334SOL     OW 7900   1.742   0.798   6.629
 2334SOL    HW1 7901   1.838   0.789   6.601
 2334SOL    HW2 7902   1.682   0.768   6.555
 2335SOL     OW 7903   5.951   0.462   3.872
 2335SOL    HW1 7904   5.906   0.441   3.786
 2335SOL    HW2 7905   5.964   0.561   3.880
 2336SOL     OW 7906   4.087   1.347   5.132
 2336SOL    HW1 7907   4.156   1.411   5.097
 2336SOL    HW2 7908   4.110   1.321   5.226
 2337SOL     OW 7909   4.181   0.496   1.367
 2337SOL    HW1 7910   4.209   0.507   1.463
 2337SOL    HW2 7911   4.261   0.505   1.308
 2338SOL     OW 7912   0.267   3.113   4.231
 2338SOL    HW1 7913   0.260   3.062   4.316
 2338SOL    HW2 7914   0.244   3.209   4.248
 2339SOL     OW 7915   3.484   4.177   3.505
 2339SOL    HW1 7916   3.517   4.099   3.452
 2339SOL    HW2 7917   3.402   4.214   3.461
 2340SOL     OW 7918   6.697   4.399   6.522
 2340SOL    HW1 7919   6.788   4.362   6.499
 2340SOL    HW2 7920   6.707   4.472   6.590
 2341SOL     OW 7921   3.128   4.858   2.303
 2341SOL    HW1 7922   3.117   4.831   2.207
 2341SOL    HW2 7923   3.215   4.906   2.315
 2342SOL     OW 7924   1.578   6.871   5.053
 2342SOL    HW1 7925   1.556   6.803   4.983
 2342SOL    HW2 7926   1.675   6.865   5.076
 2343SOL     OW 7927   1.757   5.566   2.182
 2343SOL    HW1 7928   1.805   5.482   2.211
 2343SOL    HW2 7929   1.782   5.587   2.088
 2344SOL     OW 7930   0.488   5.802   0.088
 2344SOL    HW1 7931   0.555   5.873   0.112
 2344SOL    HW2 7932   0.513   5.762   7.026
 2345SOL     OW 7933   2.375   5.268   4.993
 2345SOL    HW1 7934   2.428   5.214   4.928
 2345SOL    HW2 7935   2.294   5.305   4.947
 2346SOL     OW 7936   3.161   3.049   5.784
 2346SOL    HW1 7937   3.195   3.141   5.805
 2346SOL    HW2 7938   3.118   3.010   5.865
 2347SOL     OW 7939   2.779   2.453   1.428
 2347SOL    HW1 7940   2.768   2.427   1.524
 2347SOL    HW2 7941   2.779   2.371   1.371
 2348SOL     OW 7942   1.971   6.054   3.540
 2348SOL    HW1 7943   1.880   6.045   3.580
 2348SOL    HW2 7944   1.966   6.106   3.455
 2349SOL     OW 7945   0.856   4.672   5.826
 2349SOL    HW1 7946   0.865   4.606   5.751
 2349SOL    HW2 7947   0.892   4.761   5.795
 2350SOL     OW 7948   6.321   5.577   5.999
 2350SOL    HW1 7949   6.241   5.539   6.046
 2350SOL    HW2 7950   6.400   5.573   6.060
 2351SOL     OW 7951   2.969   5.312   4.294
 2351SOL    HW1 7952   2.895   5.247   4.311
 2351SOL    HW2 7953   2.929   5.403   4.278
 2352SOL     OW 7954   0.303   3.890   2.627
 2352SOL    HW1 7955   0.353   3.829   2.690
 2352SOL    HW2 7956   0.368   3.930   2.562
 2353SOL     OW 7957   3.248   5.479   4.566
 2353SOL    HW1 7958   3.301   5.560   4.593
 2353SOL    HW2 7959   3.305   5.398   4.570
 2354SOL     OW 7960   2.562   1.760   4.856
 2354SOL    HW1 7961   2.476   1.737   4.811
 2354SOL    HW2 7962   2.574   1.702   4.937
 2355SOL     OW 7963   2.271   0.010   6.095
 2355SOL    HW1 7964   2.290   6.951   6.045
 2355SOL    HW2 7965   2.176   0.037   6.082
 2356SOL     OW 7966   1.284   3.277   6.355
 2356SOL    HW1 7967   1.245   3.282   6.447
 2356SOL    HW2 7968   1.367   3.332   6.350
 2357SOL     OW 7969   3.823   0.192   2.879
 2357SOL    HW1 7970   3.733   0.234   2.867
 2357SOL    HW2 7971   3.835   0.120   2.810
 2358SOL     OW 7972   3.108   5.227   5.493
 2358SOL    HW1 7973   3.113   5.278   5.579
 2358SOL    HW2 7974   3.074   5.135   5.511
 2359SOL     OW 7975   6.921   0.839   5.235
 2359SOL    HW1 7976   6.909   0.935   5.259
 2359SOL    HW2 7977   6.908   0.827   5.136
 2360SOL     OW 7978   5.508   3.292   6.601
 2360SOL    HW1 7979   5.411   3.299   6.623
 2360SOL    HW2 7980   5.525   3.204   6.557
 2361SOL     OW 7981   2.168   0.873   6.073
 2361SOL    HW1 7982   2.186   0.821   6.156
 2361SOL    HW2 7983   2.235   0.848   6.003
 2362SOL     OW 7984   2.458   5.797   3.732
 2362SOL    HW1 7985   2.364   5.789   3.699
 2362SOL    HW2 7986   2.505   5.868   3.679
 2363SOL     OW 7987   4.894   1.941   5.002
 2363SOL    HW1 7988   4.911   1.856   4.952
 2363SOL    HW2 7989   4.796   1.952   5.018
 2364SOL     OW 7990   0.981   2.408   2.391
 2364SOL    HW1 7991   0.948   2.498   2.363
 2364SOL    HW2 7992   0.988   2.404   2.490
 2365SOL     OW 7993   6.684   2.543   6.845
 2365SOL    HW1 7994   6.595   2.538   6.890
 2365SOL    HW2 7995   6.693   2.467   6.781
 2366SOL     OW 7996   2.640   5.632   6.339
 2366SOL    HW1 7997   2.559   5.635   6.398
 2366SOL    HW2 7998   2.691   5.718   6.349
 2367SOL     OW 7999   2.768   4.128   1.018
 2367SOL    HW1 8000   2.859   4.131   0.976
 2367SOL    HW2 8001   2.702   4.091   0.952
 2368SOL     OW 8002   4.518   6.904   4.877
 2368SOL    HW1 8003   4.501   6.960   4.957
 2368SOL    HW2 8004   4.542   6.811   4.906
 2369SOL     OW 8005   2.265   0.904   5.370
 2369SOL    HW1 8006   2.273   0.848   5.453
 2369SOL    HW2 8007   2.222   0.850   5.298
 2370SOL     OW 8008   4.869   2.969   0.160
 2370SOL    HW1 8009   4.799   2.899   0.174
 2370SOL    HW2 8010   4.875   2.991   0.062
 2371SOL     OW 8011   0.925   6.848   1.296
 2371SOL    HW1 8012   0.957   6.870   1.389
 2371SOL    HW2 8013   0.938   6.928   1.237
 2372SOL     OW 8014   0.120   2.801   1.802
 2372SOL    HW1 8015   0.182   2.779   1.877
 2372SOL    HW2 8016   0.030   2.825   1.840
 2373SOL     OW 8017   1.138   2.594   6.143
 2373SOL    HW1 8018   1.236   2.591   6.120
 2373SOL    HW2 8019   1.127   2.612   6.240
 2374SOL     OW 8020   6.219   1.452   3.890
 2374SOL    HW1 8021   6.231   1.551   3.879
 2374SOL    HW2 8022   6.204   1.411   3.800
 2375SOL     OW 8023   3.126   6.601   4.829
 2375SOL    HW1 8024   3.082   6.519   4.866
 2375SOL    HW2 8025   3.101   6.680   4.884
 2376SOL     OW 8026   6.711   2.491   4.479
 2376SOL    HW1 8027   6.620   2.510   4.441
 2376SOL    HW2 8028   6.777   2.554   4.439
 2377SOL     OW 8029   3.960   3.703   3.993
 2377SOL    HW1 8030   4.019   3.765   4.045
 2377SOL    HW2 8031   4.014   3.658   3.922
 2378SOL     OW 8032   5.080   1.728   0.930
 2378SOL    HW1 8033   5.085   1.776   1.017
 2378SOL    HW2 8034   5.080   1.795   0.855
 2379SOL     OW 8035   6.681   1.464   0.157
 2379SOL    HW1 8036   6.682   1.527   0.078
 2379SOL    HW2 8037   6.762   1.481   0.214
 2380SOL     OW 8038   0.392   1.660   6.914
 2380SOL    HW1 8039   0.474   1.715   6.896
 2380SOL    HW2 8040   0.386   1.586   6.847
 2381SOL     OW 8041   1.855   4.947   4.862
 2381SOL    HW1 8042   1.944   4.989   4.877
 2381SOL    HW2 8043   1.837   4.881   4.936
 2382SOL     OW 8044   2.152   3.848   4.491
 2382SOL    HW1 8045   2.161   3.934   4.440
 2382SOL    HW2 8046   2.147   3.867   4.589
 2383SOL     OW 8047   4.769   6.119   0.775
 2383SOL    HW1 8048   4.679   6.090   0.807
 2383SOL    HW2 8049   4.771   6.219   0.769
 2384SOL     OW 8050   6.018   1.175   2.848
 2384SOL    HW1 8051   6.002   1.272   2.866
 2384SOL    HW2 8052   5.930   1.128   2.836
 2385SOL     OW 8053   1.150   6.765   0.484
 2385SOL    HW1 8054   1.154   6.763   0.384
 2385SOL    HW2 8055   1.109   6.681   0.518
 2386SOL     OW 8056   6.433   5.848   4.219
 2386SOL    HW1 8057   6.424   5.753   4.247
 2386SOL    HW2 8058   6.492   5.853   4.138
 2387SOL     OW 8059   1.590   1.961   4.232
 2387SOL    HW1 8060   1.581   1.938   4.135
 2387SOL    HW2 8061   1.499   1.960   4.275
 2388SOL     OW 8062   0.573   2.076   4.369
 2388SOL    HW1 8063   0.663   2.034   4.353
 2388SOL    HW2 8064   0.550   2.135   4.291
 2389SOL     OW 8065   4.783   3.986   2.922
 2389SOL    HW1 8066   4.784   3.994   3.022
 2389SOL    HW2 8067   4.811   3.894   2.896
 2390SOL     OW 8068   3.845   2.973   3.561
 2390SOL    HW1 8069   3.894   2.901   3.611
 2390SOL    HW2 8070   3.751   2.979   3.594
 2391SOL     OW 8071   4.741   3.873   5.939
 2391SOL    HW1 8072   4.662   3.853   5.996
 2391SOL    HW2 8073   4.803   3.934   5.988
 2392SOL     OW 8074   3.967   5.967   5.345
 2392SOL    HW1 8075   4.058   6.003   5.327
 2392SOL    HW2 8076   3.900   6.017   5.291
 2393SOL     OW 8077   4.827   3.714   6.235
 2393SOL    HW1 8078   4.896   3.759   6.178
 2393SOL    HW2 8079   4.829   3.615   6.219
 2394SOL     OW 8080   1.048   3.839   4.697
 2394SOL    HW1 8081   0.952   3.846   4.725
 2394SOL    HW2 8082   1.067   3.910   4.629
 2395SOL     OW 8083   5.305   1.847   6.032
 2395SOL    HW1 8084   5.378   1.844   5.965
 2395SOL    HW2 8085   5.343   1.864   6.123
 2396SOL     OW 8086   3.464   5.385   1.130
 2396SOL    HW1 8087   3.444   5.396   1.032
 2396SOL    HW2 8088   3.529   5.455   1.159
 2397SOL     OW 8089   6.777   3.826   5.733
 2397SOL    HW1 8090   6.817   3.734   5.738
 2397SOL    HW2 8091   6.754   3.847   5.638
 2398SOL     OW 8092   3.538   4.061   6.523
 2398SOL    HW1 8093   3.440   4.043   6.532
 2398SOL    HW2 8094   3.583   3.982   6.482
 2399SOL     OW 8095   4.535   0.979   1.609
 2399SOL    HW1 8096   4.494   0.934   1.689
 2399SOL    HW2 8097   4.510   0.928   1.526
 2400SOL     OW 8098   2.878   4.286   0.708
 2400SOL    HW1 8099   2.870   4.385   0.717
 2400SOL    HW2 8100   2.919   4.249   0.791
 2401SOL     OW 8101   5.354   6.059   6.657
 2401SOL    HW1 8102   5.336   6.049   6.755
 2401SOL    HW2 8103   5.336   6.154   6.630
 2402SOL     OW 8104   0.400   0.519   3.298
 2402SOL    HW1 8105   0.481   0.532   3.241
 2402SOL    HW2 8106   0.339   0.597   3.286
 2403SOL     OW 8107   2.087   2.371   6.607
 2403SOL    HW1 8108   2.122   2.322   6.687
 2403SOL    HW2 8109   2.125   2.464   6.606
 2404SOL     OW 8110   2.903   1.123   1.239
 2404SOL    HW1 8111   2.989   1.108   1.288
 2404SOL    HW2 8112   2.917   1.110   1.141
 2405SOL     OW 8113   3.587   3.505   2.378
 2405SOL    HW1 8114   3.578   3.408   2.400
 2405SOL    HW2 8115   3.656   3.547   2.436
 2406SOL     OW 8116   2.526   0.056   2.346
 2406SOL    HW1 8117   2.488   0.035   2.257
 2406SOL    HW2 8118   2.454   0.051   2.416
 2407SOL     OW 8119   5.653   1.679   2.586
 2407SOL    HW1 8120   5.590   1.654   2.660
 2407SOL    HW2 8121   5.694   1.596   2.547
 2408SOL     OW 8122   4.284   4.675   3.176
 2408SOL    HW1 8123   4.282   4.664   3.077
 2408SOL    HW2 8124   4.338   4.601   3.216
 2409SOL     OW 8125   2.162   4.728   1.904
 2409SOL    HW1 8126   2.090   4.668   1.941
 2409SOL    HW2 8127   2.211   4.771   1.980
 2410SOL     OW 8128   4.127   3.485   5.480
 2410SOL    HW1 8129   4.191   3.556   5.449
 2410SOL    HW2 8130   4.088   3.439   5.401
 2411SOL     OW 8131   4.870   5.840   4.734
 2411SOL    HW1 8132   4.907   5.772   4.670
 2411SOL    HW2 8133   4.786   5.880   4.696
 2412SOL     OW 8134   5.534   4.678   1.009
 2412SOL    HW1 8135   5.514   4.695   1.105
 2412SOL    HW2 8136   5.545   4.579   0.994
 2413SOL     OW 8137   6.244   1.352   0.696
 2413SOL    HW1 8138   6.223   1.276   0.758
 2413SOL    HW2 8139   6.329   1.332   0.647
 2414SOL     OW 8140   4.647   4.225   2.875
 2414SOL    HW1 8141   4.630   4.237   2.777
 2414SOL    HW2 8142   4.698   4.140   2.890
 2415SOL     OW 8143   6.455   0.958   3.100
 2415SOL    HW1 8144   6.371   0.959   3.047
 2415SOL    HW2 8145   6.454   1.034   3.165
 2416SOL     OW 8146   4.949   2.266   5.057
 2416SOL    HW1 8147   4.987   2.189   5.109
 2416SOL    HW2 8148   4.884   2.316   5.114
 2417SOL     OW 8149   3.740   3.530   4.950
 2417SOL    HW1 8150   3.750   3.615   5.001
 2417SOL    HW2 8151   3.648   3.524   4.912
 2418SOL     OW 8152   3.552   2.814   5.002
 2418SOL    HW1 8153   3.594   2.724   5.013
 2418SOL    HW2 8154   3.529   2.828   4.905
 2419SOL     OW 8155   0.076   0.204   4.454
 2419SOL    HW1 8156   0.174   0.187   4.461
 2419SOL    HW2 8157   0.054   0.293   4.494
 2420SOL     OW 8158   3.047   0.510   2.551
 2420SOL    HW1 8159   2.960   0.548   2.581
 2420SOL    HW2 8160   3.114   0.583   2.540
 2421SOL     OW 8161   1.974   2.634   5.431
 2421SOL    HW1 8162   1.961   2.718   5.485
 2421SOL    HW2 8163   2.071   2.613   5.425
 2422SOL     OW 8164   5.698   1.076   1.126
 2422SOL    HW1 8165   5.679   1.009   1.055
 2422SOL    HW2 8166   5.614   1.098   1.175
 2423SOL     OW 8167   1.832   5.906   2.754
 2423SOL    HW1 8168   1.865   5.998   2.774
 2423SOL    HW2 8169   1.892   5.839   2.796
 2424SOL     OW 8170   6.018   6.975   6.306
 2424SOL    HW1 8171   6.103   0.003   6.307
 2424SOL    HW2 8172   6.030   6.895   6.249
 2425SOL     OW 8173   5.647   0.578   4.149
 2425SOL    HW1 8174   5.551   0.553   4.140
 2425SOL    HW2 8175   5.702   0.496   4.162
 2426SOL     OW 8176   1.099   5.815   5.286
 2426SOL    HW1 8177   1.095   5.738   5.221
 2426SOL    HW2 8178   1.188   5.860   5.279
 2427SOL     OW 8179   5.126   5.731   5.422
 2427SOL    HW1 8180   5.146   5.633   5.425
 2427SOL    HW2 8181   5.046   5.750   5.479
 2428SOL     OW 8182   0.362   0.422   1.926
 2428SOL    HW1 8183   0.312   0.336   1.919
 2428SOL    HW2 8184   0.306   0.495   1.886
 2429SOL     OW 8185   5.759   5.472   2.854
 2429SOL    HW1 8186   5.733   5.412   2.777
 2429SOL    HW2 8187   5.677   5.494   2.907
 2430SOL     OW 8188   6.185   0.859   1.733
 2430SOL    HW1 8189   6.195   0.837   1.830
 2430SOL    HW2 8190   6.274   0.854   1.688
 2431SOL     OW 8191   3.737   0.802   2.105
 2431SOL    HW1 8192   3.729   0.791   2.006
 2431SOL    HW2 8193   3.680   0.734   2.151
 2432SOL     OW 8194   3.661   6.069   2.425
 2432SOL    HW1 8195   3.605   6.150   2.444
 2432SOL    HW2 8196   3.617   5.988   2.463
 2433SOL     OW 8197   4.053   1.672   0.223
 2433SOL    HW1 8198   4.023   1.612   0.297
 2433SOL    HW2 8199   4.139   1.717   0.248
 2434SOL     OW 8200   4.250   1.403   5.781
 2434SOL    HW1 8201   4.281   1.338   5.711
 2434SOL    HW2 8202   4.310   1.398   5.860
 2435SOL     OW 8203   4.551   4.864   5.633
 2435SOL    HW1 8204   4.490   4.860   5.711
 2435SOL    HW2 8205   4.520   4.935   5.569
 2436SOL     OW 8206   1.527   5.159   6.781
 2436SOL    HW1 8207   1.504   5.107   6.863
 2436SOL    HW2 8208   1.531   5.098   6.702
 2437SOL     OW 8209   5.707   6.693   6.704
 2437SOL    HW1 8210   5.665   6.615   6.752
 2437SOL    HW2 8211   5.783   6.729   6.759
 2438SOL     OW 8212   3.122   1.615   6.742
 2438SOL    HW1 8213   3.129   1.570   6.654
 2438SOL    HW2 8214   3.073   1.702   6.732
 2439SOL     OW 8215   0.697   4.638   6.496
 2439SOL    HW1 8216   0.638   4.574   6.545
 2439SOL    HW2 8217   0.681   4.627   6.397
 2440SOL     OW 8218   4.642   5.863   5.944
 2440SOL    HW1 8219   4.725   5.916   5.931
 2440SOL    HW2 8220   4.663   5.777   5.991
 2441SOL     OW 8221   6.892   2.504   6.559
 2441SOL    HW1 8222   6.852   2.463   6.641
 2441SOL    HW2 8223   6.878   2.443   6.481
 2442SOL     OW 8224   1.152   4.027   5.804
 2442SOL    HW1 8225   1.068   3.978   5.779
 2442SOL    HW2 8226   1.186   3.991   5.891
 2443SOL     OW 8227   3.658   5.025   6.568
 2443SOL    HW1 8228   3.601   5.017   6.650
 2443SOL    HW2 8229   3.664   4.936   6.522
 2444SOL     OW 8230   2.935   5.096   6.342
 2444SOL    HW1 8231   2.947   5.195   6.339
 2444SOL    HW2 8232   2.930   5.061   6.248
 2445SOL     OW 8233   0.031   1.259   1.140
 2445SOL    HW1 8234   0.114   1.312   1.158
 2445SOL    HW2 8235   7.014   1.290   1.055
 2446SOL     OW 8236   5.849   4.021   4.003
 2446SOL    HW1 8237   5.826   3.937   4.053
 2446SOL    HW2 8238   5.948   4.034   4.004
 2447SOL     OW 8239   2.312   2.886   6.954
 2447SOL    HW1 8240   2.253   2.941   6.895
 2447SOL    HW2 8241   2.330   2.935   0.013
 2448SOL     OW 8242   0.600   0.768   4.593
 2448SOL    HW1 8243   0.659   0.697   4.555
 2448SOL    HW2 8244   0.504   0.744   4.576
 2449SOL     OW 8245   0.005   3.861   0.380
 2449SOL    HW1 8246   0.095   3.822   0.358
 2449SOL    HW2 8247   0.016   3.934   0.447
 2450SOL     OW 8248   2.474   4.492   3.206
 2450SOL    HW1 8249   2.544   4.551   3.247
 2450SOL    HW2 8250   2.459   4.519   3.111
 2451SOL     OW 8251   1.946   6.131   4.181
 2451SOL    HW1 8252   2.018   6.198   4.200
 2451SOL    HW2 8253   1.983   6.039   4.192
 2452SOL     OW 8254   1.575   3.487   3.059
 2452SOL    HW1 8255   1.594   3.585   3.068
 2452SOL    HW2 8256   1.655   3.441   3.021
 2453SOL     OW 8257   6.440   4.903   1.388
 2453SOL    HW1 8258   6.344   4.897   1.418
 2453SOL    HW2 8259   6.493   4.952   1.457
 2454SOL     OW 8260   3.082   0.540   2.245
 2454SOL    HW1 8261   3.146   0.594   2.299
 2454SOL    HW2 8262   3.132   0.493   2.171
 2455SOL     OW 8263   5.560   5.240   0.609
 2455SOL    HW1 8264   5.578   5.145   0.633
 2455SOL    HW2 8265   5.641   5.295   0.626
 2456SOL     OW 8266   5.024   6.352   1.568
 2456SOL    HW1 8267   5.021   6.410   1.487
 2456SOL    HW2 8268   5.006   6.257   1.543
 2457SOL     OW 8269   6.076   0.030   0.427
 2457SOL    HW1 8270   6.060   0.112   0.481
 2457SOL    HW2 8271   5.989   7.009   0.410
 2458SOL     OW 8272   2.316   6.086   3.319
 2458SOL    HW1 8273   2.256   6.165   3.307
 2458SOL    HW2 8274   2.377   6.077   3.240
 2459SOL     OW 8275   1.778   0.226   0.562
 2459SOL    HW1 8276   1.779   0.231   0.662
 2459SOL    HW2 8277   1.769   0.130   0.534
 2460SOL     OW 8278   2.626   6.254   2.639
 2460SOL    HW1 8279   2.703   6.204   2.679
 2460SOL    HW2 8280   2.660   6.338   2.596
 2461SOL     OW 8281   5.572   0.105   2.199
 2461SOL    HW1 8282   5.520   0.093   2.115
 2461SOL    HW2 8283   5.516   0.153   2.267
 2462SOL     OW 8284   2.172   5.050   7.006
 2462SOL    HW1 8285   2.248   5.101   0.021
 2462SOL    HW2 8286   2.198   5.018   6.915
 2463SOL     OW 8287   6.722   1.998   3.183
 2463SOL    HW1 8288   6.798   1.933   3.190
 2463SOL    HW2 8289   6.694   2.007   3.088
 2464SOL     OW 8290   0.975   3.561   1.194
 2464SOL    HW1 8291   1.015   3.471   1.213
 2464SOL    HW2 8292   0.876   3.552   1.185
 2465SOL     OW 8293   0.221   5.527   2.380
 2465SOL    HW1 8294   0.308   5.562   2.344
 2465SOL    HW2 8295   0.191   5.583   2.457
 2466SOL     OW 8296   4.102   1.534   2.947
 2466SOL    HW1 8297   4.092   1.609   2.881
 2466SOL    HW2 8298   4.160   1.463   2.908
 2467SOL     OW 8299   0.145   0.573   6.133
 2467SOL    HW1 8300   0.108   0.665   6.114
 2467SOL    HW2 8301   0.232   0.562   6.086
 2468SOL     OW 8302   0.038   6.344   1.902
 2468SOL    HW1 8303   6.993   6.352   1.973
 2468SOL    HW2 8304   0.119   6.396   1.929
 2469SOL     OW 8305   2.808   3.892   5.206
 2469SOL    HW1 8306   2.878   3.962   5.219
 2469SOL    HW2 8307   2.852   3.802   5.199
 2470SOL     OW 8308   3.345   3.640   6.541
 2470SOL    HW1 8309   3.333   3.681   6.451
 2470SOL    HW2 8310   3.427   3.583   6.541
 2471SOL     OW 8311   0.435   6.386   2.317
 2471SOL    HW1 8312   0.385   6.464   2.355
 2471SOL    HW2 8313   0.381   6.343   2.246
 2472SOL     OW 8314   5.451   2.566   4.345
 2472SOL    HW1 8315   5.540   2.530   4.373
 2472SOL    HW2 8316   5.399   2.593   4.426
 2473SOL     OW 8317   0.545   5.661   4.129
 2473SOL    HW1 8318   0.577   5.755   4.131
 2473SOL    HW2 8319   0.620   5.600   4.105
 2474SOL     OW 8320   0.233   5.333   5.413
 2474SOL    HW1 8321   0.136   5.339   5.387
 2474SOL    HW2 8322   0.271   5.425   5.419
 2475SOL     OW 8323   4.239   2.446   0.614
 2475SOL    HW1 8324   4.162   2.455   0.676
 2475SOL    HW2 8325   4.239   2.523   0.550
 2476SOL     OW 8326   1.157   1.941   3.488
 2476SOL    HW1 8327   1.102   1.989   3.419
 2476SOL    HW2 8328   1.104   1.864   3.525
 2477SOL     OW 8329   5.544   5.430   1.413
 2477SOL    HW1 8330   5.474   5.398   1.349
 2477SOL    HW2 8331   5.502   5.450   1.501
 2478SOL     OW 8332   6.236   6.524   2.337
 2478SOL    HW1 8333   6.306   6.489   2.400
 2478SOL    HW2 8334   6.236   6.624   2.339
 2479SOL     OW 8335   0.177   2.492   0.557
 2479SOL    HW1 8336   0.226   2.422   0.609
 2479SOL    HW2 8337   0.086   2.458   0.533
 2480SOL     OW 8338   6.688   3.793   1.376
 2480SOL    HW1 8339   6.658   3.738   1.298
 2480SOL    HW2 8340   6.608   3.835   1.420
 2481SOL     OW 8341   4.212   5.671   1.962
 2481SOL    HW1 8342   4.177   5.590   2.010
 2481SOL    HW2 8343   4.156   5.688   1.881
 2482SOL     OW 8344   5.220   3.481   5.348
 2482SOL    HW1 8345   5.216   3.383   5.364
 2482SOL    HW2 8346   5.177   3.502   5.260
 2483SOL     OW 8347   1.052   1.271   6.977
 2483SOL    HW1 8348   1.148   1.275   7.003
 2483SOL    HW2 8349   1.016   1.365   6.971
 2484SOL     OW 8350   3.460   1.253   0.724
 2484SOL    HW1 8351   3.527   1.328   0.728
 2484SOL    HW2 8352   3.486   1.190   0.651
 2485SOL     OW 8353   0.295   5.160   2.540
 2485SOL    HW1 8354   0.251   5.169   2.629
 2485SOL    HW2 8355   0.373   5.098   2.547
 2486SOL     OW 8356   1.742   5.490   2.765
 2486SOL    HW1 8357   1.706   5.581   2.746
 2486SOL    HW2 8358   1.829   5.498   2.813
 2487SOL     OW 8359   4.379   0.266   1.115
 2487SOL    HW1 8360   4.311   0.333   1.088
 2487SOL    HW2 8361   4.446   0.254   1.041
 2488SOL     OW 8362   2.547   5.157   1.739
 2488SOL    HW1 8363   2.598   5.120   1.817
 2488SOL    HW2 8364   2.458   5.191   1.771
 2489SOL     OW 8365   1.306   5.668   5.100
 2489SOL    HW1 8366   1.239   5.596   5.078
 2489SOL    HW2 8367   1.316   5.729   5.022
 2490SOL     OW 8368   6.436   3.864   0.836
 2490SOL    HW1 8369   6.517   3.812   0.867
 2490SOL    HW2 8370   6.426   3.853   0.737
 2491SOL     OW 8371   2.832   4.981   3.184
 2491SOL    HW1 8372   2.855   4.919   3.260
 2491SOL    HW2 8373   2.862   5.073   3.206
 2492SOL     OW 8374   4.829   3.025   6.520
 2492SOL    HW1 8375   4.735   2.995   6.508
 2492SOL    HW2 8376   4.879   2.958   6.574
 2493SOL     OW 8377   6.085   1.772   3.187
 2493SOL    HW1 8378   5.989   1.798   3.194
 2493SOL    HW2 8379   6.092   1.677   3.157
 2494SOL     OW 8380   4.629   2.486   2.473
 2494SOL    HW1 8381   4.537   2.464   2.506
 2494SOL    HW2 8382   4.642   2.447   2.382
 2495SOL     OW 8383   5.263   0.956   4.753
 2495SOL    HW1 8384   5.355   0.983   4.783
 2495SOL    HW2 8385   5.246   0.862   4.782
 2496SOL     OW 8386   1.228   5.783   0.136
 2496SOL    HW1 8387   1.260   5.864   0.085
 2496SOL    HW2 8388   1.143   5.750   0.096
 2497SOL     OW 8389   6.541   1.787   6.746
 2497SOL    HW1 8390   6.562   1.878   6.713
 2497SOL    HW2 8391   6.588   1.719   6.689
 2498SOL     OW 8392   1.766   2.846   4.596
 2498SOL    HW1 8393   1.692   2.913   4.586
 2498SOL    HW2 8394   1.816   2.864   4.681
 2499SOL     OW 8395   5.084   0.633   4.234
 2499SOL    HW1 8396   5.076   0.650   4.136
 2499SOL    HW2 8397   5.181   0.627   4.258
 2500SOL     OW 8398   4.720   3.208   6.162
 2500SOL    HW1 8399   4.630   3.188   6.124
 2500SOL    HW2 8400   4.771   3.123   6.176
 2501SOL     OW 8401   6.218   4.418   0.042
 2501SOL    HW1 8402   6.300   4.365   0.021
 2501SOL    HW2 8403   6.137   4.364   0.019
 2502SOL     OW 8404   2.198   6.835   2.714
 2502SOL    HW1 8405   2.297   6.828   2.727
 2502SOL    HW2 8406   2.177   6.853   2.618
 2503SOL     OW 8407   3.969   4.984   5.635
 2503SOL    HW1 8408   4.026   5.023   5.707
 2503SOL    HW2 8409   3.892   5.045   5.617
 2504SOL     OW 8410   1.517   4.887   4.445
 2504SOL    HW1 8411   1.479   4.817   4.384
 2504SOL    HW2 8412   1.479   4.875   4.537
 2505SOL     OW 8413   4.648   5.401   4.281
 2505SOL    HW1 8414   4.615   5.487   4.318
 2505SOL    HW2 8415   4.747   5.407   4.268
 2506SOL     OW 8416   6.545   2.428   6.016
 2506SOL    HW1 8417   6.522   2.366   5.941
 2506SOL    HW2 8418   6.470   2.493   6.029
 2507SOL     OW 8419   6.488   5.791   0.476
 2507SOL    HW1 8420   6.403   5.818   0.523
 2507SOL    HW2 8421   6.566   5.813   0.534
 2508SOL     OW 8422   2.526   2.528   2.160
 2508SOL    HW1 8423   2.462   2.587   2.110
 2508SOL    HW2 8424   2.608   2.513   2.104
 2509SOL     OW 8425   5.450   2.818   3.289
 2509SOL    HW1 8426   5.411   2.849   3.202
 2509SOL    HW2 8427   5.423   2.723   3.306
 2510SOL     OW 8428   3.831   5.117   0.797
 2510SOL    HW1 8429   3.891   5.041   0.774
 2510SOL    HW2 8430   3.854   5.151   0.888
 2511SOL     OW 8431   0.624   0.734   5.404
 2511SOL    HW1 8432   0.646   0.831   5.392
 2511SOL    HW2 8433   0.670   0.680   5.333
 2512SOL     OW 8434   5.082   3.598   4.687
 2512SOL    HW1 8435   5.051   3.647   4.769
 2512SOL    HW2 8436   5.159   3.539   4.710
 2513SOL     OW 8437   0.571   2.596   6.963
 2513SOL    HW1 8438   0.623   2.671   6.922
 2513SOL    HW2 8439   0.532   2.626   0.024
 2514SOL     OW 8440   1.222   1.136   4.058
 2514SOL    HW1 8441   1.278   1.171   4.133
 2514SOL    HW2 8442   1.171   1.211   4.016
 2515SOL     OW 8443   0.637   5.572   0.757
 2515SOL    HW1 8444   0.677   5.650   0.805
 2515SOL    HW2 8445   0.707   5.530   0.699
 2516SOL     OW 8446   5.560   6.558   3.861
 2516SOL    HW1 8447   5.629   6.551   3.789
 2516SOL    HW2 8448   5.546   6.469   3.903
 2517SOL     OW 8449   2.205   4.530   0.387
 2517SOL    HW1 8450   2.119   4.509   0.433
 2517SOL    HW2 8451   2.231   4.453   0.328
 2518SOL     OW 8452   2.297   2.993   6.324
 2518SOL    HW1 8453   2.281   3.025   6.230
 2518SOL    HW2 8454   2.389   3.018   6.352
 2519SOL     OW 8455   4.678   4.949   4.920
 2519SOL    HW1 8456   4.582   4.922   4.931
 2519SOL    HW2 8457   4.689   4.995   4.832
 2520SOL     OW 8458   2.277   4.101   1.636
 2520SOL    HW1 8459   2.361   4.133   1.679
 2520SOL    HW2 8460   2.298   4.025   1.573
 2521SOL     OW 8461   5.958   6.969   5.461
 2521SOL    HW1 8462   5.864   6.947   5.433
 2521SOL    HW2 8463   5.955   7.025   5.544
 2522SOL     OW 8464   0.624   3.472   4.508
 2522SOL    HW1 8465   0.626   3.515   4.598
 2522SOL    HW2 8466   0.616   3.373   4.518
 2523SOL     OW 8467   0.675   3.580   0.100
 2523SOL    HW1 8468   0.578   3.592   0.121
 2523SOL    HW2 8469   0.727   3.656   0.139
 2524SOL     OW 8470   1.779   6.498   3.778
 2524SOL    HW1 8471   1.796   6.451   3.865
 2524SOL    HW2 8472   1.859   6.487   3.718
 2525SOL     OW 8473   0.804   3.696   3.658
 2525SOL    HW1 8474   0.808   3.668   3.754
 2525SOL    HW2 8475   0.771   3.620   3.602
 2526SOL     OW 8476   0.105   1.461   3.969
 2526SOL    HW1 8477   0.024   1.474   4.027
 2526SOL    HW2 8478   0.187   1.483   4.021
 2527SOL     OW 8479   5.554   6.536   4.383
 2527SOL    HW1 8480   5.640   6.510   4.428
 2527SOL    HW2 8481   5.517   6.456   4.335
 2528SOL     OW 8482   6.064   5.655   0.226
 2528SOL    HW1 8483   6.072   5.744   0.271
 2528SOL    HW2 8484   6.123   5.589   0.272
 2529SOL     OW 8485   5.277   4.420   4.216
 2529SOL    HW1 8486   5.178   4.425   4.222
 2529SOL    HW2 8487   5.316   4.511   4.231
 2530SOL     OW 8488   1.370   0.560   3.638
 2530SOL    HW1 8489   1.291   0.512   3.678
 2530SOL    HW2 8490   1.450   0.499   3.640
 2531SOL     OW 8491   3.895   1.308   6.140
 2531SOL    HW1 8492   3.899   1.322   6.041
 2531SOL    HW2 8493   3.938   1.385   6.187
 2532SOL     OW 8494   1.253   4.716   6.827
 2532SOL    HW1 8495   1.154   4.728   6.834
 2532SOL    HW2 8496   1.290   4.781   6.760
 2533SOL     OW 8497   6.050   6.631   6.323
 2533SOL    HW1 8498   6.029   6.635   6.225
 2533SOL    HW2 8499   5.970   6.659   6.376
 2534SOL     OW 8500   1.251   1.160   3.110
 2534SOL    HW1 8501   1.243   1.107   3.194
 2534SOL    HW2 8502   1.283   1.101   3.036
 2535SOL     OW 8503   2.489   1.342   3.572
 2535SOL    HW1 8504   2.504   1.439   3.553
 2535SOL    HW2 8505   2.460   1.331   3.667
 2536SOL     OW 8506   6.025   1.049   3.864
 2536SOL    HW1 8507   6.029   1.066   3.766
 2536SOL    HW2 8508   5.956   1.108   3.905
 2537SOL     OW 8509   5.093   5.401   1.553
 2537SOL    HW1 8510   5.106   5.438   1.645
 2537SOL    HW2 8511   5.164   5.436   1.492
 2538SOL     OW 8512   1.932   4.976   4.426
 2538SOL    HW1 8513   2.013   4.918   4.438
 2538SOL    HW2 8514   1.888   4.954   4.339
 2539SOL     OW 8515   3.889   6.691   5.646
 2539SOL    HW1 8516   3.817   6.700   5.715
 2539SOL    HW2 8517   3.849   6.651   5.563
 2540SOL     OW 8518   5.633   1.407   2.037
 2540SOL    HW1 8519   5.658   1.313   2.013
 2540SOL    HW2 8520   5.566   1.441   1.972
 2541SOL     OW 8521   1.029   6.390   6.367
 2541SOL    HW1 8522   1.122   6.360   6.343
 2541SOL    HW2 8523   1.004   6.469   6.311
 2542SOL     OW 8524   3.390   1.607   4.808
 2542SOL    HW1 8525   3.339   1.685   4.845
 2542SOL    HW2 8526   3.453   1.639   4.737
 2543SOL     OW 8527   0.904   1.679   3.100
 2543SOL    HW1 8528   0.871   1.594   3.141
 2543SOL    HW2 8529   1.004   1.675   3.090
 2544SOL     OW 8530   6.534   5.499   1.590
 2544SOL    HW1 8531   6.481   5.490   1.505
 2544SOL    HW2 8532   6.581   5.413   1.609
 2545SOL     OW 8533   0.819   1.810   0.999
 2545SOL    HW1 8534   0.887   1.881   0.981
 2545SOL    HW2 8535   0.727   1.849   0.993
 2546SOL     OW 8536   6.958   3.823   1.786
 2546SOL    HW1 8537   6.966   3.909   1.736
 2546SOL    HW2 8538   6.910   3.839   1.873
 2547SOL     OW 8539   5.607   3.656   0.653
 2547SOL    HW1 8540   5.533   3.651   0.586
 2547SOL    HW2 8541   5.574   3.621   0.741
 2548SOL     OW 8542   0.011   0.083   5.269
 2548SOL    HW1 8543   0.080   0.033   5.217
 2548SOL    HW2 8544   7.025   0.040   5.359
 2549SOL     OW 8545   2.653   2.364   0.594
 2549SOL    HW1 8546   2.609   2.319   0.672
 2549SOL    HW2 8547   2.624   2.459   0.589
 2550SOL     OW 8548   4.466   6.810   6.595
 2550SOL    HW1 8549   4.389   6.860   6.556
 2550SOL    HW2 8550   4.527   6.873   6.643
 2551SOL     OW 8551   2.954   5.751   6.940
 2551SOL    HW1 8552   2.878   5.816   6.939
 2551SOL    HW2 8553   2.919   5.660   6.963
 2552SOL     OW 8554   1.868   6.114   0.918
 2552SOL    HW1 8555   1.841   6.139   0.825
 2552SOL    HW2 8556   1.963   6.084   0.918
 2553SOL     OW 8557   4.200   1.552   6.842
 2553SOL    HW1 8558   4.129   1.495   6.883
 2553SOL    HW2 8559   4.274   1.564   6.907
 2554SOL     OW 8560   1.641   5.725   1.492
 2554SOL    HW1 8561   1.543   5.739   1.505
 2554SOL    HW2 8562   1.657   5.681   1.404
 2555SOL     OW 8563   5.932   6.023   5.270
 2555SOL    HW1 8564   5.980   6.016   5.183
 2555SOL    HW2 8565   5.903   6.117   5.286
 2556SOL     OW 8566   3.985   6.764   1.478
 2556SOL    HW1 8567   3.999   6.732   1.384
 2556SOL    HW2 8568   3.945   6.856   1.477
 2557SOL     OW 8569   4.259   0.066   6.975
 2557SOL    HW1 8570   4.167   0.103   6.991
 2557SOL    HW2 8571   4.252   6.993   6.960
 2558SOL     OW 8572   5.730   4.147   6.230
 2558SOL    HW1 8573   5.816   4.199   6.236
 2558SOL    HW2 8574   5.706   4.112   6.320
 2559SOL     OW 8575   1.246   4.321   3.837
 2559SOL    HW1 8576   1.180   4.247   3.823
 2559SOL    HW2 8577   1.266   4.364   3.750
 2560SOL     OW 8578   4.689   2.065   3.138
 2560SOL    HW1 8579   4.787   2.058   3.118
 2560SOL    HW2 8580   4.649   2.141   3.087
 2561SOL     OW 8581   3.415   0.785   4.711
 2561SOL    HW1 8582   3.374   0.793   4.620
 2561SOL    HW2 8583   3.421   0.688   4.736
 2562SOL     OW 8584   3.215   0.208   3.452
 2562SOL    HW1 8585   3.126   0.247   3.475
 2562SOL    HW2 8586   3.273   0.279   3.413
 2563SOL     OW 8587   3.548   1.123   0.495
 2563SOL    HW1 8588   3.618   1.065   0.453
 2563SOL    HW2 8589   3.482   1.151   0.425
 2564SOL     OW 8590   1.640   1.595   0.265
 2564SOL    HW1 8591   1.661   1.560   0.356
 2564SOL    HW2 8592   1.719   1.646   0.231
 2565SOL     OW 8593   1.033   2.315   6.587
 2565SOL    HW1 8594   0.974   2.241   6.555
 2565SOL    HW2 8595   1.113   2.323   6.527
 2566SOL     OW 8596   2.792   0.888   0.798
 2566SOL    HW1 8597   2.867   0.913   0.737
 2566SOL    HW2 8598   2.717   0.849   0.744
 2567SOL     OW 8599   1.305   0.093   7.019
 2567SOL    HW1 8600   1.231   0.120   0.054
 2567SOL    HW2 8601   1.340   0.174   6.972
 2568SOL     OW 8602   2.712   6.212   1.206
 2568SOL    HW1 8603   2.784   6.210   1.275
 2568SOL    HW2 8604   2.629   6.250   1.245
 2569SOL     OW 8605   0.812   1.149   1.531
 2569SOL    HW1 8606   0.847   1.082   1.465
 2569SOL    HW2 8607   0.845   1.125   1.623
 2570SOL     OW 8608   5.292   6.443   6.833
 2570SOL    HW1 8609   5.194   6.448   6.853
 2570SOL    HW2 8610   5.331   6.362   6.876
 2571SOL     OW 8611   3.780   3.438   4.680
 2571SOL    HW1 8612   3.797   3.501   4.605
 2571SOL    HW2 8613   3.731   3.485   4.753
 2572SOL     OW 8614   2.069   6.184   1.378
 2572SOL    HW1 8615   2.120   6.247   1.436
 2572SOL    HW2 8616   2.093   6.090   1.402
 2573SOL     OW 8617   6.592   2.240   3.971
 2573SOL    HW1 8618   6.611   2.261   3.875
 2573SOL    HW2 8619   6.552   2.148   3.977
 2574SOL     OW 8620   0.062   3.769   1.402
 2574SOL    HW1 8621   7.021   3.815   1.461
 2574SOL    HW2 8622   0.142   3.743   1.457
 2575SOL     OW 8623   5.761   3.847   0.766
 2575SOL    HW1 8624   5.818   3.885   0.694
 2575SOL    HW2 8625   5.679   3.806   0.725
 2576SOL     OW 8626   2.442   7.002   3.117
 2576SOL    HW1 8627   2.394   0.018   3.039
 2576SOL    HW2 8628   2.520   0.033   3.142
 2577SOL     OW 8629   2.800   6.749   2.836
 2577SOL    HW1 8630   2.743   6.712   2.763
 2577SOL    HW2 8631   2.893   6.762   2.802
 2578SOL     OW 8632   5.447   2.784   4.825
 2578SOL    HW1 8633   5.363   2.730   4.838
 2578SOL    HW2 8634   5.439   2.838   4.741
 2579SOL     OW 8635   0.136   2.413   6.965
 2579SOL    HW1 8636   0.207   2.465   6.917
 2579SOL    HW2 8637   0.054   2.470   6.975
 2580SOL     OW 8638   1.492   2.578   6.633
 2580SOL    HW1 8639   1.403   2.623   6.647
 2580SOL    HW2 8640   1.565   2.644   6.649
 2581SOL     OW 8641   5.719   5.912   2.380
 2581SOL    HW1 8642   5.734   5.883   2.474
 2581SOL    HW2 8643   5.798   5.885   2.324
 2582SOL     OW 8644   1.084   5.431   2.615
 2582SOL    HW1 8645   1.178   5.435   2.582
 2582SOL    HW2 8646   1.053   5.336   2.616
 2583SOL     OW 8647   1.138   0.200   0.808
 2583SOL    HW1 8648   1.204   0.134   0.772
 2583SOL    HW2 8649   1.127   0.275   0.742
 2584SOL     OW 8650   3.563   6.161   1.319
 2584SOL    HW1 8651   3.588   6.170   1.223
 2584SOL    HW2 8652   3.517   6.073   1.334
 2585SOL     OW 8653   3.206   0.252   1.270
 2585SOL    HW1 8654   3.109   0.276   1.276
 2585SOL    HW2 8655   3.225   0.213   1.181
 2586SOL     OW 8656   6.213   2.141   3.817
 2586SOL    HW1 8657   6.290   2.082   3.841
 2586SOL    HW2 8658   6.240   2.204   3.744
 2587SOL     OW 8659   5.767   6.563   4.065
 2587SOL    HW1 8660   5.775   6.466   4.087
 2587SOL    HW2 8661   5.688   6.577   4.004
 2588SOL     OW 8662   5.403   0.120   1.986
 2588SOL    HW1 8663   5.341   0.042   1.986
 2588SOL    HW2 8664   5.405   0.162   1.896
 2589SOL     OW 8665   6.705   6.723   5.518
 2589SOL    HW1 8666   6.657   6.761   5.438
 2589SOL    HW2 8667   6.663   6.636   5.543
 2590SOL     OW 8668   4.775   6.829   3.345
 2590SOL    HW1 8669   4.712   6.876   3.284
 2590SOL    HW2 8670   4.738   6.829   3.438
 2591SOL     OW 8671   5.083   5.971   1.806
 2591SOL    HW1 8672   5.011   6.034   1.776
 2591SOL    HW2 8673   5.083   5.967   1.906
 2592SOL     OW 8674   3.324   5.861   1.888
 2592SOL    HW1 8675   3.397   5.914   1.930
 2592SOL    HW2 8676   3.266   5.821   1.959
 2593SOL     OW 8677   3.705   6.695   2.664
 2593SOL    HW1 8678   3.692   6.621   2.598
 2593SOL    HW2 8679   3.622   6.752   2.666
 2594SOL     OW 8680   0.182   0.105   6.806
 2594SOL    HW1 8681   0.183   0.170   6.882
 2594SOL    HW2 8682   0.270   0.057   6.802
 2595SOL     OW 8683   6.578   3.163   4.954
 2595SOL    HW1 8684   6.603   3.207   4.868
 2595SOL    HW2 8685   6.479   3.151   4.958
 2596SOL     OW 8686   3.901   2.069   2.119
 2596SOL    HW1 8687   3.894   1.996   2.187
 2596SOL    HW2 8688   3.811   2.112   2.107
 2597SOL     OW 8689   2.506   3.447   0.884
 2597SOL    HW1 8690   2.468   3.538   0.900
 2597SOL    HW2 8691   2.582   3.431   0.947
 2598SOL     OW 8692   6.796   2.790   3.401
 2598SOL    HW1 8693   6.816   2.864   3.336
 2598SOL    HW2 8694   6.798   2.827   3.494
 2599SOL     OW 8695   3.913   5.485   0.285
 2599SOL    HW1 8696   3.986   5.535   0.333
 2599SOL    HW2 8697   3.864   5.548   0.225
 2600SOL     OW 8698   5.866   3.503   3.300
 2600SOL    HW1 8699   5.954   3.466   3.271
 2600SOL    HW2 8700   5.864   3.601   3.284
 2601SOL     OW 8701   3.758   3.753   6.018
 2601SOL    HW1 8702   3.695   3.794   6.084
 2601SOL    HW2 8703   3.848   3.741   6.061
 2602SOL     OW 8704   6.941   4.947   3.894
 2602SOL    HW1 8705   6.981   5.036   3.876
 2602SOL    HW2 8706   6.972   4.913   3.983
 2603SOL     OW 8707   2.907   2.304   1.071
 2603SOL    HW1 8708   2.845   2.377   1.042
 2603SOL    HW2 8709   2.921   2.240   0.995
 2604SOL     OW 8710   5.422   0.757   1.438
 2604SOL    HW1 8711   5.482   0.681   1.464
 2604SOL    HW2 8712   5.410   0.759   1.339
 2605SOL     OW 8713   4.091   4.788   4.278
 2605SOL    HW1 8714   4.164   4.756   4.338
 2605SOL    HW2 8715   4.105   4.751   4.186
 2606SOL     OW 8716   6.563   4.123   0.904
 2606SOL    HW1 8717   6.565   4.184   0.825
 2606SOL    HW2 8718   6.520   4.036   0.878
 2607SOL     OW 8719   1.241   0.395   3.346
 2607SOL    HW1 8720   1.302   0.326   3.387
 2607SOL    HW2 8721   1.147   0.363   3.351
 2608SOL     OW 8722   5.466   0.646   1.749
 2608SOL    HW1 8723   5.478   0.609   1.657
 2608SOL    HW2 8724   5.471   0.746   1.745
 2609SOL     OW 8725   0.693   2.166   2.787
 2609SOL    HW1 8726   0.739   2.179   2.875
 2609SOL    HW2 8727   0.612   2.108   2.801
 2610SOL     OW 8728   6.196   5.412   4.918
 2610SOL    HW1 8729   6.108   5.430   4.962
 2610SOL    HW2 8730   6.180   5.383   4.824
 2611SOL     OW 8731   5.459   6.401   1.216
 2611SOL    HW1 8732   5.466   6.387   1.315
 2611SOL    HW2 8733   5.371   6.445   1.196
 2612SOL     OW 8734   4.738   6.766   3.842
 2612SOL    HW1 8735   4.808   6.830   3.874
 2612SOL    HW2 8736   4.687   6.730   3.920
 2613SOL     OW 8737   3.504   0.655   2.543
 2613SOL    HW1 8738   3.477   0.622   2.633
 2613SOL    HW2 8739   3.596   0.693   2.546
 2614SOL     OW 8740   6.423   6.810   6.058
 2614SOL    HW1 8741   6.393   6.762   6.140
 2614SOL    HW2 8742   6.495   6.876   6.082
 2615SOL     OW 8743   5.009   4.905   2.988
 2615SOL    HW1 8744   5.019   4.898   2.889
 2615SOL    HW2 8745   4.930   4.850   3.017
 2616SOL     OW 8746   4.042   3.066   2.506
 2616SOL    HW1 8747   4.050   3.089   2.409
 2616SOL    HW2 8748   4.090   2.980   2.524
 2617SOL     OW 8749   3.437   6.022   1.008
 2617SOL    HW1 8750   3.398   6.064   0.926
 2617SOL    HW2 8751   3.536   6.036   1.010
 2618SOL     OW 8752   0.301   0.545   1.064
 2618SOL    HW1 8753   0.315   0.644   1.059
 2618SOL    HW2 8754   0.336   0.511   1.151
 2619SOL     OW 8755   4.111   1.607   2.033
 2619SOL    HW1 8756   4.174   1.575   2.103
 2619SOL    HW2 8757   4.116   1.707   2.026
 2620SOL     OW 8758   1.488   4.737   3.747
 2620SOL    HW1 8759   1.531   4.747   3.658
 2620SOL    HW2 8760   1.508   4.646   3.783
 2621SOL     OW 8761   0.653   6.216   3.736
 2621SOL    HW1 8762   0.634   6.294   3.676
 2621SOL    HW2 8763   0.752   6.201   3.740
 2622SOL     OW 8764   2.328   3.301   6.484
 2622SOL    HW1 8765   2.349   3.248   6.402
 2622SOL    HW2 8766   2.234   3.335   6.480
 2623SOL     OW 8767   3.574   1.157   5.478
 2623SOL    HW1 8768   3.599   1.063   5.454
 2623SOL    HW2 8769   3.619   1.220   5.415
 2624SOL     OW 8770   6.046   2.667   3.201
 2624SOL    HW1 8771   5.962   2.719   3.187
 2624SOL    HW2 8772   6.023   2.576   3.237
 2625SOL     OW 8773   2.360   2.816   5.633
 2625SOL    HW1 8774   2.326   2.869   5.711
 2625SOL    HW2 8775   2.431   2.752   5.665
 2626SOL     OW 8776   1.978   6.786   3.455
 2626SOL    HW1 8777   1.901   6.782   3.519
 2626SOL    HW2 8778   1.943   6.791   3.362
 2627SOL     OW 8779   0.269   0.533   4.781
 2627SOL    HW1 8780   0.352   0.486   4.749
 2627SOL    HW2 8781   0.295   0.606   4.844
 2628SOL     OW 8782   3.629   6.550   0.089
 2628SOL    HW1 8783   3.695   6.526   0.159
 2628SOL    HW2 8784   3.672   6.611   0.022
 2629SOL     OW 8785   3.818   4.124   1.594
 2629SOL    HW1 8786   3.752   4.182   1.642
 2629SOL    HW2 8787   3.771   4.076   1.519
 2630SOL     OW 8788   3.548   1.625   2.450
 2630SOL    HW1 8789   3.609   1.646   2.374
 2630SOL    HW2 8790   3.455   1.611   2.415
 2631SOL     OW 8791   4.784   6.416   4.532
 2631SOL    HW1 8792   4.847   6.356   4.581
 2631SOL    HW2 8793   4.705   6.436   4.590
 2632SOL     OW 8794   3.453   1.479   6.863
 2632SOL    HW1 8795   3.508   1.541   6.918
 2632SOL    HW2 8796   3.395   1.532   6.801
 2633SOL     OW 8797   6.046   2.470   6.449
 2633SOL    HW1 8798   5.961   2.464   6.397
 2633SOL    HW2 8799   6.112   2.526   6.399
 2634SOL     OW 8800   1.816   4.084   1.589
 2634SOL    HW1 8801   1.902   4.088   1.639
 2634SOL    HW2 8802   1.827   4.127   1.499
 2635SOL     OW 8803   5.542   5.253   4.311
 2635SOL    HW1 8804   5.639   5.230   4.319
 2635SOL    HW2 8805   5.532   5.338   4.261
 2636SOL     OW 8806   5.225   0.231   5.865
 2636SOL    HW1 8807   5.272   0.253   5.780
 2636SOL    HW2 8808   5.141   0.286   5.872
 2637SOL     OW 8809   5.338   6.645   4.000
 2637SOL    HW1 8810   5.427   6.643   3.954
 2637SOL    HW2 8811   5.332   6.569   4.065
 2638SOL     OW 8812   5.742   6.172   1.118
 2638SOL    HW1 8813   5.643   6.162   1.132
 2638SOL    HW2 8814   5.780   6.084   1.089
 2639SOL     OW 8815   5.888   6.535   1.317
 2639SOL    HW1 8816   5.893   6.436   1.323
 2639SOL    HW2 8817   5.906   6.575   1.407
 2640SOL     OW 8818   0.264   6.509   5.080
 2640SOL    HW1 8819   0.240   6.440   5.148
 2640SOL    HW2 8820   0.299   6.464   4.997
 2641SOL     OW 8821   5.099   3.817   6.665
 2641SOL    HW1 8822   5.117   3.790   6.571
 2641SOL    HW2 8823   5.126   3.743   6.727
 2642SOL     OW 8824   4.853   0.408   4.070
 2642SOL    HW1 8825   4.845   0.378   4.166
 2642SOL    HW2 8826   4.774   0.465   4.047
 2643SOL     OW 8827   0.254   6.536   3.328
 2643SOL    HW1 8828   0.208   6.476   3.263
 2643SOL    HW2 8829   0.198   6.616   3.345
 2644SOL     OW 8830   0.981   5.181   5.665
 2644SOL    HW1 8831   0.979   5.265   5.611
 2644SOL    HW2 8832   0.894   5.170   5.714
 2645SOL     OW 8833   5.260   6.585   5.741
 2645SOL    HW1 8834   5.261   6.591   5.841
 2645SOL    HW2 8835   5.279   6.676   5.702
 2646SOL     OW 8836   6.994   0.311   6.478
 2646SOL    HW1 8837   7.008   0.213   6.486
 2646SOL    HW2 8838   6.957   0.332   6.388
 2647SOL     OW 8839   4.515   1.788   1.027
 2647SOL    HW1 8840   4.614   1.790   1.043
 2647SOL    HW2 8841   4.493   1.852   0.953
 2648SOL     OW 8842   6.383   0.024   2.529
 2648SOL    HW1 8843   6.437   0.073   2.462
 2648SOL    HW2 8844   6.444   7.010   2.598
 2649SOL     OW 8845   3.387   1.407   6.119
 2649SOL    HW1 8846   3.411   1.499   6.148
 2649SOL    HW2 8847   3.369   1.407   6.020
 2650SOL     OW 8848   0.304   5.361   3.389
 2650SOL    HW1 8849   0.366   5.438   3.375
 2650SOL    HW2 8850   0.349   5.291   3.445
 2651SOL     OW 8851   0.125   1.445   1.708
 2651SOL    HW1 8852   0.147   1.356   1.668
 2651SOL    HW2 8853   0.052   1.434   1.776
 2652SOL     OW 8854   3.122   3.248   2.879
 2652SOL    HW1 8855   3.178   3.284   2.804
 2652SOL    HW2 8856   3.037   3.300   2.884
 2653SOL     OW 8857   5.558   6.818   6.354
 2653SOL    HW1 8858   5.470   6.773   6.371
 2653SOL    HW2 8859   5.569   6.895   6.417
 2654SOL     OW 8860   5.119   1.548   6.157
 2654SOL    HW1 8861   5.158   1.605   6.229
 2654SOL    HW2 8862   5.189   1.529   6.088
 2655SOL     OW 8863   4.189   5.947   4.944
 2655SOL    HW1 8864   4.270   5.892   4.964
 2655SOL    HW2 8865   4.215   6.028   4.892
 2656SOL     OW 8866   5.344   3.832   3.458
 2656SOL    HW1 8867   5.294   3.850   3.374
 2656SOL    HW2 8868   5.441   3.826   3.438
 2657SOL     OW 8869   1.626   4.284   6.737
 2657SOL    HW1 8870   1.689   4.361   6.729
 2657SOL    HW2 8871   1.674   4.199   6.713
 2658SOL     OW 8872   6.000   4.302   5.982
 2658SOL    HW1 8873   5.941   4.379   5.958
 2658SOL    HW2 8874   5.978   4.224   5.923
 2659SOL     OW 8875   6.578   2.378   4.702
 2659SOL    HW1 8876   6.542   2.290   4.671
 2659SOL    HW2 8877   6.636   2.418   4.632
 2660SOL     OW 8878   6.164   2.487   2.291
 2660SOL    HW1 8879   6.196   2.558   2.227
 2660SOL    HW2 8880   6.076   2.451   2.259
 2661SOL     OW 8881   3.352   5.770   1.036
 2661SOL    HW1 8882   3.379   5.865   1.050
 2661SOL    HW2 8883   3.345   5.724   1.125
 2662SOL     OW 8884   4.481   6.325   4.997
 2662SOL    HW1 8885   4.503   6.267   5.075
 2662SOL    HW2 8886   4.409   6.283   4.942
 2663SOL     OW 8887   2.231   5.032   2.205
 2663SOL    HW1 8888   2.156   4.990   2.154
 2663SOL    HW2 8889   2.277   5.100   2.148
 2664SOL     OW 8890   3.807   3.942   2.756
 2664SOL    HW1 8891   3.747   4.022   2.751
 2664SOL    HW2 8892   3.775   3.881   2.828
 2665SOL     OW 8893   3.692   1.593   5.227
 2665SOL    HW1 8894   3.781   1.633   5.202
 2665SOL    HW2 8895   3.623   1.623   5.161
 2666SOL     OW 8896   5.054   4.395   0.975
 2666SOL    HW1 8897   5.048   4.488   0.938
 2666SOL    HW2 8898   5.019   4.330   0.907
 2667SOL     OW 8899   1.915   5.842   5.322
 2667SOL    HW1 8900   1.913   5.865   5.420
 2667SOL    HW2 8901   2.007   5.814   5.296
 2668SOL     OW 8902   6.690   3.338   4.779
 2668SOL    HW1 8903   6.778   3.317   4.738
 2668SOL    HW2 8904   6.643   3.408   4.725
 2669SOL     OW 8905   4.371   5.044   5.495
 2669SOL    HW1 8906   4.426   5.057   5.412
 2669SOL    HW2 8907   4.287   4.996   5.472
 2670SOL     OW 8908   0.306   0.907   6.989
 2670SOL    HW1 8909   0.230   0.911   6.924
 2670SOL    HW2 8910   0.353   0.995   6.990
 2671SOL     OW 8911   2.668   3.883   6.645
 2671SOL    HW1 8912   2.764   3.909   6.652
 2671SOL    HW2 8913   2.658   3.786   6.667
 2672SOL     OW 8914   2.047   5.175   0.419
 2672SOL    HW1 8915   1.980   5.176   0.344
 2672SOL    HW2 8916   2.129   5.226   0.392
 2673SOL     OW 8917   4.069   2.260   2.956
 2673SOL    HW1 8918   4.000   2.228   3.021
 2673SOL    HW2 8919   4.142   2.307   3.005
 2674SOL     OW 8920   0.612   5.139   4.419
 2674SOL    HW1 8921   0.611   5.231   4.457
 2674SOL    HW2 8922   0.561   5.077   4.478
 2675SOL     OW 8923   0.124   4.210   5.216
 2675SOL    HW1 8924   0.048   4.147   5.201
 2675SOL    HW2 8925   0.104   4.297   5.173
 2676SOL     OW 8926   4.524   1.330   2.415
 2676SOL    HW1 8927   4.601   1.389   2.391
 2676SOL    HW2 8928   4.485   1.360   2.502
 2677SOL     OW 8929   1.533   4.776   1.670
 2677SOL    HW1 8930   1.631   4.790   1.661
 2677SOL    HW2 8931   1.493   4.761   1.579
 2678SOL     OW 8932   1.374   5.147   6.456
 2678SOL    HW1 8933   1.274   5.149   6.455
 2678SOL    HW2 8934   1.406   5.082   6.387
 2679SOL     OW 8935   3.382   4.894   0.902
 2679SOL    HW1 8936   3.466   4.898   0.956
 2679SOL    HW2 8937   3.303   4.901   0.962
 2680SOL     OW 8938   2.161   1.713   0.556
 2680SOL    HW1 8939   2.196   1.760   0.637
 2680SOL    HW2 8940   2.074   1.669   0.578
 2681SOL     OW 8941   1.021   3.307   4.319
 2681SOL    HW1 8942   1.020   3.400   4.282
 2681SOL    HW2 8943   0.999   3.310   4.417
 2682SOL     OW 8944   5.228   2.833   2.219
 2682SOL    HW1 8945   5.156   2.852   2.152
 2682SOL    HW2 8946   5.188   2.791   2.300
 2683SOL     OW 8947   0.583   5.042   1.174
 2683SOL    HW1 8948   0.518   5.019   1.101
 2683SOL    HW2 8949   0.533   5.050   1.261
 2684SOL     OW 8950   3.929   6.722   2.823
 2684SOL    HW1 8951   3.952   6.663   2.900
 2684SOL    HW2 8952   3.832   6.712   2.801
 2685SOL     OW 8953   5.195   6.103   4.873
 2685SOL    HW1 8954   5.292   6.079   4.867
 2685SOL    HW2 8955   5.147   6.070   4.792
 2686SOL     OW 8956   2.478   2.646   4.278
 2686SOL    HW1 8957   2.571   2.620   4.254
 2686SOL    HW2 8958   2.416   2.623   4.202
 2687SOL     OW 8959   3.880   4.787   2.403
 2687SOL    HW1 8960   3.969   4.819   2.435
 2687SOL    HW2 8961   3.813   4.794   2.477
 2688SOL     OW 8962   4.776   4.820   6.526
 2688SOL    HW1 8963   4.804   4.907   6.566
 2688SOL    HW2 8964   4.781   4.826   6.426
 2689SOL     OW 8965   1.382   2.628   3.233
 2689SOL    HW1 8966   1.394   2.691   3.157
 2689SOL    HW2 8967   1.287   2.597   3.237
 2690SOL     OW 8968   3.551   2.920   3.660
 2690SOL    HW1 8969   3.533   2.905   3.757
 2690SOL    HW2 8970   3.465   2.943   3.613
 2691SOL     OW 8971   1.913   5.300   1.921
 2691SOL    HW1 8972   1.933   5.210   1.883
 2691SOL    HW2 8973   1.864   5.290   2.007
 2692SOL     OW 8974   7.016   5.666   3.984
 2692SOL    HW1 8975   0.000   5.695   3.889
 2692SOL    HW2 8976   6.989   5.570   3.987
 2693SOL     OW 8977   2.145   3.583   3.834
 2693SOL    HW1 8978   2.069   3.523   3.861
 2693SOL    HW2 8979   2.230   3.550   3.874
 2694SOL     OW 8980   3.238   0.206   3.101
 2694SOL    HW1 8981   3.152   0.233   3.146
 2694SOL    HW2 8982   3.217   0.156   3.017
 2695SOL     OW 8983   4.764   1.869   2.570
 2695SOL    HW1 8984   4.810   1.911   2.492
 2695SOL    HW2 8985   4.683   1.923   2.594
 2696SOL     OW 8986   3.676   3.797   5.574
 2696SOL    HW1 8987   3.744   3.724   5.560
 2696SOL    HW2 8988   3.713   3.884   5.542
 2697SOL     OW 8989   4.314   2.220   3.247
 2697SOL    HW1 8990   4.404   2.227   3.291
 2697SOL    HW2 8991   4.326   2.183   3.155
 2698SOL     OW 8992   0.736   4.323   1.021
 2698SOL    HW1 8993   0.690   4.260   0.958
 2698SOL    HW2 8994   0.825   4.349   0.982
 2699SOL     OW 8995   3.619   5.740   0.961
 2699SOL    HW1 8996   3.638   5.645   0.936
 2699SOL    HW2 8997   3.521   5.752   0.977
 2700SOL     OW 8998   1.803   3.766   2.767
 2700SOL    HW1 8999   1.737   3.704   2.809
 2700SOL    HW2 9000   1.892   3.722   2.763
 2701SOL     OW 9001   3.229   0.137   6.447
 2701SOL    HW1 9002   3.192   0.075   6.378
 2701SOL    HW2 9003   3.219   0.096   6.537
 2702SOL     OW 9004   6.982   1.440   2.772
 2702SOL    HW1 9005   7.021   1.435   2.864
 2702SOL    HW2 9006   6.952   1.349   2.744
 2703SOL     OW 9007   2.793   2.022   2.411
 2703SOL    HW1 9008   2.814   2.116   2.382
 2703SOL    HW2 9009   2.777   1.965   2.331
 2704SOL     OW 9010   2.824   5.260   1.990
 2704SOL    HW1 9011   2.892   5.188   2.010
 2704SOL    HW2 9012   2.842   5.339   2.048
 2705SOL     OW 9013   6.419   6.177   3.717
 2705SOL    HW1 9014   6.365   6.199   3.799
 2705SOL    HW2 9015   6.415   6.254   3.653
 2706SOL     OW 9016   6.619   1.434   2.089
 2706SOL    HW1 9017   6.669   1.380   2.157
 2706SOL    HW2 9018   6.529   1.392   2.072
 2707SOL     OW 9019   2.034   1.933   6.667
 2707SOL    HW1 9020   2.076   1.965   6.582
 2707SOL    HW2 9021   2.102   1.882   6.720
 2708SOL     OW 9022   2.370   2.493   1.666
 2708SOL    HW1 9023   2.338   2.522   1.576
 2708SOL    HW2 9024   2.402   2.572   1.718
 2709SOL     OW 9025   5.191   5.885   1.152
 2709SOL    HW1 9026   5.283   5.892   1.191
 2709SOL    HW2 9027   5.152   5.796   1.175
 2710SOL     OW 9028   0.174   3.575   2.487
 2710SOL    HW1 9029   0.266   3.582   2.528
 2710SOL    HW2 9030   0.172   3.499   2.423
 2711SOL     OW 9031   1.239   0.287   1.809
 2711SOL    HW1 9032   1.328   0.275   1.764
 2711SOL    HW2 9033   1.170   0.237   1.757
 2712SOL     OW 9034   2.364   4.593   0.833
 2712SOL    HW1 9035   2.376   4.533   0.753
 2712SOL    HW2 9036   2.335   4.538   0.911
 2713SOL     OW 9037   2.096   3.031   5.060
 2713SOL    HW1 9038   2.192   3.025   5.032
 2713SOL    HW2 9039   2.075   2.958   5.125
 2714SOL     OW 9040   5.057   1.247   5.867
 2714SOL    HW1 9041   5.092   1.154   5.879
 2714SOL    HW2 9042   4.965   1.242   5.827
 2715SOL     OW 9043   5.530   1.544   0.425
 2715SOL    HW1 9044   5.494   1.498   0.506
 2715SOL    HW2 9045   5.487   1.633   0.415
 2716SOL     OW 9046   6.456   4.963   2.161
 2716SOL    HW1 9047   6.461   4.880   2.216
 2716SOL    HW2 9048   6.439   5.041   2.221
 2717SOL     OW 9049   0.892   6.426   2.511
 2717SOL    HW1 9050   0.930   6.477   2.589
 2717SOL    HW2 9051   0.963   6.415   2.441
 2718SOL     OW 9052   1.496   3.348   4.398
 2718SOL    HW1 9053   1.487   3.414   4.323
 2718SOL    HW2 9054   1.494   3.255   4.360
 2719SOL     OW 9055   4.308   5.223   2.580
 2719SOL    HW1 9056   4.250   5.303   2.595
 2719SOL    HW2 9057   4.397   5.239   2.621
 2720SOL     OW 9058   1.854   6.213   3.889
 2720SOL    HW1 9059   1.845   6.206   3.988
 2720SOL    HW2 9060   1.946   6.184   3.862
 2721SOL     OW 9061   2.693   0.394   4.626
 2721SOL    HW1 9062   2.777   0.342   4.635
 2721SOL    HW2 9063   2.641   0.389   4.711
 2722SOL     OW 9064   0.659   5.118   3.154
 2722SOL    HW1 9065   0.581   5.122   3.091
 2722SOL    HW2 9066   0.669   5.206   3.200
 2723SOL     OW 9067   1.906   1.451   5.641
 2723SOL    HW1 9068   1.939   1.518   5.708
 2723SOL    HW2 9069   1.965   1.370   5.643
 2724SOL     OW 9070   3.499   5.844   7.017
 2724SOL    HW1 9071   3.453   5.926   6.982
 2724SOL    HW2 9072   3.463   5.763   6.970
 2725SOL     OW 9073   4.748   4.541   2.725
 2725SOL    HW1 9074   4.682   4.497   2.664
 2725SOL    HW2 9075   4.754   4.489   2.810
 2726SOL     OW 9076   4.641   4.562   1.679
 2726SOL    HW1 9077   4.670   4.658   1.678
 2726SOL    HW2 9078   4.678   4.517   1.760
 2727SOL     OW 9079   0.767   4.640   2.602
 2727SOL    HW1 9080   0.784   4.615   2.507
 2727SOL    HW2 9081   0.705   4.573   2.643
 2728SOL     OW 9082   2.732   6.996   5.169
 2728SOL    HW1 9083   2.685   6.980   5.256
 2728SOL    HW2 9084   2.708   6.924   5.104
 2729SOL     OW 9085   6.430   5.151   3.166
 2729SOL    HW1 9086   6.469   5.059   3.160
 2729SOL    HW2 9087   6.359   5.152   3.236
 2730SOL     OW 9088   2.638   6.847   0.226
 2730SOL    HW1 9089   2.667   6.896   0.308
 2730SOL    HW2 9090   2.688   6.881   0.147
 2731SOL     OW 9091   2.919   4.010   1.693
 2731SOL    HW1 9092   2.898   4.092   1.640
 2731SOL    HW2 9093   2.968   4.036   1.776
 2732SOL     OW 9094   5.926   2.879   2.094
 2732SOL    HW1 9095   5.849   2.923   2.141
 2732SOL    HW2 9096   5.908   2.782   2.084
 2733SOL     OW 9097   0.826   6.970   5.541
 2733SOL    HW1 9098   0.831   7.004   5.635
 2733SOL    HW2 9099   0.857   0.016   5.479
 2734SOL     OW 9100   1.908   6.797   3.847
 2734SOL    HW1 9101   1.987   6.856   3.864
 2734SOL    HW2 9102   1.906   6.723   3.914
 2735SOL     OW 9103   1.100   4.235   2.396
 2735SOL    HW1 9104   1.152   4.319   2.385
 2735SOL    HW2 9105   1.007   4.257   2.426
 2736SOL     OW 9106   4.398   0.281   5.254
 2736SOL    HW1 9107   4.396   0.297   5.155
 2736SOL    HW2 9108   4.330   0.339   5.298
 2737SOL     OW 9109   3.828   3.420   6.123
 2737SOL    HW1 9110   3.857   3.387   6.033
 2737SOL    HW2 9111   3.897   3.395   6.191
 2738SOL     OW 9112   5.070   5.332   3.873
 2738SOL    HW1 9113   5.001   5.275   3.917
 2738SOL    HW2 9114   5.132   5.275   3.820
 2739SOL     OW 9115   5.421   3.888   0.860
 2739SOL    HW1 9116   5.486   3.963   0.855
 2739SOL    HW2 9117   5.417   3.852   0.953
 2740SOL     OW 9118   6.179   2.334   2.569
 2740SOL    HW1 9119   6.203   2.264   2.636
 2740SOL    HW2 9120   6.232   2.319   2.485
 2741SOL     OW 9121   0.063   2.147   5.732
 2741SOL    HW1 9122   7.014   2.115   5.674
 2741SOL    HW2 9123   0.057   2.104   5.822
 2742SOL     OW 9124   1.606   5.782   6.521
 2742SOL    HW1 9125   1.583   5.879   6.529
 2742SOL    HW2 9126   1.522   5.728   6.520
 2743SOL     OW 9127   5.393   5.052   1.376
 2743SOL    HW1 9128   5.329   4.976   1.382
 2743SOL    HW2 9129   5.463   5.042   1.447
 2744SOL     OW 9130   4.158   2.441   6.500
 2744SOL    HW1 9131   4.133   2.448   6.403
 2744SOL    HW2 9132   4.193   2.529   6.532
 2745SOL     OW 9133   2.108   5.959   0.934
 2745SOL    HW1 9134   2.067   5.888   0.992
 2745SOL    HW2 9135   2.123   6.041   0.988
 2746SOL     OW 9136   1.740   2.052   5.305
 2746SOL    HW1 9137   1.809   2.065   5.376
 2746SOL    HW2 9138   1.675   2.128   5.308
 2747SOL     OW 9139   5.825   5.729   4.412
 2747SOL    HW1 9140   5.803   5.648   4.358
 2747SOL    HW2 9141   5.903   5.776   4.370
 2748SOL     OW 9142   4.498   1.341   3.605
 2748SOL    HW1 9143   4.419   1.385   3.563
 2748SOL    HW2 9144   4.571   1.408   3.616
 2749SOL     OW 9145   4.705   4.321   4.305
 2749SOL    HW1 9146   4.716   4.233   4.352
 2749SOL    HW2 9147   4.669   4.306   4.213
 2750SOL     OW 9148   0.696   5.747   2.358
 2750SOL    HW1 9149   0.709   5.731   2.260
 2750SOL    HW2 9150   0.773   5.707   2.409
 2751SOL     OW 9151   2.159   0.015   6.851
 2751SOL    HW1 9152   2.175   0.113   6.850
 2751SOL    HW2 9153   2.061   7.022   6.849
 2752SOL     OW 9154   5.873   6.299   5.281
 2752SOL    HW1 9155   5.873   6.388   5.236
 2752SOL    HW2 9156   5.926   6.304   5.366
 2753SOL     OW 9157   3.785   5.958   6.470
 2753SOL    HW1 9158   3.805   6.027   6.539
 2753SOL    HW2 9159   3.840   5.877   6.486
 2754SOL     OW 9160   0.642   0.062   4.459
 2754SOL    HW1 9161   0.661   7.015   4.393
 2754SOL    HW2 9162   0.660   0.030   4.551
 2755SOL     OW 9163   3.283   6.468   2.688
 2755SOL    HW1 9164   3.248   6.377   2.665
 2755SOL    HW2 9165   3.206   6.531   2.698
 2756SOL     OW 9166   6.059   3.635   5.370
 2756SOL    HW1 9167   6.043   3.617   5.466
 2756SOL    HW2 9168   6.004   3.713   5.340
 2757SOL     OW 9169   4.748   2.158   0.270
 2757SOL    HW1 9170   4.841   2.154   0.233
 2757SOL    HW2 9171   4.706   2.067   0.266
 2758SOL     OW 9172   5.289   4.786   2.975
 2758SOL    HW1 9173   5.190   4.777   2.967
 2758SOL    HW2 9174   5.319   4.871   2.931
 2759SOL     OW 9175   3.177   4.411   6.328
 2759SOL    HW1 9176   3.091   4.397   6.377
 2759SOL    HW2 9177   3.230   4.327   6.329
 2760SOL     OW 9178   5.393   5.809   3.743
 2760SOL    HW1 9179   5.395   5.758   3.657
 2760SOL    HW2 9180   5.404   5.906   3.724
 2761SOL     OW 9181   2.142   3.731   3.073
 2761SOL    HW1 9182   2.088   3.647   3.063
 2761SOL    HW2 9183   2.164   3.767   2.983
 2762SOL     OW 9184   1.804   2.345   0.004
 2762SOL    HW1 9185   1.745   2.376   6.955
 2762SOL    HW2 9186   1.848   2.259   7.005
 2763SOL     OW 9187   4.623   1.315   5.986
 2763SOL    HW1 9188   4.617   1.375   6.066
 2763SOL    HW2 9189   4.668   1.364   5.911
 2764SOL     OW 9190   0.551   3.786   1.986
 2764SOL    HW1 9191   0.596   3.845   1.919
 2764SOL    HW2 9192   0.618   3.721   2.023
 2765SOL     OW 9193   6.264   6.768   0.052
 2765SOL    HW1 9194   6.255   6.670   0.072
 2765SOL    HW2 9195   6.280   6.818   0.137
 2766SOL     OW 9196   5.318   1.045   7.011
 2766SOL    HW1 9197   5.271   1.058   6.924
 2766SOL    HW2 9198   5.334   0.947   7.026
 2767SOL     OW 9199   6.242   4.942   6.089
 2767SOL    HW1 9200   6.212   5.034   6.114
 2767SOL    HW2 9201   6.247   4.934   5.990
 2768SOL     OW 9202   4.909   0.599   1.112
 2768SOL    HW1 9203   4.904   0.657   1.030
 2768SOL    HW2 9204   4.891   0.654   1.193
 2769SOL     OW 9205   1.585   4.487   5.489
 2769SOL    HW1 9206   1.550   4.529   5.405
 2769SOL    HW2 9207   1.509   4.463   5.549
 2770SOL     OW 9208   2.511   7.025   6.885
 2770SOL    HW1 9209   2.570   6.944   6.889
 2770SOL    HW2 9210   2.439   7.010   6.817
 2771SOL     OW 9211   4.715   0.061   4.711
 2771SOL    HW1 9212   4.718   0.122   4.790
 2771SOL    HW2 9213   4.668   7.002   4.735
 2772SOL     OW 9214   4.255   0.716   2.824
 2772SOL    HW1 9215   4.157   0.720   2.804
 2772SOL    HW2 9216   4.301   0.665   2.751
 2773SOL     OW 9217   6.286   3.163   4.181
 2773SOL    HW1 9218   6.224   3.161   4.259
 2773SOL    HW2 9219   6.260   3.091   4.116
 2774SOL     OW 9220   5.156   1.902   3.158
 2774SOL    HW1 9221   5.174   1.965   3.233
 2774SOL    HW2 9222   5.239   1.850   3.138
 2775SOL     OW 9223   0.238   4.420   4.850
 2775SOL    HW1 9224   0.337   4.418   4.861
 2775SOL    HW2 9225   0.197   4.346   4.903
 2776SOL     OW 9226   4.889   4.528   5.972
 2776SOL    HW1 9227   4.858   4.435   5.954
 2776SOL    HW2 9228   4.933   4.565   5.891
 2777SOL     OW 9229   3.196   2.577   6.005
 2777SOL    HW1 9230   3.184   2.478   5.993
 2777SOL    HW2 9231   3.206   2.621   5.916
 2778SOL     OW 9232   2.552   6.307   6.544
 2778SOL    HW1 9233   2.546   6.387   6.603
 2778SOL    HW2 9234   2.600   6.234   6.592
 2779SOL     OW 9235   6.187   6.159   2.207
 2779SOL    HW1 9236   6.150   6.096   2.138
 2779SOL    HW2 9237   6.284   6.139   2.222
 2780SOL     OW 9238   0.252   1.656   6.172
 2780SOL    HW1 9239   0.326   1.588   6.169
 2780SOL    HW2 9240   0.175   1.618   6.223
 2781SOL     OW 9241   6.510   0.456   2.547
 2781SOL    HW1 9242   6.608   0.470   2.530
 2781SOL    HW2 9243   6.499   0.402   2.631
 2782SOL     OW 9244   4.387   1.270   6.745
 2782SOL    HW1 9245   4.396   1.369   6.737
 2782SOL    HW2 9246   4.305   1.241   6.695
 2783SOL     OW 9247   5.301   3.406   1.778
 2783SOL    HW1 9248   5.215   3.373   1.740
 2783SOL    HW2 9249   5.377   3.381   1.717
 2784SOL     OW 9250   1.535   1.810   0.420
 2784SOL    HW1 9251   1.563   1.735   0.359
 2784SOL    HW2 9252   1.493   1.882   0.366
 2785SOL     OW 9253   5.171   3.239   1.569
 2785SOL    HW1 9254   5.106   3.171   1.602
 2785SOL    HW2 9255   5.259   3.195   1.550
 2786SOL     OW 9256   6.821   6.050   0.055
 2786SOL    HW1 9257   6.756   5.989   0.011
 2786SOL    HW2 9258   6.773   6.110   0.119
 2787SOL     OW 9259   6.271   5.270   5.801
 2787SOL    HW1 9260   6.360   5.314   5.811
 2787SOL    HW2 9261   6.268   5.222   5.713
 2788SOL     OW 9262   3.320   5.985   5.809
 2788SOL    HW1 9263   3.276   5.953   5.893
 2788SOL    HW2 9264   3.415   6.007   5.827
 2789SOL     OW 9265   0.645   2.533   4.863
 2789SOL    HW1 9266   0.707   2.607   4.837
 2789SOL    HW2 9267   0.592   2.504   4.783
 2790SOL     OW 9268   2.309   5.652   0.759
 2790SOL    HW1 9269   2.381   5.696   0.706
 2790SOL    HW2 9270   2.223   5.653   0.708
 2791SOL     OW 9271   6.850   3.833   3.465
 2791SOL    HW1 9272   6.766   3.785   3.490
 2791SOL    HW2 9273   6.927   3.793   3.515
 2792SOL     OW 9274   3.483   1.600   5.498
 2792SOL    HW1 9275   3.407   1.611   5.433
 2792SOL    HW2 9276   3.533   1.686   5.506
 2793SOL     OW 9277   3.759   4.437   1.366
 2793SOL    HW1 9278   3.737   4.479   1.453
 2793SOL    HW2 9279   3.847   4.471   1.334
 2794SOL     OW 9280   0.387   1.915   6.194
 2794SOL    HW1 9281   0.332   1.996   6.214
 2794SOL    HW2 9282   0.334   1.833   6.215
 2795SOL     OW 9283   1.064   4.419   1.651
 2795SOL    HW1 9284   1.075   4.320   1.643
 2795SOL    HW2 9285   0.970   4.440   1.678
 2796SOL     OW 9286   0.857   6.079   5.311
 2796SOL    HW1 9287   0.808   6.024   5.379
 2796SOL    HW2 9288   0.903   6.018   5.246
 2797SOL     OW 9289   5.370   6.929   4.422
 2797SOL    HW1 9290   5.344   7.026   4.417
 2797SOL    HW2 9291   5.323   6.878   4.350
 2798SOL     OW 9292   6.000   6.581   1.975
 2798SOL    HW1 9293   6.091   6.622   1.969
 2798SOL    HW2 9294   6.009   6.484   1.999
 2799SOL     OW 9295   3.816   6.111   4.809
 2799SOL    HW1 9296   3.864   6.049   4.871
 2799SOL    HW2 9297   3.737   6.064   4.769
 2800SOL     OW 9298   6.131   0.817   6.828
 2800SOL    HW1 9299   6.230   0.802   6.828
 2800SOL    HW2 9300   6.096   0.810   6.734
 2801SOL     OW 9301   0.636   4.778   5.547
 2801SOL    HW1 9302   0.572   4.761   5.623
 2801SOL    HW2 9303   0.637   4.875   5.526
 2802SOL     OW 9304   6.792   5.836   5.244
 2802SOL    HW1 9305   6.864   5.846   5.176
 2802SOL    HW2 9306   6.720   5.903   5.226
 2803SOL     OW 9307   3.784   3.598   6.337
 2803SOL    HW1 9308   3.783   3.534   6.261
 2803SOL    HW2 9309   3.862   3.579   6.397
 2804SOL     OW 9310   0.618   2.807   3.784
 2804SOL    HW1 9311   0.543   2.748   3.813
 2804SOL    HW2 9312   0.581   2.893   3.749
 2805SOL     OW 9313   3.887   3.465   1.602
 2805SOL    HW1 9314   3.976   3.466   1.555
 2805SOL    HW2 9315   3.859   3.371   1.619
 2806SOL     OW 9316   0.725   4.629   6.233
 2806SOL    HW1 9317   0.801   4.673   6.186
 2806SOL    HW2 9318   0.644   4.632   6.175
 2807SOL     OW 9319   3.074   0.286   3.751
 2807SOL    HW1 9320   2.994   0.227   3.742
 2807SOL    HW2 9321   3.073   0.355   3.679
 2808SOL     OW 9322   6.041   5.234   6.930
 2808SOL    HW1 9323   6.024   5.297   6.854
 2808SOL    HW2 9324   6.114   5.270   6.988
 2809SOL     OW 9325   6.680   4.666   2.082
 2809SOL    HW1 9326   6.611   4.693   2.150
 2809SOL    HW2 9327   6.653   4.579   2.040
 2810SOL     OW 9328   2.583   5.553   3.557
 2810SOL    HW1 9329   2.530   5.507   3.628
 2810SOL    HW2 9330   2.530   5.629   3.520
 2811SOL     OW 9331   1.082   0.864   2.169
 2811SOL    HW1 9332   1.112   0.906   2.084
 2811SOL    HW2 9333   0.983   0.875   2.179
 2812SOL     OW 9334   0.426   3.300   0.737
 2812SOL    HW1 9335   0.392   3.225   0.682
 2812SOL    HW2 9336   0.458   3.374   0.678
 2813SOL     OW 9337   0.571   2.216   1.400
 2813SOL    HW1 9338   0.579   2.116   1.404
 2813SOL    HW2 9339   0.476   2.243   1.413
 2814SOL     OW 9340   2.064   4.170   0.332
 2814SOL    HW1 9341   1.979   4.188   0.381
 2814SOL    HW2 9342   2.137   4.225   0.371
 2815SOL     OW 9343   0.648   5.815   5.722
 2815SOL    HW1 9344   0.714   5.743   5.741
 2815SOL    HW2 9345   0.556   5.776   5.722
 2816SOL     OW 9346   0.378   6.030   5.987
 2816SOL    HW1 9347   0.301   6.008   5.928
 2816SOL    HW2 9348   0.433   6.101   5.944
 2817SOL     OW 9349   4.050   0.495   2.045
 2817SOL    HW1 9350   4.030   0.431   2.119
 2817SOL    HW2 9351   4.048   0.589   2.081
 2818SOL     OW 9352   1.221   0.624   1.327
 2818SOL    HW1 9353   1.239   0.583   1.238
 2818SOL    HW2 9354   1.166   0.561   1.382
 2819SOL     OW 9355   0.776   0.443   1.013
 2819SOL    HW1 9356   0.686   0.478   0.986
 2819SOL    HW2 9357   0.785   0.349   0.982
 2820SOL     OW 9358   1.349   2.864   1.086
 2820SOL    HW1 9359   1.431   2.920   1.097
 2820SOL    HW2 9360   1.297   2.864   1.171
 2821SOL     OW 9361   2.911   4.509   6.439
 2821SOL    HW1 9362   2.978   4.539   6.507
 2821SOL    HW2 9363   2.846   4.582   6.421
 2822SOL     OW 9364   4.402   2.510   0.804
 2822SOL    HW1 9365   4.345   2.466   0.734
 2822SOL    HW2 9366   4.365   2.600   0.825
 2823SOL     OW 9367   4.978   2.228   1.040
 2823SOL    HW1 9368   4.983   2.328   1.030
 2823SOL    HW2 9369   4.996   2.185   0.952
 2824SOL     OW 9370   0.890   3.382   5.664
 2824SOL    HW1 9371   0.906   3.421   5.755
 2824SOL    HW2 9372   0.948   3.429   5.597
 2825SOL     OW 9373   5.439   1.492   6.508
 2825SOL    HW1 9374   5.466   1.471   6.602
 2825SOL    HW2 9375   5.355   1.443   6.486
 2826SOL     OW 9376   1.842   4.017   6.481
 2826SOL    HW1 9377   1.808   4.042   6.572
 2826SOL    HW2 9378   1.816   3.922   6.461
 2827SOL     OW 9379   7.008   0.743   6.525
 2827SOL    HW1 9380   6.978   0.813   6.459
 2827SOL    HW2 9381   0.040   0.676   6.478
 2828SOL     OW 9382   1.928   4.202   1.129
 2828SOL    HW1 9383   1.923   4.288   1.079
 2828SOL    HW2 9384   1.944   4.127   1.066
 2829SOL     OW 9385   3.955   3.932   3.442
 2829SOL    HW1 9386   3.874   3.913   3.386
 2829SOL    HW2 9387   3.956   4.029   3.466
 2830SOL     OW 9388   3.608   5.164   5.809
 2830SOL    HW1 9389   3.541   5.099   5.773
 2830SOL    HW2 9390   3.561   5.247   5.838
 2831SOL     OW 9391   6.392   1.930   1.867
 2831SOL    HW1 9392   6.330   1.866   1.914
 2831SOL    HW2 9393   6.478   1.935   1.917
 2832SOL     OW 9394   0.507   3.250   1.003
 2832SOL    HW1 9395   0.496   3.263   0.904
 2832SOL    HW2 9396   0.417   3.238   1.045
 2833SOL     OW 9397   1.700   1.966   1.652
 2833SOL    HW1 9398   1.731   1.976   1.557
 2833SOL    HW2 9399   1.600   1.961   1.654
 2834SOL     OW 9400   3.976   5.708   5.244
 2834SOL    HW1 9401   3.975   5.793   5.296
 2834SOL    HW2 9402   4.006   5.725   5.150
 2835SOL     OW 9403   0.817   6.667   0.873
 2835SOL    HW1 9404   0.907   6.703   0.899
 2835SOL    HW2 9405   0.759   6.661   0.954
 2836SOL     OW 9406   3.714   6.183   3.498
 2836SOL    HW1 9407   3.719   6.088   3.527
 2836SOL    HW2 9408   3.619   6.215   3.505
 2837SOL     OW 9409   5.292   4.187   2.267
 2837SOL    HW1 9410   5.253   4.159   2.354
 2837SOL    HW2 9411   5.219   4.201   2.200
 2838SOL     OW 9412   5.164   3.729   5.890
 2838SOL    HW1 9413   5.210   3.781   5.818
 2838SOL    HW2 9414   5.103   3.662   5.849
 2839SOL     OW 9415   6.038   2.807   5.320
 2839SOL    HW1 9416   5.946   2.794   5.358
 2839SOL    HW2 9417   6.098   2.735   5.354
 2840SOL     OW 9418   0.427   6.171   2.951
 2840SOL    HW1 9419   0.448   6.093   3.010
 2840SOL    HW2 9420   0.393   6.137   2.863
 2841SOL     OW 9421   5.627   2.836   1.784
 2841SOL    HW1 9422   5.532   2.865   1.772
 2841SOL    HW2 9423   5.689   2.903   1.743
 2842SOL     OW 9424   1.688   6.601   3.149
 2842SOL    HW1 9425   1.701   6.647   3.237
 2842SOL    HW2 9426   1.711   6.664   3.075
 2843SOL     OW 9427   2.159   3.025   3.068
 2843SOL    HW1 9428   2.188   2.937   3.104
 2843SOL    HW2 9429   2.132   3.086   3.143
 2844SOL     OW 9430   4.549   4.589   1.423
 2844SOL    HW1 9431   4.599   4.525   1.366
 2844SOL    HW2 9432   4.581   4.582   1.517
 2845SOL     OW 9433   3.771   2.116   2.822
 2845SOL    HW1 9434   3.691   2.058   2.811
 2845SOL    HW2 9435   3.811   2.103   2.912
 2846SOL     OW 9436   4.976   0.675   0.709
 2846SOL    HW1 9437   4.900   0.695   0.769
 2846SOL    HW2 9438   5.023   0.760   0.684
 2847SOL     OW 9439   5.347   4.365   2.617
 2847SOL    HW1 9440   5.335   4.438   2.550
 2847SOL    HW2 9441   5.306   4.281   2.583
 2848SOL     OW 9442   0.634   4.108   4.846
 2848SOL    HW1 9443   0.727   4.136   4.869
 2848SOL    HW2 9444   0.633   4.010   4.826
 2849SOL     OW 9445   4.321   0.413   2.869
 2849SOL    HW1 9446   4.378   0.337   2.900
 2849SOL    HW2 9447   4.226   0.397   2.895
 2850SOL     OW 9448   2.716   0.070   3.130
 2850SOL    HW1 9449   2.771   0.009   3.187
 2850SOL    HW2 9450   2.747   0.164   3.142
 2851SOL     OW 9451   3.903   3.223   0.845
 2851SOL    HW1 9452   3.952   3.200   0.930
 2851SOL    HW2 9453   3.814   3.263   0.868
 2852SOL     OW 9454   6.212   4.241   5.753
 2852SOL    HW1 9455   6.250   4.161   5.707
 2852SOL    HW2 9456   6.114   4.227   5.768
 2853SOL     OW 9457   0.752   4.024   0.047
 2853SOL    HW1 9458   0.770   3.939   7.022
 2853SOL    HW2 9459   0.838   4.059   0.083
 2854SOL     OW 9460   3.396   1.730   5.903
 2854SOL    HW1 9461   3.405   1.825   5.875
 2854SOL    HW2 9462   3.307   1.695   5.875
 2855SOL     OW 9463   2.109   1.185   4.065
 2855SOL    HW1 9464   2.027   1.170   4.009
 2855SOL    HW2 9465   2.121   1.282   4.082
 2856SOL     OW 9466   1.010   4.493   3.359
 2856SOL    HW1 9467   0.927   4.544   3.338
 2856SOL    HW2 9468   1.011   4.408   3.306
 2857SOL     OW 9469   6.651   3.436   0.404
 2857SOL    HW1 9470   6.662   3.516   0.463
 2857SOL    HW2 9471   6.738   3.388   0.395
 2858SOL     OW 9472   4.799   4.476   3.040
 2858SOL    HW1 9473   4.890   4.443   3.013
 2858SOL    HW2 9474   4.737   4.398   3.049
 2859SOL     OW 9475   5.564   4.720   1.824
 2859SOL    HW1 9476   5.568   4.718   1.724
 2859SOL    HW2 9477   5.577   4.627   1.859
 2860SOL     OW 9478   1.255   6.189   1.120
 2860SOL    HW1 9479   1.329   6.251   1.147
 2860SOL    HW2 9480   1.172   6.213   1.170
 2861SOL     OW 9481   4.464   4.733   6.908
 2861SOL    HW1 9482   4.443   4.640   6.877
 2861SOL    HW2 9483   4.555   4.759   6.874
 2862SOL     OW 9484   4.260   3.058   0.751
 2862SOL    HW1 9485   4.292   3.031   0.661
 2862SOL    HW2 9486   4.209   2.982   0.792
 2863SOL     OW 9487   5.838   0.464   5.188
 2863SOL    HW1 9488   5.854   0.465   5.287
 2863SOL    HW2 9489   5.843   0.370   5.155
 2864SOL     OW 9490   3.892   3.785   0.064
 2864SOL    HW1 9491   3.879   3.808   0.160
 2864SOL    HW2 9492   3.990   3.782   0.043
 2865SOL     OW 9493   5.054   5.615   4.624
 2865SOL    HW1 9494   5.003   5.629   4.539
 2865SOL    HW2 9495   5.142   5.574   4.603
 2866SOL     OW 9496   4.055   4.515   0.090
 2866SOL    HW1 9497   4.108   4.561   0.018
 2866SOL    HW2 9498   3.979   4.466   0.048
 2867SOL     OW 9499   5.756   6.185   1.883
 2867SOL    HW1 9500   5.809   6.258   1.841
 2867SOL    HW2 9501   5.675   6.166   1.827
 2868SOL     OW 9502   1.538   1.563   6.074
 2868SOL    HW1 9503   1.591   1.530   5.995
 2868SOL    HW2 9504   1.446   1.524   6.072
 2869SOL     OW 9505   4.957   5.642   3.765
 2869SOL    HW1 9506   4.962   5.557   3.818
 2869SOL    HW2 9507   4.987   5.624   3.672
 2870SOL     OW 9508   6.961   1.852   1.590
 2870SOL    HW1 9509   6.960   1.776   1.526
 2870SOL    HW2 9510   0.007   1.838   1.658
 2871SOL     OW 9511   5.484   1.655   1.299
 2871SOL    HW1 9512   5.396   1.688   1.263
 2871SOL    HW2 9513   5.525   1.726   1.356
 2872SOL     OW 9514   2.295   2.150   2.254
 2872SOL    HW1 9515   2.311   2.145   2.155
 2872SOL    HW2 9516   2.307   2.060   2.295
 2873SOL     OW 9517   0.652   6.608   1.106
 2873SOL    HW1 9518   0.690   6.666   1.178
 2873SOL    HW2 9519   0.688   6.515   1.116
 2874SOL     OW 9520   1.988   1.011   2.836
 2874SOL    HW1 9521   1.936   1.092   2.861
 2874SOL    HW2 9522   1.925   0.937   2.813
 2875SOL     OW 9523   2.789   6.803   3.144
 2875SOL    HW1 9524   2.740   6.796   3.057
 2875SOL    HW2 9525   2.869   6.863   3.133
 2876SOL     OW 9526   1.210   6.215   2.079
 2876SOL    HW1 9527   1.263   6.271   2.143
 2876SOL    HW2 9528   1.151   6.274   2.024
 2877SOL     OW 9529   1.457   0.973   5.916
 2877SOL    HW1 9530   1.435   1.009   6.006
 2877SOL    HW2 9531   1.419   1.033   5.846
 2878SOL     OW 9532   4.132   3.464   4.706
 2878SOL    HW1 9533   4.227   3.434   4.716
 2878SOL    HW2 9534   4.088   3.411   4.633
 2879SOL     OW 9535   4.480   4.861   6.445
 2879SOL    HW1 9536   4.578   4.881   6.454
 2879SOL    HW2 9537   4.466   4.799   6.368
 2880SOL     OW 9538   1.513   1.019   4.662
 2880SOL    HW1 9539   1.447   0.983   4.596
 2880SOL    HW2 9540   1.601   0.974   4.649
 2881SOL     OW 9541   3.790   6.156   6.740
 2881SOL    HW1 9542   3.817   6.122   6.830
 2881SOL    HW2 9543   3.702   6.203   6.747
 2882SOL     OW 9544   4.443   6.146   0.492
 2882SOL    HW1 9545   4.396   6.165   0.578
 2882SOL    HW2 9546   4.528   6.199   0.488
 2883SOL     OW 9547   6.242   6.175   3.322
 2883SOL    HW1 9548   6.185   6.186   3.404
 2883SOL    HW2 9549   6.214   6.241   3.253
 2884SOL     OW 9550   6.950   5.429   3.051
 2884SOL    HW1 9551   6.873   5.443   3.113
 2884SOL    HW2 9552   0.002   5.395   3.103
 2885SOL     OW 9553   0.943   2.934   2.888
 2885SOL    HW1 9554   0.883   3.014   2.887
 2885SOL    HW2 9555   0.942   2.892   2.979
 2886SOL     OW 9556   2.495   4.583   6.132
 2886SOL    HW1 9557   2.556   4.516   6.174
 2886SOL    HW2 9558   2.410   4.538   6.104
 2887SOL     OW 9559   1.364   5.807   3.567
 2887SOL    HW1 9560   1.267   5.787   3.577
 2887SOL    HW2 9561   1.377   5.886   3.508
 2888SOL     OW 9562   6.284   6.575   0.811
 2888SOL    HW1 9563   6.381   6.572   0.787
 2888SOL    HW2 9564   6.254   6.484   0.841
 2889SOL     OW 9565   3.310   6.456   3.433
 2889SOL    HW1 9566   3.223   6.505   3.438
 2889SOL    HW2 9567   3.363   6.489   3.356
 2890SOL     OW 9568   2.393   0.504   1.067
 2890SOL    HW1 9569   2.318   0.569   1.055
 2890SOL    HW2 9570   2.358   0.416   1.099
 2891SOL     OW 9571   0.539   3.056   3.695
 2891SOL    HW1 9572   0.446   3.091   3.682
 2891SOL    HW2 9573   0.592   3.124   3.745
 2892SOL     OW 9574   6.815   3.553   1.475
 2892SOL    HW1 9575   6.810   3.562   1.574
 2892SOL    HW2 9576   6.805   3.643   1.432
 2893SOL     OW 9577   0.033   5.081   4.448
 2893SOL    HW1 9578   0.039   5.125   4.537
 2893SOL    HW2 9579   6.980   5.020   4.445
 2894SOL     OW 9580   1.360   5.299   2.099
 2894SOL    HW1 9581   1.389   5.277   2.006
 2894SOL    HW2 9582   1.403   5.385   2.127
 2895SOL     OW 9583   4.289   6.492   6.118
 2895SOL    HW1 9584   4.201   6.504   6.072
 2895SOL    HW2 9585   4.362   6.481   6.051
 2896SOL     OW 9586   6.237   6.161   5.030
 2896SOL    HW1 9587   6.221   6.212   5.114
 2896SOL    HW2 9588   6.173   6.085   5.024
 2897SOL     OW 9589   4.056   4.921   2.599
 2897SOL    HW1 9590   4.154   4.938   2.589
 2897SOL    HW2 9591   4.024   4.962   2.684
 2898SOL     OW 9592   5.903   4.119   2.107
 2898SOL    HW1 9593   5.891   4.030   2.151
 2898SOL    HW2 9594   5.957   4.178   2.167
 2899SOL     OW 9595   6.706   3.198   0.790
 2899SOL    HW1 9596   6.776   3.126   0.789
 2899SOL    HW2 9597   6.623   3.164   0.747
 2900SOL     OW 9598   2.947   3.977   0.159
 2900SOL    HW1 9599   2.956   3.881   0.133
 2900SOL    HW2 9600   2.865   4.015   0.116
 2901SOL     OW 9601   1.669   3.700   3.450
 2901SOL    HW1 9602   1.716   3.783   3.481
 2901SOL    HW2 9603   1.658   3.702   3.351
 2902SOL     OW 9604   1.160   5.771   4.038
 2902SOL    HW1 9605   1.097   5.730   4.104
 2902SOL    HW2 9606   1.211   5.845   4.082
 2903SOL     OW 9607   4.210   5.850   1.141
 2903SOL    HW1 9608   4.308   5.867   1.129
 2903SOL    HW2 9609   4.166   5.934   1.175
 2904SOL     OW 9610   2.425   4.462   5.120
 2904SOL    HW1 9611   2.444   4.461   5.022
 2904SOL    HW2 9612   2.374   4.544   5.144
 2905SOL     OW 9613   0.700   4.887   1.814
 2905SOL    HW1 9614   0.613   4.885   1.764
 2905SOL    HW2 9615   0.734   4.980   1.819
 2906SOL     OW 9616   6.132   5.721   3.685
 2906SOL    HW1 9617   6.147   5.820   3.683
 2906SOL    HW2 9618   6.149   5.682   3.595
 2907SOL     OW 9619   0.957   0.348   3.461
 2907SOL    HW1 9620   0.905   0.390   3.386
 2907SOL    HW2 9621   0.906   0.357   3.547
 2908SOL     OW 9622   4.558   6.925   3.218
 2908SOL    HW1 9623   4.586   6.917   3.122
 2908SOL    HW2 9624   4.460   6.908   3.226
 2909SOL     OW 9625   1.228   5.735   2.634
 2909SOL    HW1 9626   1.280   5.660   2.592
 2909SOL    HW2 9627   1.269   5.757   2.723
 2910SOL     OW 9628   0.240   0.301   3.250
 2910SOL    HW1 9629   0.157   0.317   3.304
 2910SOL    HW2 9630   0.314   0.358   3.285
 2911SOL     OW 9631   6.640   3.670   4.408
 2911SOL    HW1 9632   6.661   3.710   4.497
 2911SOL    HW2 9633   6.644   3.571   4.415
 2912SOL     OW 9634   0.187   6.899   0.778
 2912SOL    HW1 9635   0.243   6.966   0.826
 2912SOL    HW2 9636   0.246   6.830   0.737
 2913SOL     OW 9637   2.382   5.847   1.070
 2913SOL    HW1 9638   2.340   5.788   1.138
 2913SOL    HW2 9639   2.345   5.826   0.980
 2914SOL     OW 9640   5.074   5.038   0.379
 2914SOL    HW1 9641   5.134   5.096   0.435
 2914SOL    HW2 9642   5.078   4.944   0.413
 2915SOL     OW 9643   3.031   1.366   3.355
 2915SOL    HW1 9644   3.042   1.465   3.357
 2915SOL    HW2 9645   2.949   1.343   3.301
 2916SOL     OW 9646   1.310   5.974   0.799
 2916SOL    HW1 9647   1.329   6.071   0.784
 2916SOL    HW2 9648   1.253   5.940   0.725
 2917SOL     OW 9649   2.715   6.663   3.955
 2917SOL    HW1 9650   2.802   6.615   3.945
 2917SOL    HW2 9651   2.670   6.670   3.866
 2918SOL     OW 9652   6.287   3.604   1.344
 2918SOL    HW1 9653   6.355   3.551   1.395
 2918SOL    HW2 9654   6.211   3.544   1.318
 2919SOL     OW 9655   1.091   5.801   3.779
 2919SOL    HW1 9656   1.115   5.772   3.872
 2919SOL    HW2 9657   1.048   5.891   3.783
 2920SOL     OW 9658   1.306   2.374   1.649
 2920SOL    HW1 9659   1.249   2.351   1.570
 2920SOL    HW2 9660   1.256   2.354   1.733
 2921SOL     OW 9661   0.407   0.220   5.795
 2921SOL    HW1 9662   0.322   0.171   5.815
 2921SOL    HW2 9663   0.461   0.167   5.730
 2922SOL     OW 9664   3.821   0.622   3.486
 2922SOL    HW1 9665   3.905   0.675   3.477
 2922SOL    HW2 9666   3.804   0.602   3.582
 2923SOL     OW 9667   6.164   4.766   4.513
 2923SOL    HW1 9668   6.114   4.684   4.539
 2923SOL    HW2 9669   6.142   4.841   4.576
 2924SOL     OW 9670   6.673   2.753   5.421
 2924SOL    HW1 9671   6.600   2.689   5.399
 2924SOL    HW2 9672   6.697   2.744   5.518
 2925SOL     OW 9673   5.291   0.232   6.127
 2925SOL    HW1 9674   5.352   0.310   6.141
 2925SOL    HW2 9675   5.253   0.234   6.035
 2926SOL     OW 9676   0.299   1.776   4.729
 2926SOL    HW1 9677   0.378   1.826   4.765
 2926SOL    HW2 9678   0.239   1.749   4.804
 2927SOL     OW 9679   1.271   2.863   1.564
 2927SOL    HW1 9680   1.339   2.933   1.589
 2927SOL    HW2 9681   1.223   2.892   1.481
 2928SOL     OW 9682   6.883   2.498   0.149
 2928SOL    HW1 9683   6.921   2.590   0.155
 2928SOL    HW2 9684   6.946   2.433   0.192
 2929SOL     OW 9685   1.637   2.519   4.642
 2929SOL    HW1 9686   1.726   2.474   4.648
 2929SOL    HW2 9687   1.622   2.551   4.548
 2930SOL     OW 9688   0.714   5.508   5.490
 2930SOL    HW1 9689   0.809   5.483   5.476
 2930SOL    HW2 9690   0.665   5.502   5.402
 2931SOL     OW 9691   4.583   4.156   5.960
 2931SOL    HW1 9692   4.647   4.082   5.937
 2931SOL    HW2 9693   4.569   4.159   6.059
 2932SOL     OW 9694   6.599   5.610   0.313
 2932SOL    HW1 9695   6.555   5.673   0.377
 2932SOL    HW2 9696   6.543   5.528   0.304
 2933SOL     OW 9697   1.467   0.174   0.589
 2933SOL    HW1 9698   1.521   0.236   0.645
 2933SOL    HW2 9699   1.487   0.079   0.615
 2934SOL     OW 9700   4.021   4.571   0.348
 2934SOL    HW1 9701   4.032   4.570   0.248
 2934SOL    HW2 9702   4.094   4.516   0.389
 2935SOL     OW 9703   6.918   2.457   6.220
 2935SOL    HW1 9704   6.856   2.464   6.142
 2935SOL    HW2 9705   6.902   2.370   6.267
 2936SOL     OW 9706   4.744   6.768   1.148
 2936SOL    HW1 9707   4.795   6.847   1.115
 2936SOL    HW2 9708   4.670   6.798   1.209
 2937SOL     OW 9709   4.856   5.492   2.314
 2937SOL    HW1 9710   4.906   5.472   2.398
 2937SOL    HW2 9711   4.916   5.540   2.250
 2938SOL     OW 9712   6.310   5.609   6.625
 2938SOL    HW1 9713   6.326   5.581   6.530
 2938SOL    HW2 9714   6.248   5.544   6.669
 2939SOL     OW 9715   0.130   5.933   1.554
 2939SOL    HW1 9716   0.142   5.836   1.536
 2939SOL    HW2 9717   0.033   5.957   1.547
 2940SOL     OW 9718   4.434   5.891   4.262
 2940SOL    HW1 9719   4.475   5.933   4.182
 2940SOL    HW2 9720   4.446   5.792   4.258
 2941SOL     OW 9721   1.830   3.695   4.069
 2941SOL    HW1 9722   1.850   3.618   4.010
 2941SOL    HW2 9723   1.803   3.662   4.160
 2942SOL     OW 9724   3.926   1.364   0.786
 2942SOL    HW1 9725   3.928   1.290   0.853
 2942SOL    HW2 9726   4.019   1.389   0.761
 2943SOL     OW 9727   5.845   4.211   3.351
 2943SOL    HW1 9728   5.775   4.174   3.412
 2943SOL    HW2 9729   5.930   4.159   3.360
 2944SOL     OW 9730   2.201   5.881   3.639
 2944SOL    HW1 9731   2.120   5.935   3.616
 2944SOL    HW2 9732   2.200   5.795   3.588
 2945SOL     OW 9733   4.927   4.352   1.214
 2945SOL    HW1 9734   4.983   4.356   1.131
 2945SOL    HW2 9735   4.935   4.261   1.256
 2946SOL     OW 9736   3.041   4.104   6.077
 2946SOL    HW1 9737   3.071   4.066   5.989
 2946SOL    HW2 9738   3.104   4.073   6.148
 2947SOL     OW 9739   5.807   6.455   0.530
 2947SOL    HW1 9740   5.888   6.404   0.499
 2947SOL    HW2 9741   5.825   6.495   0.620
 2948SOL     OW 9742   5.921   3.850   2.419
 2948SOL    HW1 9743   5.939   3.942   2.456
 2948SOL    HW2 9744   5.837   3.814   2.458
 2949SOL     OW 9745   1.255   6.899   0.706
 2949SOL    HW1 9746   1.350   6.927   0.696
 2949SOL    HW2 9747   1.229   6.840   0.630
 2950SOL     OW 9748   5.040   4.507   2.691
 2950SOL    HW1 9749   4.941   4.509   2.697
 2950SOL    HW2 9750   5.067   4.480   2.599
 2951SOL     OW 9751   5.942   1.465   1.741
 2951SOL    HW1 9752   6.024   1.513   1.712
 2951SOL    HW2 9753   5.919   1.492   1.835
 2952SOL     OW 9754   5.868   1.512   4.040
 2952SOL    HW1 9755   5.823   1.559   4.116
 2952SOL    HW2 9756   5.952   1.468   4.073
 2953SOL     OW 9757   1.005   5.432   3.401
 2953SOL    HW1 9758   1.007   5.505   3.471
 2953SOL    HW2 9759   1.089   5.434   3.348
 2954SOL     OW 9760   0.119   4.740   6.186
 2954SOL    HW1 9761   0.024   4.708   6.187
 2954SOL    HW2 9762   0.132   4.803   6.109
 2955SOL     OW 9763   1.927   4.213   0.074
 2955SOL    HW1 9764   1.977   4.165   0.146
 2955SOL    HW2 9765   1.973   4.200   7.012
 2956SOL     OW 9766   6.286   4.320   3.446
 2956SOL    HW1 9767   6.202   4.307   3.393
 2956SOL    HW2 9768   6.309   4.418   3.448
 2957SOL     OW 9769   2.630   5.530   2.024
 2957SOL    HW1 9770   2.670   5.605   1.970
 2957SOL    HW2 9771   2.538   5.555   2.054
 2958SOL     OW 9772   2.328   5.254   3.353
 2958SOL    HW1 9773   2.310   5.268   3.256
 2958SOL    HW2 9774   2.427   5.257   3.370
 2959SOL     OW 9775   6.526   2.607   3.026
 2959SOL    HW1 9776   6.557   2.615   3.121
 2959SOL    HW2 9777   6.450   2.670   3.011
 2960SOL     OW 9778   4.855   0.805   0.406
 2960SOL    HW1 9779   4.858   0.874   0.334
 2960SOL    HW2 9780   4.948   0.775   0.428
 2961SOL     OW 9781   5.578   3.995   2.581
 2961SOL    HW1 9782   5.575   4.047   2.495
 2961SOL    HW2 9783   5.487   3.958   2.601
 2962SOL     OW 9784   0.032   6.609   2.121
 2962SOL    HW1 9785   0.100   6.677   2.092
 2962SOL    HW2 9786   6.970   6.631   2.081
 2963SOL     OW 9787   1.833   1.189   4.800
 2963SOL    HW1 9788   1.933   1.187   4.802
 2963SOL    HW2 9789   1.801   1.185   4.705
 2964SOL     OW 9790   0.904   2.431   6.969
 2964SOL    HW1 9791   0.819   2.380   6.960
 2964SOL    HW2 9792   0.900   2.489   0.025
 2965SOL     OW 9793   0.747   0.402   4.654
 2965SOL    HW1 9794   0.788   0.314   4.631
 2965SOL    HW2 9795   0.786   0.436   4.739
 2966SOL     OW 9796   4.480   5.682   3.308
 2966SOL    HW1 9797   4.423   5.754   3.269
 2966SOL    HW2 9798   4.570   5.719   3.331
 2967SOL     OW 9799   6.537   0.602   5.333
 2967SOL    HW1 9800   6.597   0.581   5.410
 2967SOL    HW2 9801   6.566   0.549   5.253
 2968SOL     OW 9802   2.031   2.179   0.846
 2968SOL    HW1 9803   2.129   2.197   0.850
 2968SOL    HW2 9804   1.990   2.230   0.770
 2969SOL     OW 9805   5.299   3.398   4.692
 2969SOL    HW1 9806   5.311   3.408   4.593
 2969SOL    HW2 9807   5.385   3.368   4.733
 2970SOL     OW 9808   2.367   2.487   4.499
 2970SOL    HW1 9809   2.268   2.477   4.488
 2970SOL    HW2 9810   2.411   2.480   4.409
 2971SOL     OW 9811   5.534   3.473   6.405
 2971SOL    HW1 9812   5.625   3.466   6.365
 2971SOL    HW2 9813   5.528   3.414   6.485
 2972SOL     OW 9814   5.326   4.932   6.880
 2972SOL    HW1 9815   5.350   4.848   6.831
 2972SOL    HW2 9816   5.394   4.949   6.951
 2973SOL     OW 9817   5.264   0.025   2.266
 2973SOL    HW1 9818   5.320   7.015   2.191
 2973SOL    HW2 9819   5.176   7.002   2.268
 2974SOL     OW 9820   4.796   5.364   3.420
 2974SOL    HW1 9821   4.801   5.273   3.380
 2974SOL    HW2 9822   4.821   5.433   3.351
 2975SOL     OW 9823   4.878   4.542   3.992
 2975SOL    HW1 9824   4.804   4.604   3.965
 2975SOL    HW2 9825   4.839   4.452   4.014
 2976SOL     OW 9826   4.273   2.212   1.952
 2976SOL    HW1 9827   4.267   2.283   1.882
 2976SOL    HW2 9828   4.210   2.233   2.027
 2977SOL     OW 9829   1.203   0.731   1.720
 2977SOL    HW1 9830   1.108   0.709   1.745
 2977SOL    HW2 9831   1.262   0.654   1.743
 2978SOL     OW 9832   4.703   4.655   6.736
 2978SOL    HW1 9833   4.773   4.598   6.777
 2978SOL    HW2 9834   4.745   4.724   6.678
 2979SOL     OW 9835   3.225   1.208   4.057
 2979SOL    HW1 9836   3.148   1.267   4.078
 2979SOL    HW2 9837   3.283   1.253   3.989
 2980SOL     OW 9838   4.012   3.941   5.649
 2980SOL    HW1 9839   4.015   3.884   5.732
 2980SOL    HW2 9840   4.043   4.033   5.670
 2981SOL     OW 9841   1.457   1.195   0.637
 2981SOL    HW1 9842   1.357   1.190   0.626
 2981SOL    HW2 9843   1.501   1.186   0.548
 2982SOL     OW 9844   0.948   0.948   1.763
 2982SOL    HW1 9845   0.939   0.874   1.830
 2982SOL    HW2 9846   0.897   1.028   1.794
 2983SOL     OW 9847   6.164   3.046   6.468
 2983SOL    HW1 9848   6.178   2.974   6.536
 2983SOL    HW2 9849   6.163   3.006   6.377
 2984SOL     OW 9850   0.036   4.774   0.516
 2984SOL    HW1 9851   0.020   4.847   0.582
 2984SOL    HW2 9852   0.131   4.745   0.520
 2985SOL     OW 9853   0.455   0.357   4.654
 2985SOL    HW1 9854   0.552   0.354   4.632
 2985SOL    HW2 9855   0.405   0.400   4.578
 2986SOL     OW 9856   3.597   4.118   2.688
 2986SOL    HW1 9857   3.601   4.217   2.677
 2986SOL    HW2 9858   3.605   4.074   2.599
 2987SOL     OW 9859   1.511   0.886   4.338
 2987SOL    HW1 9860   1.465   0.970   4.310
 2987SOL    HW2 9861   1.452   0.833   4.399
 2988SOL     OW 9862   0.775   1.779   0.334
 2988SOL    HW1 9863   0.769   1.878   0.326
 2988SOL    HW2 9864   0.819   1.741   0.253
 2989SOL     OW 9865   4.962   3.573   4.459
 2989SOL    HW1 9866   5.007   3.593   4.546
 2989SOL    HW2 9867   4.955   3.658   4.405
 2990SOL     OW 9868   5.117   2.095   4.518
 2990SOL    HW1 9869   5.124   2.013   4.461
 2990SOL    HW2 9870   5.136   2.072   4.613
 2991SOL     OW 9871   5.557   3.508   0.905
 2991SOL    HW1 9872   5.569   3.414   0.874
 2991SOL    HW2 9873   5.476   3.514   0.963
 2992SOL     OW 9874   0.469   3.081   5.561
 2992SOL    HW1 9875   0.454   3.049   5.467
 2992SOL    HW2 9876   0.560   3.122   5.568
 2993SOL     OW 9877   1.158   4.457   0.305
 2993SOL    HW1 9878   1.161   4.535   0.368
 2993SOL    HW2 9879   1.125   4.488   0.215
 2994SOL     OW 9880   4.966   7.010   0.142
 2994SOL    HW1 9881   4.928   0.040   0.067
 2994SOL    HW2 9882   5.037   0.036   0.189
 2995SOL     OW 9883   5.092   7.023   0.906
 2995SOL    HW1 9884   5.161   6.994   0.840
 2995SOL    HW2 9885   5.035   6.944   0.932
 2996SOL     OW 9886   0.433   1.474   4.725
 2996SOL    HW1 9887   0.421   1.440   4.818
 2996SOL    HW2 9888   0.502   1.546   4.725
 2997SOL     OW 9889   4.936   0.673   3.838
 2997SOL    HW1 9890   4.845   0.674   3.877
 2997SOL    HW2 9891   4.938   0.609   3.760
 2998SOL     OW 9892   2.644   1.474   2.539
 2998SOL    HW1 9893   2.631   1.409   2.465
 2998SOL    HW2 9894   2.687   1.557   2.503
 2999SOL     OW 9895   3.161   4.364   0.081
 2999SOL    HW1 9896   3.239   4.307   0.054
 2999SOL    HW2 9897   3.118   4.402   7.025
 3000SOL     OW 9898   2.949   3.635   5.199
 3000SOL    HW1 9899   2.952   3.539   5.173
 3000SOL    HW2 9900   3.018   3.686   5.148
 3001SOL     OW 9901   6.435   1.204   5.912
 3001SOL    HW1 9902   6.473   1.247   5.830
 3001SOL    HW2 9903   6.352   1.155   5.889
 3002SOL     OW 9904   2.240   1.327   1.540
 3002SOL    HW1 9905   2.298   1.408   1.545
 3002SOL    HW2 9906   2.164   1.343   1.477
 3003SOL     OW 9907   1.540   6.211   0.089
 3003SOL    HW1 9908   1.562   6.120   0.124
 3003SOL    HW2 9909   1.440   6.223   0.090
 3004SOL     OW 9910   2.910   5.715   3.943
 3004SOL    HW1 9911   2.890   5.649   3.870
 3004SOL    HW2 9912   2.835   5.780   3.950
 3005SOL     OW 9913   1.026   2.344   5.419
 3005SOL    HW1 9914   0.932   2.370   5.396
 3005SOL    HW2 9915   1.084   2.425   5.415
 3006SOL     OW 9916   5.931   1.695   5.348
 3006SOL    HW1 9917   5.886   1.696   5.259
 3006SOL    HW2 9918   5.862   1.696   5.421
 3007SOL     OW 9919   5.009   4.274   6.733
 3007SOL    HW1 9920   4.992   4.191   6.786
 3007SOL    HW2 9921   4.924   4.303   6.688
 3008SOL     OW 9922   4.735   2.427   5.684
 3008SOL    HW1 9923   4.826   2.468   5.679
 3008SOL    HW2 9924   4.729   2.353   5.616
 3009SOL     OW 9925   0.616   3.269   2.670
 3009SOL    HW1 9926   0.524   3.295   2.642
 3009SOL    HW2 9927   0.616   3.174   2.700
 3010SOL     OW 9928   4.330   6.053   6.134
 3010SOL    HW1 9929   4.410   6.099   6.174
 3010SOL    HW2 9930   4.344   6.041   6.036
 3011SOL     OW 9931   6.299   0.223   0.867
 3011SOL    HW1 9932   6.265   0.168   0.942
 3011SOL    HW2 9933   6.386   0.185   0.835
 3012SOL     OW 9934   2.679   2.759   6.141
 3012SOL    HW1 9935   2.601   2.784   6.199
 3012SOL    HW2 9936   2.647   2.747   6.047
 3013SOL     OW 9937   0.819   6.171   4.616
 3013SOL    HW1 9938   0.735   6.210   4.652
 3013SOL    HW2 9939   0.859   6.108   4.682
 3014SOL     OW 9940   4.819   0.488   5.527
 3014SOL    HW1 9941   4.792   0.412   5.586
 3014SOL    HW2 9942   4.893   0.459   5.467
 3015SOL     OW 9943   1.322   1.269   0.012
 3015SOL    HW1 9944   1.364   1.181   7.017
 3015SOL    HW2 9945   1.367   1.311   0.091
 3016SOL     OW 9946   2.430   6.380   4.873
 3016SOL    HW1 9947   2.465   6.416   4.786
 3016SOL    HW2 9948   2.375   6.298   4.856
 3017SOL     OW 9949   6.684   5.839   1.424
 3017SOL    HW1 9950   6.690   5.833   1.324
 3017SOL    HW2 9951   6.588   5.838   1.451
 3018SOL     OW 9952   3.833   6.913   0.184
 3018SOL    HW1 9953   3.861   6.857   0.106
 3018SOL    HW2 9954   3.740   6.947   0.168
 3019SOL     OW 9955   1.631   0.533   5.100
 3019SOL    HW1 9956   1.718   0.553   5.055
 3019SOL    HW2 9957   1.558   0.586   5.057
 3020SOL     OW 9958   4.877   3.768   0.113
 3020SOL    HW1 9959   4.783   3.800   0.127
 3020SOL    HW2 9960   4.909   3.721   0.195
 3021SOL     OW 9961   3.802   6.372   5.005
 3021SOL    HW1 9962   3.789   6.280   4.970
 3021SOL    HW2 9963   3.717   6.423   4.997
 3022SOL     OW 9964   4.526   5.745   3.962
 3022SOL    HW1 9965   4.527   5.837   4.003
 3022SOL    HW2 9966   4.581   5.746   3.878
 3023SOL     OW 9967   4.254   6.833   3.282
 3023SOL    HW1 9968   4.230   6.762   3.216
 3023SOL    HW2 9969   4.214   6.920   3.254
 3024SOL     OW 9970   0.052   6.420   6.774
 3024SOL    HW1 9971   0.147   6.443   6.794
 3024SOL    HW2 9972   0.018   6.355   6.841
 3025SOL     OW 9973   3.333   6.232   0.503
 3025SOL    HW1 9974   3.320   6.214   0.406
 3025SOL    HW2 9975   3.251   6.275   0.541
 3026SOL     OW 9976   6.234   1.045   0.503
 3026SOL    HW1 9977   6.328   1.079   0.510
 3026SOL    HW2 9978   6.180   1.110   0.449
 3027SOL     OW 9979   5.164   1.612   1.551
 3027SOL    HW1 9980   5.178   1.642   1.456
 3027SOL    HW2 9981   5.072   1.574   1.560
 3028SOL     OW 9982   2.461   4.679   5.877
 3028SOL    HW1 9983   2.465   4.659   5.975
 3028SOL    HW2 9984   2.475   4.594   5.826
 3029SOL     OW 9985   0.671   2.732   4.115
 3029SOL    HW1 9986   0.710   2.640   4.123
 3029SOL    HW2 9987   0.739   2.794   4.076
 3030SOL     OW 9988   2.351   3.200   0.542
 3030SOL    HW1 9989   2.330   3.103   0.558
 3030SOL    HW2 9990   2.268   3.254   0.551
 3031SOL     OW 9991   1.036   6.167   1.283
 3031SOL    HW1 9992   0.951   6.135   1.242
 3031SOL    HW2 9993   1.057   6.111   1.363
 3032SOL     OW 9994   1.875   0.074   2.659
 3032SOL    HW1 9995   1.923   0.145   2.710
 3032SOL    HW2 9996   1.781   0.104   2.640
 3033SOL     OW 9997   6.780   2.061   4.167
 3033SOL    HW1 9998   6.750   2.029   4.256
 3033SOL    HW2 9999   6.704   2.106   4.120
 3034SOL     OW10000   0.327   5.788   3.615
 3034SOL    HW110001   0.386   5.861   3.650
 3034SOL    HW210002   0.383   5.706   3.598
 3035SOL     OW10003   0.974   2.789   6.008
 3035SOL    HW110004   0.993   2.703   6.056
 3035SOL    HW210005   1.031   2.862   6.045
 3036SOL     OW10006   3.161   2.252   6.332
 3036SOL    HW110007   3.143   2.344   6.366
 3036SOL    HW210008   3.255   2.226   6.351
 3037SOL     OW10009   0.344   5.353   6.926
 3037SOL    HW110010   0.327   5.375   6.830
 3037SOL    HW210011   0.256   5.348   6.974
 3038SOL     OW10012   5.260   4.186   6.536
 3038SOL    HW110013   5.196   4.199   6.612
 3038SOL    HW210014   5.333   4.254   6.541
 3039SOL     OW10015   6.746   4.192   0.083
 3039SOL    HW110016   6.716   4.097   0.074
 3039SOL    HW210017   6.755   4.215   0.180
 3040SOL     OW10018   4.333   4.080   5.857
 3040SOL    HW110019   4.357   4.013   5.927
 3040SOL    HW210020   4.411   4.142   5.842
 3041SOL     OW10021   2.247   4.224   4.744
 3041SOL    HW110022   2.291   4.183   4.825
 3041SOL    HW210023   2.151   4.198   4.741
 3042SOL     OW10024   0.232   5.048   3.254
 3042SOL    HW110025   0.174   5.015   3.179
 3042SOL    HW210026   0.322   5.071   3.218
 3043SOL     OW10027   3.342   4.665   0.697
 3043SOL    HW110028   3.372   4.663   0.601
 3043SOL    HW210029   3.387   4.741   0.744
 3044SOL     OW10030   3.251   3.067   5.532
 3044SOL    HW110031   3.203   3.067   5.620
 3044SOL    HW210032   3.186   3.087   5.459
 3045SOL     OW10033   4.764   1.313   2.092
 3045SOL    HW110034   4.777   1.376   2.169
 3045SOL    HW210035   4.793   1.221   2.119
 3046SOL     OW10036   5.274   5.565   0.671
 3046SOL    HW110037   5.365   5.525   0.664
 3046SOL    HW210038   5.256   5.588   0.766
 3047SOL     OW10039   6.382   0.497   5.845
 3047SOL    HW110040   6.403   0.481   5.942
 3047SOL    HW210041   6.286   0.476   5.828
 3048SOL     OW10042   3.662   3.326   0.917
 3048SOL    HW110043   3.568   3.310   0.949
 3048SOL    HW210044   3.660   3.364   0.825
 3049SOL     OW10045   1.224   0.867   4.426
 3049SOL    HW110046   1.176   0.943   4.383
 3049SOL    HW210047   1.243   0.796   4.358
 3050SOL     OW10048   2.965   2.619   1.292
 3050SOL    HW110049   3.060   2.606   1.320
 3050SOL    HW210050   2.907   2.554   1.342
 3051SOL     OW10051   2.465   6.335   5.446
 3051SOL    HW110052   2.390   6.399   5.462
 3051SOL    HW210053   2.431   6.241   5.457
 3052SOL     OW10054   6.458   6.101   2.238
 3052SOL    HW110055   6.544   6.152   2.233
 3052SOL    HW210056   6.468   6.027   2.305
 3053SOL     OW10057   1.436   4.354   0.440
 3053SOL    HW110058   1.378   4.423   0.396
 3053SOL    HW210059   1.439   4.272   0.382
 3054SOL     OW10060   5.500   1.478   2.728
 3054SOL    HW110061   5.476   1.413   2.655
 3054SOL    HW210062   5.417   1.508   2.775
 3055SOL     OW10063   5.980   5.777   6.028
 3055SOL    HW110064   6.056   5.823   6.075
 3055SOL    HW210065   6.016   5.707   5.967
 3056SOL     OW10066   4.624   1.401   6.241
 3056SOL    HW110067   4.659   1.434   6.328
 3056SOL    HW210068   4.617   1.301   6.243
 3057SOL     OW10069   6.253   5.521   3.028
 3057SOL    HW110070   6.296   5.608   3.051
 3057SOL    HW210071   6.315   5.466   2.972
 3058SOL     OW10072   6.769   4.746   6.965
 3058SOL    HW110073   6.837   4.757   6.893
 3058SOL    HW210074   6.757   4.649   6.986
 3059SOL     OW10075   2.109   2.434   4.457
 3059SOL    HW110076   2.051   2.389   4.525
 3059SOL    HW210077   2.058   2.509   4.414
 3060SOL     OW10078   4.819   5.339   5.481
 3060SOL    HW110079   4.814   5.414   5.414
 3060SOL    HW210080   4.828   5.252   5.433
 3061SOL     OW10081   5.842   5.173   4.771
 3061SOL    HW110082   5.810   5.168   4.865
 3061SOL    HW210083   5.889   5.260   4.756
 3062SOL     OW10084   5.026   4.215   2.098
 3062SOL    HW110085   5.031   4.231   2.000
 3062SOL    HW210086   4.930   4.218   2.127
 3063SOL     OW10087   0.409   4.404   1.728
 3063SOL    HW110088   0.367   4.483   1.684
 3063SOL    HW210089   0.338   4.341   1.760
 3064SOL     OW10090   4.701   1.854   6.612
 3064SOL    HW110091   4.717   1.927   6.678
 3064SOL    HW210092   4.655   1.891   6.532
 3065SOL     OW10093   0.547   0.866   6.679
 3065SOL    HW110094   0.632   0.903   6.641
 3065SOL    HW210095   0.501   0.810   6.610
 3066SOL     OW10096   5.416   5.912   6.118
 3066SOL    HW110097   5.329   5.953   6.144
 3066SOL    HW210098   5.414   5.814   6.138
 3067SOL     OW10099   2.227   2.424   6.294
 3067SOL    HW110100   2.232   2.522   6.274
 3067SOL    HW210101   2.215   2.411   6.393
 3068SOL     OW10102   0.882   1.334   1.184
 3068SOL    HW110103   0.820   1.289   1.120
 3068SOL    HW210104   0.905   1.270   1.258
 3069SOL     OW10105   5.016   0.242   3.041
 3069SOL    HW110106   4.924   0.260   3.077
 3069SOL    HW210107   5.019   0.149   3.003
 3070SOL     OW10108   2.758   1.525   1.156
 3070SOL    HW110109   2.767   1.617   1.116
 3070SOL    HW210110   2.809   1.460   1.100
 3071SOL     OW10111   6.980   3.079   3.536
 3071SOL    HW110112   0.029   3.027   3.577
 3071SOL    HW210113   6.903   3.081   3.599
 3072SOL     OW10114   2.109   6.634   6.254
 3072SOL    HW110115   2.089   6.617   6.157
 3072SOL    HW210116   2.147   6.551   6.295
 3073SOL     OW10117   6.122   5.071   0.321
 3073SOL    HW110118   6.059   5.050   0.396
 3073SOL    HW210119   6.098   5.015   0.242
 3074SOL     OW10120   2.265   3.318   0.886
 3074SOL    HW110121   2.248   3.275   0.798
 3074SOL    HW210122   2.354   3.365   0.884
 3075SOL     OW10123   2.205   5.529   3.218
 3075SOL    HW110124   2.111   5.510   3.245
 3075SOL    HW210125   2.241   5.453   3.164
 3076SOL     OW10126   0.079   0.469   4.556
 3076SOL    HW110127   0.025   0.553   4.551
 3076SOL    HW210128   0.151   0.480   4.625
 3077SOL     OW10129   6.501   3.992   1.882
 3077SOL    HW110130   6.534   4.086   1.884
 3077SOL    HW210131   6.408   3.990   1.846
 3078SOL     OW10132   6.501   3.232   1.816
 3078SOL    HW110133   6.566   3.252   1.744
 3078SOL    HW210134   6.408   3.246   1.782
 3079SOL     OW10135   2.422   3.247   5.382
 3079SOL    HW110136   2.498   3.277   5.439
 3079SOL    HW210137   2.452   3.174   5.321
 3080SOL     OW10138   4.205   5.137   1.073
 3080SOL    HW110139   4.184   5.058   1.130
 3080SOL    HW210140   4.204   5.220   1.129
 3081SOL     OW10141   2.178   4.244   0.794
 3081SOL    HW110142   2.226   4.156   0.802
 3081SOL    HW210143   2.231   4.306   0.736
 3082SOL     OW10144   3.994   4.821   4.601
 3082SOL    HW110145   4.016   4.881   4.524
 3082SOL    HW210146   4.043   4.735   4.591
 3083SOL     OW10147   2.652   5.736   2.905
 3083SOL    HW110148   2.561   5.715   2.939
 3083SOL    HW210149   2.687   5.818   2.951
 3084SOL     OW10150   0.681   3.238   3.890
 3084SOL    HW110151   0.747   3.283   3.951
 3084SOL    HW210152   0.604   3.204   3.944
 3085SOL     OW10153   5.008   4.672   0.826
 3085SOL    HW110154   5.108   4.672   0.831
 3085SOL    HW210155   4.973   4.753   0.872
 3086SOL     OW10156   6.320   1.073   6.669
 3086SOL    HW110157   6.246   1.011   6.694
 3086SOL    HW210158   6.285   1.167   6.667
 3087SOL     OW10159   2.816   6.909   2.354
 3087SOL    HW110160   2.762   6.936   2.434
 3087SOL    HW210161   2.801   6.975   2.280
 3088SOL     OW10162   1.188   2.775   5.218
 3088SOL    HW110163   1.265   2.752   5.158
 3088SOL    HW210164   1.169   2.873   5.212
 3089SOL     OW10165   4.934   6.958   5.047
 3089SOL    HW110166   4.934   6.898   5.126
 3089SOL    HW210167   4.993   6.919   4.976
 3090SOL     OW10168   1.426   2.633   1.559
 3090SOL    HW110169   1.392   2.554   1.610
 3090SOL    HW210170   1.351   2.697   1.542
 3091SOL     OW10171   1.222   2.265   0.654
 3091SOL    HW110172   1.154   2.268   0.580
 3091SOL    HW210173   1.177   2.246   0.741
 3092SOL     OW10174   6.803   6.940   2.282
 3092SOL    HW110175   6.741   6.862   2.271
 3092SOL    HW210176   6.841   6.966   2.194
 3093SOL     OW10177   5.051   5.036   6.896
 3093SOL    HW110178   5.142   4.993   6.896
 3093SOL    HW210179   5.014   5.034   6.988
 3094SOL     OW10180   2.863   1.736   6.119
 3094SOL    HW110181   2.924   1.663   6.089
 3094SOL    HW210182   2.859   1.806   6.048
 3095SOL     OW10183   1.909   3.456   5.334
 3095SOL    HW110184   1.991   3.403   5.310
 3095SOL    HW210185   1.878   3.507   5.253
 3096SOL     OW10186   0.342   3.975   4.539
 3096SOL    HW110187   0.334   3.904   4.609
 3096SOL    HW210188   0.315   4.063   4.578
 3097SOL     OW10189   5.371   2.084   6.626
 3097SOL    HW110190   5.437   2.024   6.580
 3097SOL    HW210191   5.379   2.176   6.588
 3098SOL     OW10192   2.025   2.264   2.238
 3098SOL    HW110193   2.105   2.207   2.258
 3098SOL    HW210194   1.997   2.250   2.143
 3099SOL     OW10195   0.242   6.220   3.715
 3099SOL    HW110196   0.247   6.315   3.685
 3099SOL    HW210197   0.230   6.217   3.814
 3100SOL     OW10198   6.854   5.339   2.202
 3100SOL    HW110199   6.825   5.398   2.277
 3100SOL    HW210200   6.865   5.245   2.236
 3101SOL     OW10201   3.991   6.029   5.636
 3101SOL    HW110202   4.028   6.035   5.543
 3101SOL    HW210203   3.893   6.009   5.630
 3102SOL     OW10204   0.131   4.746   0.852
 3102SOL    HW110205   0.091   4.754   0.943
 3102SOL    HW210206   0.103   4.823   0.795
 3103SOL     OW10207   3.460   0.437   1.287
 3103SOL    HW110208   3.401   0.404   1.360
 3103SOL    HW210209   3.415   0.422   1.199
 3104SOL     OW10210   4.411   0.438   6.122
 3104SOL    HW110211   4.510   0.433   6.137
 3104SOL    HW210212   4.363   0.430   6.209
 3105SOL     OW10213   5.068   3.268   0.309
 3105SOL    HW110214   5.028   3.315   0.230
 3105SOL    HW210215   5.016   3.184   0.327
 3106SOL     OW10216   5.700   0.452   4.870
 3106SOL    HW110217   5.774   0.434   4.806
 3106SOL    HW210218   5.728   0.523   4.934
 3107SOL     OW10219   3.889   1.031   6.175
 3107SOL    HW110220   3.810   1.028   6.237
 3107SOL    HW210221   3.913   1.126   6.155
 3108SOL     OW10222   1.936   4.385   4.068
 3108SOL    HW110223   1.945   4.380   4.167
 3108SOL    HW210224   1.944   4.480   4.038
 3109SOL     OW10225   6.894   6.429   3.980
 3109SOL    HW110226   6.957   6.502   3.953
 3109SOL    HW210227   6.804   6.446   3.939
 3110SOL     OW10228   2.162   4.765   3.758
 3110SOL    HW110229   2.165   4.755   3.658
 3110SOL    HW210230   2.200   4.854   3.784
 3111SOL     OW10231   6.016   4.581   4.679
 3111SOL    HW110232   5.947   4.653   4.680
 3111SOL    HW210233   6.060   4.575   4.768
 3112SOL     OW10234   3.434   2.108   6.990
 3112SOL    HW110235   3.456   2.011   6.978
 3112SOL    HW210236   3.404   2.124   0.058
 3113SOL     OW10237   1.841   5.141   3.144
 3113SOL    HW110238   1.905   5.070   3.113
 3113SOL    HW210239   1.808   5.192   3.065
 3114SOL     OW10240   4.463   0.892   0.058
 3114SOL    HW110241   4.524   0.819   0.028
 3114SOL    HW210242   4.501   0.981   0.030
 3115SOL     OW10243   4.132   4.939   5.433
 3115SOL    HW110244   4.076   4.959   5.514
 3115SOL    HW210245   4.073   4.908   5.359
 3116SOL     OW10246   0.307   2.313   0.719
 3116SOL    HW110247   0.244   2.239   0.741
 3116SOL    HW210248   0.369   2.327   0.796
 3117SOL     OW10249   5.315   1.641   5.284
 3117SOL    HW110250   5.361   1.556   5.259
 3117SOL    HW210251   5.331   1.660   5.381
 3118SOL     OW10252   1.915   1.344   3.091
 3118SOL    HW110253   1.878   1.299   3.009
 3118SOL    HW210254   1.966   1.278   3.145
 3119SOL     OW10255   4.162   4.110   6.080
 3119SOL    HW110256   4.229   4.100   6.006
 3119SOL    HW210257   4.153   4.022   6.128
 3120SOL     OW10258   2.006   6.490   4.599
 3120SOL    HW110259   2.096   6.524   4.624
 3120SOL    HW210260   1.954   6.562   4.554
 3121SOL     OW10261   4.773   1.192   4.211
 3121SOL    HW110262   4.782   1.174   4.309
 3121SOL    HW210263   4.801   1.286   4.192
 3122SOL     OW10264   4.341   5.022   4.652
 3122SOL    HW110265   4.352   4.971   4.737
 3122SOL    HW210266   4.247   5.055   4.645
 3123SOL     OW10267   2.431   2.071   3.434
 3123SOL    HW110268   2.388   2.065   3.524
 3123SOL    HW210269   2.528   2.048   3.442
 3124SOL     OW10270   4.884   6.993   3.955
 3124SOL    HW110271   4.890   6.996   4.054
 3124SOL    HW210272   4.969   0.003   3.916
 3125SOL     OW10273   1.593   2.300   5.271
 3125SOL    HW110274   1.663   2.366   5.298
 3125SOL    HW210275   1.504   2.345   5.270
 3126SOL     OW10276   5.793   5.130   4.360
 3126SOL    HW110277   5.884   5.089   4.349
 3126SOL    HW210278   5.750   5.094   4.443
 3127SOL     OW10279   0.082   1.200   4.381
 3127SOL    HW110280   0.147   1.277   4.388
 3127SOL    HW210281   0.114   1.125   4.439
 3128SOL     OW10282   4.583   0.530   0.244
 3128SOL    HW110283   4.605   0.545   0.340
 3128SOL    HW210284   4.498   0.477   0.238
 3129SOL     OW10285   4.769   3.359   1.084
 3129SOL    HW110286   4.838   3.289   1.068
 3129SOL    HW210287   4.805   3.429   1.146
 3130SOL     OW10288   1.056   4.540   1.396
 3130SOL    HW110289   1.067   4.639   1.386
 3130SOL    HW210290   1.065   4.515   1.492
 3131SOL     OW10291   6.705   4.083   2.290
 3131SOL    HW110292   6.788   4.133   2.313
 3131SOL    HW210293   6.680   4.023   2.366
 3132SOL     OW10294   4.076   4.939   7.005
 3132SOL    HW110295   4.032   4.998   6.938
 3132SOL    HW210296   4.102   4.853   6.962
 3133SOL     OW10297   4.232   0.932   3.683
 3133SOL    HW110298   4.206   0.880   3.601
 3133SOL    HW210299   4.319   0.898   3.718
 3134SOL     OW10300   3.997   5.441   2.317
 3134SOL    HW110301   4.018   5.344   2.326
 3134SOL    HW210302   4.051   5.493   2.383
 3135SOL     OW10303   5.515   6.618   6.011
 3135SOL    HW110304   5.556   6.682   6.077
 3135SOL    HW210305   5.586   6.580   5.953
 3136SOL     OW10306   5.938   1.006   2.556
 3136SOL    HW110307   5.961   0.955   2.474
 3136SOL    HW210308   5.856   1.061   2.539
 3137SOL     OW10309   6.485   6.836   6.946
 3137SOL    HW110310   6.387   6.828   6.969
 3137SOL    HW210311   6.498   6.812   6.850
 3138SOL     OW10312   5.747   4.976   3.871
 3138SOL    HW110313   5.839   4.972   3.909
 3138SOL    HW210314   5.753   4.984   3.771
 3139SOL     OW10315   2.422   5.185   0.905
 3139SOL    HW110316   2.397   5.282   0.903
 3139SOL    HW210317   2.354   5.132   0.855
 3140SOL     OW10318   6.913   6.462   5.705
 3140SOL    HW110319   6.840   6.416   5.654
 3140SOL    HW210320   6.879   6.489   5.795
 3141SOL     OW10321   6.397   2.502   6.620
 3141SOL    HW110322   6.433   2.592   6.645
 3141SOL    HW210323   6.327   2.475   6.687
 3142SOL     OW10324   5.608   0.804   2.318
 3142SOL    HW110325   5.527   0.862   2.320
 3142SOL    HW210326   5.584   0.717   2.274
 3143SOL     OW10327   6.181   1.545   0.010
 3143SOL    HW110328   6.149   1.575   6.946
 3143SOL    HW210329   6.272   1.503   7.025
 3144SOL     OW10330   4.138   4.271   6.517
 3144SOL    HW110331   4.213   4.227   6.566
 3144SOL    HW210332   4.089   4.202   6.462
 3145SOL     OW10333   0.782   5.749   1.379
 3145SOL    HW110334   0.785   5.709   1.471
 3145SOL    HW210335   0.687   5.773   1.357
 3146SOL     OW10336   0.403   0.715   4.933
 3146SOL    HW110337   0.481   0.653   4.923
 3146SOL    HW210338   0.418   0.774   5.012
 3147SOL     OW10339   3.996   5.060   6.442
 3147SOL    HW110340   4.032   4.967   6.439
 3147SOL    HW210341   4.056   5.117   6.497
 3148SOL     OW10342   0.641   5.660   2.968
 3148SOL    HW110343   0.654   5.735   2.903
 3148SOL    HW210344   0.601   5.581   2.920
 3149SOL     OW10345   2.900   1.350   1.002
 3149SOL    HW110346   2.889   1.251   1.002
 3149SOL    HW210347   2.988   1.374   1.043
 3150SOL     OW10348   0.006   5.926   5.040
 3150SOL    HW110349   6.976   5.925   4.957
 3150SOL    HW210350   0.083   5.863   5.029
 3151SOL     OW10351   5.807   1.752   6.269
 3151SOL    HW110352   5.845   1.764   6.361
 3151SOL    HW210353   5.848   1.819   6.207
 3152SOL     OW10354   1.475   2.996   6.429
 3152SOL    HW110355   1.398   3.057   6.446
 3152SOL    HW210356   1.444   2.901   6.428
 3153SOL     OW10357   6.489   5.365   0.810
 3153SOL    HW110358   6.450   5.301   0.876
 3153SOL    HW210359   6.588   5.356   0.808
 3154SOL     OW10360   5.486   1.149   1.344
 3154SOL    HW110361   5.463   1.246   1.333
 3154SOL    HW210362   5.548   1.138   1.422
 3155SOL     OW10363   0.298   4.537   0.842
 3155SOL    HW110364   0.264   4.524   0.749
 3155SOL    HW210365   0.236   4.597   0.893
 3156SOL     OW10366   3.572   4.151   2.008
 3156SOL    HW110367   3.662   4.134   2.049
 3156SOL    HW210368   3.536   4.238   2.042
 3157SOL     OW10369   0.642   1.825   5.194
 3157SOL    HW110370   0.701   1.867   5.124
 3157SOL    HW210371   0.672   1.857   5.285
 3158SOL     OW10372   2.875   1.568   5.527
 3158SOL    HW110373   2.788   1.585   5.482
 3158SOL    HW210374   2.924   1.655   5.538
 3159SOL     OW10375   5.470   6.941   0.258
 3159SOL    HW110376   5.501   0.010   0.248
 3159SOL    HW210377   5.473   6.915   0.355
 3160SOL     OW10378   2.323   0.267   5.962
 3160SOL    HW110379   2.378   0.282   6.044
 3160SOL    HW210380   2.265   0.187   5.975
 3161SOL     OW10381   2.021   2.742   3.278
 3161SOL    HW110382   2.104   2.791   3.305
 3161SOL    HW210383   1.944   2.777   3.331
 3162SOL     OW10384   1.938   5.434   0.509
 3162SOL    HW110385   1.938   5.350   0.455
 3162SOL    HW210386   1.874   5.425   0.585
 3163SOL     OW10387   4.069   3.973   0.402
 3163SOL    HW110388   4.111   4.027   0.475
 3163SOL    HW210389   4.140   3.920   0.356
 3164SOL     OW10390   2.860   6.099   3.543
 3164SOL    HW110391   2.882   6.190   3.509
 3164SOL    HW210392   2.944   6.049   3.564
 3165SOL     OW10393   0.986   5.900   0.741
 3165SOL    HW110394   0.955   5.972   0.679
 3165SOL    HW210395   1.033   5.829   0.689
 3166SOL     OW10396   3.886   0.951   5.515
 3166SOL    HW110397   3.870   0.974   5.611
 3166SOL    HW210398   3.798   0.940   5.469
 3167SOL     OW10399   4.605   4.135   1.018
 3167SOL    HW110400   4.519   4.177   1.046
 3167SOL    HW210401   4.649   4.191   0.948
 3168SOL     OW10402   4.176   1.846   0.608
 3168SOL    HW110403   4.268   1.863   0.573
 3168SOL    HW210404   4.135   1.932   0.636
 3169SOL     OW10405   1.681   4.997   2.129
 3169SOL    HW110406   1.730   5.011   2.216
 3169SOL    HW210407   1.655   5.086   2.092
 3170SOL     OW10408   3.666   5.221   3.303
 3170SOL    HW110409   3.713   5.295   3.255
 3170SOL    HW210410   3.667   5.138   3.247
 3171SOL     OW10411   5.632   2.513   3.007
 3171SOL    HW110412   5.646   2.529   3.105
 3171SOL    HW210413   5.545   2.552   2.978
 3172SOL     OW10414   0.289   4.777   0.604
 3172SOL    HW110415   0.301   4.874   0.584
 3172SOL    HW210416   0.301   4.761   0.702
 3173SOL     OW10417   3.406   1.210   0.274
 3173SOL    HW110418   3.331   1.275   0.259
 3173SOL    HW210419   3.490   1.249   0.237
 3174SOL     OW10420   2.857   3.386   5.843
 3174SOL    HW110421   2.877   3.462   5.905
 3174SOL    HW210422   2.759   3.384   5.823
 3175SOL     OW10423   0.098   0.530   3.779
 3175SOL    HW110424   0.077   0.531   3.876
 3175SOL    HW210425   0.068   0.444   3.739
 3176SOL     OW10426   0.849   4.466   4.671
 3176SOL    HW110427   0.911   4.430   4.601
 3176SOL    HW210428   0.757   4.474   4.632
 3177SOL     OW10429   5.798   3.766   3.010
 3177SOL    HW110430   5.710   3.746   2.966
 3177SOL    HW210431   5.853   3.682   3.015
 3178SOL     OW10432   0.020   0.846   0.800
 3178SOL    HW110433   6.946   0.853   0.801
 3178SOL    HW210434   0.048   0.758   0.838
 3179SOL     OW10435   1.016   1.970   1.835
 3179SOL    HW110436   1.079   2.006   1.766
 3179SOL    HW210437   0.922   1.994   1.809
 3180SOL     OW10438   6.646   5.730   6.490
 3180SOL    HW110439   6.605   5.640   6.504
 3180SOL    HW210440   6.576   5.801   6.502
 3181SOL     OW10441   0.743   1.408   4.738
 3181SOL    HW110442   0.702   1.355   4.663
 3181SOL    HW210443   0.770   1.498   4.703
 3182SOL     OW10444   3.007   0.608   0.269
 3182SOL    HW110445   2.939   0.661   0.217
 3182SOL    HW210446   3.098   0.646   0.253
 3183SOL     OW10447   4.496   4.523   2.187
 3183SOL    HW110448   4.567   4.575   2.141
 3183SOL    HW210449   4.475   4.440   2.135
 3184SOL     OW10450   0.419   2.492   4.267
 3184SOL    HW110451   0.456   2.582   4.290
 3184SOL    HW210452   0.320   2.499   4.254
 3185SOL     OW10453   0.281   6.244   6.173
 3185SOL    HW110454   0.301   6.230   6.076
 3185SOL    HW210455   0.191   6.287   6.183
 3186SOL     OW10456   1.137   1.381   6.005
 3186SOL    HW110457   1.040   1.375   6.028
 3186SOL    HW210458   1.147   1.426   5.916
 3187SOL     OW10459   3.987   5.991   2.876
 3187SOL    HW110460   3.979   6.056   2.951
 3187SOL    HW210461   4.060   6.020   2.814
 3188SOL     OW10462   2.623   5.221   6.316
 3188SOL    HW110463   2.525   5.233   6.328
 3188SOL    HW210464   2.669   5.231   6.404
 3189SOL     OW10465   3.040   1.619   0.554
 3189SOL    HW110466   3.047   1.533   0.605
 3189SOL    HW210467   3.003   1.600   0.463
 3190SOL     OW10468   0.270   6.079   4.501
 3190SOL    HW110469   0.272   5.996   4.446
 3190SOL    HW210470   0.270   6.055   4.598
 3191SOL     OW10471   4.749   5.823   1.792
 3191SOL    HW110472   4.686   5.755   1.829
 3191SOL    HW210473   4.830   5.777   1.755
 3192SOL     OW10474   6.265   2.145   1.791
 3192SOL    HW110475   6.310   2.055   1.797
 3192SOL    HW210476   6.309   2.199   1.720
 3193SOL     OW10477   3.712   0.432   5.517
 3193SOL    HW110478   3.668   0.453   5.604
 3193SOL    HW210479   3.765   0.511   5.486
 3194SOL     OW10480   1.337   1.063   5.687
 3194SOL    HW110481   1.353   1.155   5.653
 3194SOL    HW210482   1.336   0.998   5.611
 3195SOL     OW10483   0.236   1.569   1.412
 3195SOL    HW110484   0.299   1.536   1.483
 3195SOL    HW210485   0.237   1.669   1.412
 3196SOL     OW10486   6.650   0.408   5.176
 3196SOL    HW110487   6.714   0.395   5.251
 3196SOL    HW210488   6.630   0.319   5.134
 3197SOL     OW10489   2.010   0.492   6.169
 3197SOL    HW110490   2.008   0.395   6.192
 3197SOL    HW210491   1.927   0.536   6.204
 3198SOL     OW10492   6.647   2.393   3.385
 3198SOL    HW110493   6.638   2.294   3.379
 3198SOL    HW210494   6.740   2.416   3.417
 3199SOL     OW10495   5.824   4.551   2.845
 3199SOL    HW110496   5.737   4.514   2.812
 3199SOL    HW210497   5.868   4.603   2.772
 3200SOL     OW10498   5.650   3.273   3.935
 3200SOL    HW110499   5.660   3.225   3.849
 3200SOL    HW210500   5.729   3.255   3.994
 3201SOL     OW10501   6.093   4.058   2.529
 3201SOL    HW110502   6.134   4.149   2.526
 3201SOL    HW210503   6.016   4.058   2.593
 3202SOL     OW10504   1.215   4.976   0.474
 3202SOL    HW110505   1.291   4.950   0.535
 3202SOL    HW210506   1.170   5.057   0.510
 3203SOL     OW10507   4.309   6.441   1.384
 3203SOL    HW110508   4.217   6.429   1.420
 3203SOL    HW210509   4.317   6.530   1.340
 3204SOL     OW10510   3.003   1.340   4.141
 3204SOL    HW110511   2.921   1.297   4.180
 3204SOL    HW210512   2.994   1.439   4.148
 3205SOL     OW10513   5.471   3.010   5.459
 3205SOL    HW110514   5.505   3.044   5.546
 3205SOL    HW210515   5.388   2.957   5.474
 3206SOL     OW10516   2.643   2.815   1.431
 3206SOL    HW110517   2.666   2.742   1.495
 3206SOL    HW210518   2.725   2.868   1.411
 3207SOL     OW10519   0.754   0.598   5.190
 3207SOL    HW110520   0.826   0.557   5.245
 3207SOL    HW210521   0.666   0.557   5.214
 3208SOL     OW10522   6.080   5.937   5.024
 3208SOL    HW110523   6.157   5.885   5.061
 3208SOL    HW210524   6.000   5.877   5.015
 3209SOL     OW10525   4.770   5.691   6.309
 3209SOL    HW110526   4.678   5.676   6.345
 3209SOL    HW210527   4.770   5.675   6.210
 3210SOL     OW10528   0.252   5.233   1.335
 3210SOL    HW110529   0.200   5.251   1.418
 3210SOL    HW210530   0.315   5.157   1.351
 3211SOL     OW10531   1.585   5.940   0.188
 3211SOL    HW110532   1.636   5.933   0.273
 3211SOL    HW210533   1.578   5.850   0.145
 3212SOL     OW10534   3.029   0.110   2.645
 3212SOL    HW110535   3.088   0.152   2.576
 3212SOL    HW210536   2.943   0.160   2.651
 3213SOL     OW10537   1.685   1.081   6.347
 3213SOL    HW110538   1.754   1.124   6.290
 3213SOL    HW210539   1.696   1.112   6.442
 3214SOL     OW10540   3.649   0.879   2.840
 3214SOL    HW110541   3.555   0.913   2.847
 3214SOL    HW210542   3.648   0.779   2.832
 3215SOL     OW10543   1.420   3.284   0.674
 3215SOL    HW110544   1.343   3.227   0.648
 3215SOL    HW210545   1.505   3.243   0.641
 3216SOL     OW10546   5.802   4.244   0.916
 3216SOL    HW110547   5.899   4.220   0.912
 3216SOL    HW210548   5.785   4.324   0.858
 3217SOL     OW10549   0.270   4.659   3.055
 3217SOL    HW110550   0.242   4.729   3.121
 3217SOL    HW210551   0.349   4.609   3.091
 3218SOL     OW10552   6.936   1.892   2.774
 3218SOL    HW110553   6.905   1.980   2.739
 3218SOL    HW210554   7.021   1.905   2.826
 3219SOL     OW10555   6.941   0.761   4.960
 3219SOL    HW110556   6.927   0.667   4.929
 3219SOL    HW210557   7.025   0.797   4.919
 3220SOL     OW10558   6.486   5.780   6.794
 3220SOL    HW110559   6.494   5.859   6.734
 3220SOL    HW210560   6.402   5.730   6.773
 3221SOL     OW10561   4.122   0.445   2.403
 3221SOL    HW110562   4.139   0.364   2.458
 3221SOL    HW210563   4.025   0.448   2.379
 3222SOL     OW10564   3.025   1.432   2.486
 3222SOL    HW110565   3.101   1.377   2.520
 3222SOL    HW210566   2.978   1.475   2.564
 3223SOL     OW10567   1.780   6.574   0.989
 3223SOL    HW110568   1.805   6.671   1.000
 3223SOL    HW210569   1.841   6.532   0.922
 3224SOL     OW10570   4.417   2.416   4.825
 3224SOL    HW110571   4.494   2.479   4.831
 3224SOL    HW210572   4.347   2.443   4.892
 3225SOL     OW10573   3.975   0.855   4.275
 3225SOL    HW110574   3.886   0.881   4.313
 3225SOL    HW210575   4.015   0.934   4.229
 3226SOL     OW10576   0.955   0.064   2.248
 3226SOL    HW110577   1.014   0.108   2.179
 3226SOL    HW210578   0.910   0.134   2.303
 3227SOL     OW10579   4.202   2.754   6.213
 3227SOL    HW110580   4.177   2.695   6.137
 3227SOL    HW210581   4.223   2.846   6.179
 3228SOL     OW10582   1.238   4.269   0.685
 3228SOL    HW110583   1.151   4.222   0.672
 3228SOL    HW210584   1.278   4.292   0.596
 3229SOL     OW10585   2.694   1.543   6.270
 3229SOL    HW110586   2.747   1.622   6.237
 3229SOL    HW210587   2.626   1.575   6.337
 3230SOL     OW10588   2.569   5.622   5.531
 3230SOL    HW110589   2.662   5.655   5.514
 3230SOL    HW210590   2.570   5.556   5.607
 3231SOL     OW10591   3.089   1.132   2.531
 3231SOL    HW110592   3.135   1.067   2.470
 3231SOL    HW210593   3.158   1.188   2.576
 3232SOL     OW10594   4.181   5.781   4.219
 3232SOL    HW110595   4.158   5.751   4.311
 3232SOL    HW210596   4.278   5.807   4.215
 3233SOL     OW10597   0.483   2.737   0.163
 3233SOL    HW110598   0.545   2.815   0.170
 3233SOL    HW210599   0.431   2.727   0.247
 3234SOL     OW10600   2.237   2.937   0.627
 3234SOL    HW110601   2.188   2.957   0.711
 3234SOL    HW210602   2.248   2.838   0.617
 3235SOL     OW10603   6.883   5.733   1.922
 3235SOL    HW110604   6.966   5.756   1.872
 3235SOL    HW210605   6.806   5.725   1.857
 3236SOL     OW10606   2.608   4.187   0.640
 3236SOL    HW110607   2.696   4.214   0.680
 3236SOL    HW210608   2.620   4.107   0.583
 3237SOL     OW10609   5.746   1.157   4.830
 3237SOL    HW110610   5.671   1.132   4.891
 3237SOL    HW210611   5.712   1.161   4.736
 3238SOL     OW10612   6.246   5.041   0.743
 3238SOL    HW110613   6.233   4.950   0.704
 3238SOL    HW210614   6.336   5.047   0.786
 3239SOL     OW10615   0.436   0.304   3.484
 3239SOL    HW110616   0.458   0.381   3.425
 3239SOL    HW210617   0.401   0.338   3.572
 3240SOL     OW10618   0.422   0.237   6.200
 3240SOL    HW110619   0.437   0.250   6.298
 3240SOL    HW210620   0.370   0.153   6.186
 3241SOL     OW10621   5.182   1.276   6.286
 3241SOL    HW110622   5.135   1.364   6.288
 3241SOL    HW210623   5.277   1.290   6.260
 3242SOL     OW10624   4.921   4.290   5.430
 3242SOL    HW110625   4.830   4.259   5.458
 3242SOL    HW210626   4.948   4.368   5.486
 3243SOL     OW10627   4.147   5.352   6.145
 3243SOL    HW110628   4.130   5.407   6.227
 3243SOL    HW210629   4.176   5.260   6.172
 3244SOL     OW10630   5.939   6.392   6.545
 3244SOL    HW110631   6.019   6.426   6.498
 3244SOL    HW210632   5.862   6.454   6.531
 3245SOL     OW10633   4.197   2.242   3.971
 3245SOL    HW110634   4.275   2.304   3.984
 3245SOL    HW210635   4.191   2.181   4.050
 3246SOL     OW10636   0.633   0.203   2.251
 3246SOL    HW110637   0.721   0.234   2.215
 3246SOL    HW210638   0.642   0.182   2.348
 3247SOL     OW10639   0.160   4.337   2.245
 3247SOL    HW110640   0.141   4.419   2.300
 3247SOL    HW210641   0.249   4.299   2.273
 3248SOL     OW10642   5.545   2.018   3.088
 3248SOL    HW110643   5.531   2.020   2.989
 3248SOL    HW210644   5.503   2.099   3.129
 3249SOL     OW10645   3.755   3.530   3.852
 3249SOL    HW110646   3.811   3.526   3.935
 3249SOL    HW210647   3.732   3.626   3.832
 3250SOL     OW10648   5.411   5.640   2.552
 3250SOL    HW110649   5.419   5.734   2.519
 3250SOL    HW210650   5.383   5.640   2.648
 3251SOL     OW10651   2.449   0.545   5.089
 3251SOL    HW110652   2.544   0.570   5.070
 3251SOL    HW210653   2.390   0.578   5.015
 3252SOL     OW10654   2.759   1.288   3.868
 3252SOL    HW110655   2.808   1.335   3.795
 3252SOL    HW210656   2.813   1.294   3.953
 3253SOL     OW10657   5.935   3.313   1.104
 3253SOL    HW110658   5.937   3.366   1.018
 3253SOL    HW210659   6.027   3.281   1.125
 3254SOL     OW10660   5.811   0.712   0.393
 3254SOL    HW110661   5.822   0.811   0.395
 3254SOL    HW210662   5.749   0.684   0.466
 3255SOL     OW10663   6.094   5.086   1.220
 3255SOL    HW110664   6.031   5.041   1.283
 3255SOL    HW210665   6.108   5.027   1.140
 3256SOL     OW10666   4.700   2.108   1.413
 3256SOL    HW110667   4.709   2.208   1.411
 3256SOL    HW210668   4.604   2.084   1.432
 3257SOL     OW10669   2.820   2.255   2.293
 3257SOL    HW110670   2.750   2.303   2.346
 3257SOL    HW210671   2.822   2.291   2.200
 3258SOL     OW10672   3.194   5.813   3.497
 3258SOL    HW110673   3.177   5.728   3.547
 3258SOL    HW210674   3.191   5.794   3.399
 3259SOL     OW10675   5.562   4.382   4.303
 3259SOL    HW110676   5.601   4.320   4.235
 3259SOL    HW210677   5.465   4.396   4.285
 3260SOL     OW10678   1.627   4.567   1.835
 3260SOL    HW110679   1.672   4.512   1.764
 3260SOL    HW210680   1.573   4.639   1.792
 3261SOL     OW10681   5.407   0.795   2.932
 3261SOL    HW110682   5.389   0.701   2.900
 3261SOL    HW210683   5.326   0.829   2.981
 3262SOL     OW10684   3.842   2.115   2.558
 3262SOL    HW110685   3.870   2.201   2.518
 3262SOL    HW210686   3.830   2.126   2.657
 3263SOL     OW10687   2.540   1.345   3.060
 3263SOL    HW110688   2.623   1.400   3.049
 3263SOL    HW210689   2.539   1.273   2.991
 3264SOL     OW10690   2.405   5.196   0.081
 3264SOL    HW110691   2.394   5.285   0.035
 3264SOL    HW210692   2.488   5.152   0.048
 3265SOL     OW10693   6.290   5.812   5.180
 3265SOL    HW110694   6.320   5.747   5.110
 3265SOL    HW210695   6.223   5.768   5.240
 3266SOL     OW10696   3.138   4.568   0.293
 3266SOL    HW110697   3.234   4.585   0.273
 3266SOL    HW210698   3.107   4.489   0.240
 3267SOL     OW10699   4.432   0.539   0.993
 3267SOL    HW110700   4.340   0.508   1.019
 3267SOL    HW210701   4.441   0.537   0.894
 3268SOL     OW10702   0.172   4.982   1.540
 3268SOL    HW110703   0.224   4.924   1.477
 3268SOL    HW210704   0.228   5.060   1.567
 3269SOL     OW10705   1.101   5.121   2.502
 3269SOL    HW110706   1.159   5.041   2.495
 3269SOL    HW210707   1.005   5.093   2.507
 3270SOL     OW10708   0.810   2.700   5.386
 3270SOL    HW110709   0.769   2.610   5.374
 3270SOL    HW210710   0.811   2.723   5.484
 3271SOL     OW10711   0.251   3.275   1.880
 3271SOL    HW110712   0.282   3.337   1.808
 3271SOL    HW210713   0.174   3.221   1.847
 3272SOL     OW10714   4.126   5.716   0.430
 3272SOL    HW110715   4.056   5.778   0.394
 3272SOL    HW210716   4.204   5.770   0.462
 3273SOL     OW10717   4.484   3.408   6.005
 3273SOL    HW110718   4.458   3.390   5.910
 3273SOL    HW210719   4.581   3.429   6.010
 3274SOL     OW10720   6.087   0.822   0.194
 3274SOL    HW110721   6.092   0.744   0.256
 3274SOL    HW210722   6.004   0.875   0.213
 3275SOL     OW10723   4.801   0.670   1.384
 3275SOL    HW110724   4.704   0.651   1.397
 3275SOL    HW210725   4.832   0.735   1.453
 3276SOL     OW10726   4.778   0.191   0.667
 3276SOL    HW110727   4.822   0.281   0.676
 3276SOL    HW210728   4.816   0.144   0.587
 3277SOL     OW10729   2.940   1.485   2.005
 3277SOL    HW110730   3.033   1.472   1.972
 3277SOL    HW210731   2.916   1.582   2.000
 3278SOL     OW10732   6.962   0.361   6.729
 3278SOL    HW110733   0.019   0.396   6.773
 3278SOL    HW210734   6.982   0.345   6.632
 3279SOL     OW10735   4.278   6.665   1.269
 3279SOL    HW110736   4.182   6.679   1.246
 3279SOL    HW210737   4.303   6.721   1.348
 3280SOL     OW10738   5.541   3.559   4.155
 3280SOL    HW110739   5.553   3.582   4.058
 3280SOL    HW210740   5.526   3.461   4.164
 3281SOL     OW10741   6.852   4.739   1.641
 3281SOL    HW110742   6.870   4.642   1.660
 3281SOL    HW210743   6.826   4.785   1.725
 3282SOL     OW10744   0.149   3.794   5.147
 3282SOL    HW110745   0.163   3.732   5.224
 3282SOL    HW210746   0.227   3.857   5.140
 3283SOL     OW10747   3.290   1.074   1.414
 3283SOL    HW110748   3.386   1.100   1.424
 3283SOL    HW210749   3.232   1.154   1.425
 3284SOL     OW10750   1.821   5.830   5.074
 3284SOL    HW110751   1.856   5.822   5.167
 3284SOL    HW210752   1.893   5.862   5.013
 3285SOL     OW10753   4.988   1.162   4.451
 3285SOL    HW110754   5.078   1.122   4.433
 3285SOL    HW210755   4.990   1.260   4.429
 3286SOL     OW10756   3.424   1.866   1.660
 3286SOL    HW110757   3.506   1.898   1.611
 3286SOL    HW210758   3.348   1.929   1.641
 3287SOL     OW10759   1.031   6.951   6.098
 3287SOL    HW110760   1.007   6.933   6.194
 3287SOL    HW210761   1.015   6.869   6.044
 3288SOL     OW10762   1.707   6.461   0.395
 3288SOL    HW110763   1.724   6.553   0.361
 3288SOL    HW210764   1.678   6.466   0.491
 3289SOL     OW10765   3.164   1.396   6.927
 3289SOL    HW110766   3.205   1.414   7.016
 3289SOL    HW210767   3.169   1.478   6.870
 3290SOL     OW10768   6.534   5.331   0.324
 3290SOL    HW110769   6.610   5.347   0.387
 3290SOL    HW210770   6.475   5.259   0.360
 3291SOL     OW10771   4.449   0.122   6.306
 3291SOL    HW110772   4.411   0.206   6.344
 3291SOL    HW210773   4.472   0.135   6.210
 3292SOL     OW10774   0.673   1.814   0.702
 3292SOL    HW110775   0.605   1.757   0.657
 3292SOL    HW210776   0.753   1.759   0.725
 3293SOL     OW10777   6.481   4.873   2.538
 3293SOL    HW110778   6.411   4.926   2.585
 3293SOL    HW210779   6.559   4.858   2.599
 3294SOL     OW10780   5.575   2.548   5.644
 3294SOL    HW110781   5.512   2.587   5.711
 3294SOL    HW210782   5.529   2.541   5.555
 3295SOL     OW10783   2.030   2.566   0.820
 3295SOL    HW110784   2.097   2.639   0.806
 3295SOL    HW210785   1.948   2.586   0.767
 3296SOL     OW10786   6.965   0.002   5.511
 3296SOL    HW110787   6.935   0.090   5.547
 3296SOL    HW210788   6.953   6.958   5.581
 3297SOL     OW10789   2.923   2.244   5.319
 3297SOL    HW110790   3.017   2.225   5.290
 3297SOL    HW210791   2.918   2.334   5.361
 3298SOL     OW10792   6.010   3.589   4.678
 3298SOL    HW110793   5.983   3.614   4.771
 3298SOL    HW210794   6.021   3.672   4.623
 3299SOL     OW10795   3.657   4.953   3.664
 3299SOL    HW110796   3.622   5.047   3.659
 3299SOL    HW210797   3.606   4.902   3.733
 3300SOL     OW10798   2.088   6.779   5.384
 3300SOL    HW110799   2.123   6.860   5.430
 3300SOL    HW210800   2.100   6.790   5.285
 3301SOL     OW10801   1.479   3.289   2.406
 3301SOL    HW110802   1.541   3.218   2.439
 3301SOL    HW210803   1.513   3.326   2.319
 3302SOL     OW10804   2.094   4.906   6.192
 3302SOL    HW110805   2.191   4.890   6.207
 3302SOL    HW210806   2.055   4.833   6.136
 3303SOL     OW10807   3.703   2.615   0.540
 3303SOL    HW110808   3.674   2.695   0.487
 3303SOL    HW210809   3.802   2.604   0.531
 3304SOL     OW10810   2.341   4.623   6.537
 3304SOL    HW110811   2.422   4.670   6.572
 3304SOL    HW210812   2.317   4.547   6.597
 3305SOL     OW10813   3.268   0.586   1.079
 3305SOL    HW110814   3.175   0.567   1.049
 3305SOL    HW210815   3.270   0.669   1.134
 3306SOL     OW10816   1.416   6.495   0.017
 3306SOL    HW110817   1.449   6.587   7.026
 3306SOL    HW210818   1.485   6.443   0.068
 3307SOL     OW10819   1.353   6.971   5.216
 3307SOL    HW110820   1.353   0.042   5.191
 3307SOL    HW210821   1.443   6.931   5.199
 3308SOL     OW10822   4.033   4.160   1.247
 3308SOL    HW110823   4.046   4.240   1.190
 3308SOL    HW210824   4.085   4.169   1.331
 3309SOL     OW10825   5.387   4.349   3.849
 3309SOL    HW110826   5.417   4.328   3.756
 3309SOL    HW210827   5.312   4.416   3.845
 3310SOL     OW10828   0.453   4.969   4.579
 3310SOL    HW110829   0.466   4.878   4.618
 3310SOL    HW210830   0.416   5.030   4.650
 3311SOL     OW10831   3.416   3.831   0.810
 3311SOL    HW110832   3.485   3.772   0.767
 3311SOL    HW210833   3.401   3.911   0.752
 3312SOL     OW10834   5.461   2.718   6.384
 3312SOL    HW110835   5.466   2.817   6.378
 3312SOL    HW210836   5.403   2.682   6.310
 3313SOL     OW10837   0.899   0.718   3.067
 3313SOL    HW110838   0.979   0.750   3.014
 3313SOL    HW210839   0.818   0.769   3.039
 3314SOL     OW10840   2.505   0.297   3.219
 3314SOL    HW110841   2.450   0.380   3.209
 3314SOL    HW210842   2.601   0.319   3.202
 3315SOL     OW10843   0.528   5.072   5.150
 3315SOL    HW110844   0.537   5.006   5.076
 3315SOL    HW210845   0.618   5.095   5.186
 3316SOL     OW10846   3.267   1.151   6.640
 3316SOL    HW110847   3.178   1.164   6.596
 3316SOL    HW210848   3.311   1.069   6.603
 3317SOL     OW10849   5.250   2.410   2.092
 3317SOL    HW110850   5.347   2.418   2.118
 3317SOL    HW210851   5.192   2.435   2.169
 3318SOL     OW10852   2.806   2.185   6.506
 3318SOL    HW110853   2.852   2.124   6.442
 3318SOL    HW210854   2.872   2.246   6.549
 3319SOL     OW10855   6.791   0.148   2.455
 3319SOL    HW110856   6.863   0.215   2.440
 3319SOL    HW210857   6.807   0.067   2.399
 3320SOL     OW10858   6.628   0.622   0.856
 3320SOL    HW110859   6.665   0.685   0.924
 3320SOL    HW210860   6.570   0.554   0.901
 3321SOL     OW10861   6.077   1.523   1.240
 3321SOL    HW110862   6.144   1.592   1.214
 3321SOL    HW210863   6.120   1.434   1.243
 3322SOL     OW10864   6.226   3.389   0.871
 3322SOL    HW110865   6.313   3.423   0.835
 3322SOL    HW210866   6.237   3.367   0.968
 3323SOL     OW10867   2.493   1.991   1.722
 3323SOL    HW110868   2.484   2.091   1.722
 3323SOL    HW210869   2.411   1.950   1.682
 3324SOL     OW10870   4.697   5.545   5.704
 3324SOL    HW110871   4.651   5.629   5.733
 3324SOL    HW210872   4.658   5.514   5.617
 3325SOL     OW10873   0.947   3.478   6.485
 3325SOL    HW110874   1.029   3.429   6.515
 3325SOL    HW210875   0.867   3.419   6.498
 3326SOL     OW10876   5.612   0.981   3.105
 3326SOL    HW110877   5.595   0.913   3.033
 3326SOL    HW210878   5.709   1.004   3.106
 3327SOL     OW10879   1.492   6.103   1.604
 3327SOL    HW110880   1.550   6.093   1.685
 3327SOL    HW210881   1.528   6.175   1.546
 3328SOL     OW10882   3.638   1.689   1.336
 3328SOL    HW110883   3.641   1.618   1.407
 3328SOL    HW210884   3.546   1.692   1.296
 3329SOL     OW10885   6.436   5.809   5.944
 3329SOL    HW110886   6.366   5.875   5.916
 3329SOL    HW210887   6.393   5.720   5.960
 3330SOL     OW10888   6.480   3.264   2.459
 3330SOL    HW110889   6.521   3.226   2.541
 3330SOL    HW210890   6.417   3.338   2.484
 3331SOL     OW10891   1.896   2.603   1.100
 3331SOL    HW110892   1.822   2.543   1.129
 3331SOL    HW210893   1.914   2.590   1.002
 3332SOL     OW10894   5.258   4.392   0.700
 3332SOL    HW110895   5.275   4.490   0.694
 3332SOL    HW210896   5.340   4.341   0.674
 3333SOL     OW10897   3.834   5.279   6.591
 3333SOL    HW110898   3.905   5.267   6.522
 3333SOL    HW210899   3.747   5.245   6.556
 3334SOL     OW10900   3.219   3.261   1.409
 3334SOL    HW110901   3.245   3.355   1.389
 3334SOL    HW210902   3.294   3.199   1.384
 3335SOL     OW10903   4.999   4.651   5.750
 3335SOL    HW110904   4.933   4.715   5.712
 3335SOL    HW210905   5.069   4.701   5.801
 3336SOL     OW10906   2.868   5.301   6.111
 3336SOL    HW110907   2.931   5.253   6.049
 3336SOL    HW210908   2.774   5.271   6.093
 3337SOL     OW10909   3.656   1.885   1.529
 3337SOL    HW110910   3.659   1.813   1.460
 3337SOL    HW210911   3.742   1.935   1.529
 3338SOL     OW10912   6.691   4.110   1.613
 3338SOL    HW110913   6.611   4.169   1.612
 3338SOL    HW210914   6.769   4.160   1.652
 3339SOL     OW10915   6.540   6.107   6.782
 3339SOL    HW110916   6.596   6.182   6.818
 3339SOL    HW210917   6.469   6.084   6.848
 3340SOL     OW10918   3.440   6.533   1.733
 3340SOL    HW110919   3.468   6.611   1.677
 3340SOL    HW210920   3.340   6.524   1.728
 3341SOL     OW10921   0.463   6.815   2.789
 3341SOL    HW110922   0.435   6.720   2.799
 3341SOL    HW210923   0.451   6.844   2.694
 3342SOL     OW10924   2.105   0.185   3.937
 3342SOL    HW110925   2.054   0.100   3.924
 3342SOL    HW210926   2.168   0.199   3.861
 3343SOL     OW10927   4.813   2.714   0.671
 3343SOL    HW110928   4.719   2.748   0.672
 3343SOL    HW210929   4.823   2.641   0.738
 3344SOL     OW10930   5.320   3.652   4.967
 3344SOL    HW110931   5.228   3.689   4.956
 3344SOL    HW210932   5.331   3.617   5.060
 3345SOL     OW10933   3.129   4.015   5.822
 3345SOL    HW110934   3.038   4.017   5.782
 3345SOL    HW210935   3.198   4.012   5.750
 3346SOL     OW10936   0.606   1.491   2.014
 3346SOL    HW110937   0.535   1.562   2.013
 3346SOL    HW210938   0.655   1.494   2.101
 3347SOL     OW10939   6.342   4.050   4.147
 3347SOL    HW110940   6.413   4.120   4.152
 3347SOL    HW210941   6.269   4.081   4.086
 3348SOL     OW10942   3.339   3.352   3.583
 3348SOL    HW110943   3.424   3.352   3.635
 3348SOL    HW210944   3.350   3.410   3.502
 3349SOL     OW10945   6.531   4.234   4.162
 3349SOL    HW110946   6.595   4.243   4.086
 3349SOL    HW210947   6.568   4.278   4.243
 3350SOL     OW10948   2.154   1.221   6.756
 3350SOL    HW110949   2.164   1.298   6.694
 3350SOL    HW210950   2.066   1.226   6.802
 3351SOL     OW10951   5.407   0.706   1.168
 3351SOL    HW110952   5.343   0.632   1.147
 3351SOL    HW210953   5.501   0.674   1.158
 3352SOL     OW10954   0.954   4.368   0.850
 3352SOL    HW110955   0.869   4.349   0.801
 3352SOL    HW210956   0.948   4.459   0.893
 3353SOL     OW10957   1.684   6.844   6.701
 3353SOL    HW110958   1.655   6.792   6.781
 3353SOL    HW210959   1.627   6.924   6.689
 3354SOL     OW10960   6.741   2.253   3.078
 3354SOL    HW110961   6.648   2.282   3.054
 3354SOL    HW210962   6.740   2.155   3.101
 3355SOL     OW10963   6.918   2.270   1.127
 3355SOL    HW110964   6.842   2.333   1.143
 3355SOL    HW210965   7.000   2.322   1.103
 3356SOL     OW10966   2.612   3.774   0.086
 3356SOL    HW110967   2.642   3.857   0.038
 3356SOL    HW210968   2.688   3.708   0.089
 3357SOL     OW10969   2.012   5.456   1.196
 3357SOL    HW110970   2.075   5.413   1.131
 3357SOL    HW210971   2.041   5.436   1.290
 3358SOL     OW10972   4.832   6.391   2.343
 3358SOL    HW110973   4.818   6.451   2.265
 3358SOL    HW210974   4.851   6.298   2.312
 3359SOL     OW10975   0.458   0.215   2.711
 3359SOL    HW110976   0.444   0.158   2.792
 3359SOL    HW210977   0.383   0.280   2.702
 3360SOL     OW10978   0.692   0.753   0.205
 3360SOL    HW110979   0.616   0.693   0.180
 3360SOL    HW210980   0.768   0.740   0.141
 3361SOL     OW10981   6.570   5.784   3.196
 3361SOL    HW110982   6.595   5.750   3.286
 3361SOL    HW210983   6.609   5.875   3.182
 3362SOL     OW10984   3.035   1.290   4.722
 3362SOL    HW110985   3.132   1.304   4.742
 3362SOL    HW210986   2.998   1.372   4.677
 3363SOL     OW10987   0.424   1.512   6.645
 3363SOL    HW110988   0.397   1.453   6.720
 3363SOL    HW210989   0.505   1.474   6.600
 3364SOL     OW10990   1.156   5.860   6.450
 3364SOL    HW110991   1.177   5.938   6.391
 3364SOL    HW210992   1.161   5.888   6.546
 3365SOL     OW10993   0.007   2.122   4.829
 3365SOL    HW110994   0.106   2.113   4.830
 3365SOL    HW210995   6.991   2.034   4.803
 3366SOL     OW10996   5.232   0.709   4.828
 3366SOL    HW110997   5.172   0.672   4.899
 3366SOL    HW210998   5.323   0.667   4.835
 3367SOL     OW10999   1.788   2.234   1.747
 3367SOL    HW111000   1.786   2.301   1.674
 3367SOL    HW211001   1.770   2.143   1.709
 3368SOL     OW11002   6.429   5.228   6.271
 3368SOL    HW111003   6.443   5.322   6.303
 3368SOL    HW211004   6.344   5.223   6.218
 3369SOL     OW11005   3.824   0.697   0.426
 3369SOL    HW111006   3.882   0.664   0.500
 3369SOL    HW211007   3.749   0.633   0.412
 3370SOL     OW11008   6.674   7.023   4.945
 3370SOL    HW111009   6.726   7.025   4.859
 3370SOL    HW211010   6.736   0.014   5.022
 3371SOL     OW11011   0.933   4.471   2.162
 3371SOL    HW111012   1.026   4.450   2.133
 3371SOL    HW211013   0.895   4.394   2.212
 3372SOL     OW11014   0.505   0.969   2.195
 3372SOL    HW111015   0.452   0.885   2.207
 3372SOL    HW211016   0.453   1.034   2.138
 3373SOL     OW11017   6.049   1.188   4.324
 3373SOL    HW111018   6.127   1.127   4.310
 3373SOL    HW211019   6.066   1.276   4.280
 3374SOL     OW11020   3.263   5.914   5.531
 3374SOL    HW111021   3.294   5.823   5.503
 3374SOL    HW211022   3.248   5.915   5.630
 3375SOL     OW11023   4.572   4.676   5.077
 3375SOL    HW111024   4.615   4.594   5.040
 3375SOL    HW211025   4.473   4.665   5.075
 3376SOL     OW11026   3.344   3.029   2.574
 3376SOL    HW111027   3.338   2.967   2.652
 3376SOL    HW211028   3.393   2.985   2.500
 3377SOL     OW11029   1.492   6.619   4.861
 3377SOL    HW111030   1.451   6.591   4.774
 3377SOL    HW211031   1.513   6.538   4.916
 3378SOL     OW11032   6.702   1.417   1.165
 3378SOL    HW111033   6.714   1.391   1.070
 3378SOL    HW211034   6.706   1.335   1.223
 3379SOL     OW11035   0.508   4.631   6.033
 3379SOL    HW111036   0.554   4.543   6.021
 3379SOL    HW211037   0.427   4.635   5.974
 3380SOL     OW11038   6.574   4.710   6.295
 3380SOL    HW111039   6.673   4.705   6.313
 3380SOL    HW211040   6.543   4.621   6.260
 3381SOL     OW11041   2.814   2.714   0.664
 3381SOL    HW111042   2.730   2.661   0.676
 3381SOL    HW211043   2.886   2.654   0.628
 3382SOL     OW11044   7.021   1.378   6.943
 3382SOL    HW111045   6.979   1.461   6.905
 3382SOL    HW211046   0.066   1.404   7.008
 3383SOL     OW11047   5.819   5.075   2.638
 3383SOL    HW111048   5.777   5.164   2.658
 3383SOL    HW211049   5.761   5.025   2.574
 3384SOL     OW11050   3.333   3.274   4.907
 3384SOL    HW111051   3.379   3.342   4.965
 3384SOL    HW211052   3.238   3.302   4.891
 3385SOL     OW11053   6.140   4.070   3.375
 3385SOL    HW111054   6.239   4.082   3.378
 3385SOL    HW211055   6.111   4.009   3.449
 3386SOL     OW11056   6.049   4.236   4.631
 3386SOL    HW111057   6.049   4.205   4.726
 3386SOL    HW211058   5.957   4.263   4.604
 3387SOL     OW11059   2.439   2.602   2.633
 3387SOL    HW111060   2.370   2.602   2.705
 3387SOL    HW211061   2.513   2.540   2.659
 3388SOL     OW11062   5.700   2.827   1.194
 3388SOL    HW111063   5.755   2.879   1.128
 3388SOL    HW211064   5.760   2.791   1.266
 3389SOL     OW11065   4.700   4.220   3.984
 3389SOL    HW111066   4.657   4.306   4.013
 3389SOL    HW211067   4.699   4.155   4.060
 3390SOL     OW11068   5.285   2.613   6.228
 3390SOL    HW111069   5.246   2.652   6.145
 3390SOL    HW211070   5.288   2.513   6.220
 3391SOL     OW11071   3.857   2.133   5.150
 3391SOL    HW111072   3.874   2.209   5.213
 3391SOL    HW211073   3.911   2.054   5.177
 3392SOL     OW11074   2.572   0.572   4.157
 3392SOL    HW111075   2.557   0.576   4.059
 3392SOL    HW211076   2.568   0.664   4.195
 3393SOL     OW11077   6.456   6.903   0.707
 3393SOL    HW111078   6.486   6.816   0.746
 3393SOL    HW211079   6.467   6.901   0.608
 3394SOL     OW11080   5.881   2.980   1.069
 3394SOL    HW111081   5.959   2.978   1.131
 3394SOL    HW211082   5.877   3.069   1.022
 3395SOL     OW11083   6.966   3.162   3.882
 3395SOL    HW111084   6.903   3.111   3.823
 3395SOL    HW211085   7.018   3.097   3.937
 3396SOL     OW11086   0.241   3.056   3.336
 3396SOL    HW111087   0.197   2.975   3.298
 3396SOL    HW211088   0.199   3.079   3.423
 3397SOL     OW11089   4.002   0.587   5.690
 3397SOL    HW111090   4.073   0.651   5.657
 3397SOL    HW211091   4.036   0.540   5.772
 3398SOL     OW11092   0.921   0.262   3.942
 3398SOL    HW111093   0.894   0.280   4.037
 3398SOL    HW211094   1.018   0.283   3.930
 3399SOL     OW11095   4.482   4.489   4.518
 3399SOL    HW111096   4.550   4.417   4.506
 3399SOL    HW211097   4.467   4.505   4.615
 3400SOL     OW11098   4.976   2.516   6.012
 3400SOL    HW111099   4.880   2.545   6.015
 3400SOL    HW211100   4.982   2.426   5.970
 3401SOL     OW11101   6.922   3.726   0.685
 3401SOL    HW111102   7.017   3.755   0.669
 3401SOL    HW211103   6.882   3.782   0.758
 3402SOL     OW11104   5.749   5.734   0.974
 3402SOL    HW111105   5.695   5.801   0.923
 3402SOL    HW211106   5.708   5.644   0.965
 3403SOL     OW11107   3.789   0.351   5.055
 3403SOL    HW111108   3.779   0.253   5.040
 3403SOL    HW211109   3.882   0.370   5.087
 3404SOL     OW11110   4.125   1.332   0.310
 3404SOL    HW111111   4.123   1.243   0.356
 3404SOL    HW211112   4.078   1.400   0.366
 3405SOL     OW11113   6.560   3.774   6.138
 3405SOL    HW111114   6.633   3.834   6.106
 3405SOL    HW211115   6.479   3.828   6.159
 3406SOL     OW11116   2.367   4.866   1.759
 3406SOL    HW111117   2.343   4.828   1.849
 3406SOL    HW211118   2.460   4.838   1.735
 3407SOL     OW11119   1.492   5.944   2.002
 3407SOL    HW111120   1.463   5.981   2.090
 3407SOL    HW211121   1.432   5.868   1.977
 3408SOL     OW11122   4.912   3.946   3.599
 3408SOL    HW111123   4.956   3.999   3.527
 3408SOL    HW211124   4.839   4.000   3.641
 3409SOL     OW11125   3.810   6.966   6.018
 3409SOL    HW111126   3.733   6.986   5.957
 3409SOL    HW211127   3.848   6.876   5.995
 3410SOL     OW11128   6.013   5.371   6.522
 3410SOL    HW111129   5.996   5.277   6.494
 3410SOL    HW211130   5.958   5.433   6.466
 3411SOL     OW11131   5.539   2.304   2.205
 3411SOL    HW111132   5.546   2.207   2.181
 3411SOL    HW211133   5.595   2.323   2.286
 3412SOL     OW11134   4.048   2.988   0.101
 3412SOL    HW111135   3.955   2.965   0.074
 3412SOL    HW211136   4.067   3.083   0.079
 3413SOL     OW11137   4.208   1.331   2.785
 3413SOL    HW111138   4.145   1.324   2.708
 3413SOL    HW211139   4.300   1.308   2.756
 3414SOL     OW11140   3.445   1.540   5.064
 3414SOL    HW111141   3.433   1.567   4.968
 3414SOL    HW211142   3.355   1.535   5.108
 3415SOL     OW11143   0.964   4.913   4.161
 3415SOL    HW111144   1.059   4.896   4.185
 3415SOL    HW211145   0.944   4.872   4.072
 3416SOL     OW11146   0.032   3.985   5.810
 3416SOL    HW111147   0.028   4.068   5.754
 3416SOL    HW211148   7.024   3.907   5.757
 3417SOL     OW11149   6.755   5.959   2.325
 3417SOL    HW111150   6.828   5.980   2.390
 3417SOL    HW211151   6.672   5.936   2.376
 3418SOL     OW11152   3.762   1.515   4.536
 3418SOL    HW111153   3.706   1.447   4.487
 3418SOL    HW211154   3.713   1.602   4.539
 3419SOL     OW11155   4.232   4.950   6.182
 3419SOL    HW111156   4.137   4.972   6.158
 3419SOL    HW211157   4.279   5.033   6.210
 3420SOL     OW11158   5.497   1.854   3.508
 3420SOL    HW111159   5.421   1.860   3.444
 3420SOL    HW211160   5.461   1.847   3.602
 3421SOL     OW11161   6.833   0.583   5.904
 3421SOL    HW111162   6.766   0.576   5.978
 3421SOL    HW211163   6.790   0.626   5.824
 3422SOL     OW11164   3.284   0.106   1.034
 3422SOL    HW111165   3.214   0.061   0.978
 3422SOL    HW211166   3.348   0.155   0.975
 3423SOL     OW11167   2.450   0.866   7.005
 3423SOL    HW111168   2.446   0.824   6.914
 3423SOL    HW211169   2.363   0.910   7.026
 3424SOL     OW11170   3.494   1.261   3.025
 3424SOL    HW111171   3.517   1.281   2.930
 3424SOL    HW211172   3.436   1.333   3.062
 3425SOL     OW11173   5.104   4.503   2.421
 3425SOL    HW111174   5.192   4.476   2.382
 3425SOL    HW211175   5.044   4.534   2.348
 3426SOL     OW11176   3.513   3.563   0.396
 3426SOL    HW111177   3.515   3.575   0.495
 3426SOL    HW211178   3.447   3.491   0.373
 3427SOL     OW11179   6.605   6.732   0.150
 3427SOL    HW111180   6.705   6.734   0.143
 3427SOL    HW211181   6.566   6.786   0.075
 3428SOL     OW11182   4.040   5.253   1.880
 3428SOL    HW111183   4.067   5.336   1.928
 3428SOL    HW211184   3.951   5.267   1.836
 3429SOL     OW11185   0.653   2.327   6.979
 3429SOL    HW111186   0.638   2.426   6.976
 3429SOL    HW211187   0.665   2.293   6.886
 3430SOL     OW11188   1.560   6.738   6.968
 3430SOL    HW111189   1.623   6.728   0.019
 3430SOL    HW211190   1.539   6.834   6.955
 3431SOL     OW11191   2.099   6.167   1.109
 3431SOL    HW111192   2.012   6.212   1.089
 3431SOL    HW211193   2.107   6.151   1.207
 3432SOL     OW11194   2.696   2.380   5.181
 3432SOL    HW111195   2.674   2.475   5.199
 3432SOL    HW211196   2.774   2.352   5.237
 3433SOL     OW11197   2.724   1.296   6.629
 3433SOL    HW111198   2.674   1.374   6.666
 3433SOL    HW211199   2.669   1.251   6.559
 3434SOL     OW11200   3.350   2.795   0.565
 3434SOL    HW111201   3.304   2.862   0.622
 3434SOL    HW211202   3.363   2.710   0.617
 3435SOL     OW11203   0.243   2.437   1.425
 3435SOL    HW111204   0.176   2.402   1.491
 3435SOL    HW211205   0.307   2.498   1.472
 3436SOL     OW11206   4.648   6.678   5.004
 3436SOL    HW111207   4.592   6.649   5.081
 3436SOL    HW211208   4.742   6.692   5.034
 3437SOL     OW11209   4.274   0.357   6.364
 3437SOL    HW111210   4.212   0.279   6.355
 3437SOL    HW211211   4.265   0.396   6.456
 3438SOL     OW11212   1.594   2.847   6.671
 3438SOL    HW111213   1.507   2.865   6.716
 3438SOL    HW211214   1.617   2.923   6.610
 3439SOL     OW11215   2.816   0.206   5.083
 3439SOL    HW111216   2.799   0.281   5.147
 3439SOL    HW211217   2.792   0.119   5.126
 3440SOL     OW11218   4.214   3.702   1.077
 3440SOL    HW111219   4.278   3.771   1.044
 3440SOL    HW211220   4.178   3.729   1.166
 3441SOL     OW11221   4.500   0.277   3.713
 3441SOL    HW111222   4.410   0.291   3.753
 3441SOL    HW211223   4.551   0.210   3.768
 3442SOL     OW11224   2.275   4.965   3.454
 3442SOL    HW111225   2.270   5.065   3.452
 3442SOL    HW211226   2.186   4.927   3.428
 3443SOL     OW11227   5.711   1.356   3.292
 3443SOL    HW111228   5.738   1.432   3.351
 3443SOL    HW211229   5.782   1.286   3.293
 3444SOL     OW11230   4.923   5.375   6.515
 3444SOL    HW111231   4.834   5.339   6.485
 3444SOL    HW211232   4.993   5.305   6.505
 3445SOL     OW11233   6.298   3.947   4.406
 3445SOL    HW111234   6.325   3.853   4.422
 3445SOL    HW211235   6.304   3.968   4.309
 3446SOL     OW11236   4.725   1.059   2.859
 3446SOL    HW111237   4.666   1.132   2.822
 3446SOL    HW211238   4.680   0.971   2.847
 3447SOL     OW11239   5.712   4.888   0.131
 3447SOL    HW111240   5.681   4.951   0.061
 3447SOL    HW211241   5.649   4.810   0.136
 3448SOL     OW11242   3.648   6.727   0.811
 3448SOL    HW111243   3.563   6.676   0.818
 3448SOL    HW211244   3.694   6.703   0.725
 3449SOL     OW11245   6.410   6.273   2.475
 3449SOL    HW111246   6.321   6.240   2.506
 3449SOL    HW211247   6.414   6.267   2.375
 3450SOL     OW11248   0.824   2.158   0.892
 3450SOL    HW111249   0.756   2.106   0.839
 3450SOL    HW211250   0.826   2.253   0.861
 3451SOL     OW11251   0.731   5.829   3.610
 3451SOL    HW111252   0.760   5.737   3.585
 3451SOL    HW211253   0.646   5.851   3.562
 3452SOL     OW11254   6.405   0.760   6.806
 3452SOL    HW111255   6.499   0.763   6.772
 3452SOL    HW211256   6.401   0.703   6.888
 3453SOL     OW11257   5.797   5.796   5.088
 3453SOL    HW111258   5.715   5.741   5.074
 3453SOL    HW211259   5.773   5.879   5.138
 3454SOL     OW11260   1.711   1.114   6.630
 3454SOL    HW111261   1.627   1.158   6.662
 3454SOL    HW211262   1.699   1.015   6.632
 3455SOL     OW11263   1.229   3.023   4.534
 3455SOL    HW111264   1.236   2.925   4.552
 3455SOL    HW211265   1.256   3.074   4.616
 3456SOL     OW11266   5.916   5.853   2.200
 3456SOL    HW111267   5.981   5.887   2.132
 3456SOL    HW211268   5.955   5.773   2.246
 3457SOL     OW11269   2.780   5.339   3.975
 3457SOL    HW111270   2.841   5.396   4.030
 3457SOL    HW211271   2.817   5.247   3.968
 3458SOL     OW11272   5.620   0.196   0.129
 3458SOL    HW111273   5.683   0.120   0.113
 3458SOL    HW211274   5.640   0.269   0.063
 3459SOL     OW11275   0.655   3.536   3.287
 3459SOL    HW111276   0.607   3.609   3.239
 3459SOL    HW211277   0.752   3.537   3.263
 3460SOL     OW11278   3.486   3.107   0.380
 3460SOL    HW111279   3.408   3.057   0.343
 3460SOL    HW211280   3.470   3.205   0.373
 3461SOL     OW11281   3.809   5.175   4.286
 3461SOL    HW111282   3.799   5.110   4.211
 3461SOL    HW211283   3.723   5.225   4.299
 3462SOL     OW11284   6.172   3.006   2.159
 3462SOL    HW111285   6.252   2.953   2.188
 3462SOL    HW211286   6.098   2.944   2.135
 3463SOL     OW11287   0.558   3.066   2.867
 3463SOL    HW111288   0.494   3.142   2.855
 3463SOL    HW211289   0.610   3.080   2.951
 3464SOL     OW11290   5.674   2.277   0.121
 3464SOL    HW111291   5.718   2.306   0.036
 3464SOL    HW211292   5.689   2.347   0.192
 3465SOL     OW11293   1.866   3.512   1.630
 3465SOL    HW111294   1.951   3.563   1.636
 3465SOL    HW211295   1.818   3.535   1.545
 3466SOL     OW11296   5.576   5.273   5.565
 3466SOL    HW111297   5.534   5.325   5.491
 3466SOL    HW211298   5.504   5.242   5.627
 3467SOL     OW11299   3.262   1.431   0.645
 3467SOL    HW111300   3.318   1.362   0.691
 3467SOL    HW211301   3.322   1.494   0.594
 3468SOL     OW11302   4.724   1.476   2.360
 3468SOL    HW111303   4.820   1.496   2.376
 3468SOL    HW211304   4.674   1.561   2.345
 3469SOL     OW11305   4.991   0.199   6.544
 3469SOL    HW111306   4.992   0.196   6.444
 3469SOL    HW211307   5.067   0.255   6.577
 3470SOL     OW11308   0.488   2.929   1.856
 3470SOL    HW111309   0.453   2.835   1.860
 3470SOL    HW211310   0.578   2.929   1.813
 3471SOL     OW11311   4.738   4.381   3.703
 3471SOL    HW111312   4.699   4.289   3.696
 3471SOL    HW211313   4.701   4.427   3.783
 3472SOL     OW11314   3.566   1.439   2.780
 3472SOL    HW111315   3.558   1.520   2.838
 3472SOL    HW211316   3.538   1.462   2.687
 3473SOL     OW11317   7.001   3.446   3.558
 3473SOL    HW111318   6.914   3.423   3.514
 3473SOL    HW211319   0.036   3.489   3.492
 3474SOL     OW11320   0.287   4.056   3.884
 3474SOL    HW111321   0.294   3.956   3.873
 3474SOL    HW211322   0.242   4.077   3.971
 3475SOL     OW11323   0.575   5.026   3.819
 3475SOL    HW111324   0.580   4.927   3.817
 3475SOL    HW211325   0.549   5.056   3.911
 3476SOL     OW11326   1.809   1.457   3.328
 3476SOL    HW111327   1.740   1.384   3.324
 3476SOL    HW211328   1.876   1.443   3.255
 3477SOL     OW11329   0.908   3.721   0.404
 3477SOL    HW111330   0.863   3.775   0.333
 3477SOL    HW211331   0.977   3.662   0.363
 3478SOL     OW11332   2.294   0.329   6.818
 3478SOL    HW111333   2.372   0.391   6.829
 3478SOL    HW211334   2.259   0.304   6.908
 3479SOL     OW11335   0.815   1.694   3.669
 3479SOL    HW111336   0.734   1.686   3.727
 3479SOL    HW211337   0.871   1.771   3.700
 3480SOL     OW11338   0.791   5.828   6.665
 3480SOL    HW111339   0.711   5.770   6.682
 3480SOL    HW211340   0.866   5.772   6.632
 3481SOL     OW11341   5.630   0.999   0.667
 3481SOL    HW111342   5.538   0.968   0.645
 3481SOL    HW211343   5.696   0.928   0.644
 3482SOL     OW11344   6.207   1.866   2.900
 3482SOL    HW111345   6.151   1.854   2.982
 3482SOL    HW211346   6.303   1.847   2.922
 3483SOL     OW11347   5.496   2.258   3.220
 3483SOL    HW111348   5.519   2.226   3.312
 3483SOL    HW211349   5.542   2.345   3.202
 3484SOL     OW11350   1.286   3.336   6.902
 3484SOL    HW111351   1.366   3.283   6.878
 3484SOL    HW211352   1.314   3.419   6.951
 3485SOL     OW11353   0.601   2.433   5.143
 3485SOL    HW111354   0.645   2.448   5.055
 3485SOL    HW211355   0.581   2.335   5.154
 3486SOL     OW11356   2.176   0.280   4.195
 3486SOL    HW111357   2.131   0.245   4.113
 3486SOL    HW211358   2.107   0.292   4.267
 3487SOL     OW11359   6.443   2.547   6.969
 3487SOL    HW111360   6.385   2.466   6.965
 3487SOL    HW211361   6.507   2.539   0.019
 3488SOL     OW11362   5.664   0.806   4.295
 3488SOL    HW111363   5.653   0.765   4.386
 3488SOL    HW211364   5.669   0.734   4.226
 3489SOL     OW11365   3.257   6.883   1.194
 3489SOL    HW111366   3.260   6.978   1.163
 3489SOL    HW211367   3.262   6.880   1.294
 3490SOL     OW11368   3.762   5.061   1.561
 3490SOL    HW111369   3.795   4.996   1.630
 3490SOL    HW211370   3.745   5.012   1.475
 3491SOL     OW11371   4.214   3.452   6.087
 3491SOL    HW111372   4.223   3.494   6.178
 3491SOL    HW211373   4.304   3.427   6.053
 3492SOL     OW11374   6.488   4.561   1.485
 3492SOL    HW111375   6.405   4.547   1.431
 3492SOL    HW211376   6.568   4.547   1.427
 3493SOL     OW11377   6.685   3.874   3.789
 3493SOL    HW111378   6.718   3.784   3.758
 3493SOL    HW211379   6.615   3.907   3.726
 3494SOL     OW11380   2.695   1.388   1.945
 3494SOL    HW111381   2.645   1.470   1.972
 3494SOL    HW211382   2.788   1.393   1.982
 3495SOL     OW11383   0.624   3.795   2.633
 3495SOL    HW111384   0.656   3.885   2.603
 3495SOL    HW211385   0.585   3.803   2.725
 3496SOL     OW11386   5.742   4.760   0.833
 3496SOL    HW111387   5.666   4.747   0.897
 3496SOL    HW211388   5.826   4.779   0.884
 3497SOL     OW11389   3.062   1.072   3.839
 3497SOL    HW111390   3.099   1.134   3.907
 3497SOL    HW211391   3.018   1.125   3.766
 3498SOL     OW11392   2.911   1.324   2.256
 3498SOL    HW111393   2.946   1.345   2.347
 3498SOL    HW211394   2.934   1.399   2.193
 3499SOL     OW11395   6.740   5.173   4.543
 3499SOL    HW111396   6.754   5.094   4.602
 3499SOL    HW211397   6.768   5.256   4.591
 3500SOL     OW11398   2.274   2.960   4.093
 3500SOL    HW111399   2.203   2.898   4.060
 3500SOL    HW211400   2.317   2.921   4.174
 3501SOL     OW11401   2.537   0.066   6.078
 3501SOL    HW111402   2.592   7.013   6.105
 3501SOL    HW211403   2.440   0.044   6.084
 3502SOL     OW11404   6.230   3.263   1.533
 3502SOL    HW111405   6.154   3.316   1.569
 3502SOL    HW211406   6.316   3.305   1.563
 3503SOL     OW11407   0.147   6.429   5.656
 3503SOL    HW111408   0.159   6.420   5.557
 3503SOL    HW211409   0.055   6.400   5.681
 3504SOL     OW11410   1.990   1.000   2.070
 3504SOL    HW111411   1.944   0.990   1.982
 3504SOL    HW211412   2.013   1.096   2.085
 3505SOL     OW11413   5.573   5.494   5.357
 3505SOL    HW111414   5.666   5.472   5.327
 3505SOL    HW211415   5.568   5.590   5.385
 3506SOL     OW11416   5.684   4.536   4.804
 3506SOL    HW111417   5.656   4.480   4.726
 3506SOL    HW211418   5.717   4.625   4.771
 3507SOL     OW11419   2.334   0.001   0.088
 3507SOL    HW111420   2.274   0.076   0.058
 3507SOL    HW211421   2.401   7.009   0.016
 3508SOL     OW11422   2.820   2.490   6.268
 3508SOL    HW111423   2.775   2.522   6.351
 3508SOL    HW211424   2.918   2.481   6.285
 3509SOL     OW11425   5.741   6.481   0.071
 3509SOL    HW111426   5.679   6.557   0.091
 3509SOL    HW211427   5.790   6.501   7.011
 3510SOL     OW11428   1.693   0.587   1.300
 3510SOL    HW111429   1.629   0.528   1.350
 3510SOL    HW211430   1.772   0.606   1.357
 3511SOL     OW11431   1.715   4.376   1.641
 3511SOL    HW111432   1.635   4.326   1.674
 3511SOL    HW211433   1.766   4.317   1.577
 3512SOL     OW11434   0.967   3.818   0.870
 3512SOL    HW111435   0.978   3.903   0.920
 3512SOL    HW211436   1.057   3.776   0.854
 3513SOL     OW11437   6.038   1.769   1.575
 3513SOL    HW111438   5.962   1.765   1.510
 3513SOL    HW211439   6.023   1.845   1.639
 3514SOL     OW11440   5.882   0.300   2.081
 3514SOL    HW111441   5.933   0.302   1.995
 3514SOL    HW211442   5.899   0.214   2.129
 3515SOL     OW11443   5.439   6.085   3.765
 3515SOL    HW111444   5.416   6.086   3.862
 3515SOL    HW211445   5.394   6.162   3.719
 3516SOL     OW11446   5.470   6.134   1.144
 3516SOL    HW111447   5.444   6.077   1.222
 3516SOL    HW211448   5.467   6.231   1.172
 3517SOL     OW11449   0.030   1.849   1.258
 3517SOL    HW111450   0.048   1.835   1.355
 3517SOL    HW211451   6.968   1.897   1.247
 3518SOL     OW11452   5.321   2.053   5.173
 3518SOL    HW111453   5.373   1.970   5.154
 3518SOL    HW211454   5.336   2.119   5.099
 3519SOL     OW11455   2.148   1.181   5.878
 3519SOL    HW111456   2.144   1.126   5.795
 3519SOL    HW211457   2.065   1.167   5.932
 3520SOL     OW11458   2.867   7.012   0.136
 3520SOL    HW111459   2.907   6.996   0.227
 3520SOL    HW211460   2.912   6.953   0.069
 3521SOL     OW11461   4.004   2.776   6.672
 3521SOL    HW111462   4.098   2.806   6.657
 3521SOL    HW211463   3.996   2.735   6.763
 3522SOL     OW11464   6.385   5.175   6.772
 3522SOL    HW111465   6.423   5.093   6.816
 3522SOL    HW211466   6.352   5.151   6.681
 3523SOL     OW11467   1.575   4.406   5.221
 3523SOL    HW111468   1.596   4.383   5.125
 3523SOL    HW211469   1.575   4.322   5.275
 3524SOL     OW11470   4.931   1.794   2.157
 3524SOL    HW111471   5.026   1.768   2.174
 3524SOL    HW211472   4.872   1.714   2.166
 3525SOL     OW11473   6.486   3.381   4.532
 3525SOL    HW111474   6.428   3.403   4.453
 3525SOL    HW211475   6.465   3.444   4.607
 3526SOL     OW11476   2.004   0.082   3.639
 3526SOL    HW111477   2.054   0.167   3.659
 3526SOL    HW211478   1.936   0.065   3.709
 3527SOL     OW11479   5.745   3.373   5.874
 3527SOL    HW111480   5.744   3.373   5.974
 3527SOL    HW211481   5.658   3.340   5.840
 3528SOL     OW11482   2.297   6.246   5.211
 3528SOL    HW111483   2.236   6.263   5.133
 3528SOL    HW211484   2.388   6.221   5.177
 3529SOL     OW11485   4.115   6.931   0.565
 3529SOL    HW111486   4.104   6.879   0.649
 3529SOL    HW211487   4.213   6.943   0.546
 3530SOL     OW11488   0.029   5.291   1.795
 3530SOL    HW111489   6.995   5.360   1.837
 3530SOL    HW211490   7.007   5.203   1.793
 3531SOL     OW11491   5.697   2.531   0.862
 3531SOL    HW111492   5.629   2.585   0.910
 3531SOL    HW211493   5.769   2.591   0.826
 3532SOL     OW11494   2.513   1.172   1.528
 3532SOL    HW111495   2.515   1.259   1.480
 3532SOL    HW211496   2.434   1.169   1.590
 3533SOL     OW11497   0.621   1.208   2.639
 3533SOL    HW111498   0.527   1.237   2.657
 3533SOL    HW211499   0.622   1.143   2.563
 3534SOL     OW11500   0.872   2.245   1.534
 3534SOL    HW111501   0.794   2.228   1.595
 3534SOL    HW211502   0.857   2.198   1.447
 3535SOL     OW11503   1.908   5.568   6.180
 3535SOL    HW111504   1.998   5.556   6.222
 3535SOL    HW211505   1.913   5.639   6.109
 3536SOL     OW11506   3.077   2.164   3.421
 3536SOL    HW111507   3.126   2.115   3.348
 3536SOL    HW211508   3.083   2.112   3.506
 3537SOL     OW11509   2.009   5.680   2.102
 3537SOL    HW111510   2.017   5.609   2.032
 3537SOL    HW211511   2.071   5.660   2.178
 3538SOL     OW11512   2.441   5.839   5.388
 3538SOL    HW111513   2.472   5.760   5.441
 3538SOL    HW211514   2.354   5.818   5.344
 3539SOL     OW11515   3.244   3.393   4.610
 3539SOL    HW111516   3.280   3.478   4.571
 3539SOL    HW211517   3.270   3.316   4.551
 3540SOL     OW11518   1.978   2.228   4.609
 3540SOL    HW111519   1.882   2.199   4.603
 3540SOL    HW211520   2.028   2.164   4.667
 3541SOL     OW11521   2.862   2.362   5.890
 3541SOL    HW111522   2.869   2.445   5.945
 3541SOL    HW211523   2.940   2.357   5.827
 3542SOL     OW11524   1.374   4.920   2.794
 3542SOL    HW111525   1.392   5.014   2.824
 3542SOL    HW211526   1.460   4.869   2.792
 3543SOL     OW11527   6.208   2.645   3.704
 3543SOL    HW111528   6.187   2.572   3.770
 3543SOL    HW211529   6.127   2.666   3.650
 3544SOL     OW11530   1.824   4.438   6.556
 3544SOL    HW111531   1.850   4.534   6.550
 3544SOL    HW211532   1.848   4.392   6.470
 3545SOL     OW11533   3.566   6.316   6.702
 3545SOL    HW111534   3.554   6.307   6.603
 3545SOL    HW211535   3.477   6.326   6.746
 3546SOL     OW11536   0.291   4.393   3.361
 3546SOL    HW111537   0.281   4.488   3.332
 3546SOL    HW211538   0.218   4.338   3.320
 3547SOL     OW11539   4.551   4.438   4.051
 3547SOL    HW111540   4.509   4.477   3.969
 3547SOL    HW211541   4.516   4.484   4.132
 3548SOL     OW11542   5.662   1.639   6.013
 3548SOL    HW111543   5.725   1.651   6.089
 3548SOL    HW211544   5.659   1.543   5.986
 3549SOL     OW11545   6.795   4.950   4.732
 3549SOL    HW111546   6.864   4.901   4.678
 3549SOL    HW211547   6.833   4.972   4.822
 3550SOL     OW11548   4.813   2.885   2.525
 3550SOL    HW111549   4.811   2.880   2.426
 3550SOL    HW211550   4.892   2.834   2.560
 3551SOL     OW11551   3.746   6.048   2.708
 3551SOL    HW111552   3.699   5.966   2.675
 3551SOL    HW211553   3.824   6.021   2.765
 3552SOL     OW11554   4.789   6.125   2.280
 3552SOL    HW111555   4.859   6.070   2.326
 3552SOL    HW211556   4.762   6.080   2.195
 3553SOL     OW11557   5.762   3.215   1.302
 3553SOL    HW111558   5.811   3.268   1.234
 3553SOL    HW211559   5.666   3.208   1.276
 3554SOL     OW11560   3.365   3.355   1.003
 3554SOL    HW111561   3.319   3.302   1.075
 3554SOL    HW211562   3.412   3.433   1.045
 3555SOL     OW11563   0.881   3.220   2.863
 3555SOL    HW111564   0.944   3.272   2.805
 3555SOL    HW211565   0.802   3.278   2.885
 3556SOL     OW11566   3.941   0.882   5.240
 3556SOL    HW111567   3.941   0.917   5.333
 3556SOL    HW211568   3.860   0.914   5.191
 3557SOL     OW11569   0.648   0.662   3.880
 3557SOL    HW111570   0.616   0.689   3.789
 3557SOL    HW211571   0.569   0.653   3.941
 3558SOL     OW11572   0.241   6.208   1.516
 3558SOL    HW111573   0.270   6.119   1.551
 3558SOL    HW211574   0.165   6.242   1.570
 3559SOL     OW11575   0.338   0.131   4.451
 3559SOL    HW111576   0.350   0.229   4.435
 3559SOL    HW211577   0.426   0.090   4.472
 3560SOL     OW11578   1.600   5.577   1.065
 3560SOL    HW111579   1.585   5.635   0.985
 3560SOL    HW211580   1.540   5.497   1.060
 3561SOL     OW11581   4.815   5.104   5.666
 3561SOL    HW111582   4.773   5.174   5.609
 3561SOL    HW211583   4.811   5.016   5.619
 3562SOL     OW11584   4.713   0.929   4.122
 3562SOL    HW111585   4.783   0.994   4.152
 3562SOL    HW211586   4.704   0.856   4.190
 3563SOL     OW11587   5.295   0.905   1.732
 3563SOL    HW111588   5.354   0.983   1.755
 3563SOL    HW211589   5.203   0.938   1.710
 3564SOL     OW11590   1.709   4.653   4.084
 3564SOL    HW111591   1.753   4.722   4.026
 3564SOL    HW211592   1.666   4.584   4.026
 3565SOL     OW11593   3.521   6.729   5.022
 3565SOL    HW111594   3.602   6.737   4.963
 3565SOL    HW211595   3.441   6.707   4.967
 3566SOL     OW11596   6.988   3.146   6.010
 3566SOL    HW111597   6.945   3.214   6.069
 3566SOL    HW211598   0.060   3.142   6.030
 3567SOL     OW11599   1.732   2.311   0.260
 3567SOL    HW111600   1.772   2.252   0.330
 3567SOL    HW211601   1.781   2.300   0.174
 3568SOL     OW11602   5.304   5.034   2.860
 3568SOL    HW111603   5.265   5.043   2.768
 3568SOL    HW211604   5.403   5.031   2.854
 3569SOL     OW11605   3.118   3.030   5.252
 3569SOL    HW111606   3.104   3.065   5.160
 3569SOL    HW211607   3.185   2.957   5.251
 3570SOL     OW11608   5.233   0.610   5.303
 3570SOL    HW111609   5.331   0.599   5.284
 3570SOL    HW211610   5.220   0.626   5.401
 3571SOL     OW11611   1.497   0.894   5.074
 3571SOL    HW111612   1.541   0.887   5.163
 3571SOL    HW211613   1.473   0.803   5.041
 3572SOL     OW11614   5.167   3.517   2.569
 3572SOL    HW111615   5.128   3.607   2.550
 3572SOL    HW211616   5.093   3.451   2.585
 3573SOL     OW11617   6.604   4.375   2.414
 3573SOL    HW111618   6.657   4.304   2.368
 3573SOL    HW211619   6.555   4.336   2.492
 3574SOL     OW11620   2.095   3.427   6.830
 3574SOL    HW111621   2.019   3.443   6.767
 3574SOL    HW211622   2.124   3.331   6.823
 3575SOL     OW11623   5.273   5.480   1.322
 3575SOL    HW111624   5.198   5.546   1.316
 3575SOL    HW211625   5.335   5.492   1.245
 3576SOL     OW11626   0.322   2.620   0.368
 3576SOL    HW111627   0.378   2.545   0.333
 3576SOL    HW211628   0.266   2.588   0.443
 3577SOL     OW11629   2.113   3.273   5.316
 3577SOL    HW111630   2.209   3.299   5.322
 3577SOL    HW211631   2.101   3.182   5.355
 3578SOL     OW11632   4.037   3.142   1.095
 3578SOL    HW111633   4.135   3.159   1.107
 3578SOL    HW211634   3.986   3.196   1.161
 3579SOL     OW11635   0.236   3.201   3.078
 3579SOL    HW111636   0.289   3.165   3.155
 3579SOL    HW211637   0.158   3.141   3.061
 3580SOL     OW11638   6.874   3.948   1.476
 3580SOL    HW111639   6.814   4.022   1.509
 3580SOL    HW211640   6.819   3.881   1.426
 3581SOL     OW11641   1.195   6.488   3.163
 3581SOL    HW111642   1.289   6.492   3.197
 3581SOL    HW211643   1.137   6.548   3.217
 3582SOL     OW11644   3.400   5.016   5.749
 3582SOL    HW111645   3.423   4.968   5.665
 3582SOL    HW211646   3.351   4.954   5.810
 3583SOL     OW11647   0.686   4.565   0.599
 3583SOL    HW111648   0.719   4.471   0.610
 3583SOL    HW211649   0.747   4.615   0.537
 3584SOL     OW11650   5.933   5.064   5.463
 3584SOL    HW111651   5.942   5.147   5.518
 3584SOL    HW211652   6.000   4.997   5.494
 3585SOL     OW11653   3.265   1.848   4.895
 3585SOL    HW111654   3.169   1.833   4.922
 3585SOL    HW211655   3.308   1.909   4.961
 3586SOL     OW11656   6.157   2.837   4.107
 3586SOL    HW111657   6.202   2.748   4.117
 3586SOL    HW211658   6.065   2.833   4.146
 3587SOL     OW11659   3.325   6.005   6.828
 3587SOL    HW111660   3.311   6.083   6.889
 3587SOL    HW211661   3.389   6.031   6.755
 3588SOL     OW11662   6.670   4.494   4.076
 3588SOL    HW111663   6.593   4.457   4.024
 3588SOL    HW211664   6.734   4.539   4.014
 3589SOL     OW11665   6.899   0.015   6.103
 3589SOL    HW111666   6.833   0.073   6.055
 3589SOL    HW211667   6.992   0.041   6.077
 3590SOL     OW11668   0.079   4.021   0.585
 3590SOL    HW111669   0.168   3.979   0.600
 3590SOL    HW211670   0.087   4.092   0.514
 3591SOL     OW11671   5.566   2.924   0.245
 3591SOL    HW111672   5.643   2.869   0.277
 3591SOL    HW211673   5.527   2.883   0.162
 3592SOL     OW11674   0.678   0.446   2.453
 3592SOL    HW111675   0.744   0.521   2.453
 3592SOL    HW211676   0.722   0.362   2.419
 3593SOL     OW11677   0.062   4.717   5.901
 3593SOL    HW111678   0.158   4.701   5.880
 3593SOL    HW211679   0.039   4.812   5.879
 3594SOL     OW11680   4.438   6.213   5.277
 3594SOL    HW111681   4.469   6.303   5.307
 3594SOL    HW211682   4.338   6.214   5.266
 3595SOL     OW11683   6.268   6.114   0.070
 3595SOL    HW111684   6.217   6.201   0.071
 3595SOL    HW211685   6.285   6.087   7.001
 3596SOL     OW11686   4.512   1.804   2.885
 3596SOL    HW111687   4.479   1.713   2.858
 3596SOL    HW211688   4.593   1.794   2.943
 3597SOL     OW11689   1.849   3.259   5.848
 3597SOL    HW111690   1.915   3.287   5.778
 3597SOL    HW211691   1.794   3.183   5.812
 3598SOL     OW11692   1.618   6.649   5.775
 3598SOL    HW111693   1.574   6.677   5.860
 3598SOL    HW211694   1.605   6.550   5.763
 3599SOL     OW11695   4.717   1.673   5.887
 3599SOL    HW111696   4.786   1.631   5.945
 3599SOL    HW211697   4.659   1.734   5.943
 3600SOL     OW11698   1.989   3.172   0.965
 3600SOL    HW111699   2.040   3.162   1.050
 3600SOL    HW211700   2.052   3.170   0.888
 3601SOL     OW11701   5.405   1.726   5.531
 3601SOL    HW111702   5.458   1.754   5.611
 3601SOL    HW211703   5.316   1.771   5.533
 3602SOL     OW11704   2.326   2.553   1.379
 3602SOL    HW111705   2.236   2.515   1.356
 3602SOL    HW211706   2.361   2.605   1.301
 3603SOL     OW11707   3.588   0.983   6.355
 3603SOL    HW111708   3.671   0.972   6.410
 3603SOL    HW211709   3.594   1.067   6.301
 3604SOL     OW11710   6.683   0.634   3.405
 3604SOL    HW111711   6.693   0.642   3.504
 3604SOL    HW211712   6.691   0.539   3.378
 3605SOL     OW11713   1.653   5.230   3.967
 3605SOL    HW111714   1.616   5.203   4.056
 3605SOL    HW211715   1.740   5.183   3.951
 3606SOL     OW11716   1.588   6.292   1.400
 3606SOL    HW111717   1.543   6.328   1.318
 3606SOL    HW211718   1.665   6.350   1.424
 3607SOL     OW11719   5.485   2.647   2.700
 3607SOL    HW111720   5.473   2.560   2.653
 3607SOL    HW211721   5.435   2.645   2.787
 3608SOL     OW11722   4.990   1.974   4.108
 3608SOL    HW111723   4.996   2.069   4.076
 3608SOL    HW211724   4.903   1.961   4.156
 3609SOL     OW11725   2.111   6.222   4.392
 3609SOL    HW111726   2.191   6.281   4.380
 3609SOL    HW211727   2.105   6.195   4.488
 3610SOL     OW11728   1.902   0.305   5.478
 3610SOL    HW111729   1.820   0.318   5.422
 3610SOL    HW211730   1.912   0.381   5.541
 3611SOL     OW11731   4.806   4.443   4.537
 3611SOL    HW111732   4.872   4.515   4.516
 3611SOL    HW211733   4.771   4.405   4.452
 3612SOL     OW11734   6.443   1.430   6.547
 3612SOL    HW111735   6.418   1.386   6.461
 3612SOL    HW211736   6.509   1.373   6.596
 3613SOL     OW11737   4.624   5.112   1.728
 3613SOL    HW111738   4.649   5.098   1.632
 3613SOL    HW211739   4.537   5.066   1.747
 3614SOL     OW11740   3.371   3.802   6.758
 3614SOL    HW111741   3.356   3.732   6.688
 3614SOL    HW211742   3.294   3.866   6.759
 3615SOL     OW11743   5.826   3.221   5.582
 3615SOL    HW111744   5.758   3.210   5.653
 3615SOL    HW211745   5.875   3.135   5.568
 3616SOL     OW11746   1.916   2.401   6.202
 3616SOL    HW111747   1.895   2.320   6.257
 3616SOL    HW211748   2.002   2.387   6.153
 3617SOL     OW11749   4.324   6.374   5.663
 3617SOL    HW111750   4.235   6.344   5.697
 3617SOL    HW211751   4.380   6.407   5.740
 3618SOL     OW11752   2.199   3.535   5.121
 3618SOL    HW111753   2.148   3.616   5.152
 3618SOL    HW211754   2.286   3.529   5.170
 3619SOL     OW11755   5.632   3.368   0.529
 3619SOL    HW111756   5.584   3.282   0.551
 3619SOL    HW211757   5.622   3.431   0.606
 3620SOL     OW11758   6.320   6.021   4.574
 3620SOL    HW111759   6.257   6.054   4.504
 3620SOL    HW211760   6.303   5.924   4.592
 3621SOL     OW11761   3.522   3.196   4.069
 3621SOL    HW111762   3.433   3.151   4.075
 3621SOL    HW211763   3.593   3.136   4.107
 3622SOL     OW11764   0.882   0.678   1.411
 3622SOL    HW111765   0.951   0.748   1.428
 3622SOL    HW211766   0.810   0.684   1.480
 3623SOL     OW11767   0.492   5.621   6.263
 3623SOL    HW111768   0.487   5.689   6.191
 3623SOL    HW211769   0.582   5.577   6.262
 3624SOL     OW11770   2.013   0.333   1.402
 3624SOL    HW111771   2.075   0.285   1.340
 3624SOL    HW211772   2.032   0.431   1.398
 3625SOL     OW11773   6.745   3.217   6.850
 3625SOL    HW111774   6.759   3.266   6.764
 3625SOL    HW211775   6.817   3.148   6.861
 3626SOL     OW11776   0.151   3.947   4.309
 3626SOL    HW111777   0.115   3.854   4.320
 3626SOL    HW211778   0.228   3.960   4.373
 3627SOL     OW11779   4.553   3.004   1.363
 3627SOL    HW111780   4.508   2.919   1.392
 3627SOL    HW211781   4.557   3.008   1.263
 3628SOL     OW11782   1.202   1.956   2.035
 3628SOL    HW111783   1.266   2.023   1.997
 3628SOL    HW211784   1.130   1.938   1.968
 3629SOL     OW11785   1.335   0.709   3.422
 3629SOL    HW111786   1.358   0.653   3.501
 3629SOL    HW211787   1.241   0.742   3.430
 3630SOL     OW11788   6.772   2.566   2.874
 3630SOL    HW111789   6.703   2.584   2.944
 3630SOL    HW211790   6.731   2.576   2.783
 3631SOL     OW11791   1.887   0.103   3.365
 3631SOL    HW111792   1.944   0.068   3.439
 3631SOL    HW211793   1.794   0.067   3.375
 3632SOL     OW11794   4.211   3.615   0.746
 3632SOL    HW111795   4.288   3.601   0.809
 3632SOL    HW211796   4.136   3.556   0.772
 3633SOL     OW11797   3.263   2.662   5.715
 3633SOL    HW111798   3.169   2.692   5.702
 3633SOL    HW211799   3.284   2.588   5.650
 3634SOL     OW11800   2.624   6.077   5.800
 3634SOL    HW111801   2.630   6.176   5.794
 3634SOL    HW211802   2.712   6.040   5.831
 3635SOL     OW11803   2.737   1.353   1.655
 3635SOL    HW111804   2.745   1.333   1.752
 3635SOL    HW211805   2.746   1.268   1.602
 3636SOL     OW11806   6.712   5.296   0.521
 3636SOL    HW111807   6.731   5.319   0.617
 3636SOL    HW211808   6.796   5.304   0.467
 3637SOL     OW11809   0.744   3.319   6.569
 3637SOL    HW111810   0.734   3.225   6.603
 3637SOL    HW211811   0.776   3.378   6.643
 3638SOL     OW11812   6.487   3.790   2.852
 3638SOL    HW111813   6.499   3.843   2.936
 3638SOL    HW211814   6.484   3.852   2.774
 3639SOL     OW11815   3.954   4.029   4.882
 3639SOL    HW111816   3.978   4.054   4.976
 3639SOL    HW211817   4.038   4.021   4.828
 3640SOL     OW11818   5.385   3.116   0.180
 3640SOL    HW111819   5.322   3.113   0.259
 3640SOL    HW211820   5.451   3.042   0.187
 3641SOL     OW11821   6.289   3.994   1.043
 3641SOL    HW111822   6.305   3.923   0.974
 3641SOL    HW211823   6.373   4.011   1.094
 3642SOL     OW11824   5.796   2.206   6.297
 3642SOL    HW111825   5.821   2.168   6.387
 3642SOL    HW211826   5.774   2.303   6.307
 3643SOL     OW11827   4.574   6.141   6.268
 3643SOL    HW111828   4.572   6.209   6.342
 3643SOL    HW211829   4.549   6.052   6.305
 3644SOL     OW11830   2.508   0.700   1.768
 3644SOL    HW111831   2.412   0.678   1.787
 3644SOL    HW211832   2.521   0.711   1.670
 3645SOL     OW11833   1.489   3.906   4.240
 3645SOL    HW111834   1.549   3.878   4.315
 3645SOL    HW211835   1.503   4.003   4.220
 3646SOL     OW11836   2.967   4.829   4.848
 3646SOL    HW111837   3.042   4.868   4.901
 3646SOL    HW211838   2.930   4.749   4.895
 3647SOL     OW11839   1.945   6.704   0.382
 3647SOL    HW111840   1.986   6.613   0.375
 3647SOL    HW211841   1.981   6.763   0.309
 3648SOL     OW11842   5.056   5.832   3.407
 3648SOL    HW111843   5.058   5.740   3.445
 3648SOL    HW211844   5.074   5.898   3.480
 3649SOL     OW11845   5.896   3.327   6.660
 3649SOL    HW111846   5.960   3.403   6.661
 3649SOL    HW211847   5.808   3.356   6.698
 3650SOL     OW11848   4.640   4.405   1.210
 3650SOL    HW111849   4.633   4.429   1.113
 3650SOL    HW211850   4.729   4.364   1.228
 3651SOL     OW11851   1.730   2.479   5.517
 3651SOL    HW111852   1.812   2.533   5.500
 3651SOL    HW211853   1.651   2.523   5.475
 3652SOL     OW11854   5.290   0.672   2.500
 3652SOL    HW111855   5.275   0.614   2.420
 3652SOL    HW211856   5.202   0.709   2.531
 3653SOL     OW11857   1.361   1.367   2.292
 3653SOL    HW111858   1.336   1.270   2.280
 3653SOL    HW211859   1.446   1.385   2.244
 3654SOL     OW11860   5.278   6.113   0.919
 3654SOL    HW111861   5.334   6.089   0.998
 3654SOL    HW211862   5.209   6.180   0.946
 3655SOL     OW11863   3.013   0.945   4.358
 3655SOL    HW111864   2.947   0.878   4.326
 3655SOL    HW211865   3.102   0.928   4.315
 3656SOL     OW11866   0.897   5.678   2.120
 3656SOL    HW111867   0.964   5.726   2.175
 3656SOL    HW211868   0.877   5.589   2.161
 3657SOL     OW11869   5.268   6.313   5.745
 3657SOL    HW111870   5.274   6.411   5.763
 3657SOL    HW211871   5.320   6.290   5.662
 3658SOL     OW11872   1.356   5.646   6.700
 3658SOL    HW111873   1.413   5.637   6.782
 3658SOL    HW211874   1.340   5.555   6.662
 3659SOL     OW11875   0.115   1.885   6.420
 3659SOL    HW111876   0.189   1.832   6.462
 3659SOL    HW211877   0.031   1.831   6.421
 3660SOL     OW11878   5.208   5.831   5.677
 3660SOL    HW111879   5.149   5.912   5.683
 3660SOL    HW211880   5.211   5.799   5.582
 3661SOL     OW11881   0.017   1.395   4.803
 3661SOL    HW111882   6.962   1.387   4.745
 3661SOL    HW211883   0.076   1.467   4.767
 3662SOL     OW11884   3.530   0.684   5.798
 3662SOL    HW111885   3.457   0.735   5.843
 3662SOL    HW211886   3.511   0.586   5.805
 3663SOL     OW11887   2.518   3.317   0.367
 3663SOL    HW111888   2.456   3.296   0.443
 3663SOL    HW211889   2.468   3.308   0.281
 3664SOL     OW11890   4.477   1.368   1.952
 3664SOL    HW111891   4.453   1.458   1.916
 3664SOL    HW211892   4.574   1.351   1.936
 3665SOL     OW11893   0.739   6.765   5.415
 3665SOL    HW111894   0.779   6.831   5.479
 3665SOL    HW211895   0.641   6.784   5.407
 3666SOL     OW11896   1.624   2.696   3.978
 3666SOL    HW111897   1.645   2.599   3.990
 3666SOL    HW211898   1.709   2.748   3.966
 3667SOL     OW11899   1.424   1.520   2.609
 3667SOL    HW111900   1.365   1.555   2.682
 3667SOL    HW211901   1.462   1.597   2.558
 3668SOL     OW11902   1.093   0.110   1.650
 3668SOL    HW111903   1.028   0.177   1.613
 3668SOL    HW211904   1.146   0.070   1.575
 3669SOL     OW11905   6.166   2.538   4.116
 3669SOL    HW111906   6.264   2.516   4.115
 3669SOL    HW211907   6.135   2.547   4.210
 3670SOL     OW11908   3.481   5.120   1.245
 3670SOL    HW111909   3.477   5.117   1.345
 3670SOL    HW211910   3.462   5.213   1.214
 3671SOL     OW11911   6.760   0.380   3.381
 3671SOL    HW111912   6.852   0.370   3.343
 3671SOL    HW211913   6.762   0.357   3.479
 3672SOL     OW11914   5.078   0.890   2.656
 3672SOL    HW111915   5.048   0.898   2.750
 3672SOL    HW211916   4.999   0.883   2.595
 3673SOL     OW11917   4.757   5.660   0.626
 3673SOL    HW111918   4.794   5.639   0.536
 3673SOL    HW211919   4.671   5.611   0.639
 3674SOL     OW11920   1.740   5.840   5.825
 3674SOL    HW111921   1.736   5.740   5.829
 3674SOL    HW211922   1.803   5.873   5.895
 3675SOL     OW11923   0.155   1.893   3.694
 3675SOL    HW111924   0.135   1.796   3.687
 3675SOL    HW211925   0.075   1.942   3.729
 3676SOL     OW11926   5.034   2.778   2.843
 3676SOL    HW111927   5.120   2.830   2.844
 3676SOL    HW211928   5.052   2.685   2.811
 3677SOL     OW11929   2.390   0.839   4.236
 3677SOL    HW111930   2.328   0.917   4.246
 3677SOL    HW211931   2.483   0.868   4.256
 3678SOL     OW11932   1.608   0.631   3.872
 3678SOL    HW111933   1.655   0.584   3.797
 3678SOL    HW211934   1.610   0.573   3.953
 3679SOL     OW11935   4.835   0.290   2.720
 3679SOL    HW111936   4.746   0.333   2.734
 3679SOL    HW211937   4.888   0.296   2.804
 3680SOL     OW11938   4.854   1.729   3.508
 3680SOL    HW111939   4.799   1.804   3.471
 3680SOL    HW211940   4.944   1.764   3.533
 3681SOL     OW11941   1.456   0.661   4.917
 3681SOL    HW111942   1.520   0.669   4.841
 3681SOL    HW211943   1.402   0.577   4.907
 3682SOL     OW11944   5.397   2.432   0.926
 3682SOL    HW111945   5.356   2.456   1.014
 3682SOL    HW211946   5.496   2.431   0.934
 3683SOL     OW11947   0.219   0.839   4.759
 3683SOL    HW111948   0.277   0.797   4.828
 3683SOL    HW211949   0.216   0.938   4.773
 3684SOL     OW11950   1.824   6.725   5.557
 3684SOL    HW111951   1.901   6.713   5.495
 3684SOL    HW211952   1.848   6.790   5.629
 3685SOL     OW11953   2.323   6.083   5.484
 3685SOL    HW111954   2.257   6.122   5.420
 3685SOL    HW211955   2.377   6.013   5.438
 3686SOL     OW11956   6.509   3.693   3.221
 3686SOL    HW111957   6.438   3.658   3.282
 3686SOL    HW211958   6.475   3.774   3.173
 3687SOL     OW11959   4.738   5.997   3.652
 3687SOL    HW111960   4.661   6.058   3.670
 3687SOL    HW211961   4.722   5.909   3.698
 3688SOL     OW11962   5.894   3.080   0.072
 3688SOL    HW111963   5.818   3.079   0.007
 3688SOL    HW211964   5.861   3.110   0.162
 3689SOL     OW11965   1.891   1.601   5.268
 3689SOL    HW111966   1.958   1.552   5.212
 3689SOL    HW211967   1.800   1.561   5.253
 3690SOL     OW11968   5.217   5.214   1.226
 3690SOL    HW111969   5.210   5.311   1.251
 3690SOL    HW211970   5.286   5.170   1.283
 3691SOL     OW11971   3.041   1.840   6.616
 3691SOL    HW111972   3.102   1.781   6.563
 3691SOL    HW211973   2.950   1.841   6.575
 3692SOL     OW11974   0.168   3.880   6.200
 3692SOL    HW111975   0.244   3.830   6.241
 3692SOL    HW211976   0.202   3.939   6.127
 3693SOL     OW11977   0.793   1.865   2.911
 3693SOL    HW111978   0.825   1.805   2.984
 3693SOL    HW211979   0.867   1.929   2.885
 3694SOL     OW11980   0.773   0.905   2.104
 3694SOL    HW111981   0.694   0.911   2.165
 3694SOL    HW211982   0.816   0.995   2.096
 3695SOL     OW11983   6.619   2.512   2.657
 3695SOL    HW111984   6.575   2.582   2.601
 3695SOL    HW211985   6.625   2.427   2.606
 3696SOL     OW11986   4.830   0.888   4.855
 3696SOL    HW111987   4.862   0.795   4.837
 3696SOL    HW211988   4.894   0.954   4.815
 3697SOL     OW11989   6.487   6.163   3.410
 3697SOL    HW111990   6.489   6.066   3.433
 3697SOL    HW211991   6.402   6.184   3.363
 3698SOL     OW11992   1.891   0.409   3.398
 3698SOL    HW111993   1.911   0.483   3.335
 3698SOL    HW211994   1.888   0.322   3.348
 3699SOL     OW11995   2.696   2.078   4.240
 3699SOL    HW111996   2.618   2.036   4.287
 3699SOL    HW211997   2.781   2.035   4.271
 3700SOL     OW11998   1.686   5.135   4.786
 3700SOL    HW111999   1.754   5.067   4.813
 3700SOL    HW212000   1.638   5.169   4.867
 3701SOL     OW12001   0.838   6.674   3.079
 3701SOL    HW112002   0.924   6.631   3.108
 3701SOL    HW212003   0.787   6.611   3.021
 3702SOL     OW12004   5.217   5.078   3.771
 3702SOL    HW112005   5.233   5.018   3.693
 3702SOL    HW212006   5.301   5.084   3.825
 3703SOL     OW12007   1.464   1.567   5.684
 3703SOL    HW112008   1.495   1.532   5.772
 3703SOL    HW212009   1.541   1.568   5.620
 3704SOL     OW12010   5.995   2.420   1.095
 3704SOL    HW112011   6.021   2.381   1.006
 3704SOL    HW212012   6.022   2.516   1.099
 3705SOL     OW12013   4.649   4.966   4.005
 3705SOL    HW112014   4.698   4.903   3.944
 3705SOL    HW212015   4.586   5.022   3.951
 3706SOL     OW12016   1.059   3.881   0.599
 3706SOL    HW112017   1.022   3.862   0.690
 3706SOL    HW212018   1.011   3.826   0.531
 3707SOL     OW12019   2.841   5.011   4.013
 3707SOL    HW112020   2.866   4.924   4.055
 3707SOL    HW212021   2.764   4.997   3.951
 3708SOL     OW12022   3.719   6.995   1.341
 3708SOL    HW112023   3.688   6.904   1.314
 3708SOL    HW212024   3.654   0.038   1.307
 3709SOL     OW12025   1.810   0.305   2.467
 3709SOL    HW112026   1.736   0.290   2.533
 3709SOL    HW212027   1.785   0.266   2.379
 3710SOL     OW12028   0.615   5.044   5.501
 3710SOL    HW112029   0.521   5.074   5.484
 3710SOL    HW212030   0.676   5.092   5.438
 3711SOL     OW12031   1.700   6.173   5.076
 3711SOL    HW112032   1.787   6.195   5.119
 3711SOL    HW212033   1.711   6.167   4.977
 3712SOL     OW12034   2.073   5.675   5.538
 3712SOL    HW112035   2.002   5.729   5.584
 3712SOL    HW212036   2.118   5.730   5.469
 3713SOL     OW12037   6.921   6.796   4.891
 3713SOL    HW112038   6.953   6.889   4.871
 3713SOL    HW212039   6.826   6.786   4.860
 3714SOL     OW12040   1.235   4.698   0.439
 3714SOL    HW112041   1.232   4.649   0.526
 3714SOL    HW212042   1.201   4.791   0.452
 3715SOL     OW12043   0.016   5.930   3.393
 3715SOL    HW112044   0.097   5.872   3.382
 3715SOL    HW212045   0.041   6.013   3.443
 3716SOL     OW12046   5.955   5.653   4.153
 3716SOL    HW112047   6.001   5.741   4.145
 3716SOL    HW212048   5.991   5.590   4.084
 3717SOL     OW12049   4.735   1.517   1.161
 3717SOL    HW112050   4.709   1.422   1.178
 3717SOL    HW212051   4.663   1.578   1.195
 3718SOL     OW12052   6.974   6.643   6.330
 3718SOL    HW112053   6.935   6.721   6.378
 3718SOL    HW212054   7.004   6.574   6.397
 3719SOL     OW12055   4.388   3.732   6.496
 3719SOL    HW112056   4.474   3.699   6.536
 3719SOL    HW212057   4.406   3.809   6.435
 3720SOL     OW12058   6.360   3.402   1.141
 3720SOL    HW112059   6.401   3.493   1.135
 3720SOL    HW212060   6.430   3.335   1.167
 3721SOL     OW12061   6.408   4.866   6.800
 3721SOL    HW112062   6.380   4.800   6.870
 3721SOL    HW212063   6.458   4.819   6.728
 3722SOL     OW12064   3.966   0.199   2.267
 3722SOL    HW112065   3.950   0.147   2.183
 3722SOL    HW212066   3.910   0.281   2.267
 3723SOL     OW12067   4.504   5.275   0.270
 3723SOL    HW112068   4.587   5.240   0.226
 3723SOL    HW212069   4.530   5.338   0.343
 3724SOL     OW12070   1.308   4.871   5.078
 3724SOL    HW112071   1.247   4.793   5.094
 3724SOL    HW212072   1.403   4.841   5.079
 3725SOL     OW12073   0.041   6.397   0.151
 3725SOL    HW112074   6.990   6.461   0.149
 3725SOL    HW212075   0.050   6.359   0.243
 3726SOL     OW12076   5.288   4.007   3.717
 3726SOL    HW112077   5.220   3.973   3.782
 3726SOL    HW212078   5.305   3.938   3.647
 3727SOL     OW12079   0.118   2.477   4.256
 3727SOL    HW112080   0.132   2.454   4.352
 3727SOL    HW212081   0.029   2.442   4.226
 3728SOL     OW12082   3.267   3.872   0.254
 3728SOL    HW112083   3.307   3.870   0.162
 3728SOL    HW212084   3.299   3.953   0.303
 3729SOL     OW12085   0.538   0.126   5.560
 3729SOL    HW112086   0.493   0.199   5.508
 3729SOL    HW212087   0.624   0.160   5.598
 3730SOL     OW12088   4.658   6.267   6.035
 3730SOL    HW112089   4.615   6.210   6.106
 3730SOL    HW212090   4.681   6.356   6.074
 3731SOL     OW12091   0.317   1.755   6.555
 3731SOL    HW112092   0.330   1.661   6.587
 3731SOL    HW212093   0.364   1.818   6.617
 3732SOL     OW12094   2.729   1.830   0.319
 3732SOL    HW112095   2.768   1.738   0.315
 3732SOL    HW212096   2.802   1.898   0.319
 3733SOL     OW12097   1.922   2.966   3.647
 3733SOL    HW112098   1.859   2.965   3.569
 3733SOL    HW212099   2.008   2.921   3.621
 3734SOL     OW12100   4.197   0.104   1.841
 3734SOL    HW112101   4.199   0.106   1.741
 3734SOL    HW212102   4.200   0.009   1.873
 3735SOL     OW12103   4.319   6.906   2.367
 3735SOL    HW112104   4.238   6.960   2.391
 3735SOL    HW212105   4.385   6.910   2.441
 3736SOL     OW12106   6.758   1.198   1.326
 3736SOL    HW112107   6.803   1.109   1.339
 3736SOL    HW212108   6.663   1.193   1.357
 3737SOL     OW12109   6.910   2.166   3.483
 3737SOL    HW112110   6.812   2.173   3.464
 3737SOL    HW212111   6.962   2.206   3.407
 3738SOL     OW12112   6.703   6.288   0.652
 3738SOL    HW112113   6.677   6.308   0.557
 3738SOL    HW212114   6.621   6.280   0.708
 3739SOL     OW12115   3.146   4.908   1.782
 3739SOL    HW112116   3.170   4.964   1.703
 3739SOL    HW212117   3.066   4.947   1.828
 3740SOL     OW12118   5.841   5.545   6.380
 3740SOL    HW112119   5.757   5.504   6.414
 3740SOL    HW212120   5.818   5.617   6.314
 3741SOL     OW12121   5.238   2.725   0.450
 3741SOL    HW112122   5.215   2.785   0.526
 3741SOL    HW212123   5.337   2.718   0.442
 3742SOL     OW12124   4.493   5.477   0.469
 3742SOL    HW112125   4.490   5.570   0.431
 3742SOL    HW212126   4.448   5.475   0.558
 3743SOL     OW12127   3.806   3.736   1.090
 3743SOL    HW112128   3.830   3.640   1.103
 3743SOL    HW212129   3.707   3.745   1.082
 3744SOL     OW12130   0.897   6.178   1.801
 3744SOL    HW112131   0.889   6.272   1.836
 3744SOL    HW212132   0.947   6.123   1.867
 3745SOL     OW12133   4.894   3.655   2.300
 3745SOL    HW112134   4.901   3.555   2.300
 3745SOL    HW212135   4.873   3.686   2.207
 3746SOL     OW12136   6.452   0.121   3.498
 3746SOL    HW112137   6.470   0.030   3.535
 3746SOL    HW212138   6.433   0.115   3.400
 3747SOL     OW12139   4.871   6.791   6.285
 3747SOL    HW112140   4.796   6.844   6.324
 3747SOL    HW212141   4.919   6.743   6.359
 3748SOL     OW12142   5.601   1.083   2.583
 3748SOL    HW112143   5.604   1.152   2.656
 3748SOL    HW212144   5.537   1.011   2.609
 3749SOL     OW12145   0.791   4.954   2.682
 3749SOL    HW112146   0.785   5.051   2.709
 3749SOL    HW212147   0.851   4.946   2.603
 3750SOL     OW12148   5.488   3.997   0.174
 3750SOL    HW112149   5.413   3.972   0.235
 3750SOL    HW212150   5.570   3.946   0.200
 3751SOL     OW12151   1.766   2.999   0.801
 3751SOL    HW112152   1.681   3.042   0.833
 3751SOL    HW212153   1.837   3.012   0.870
 3752SOL     OW12154   0.392   6.934   0.038
 3752SOL    HW112155   0.464   6.921   6.995
 3752SOL    HW212156   0.433   6.950   0.127
 3753SOL     OW12157   0.909   6.238   4.055
 3753SOL    HW112158   0.858   6.321   4.032
 3753SOL    HW212159   0.889   6.213   4.150
 3754SOL     OW12160   5.555   6.579   0.933
 3754SOL    HW112161   5.520   6.486   0.919
 3754SOL    HW212162   5.581   6.591   1.029
 3755SOL     OW12163   4.799   4.785   3.855
 3755SOL    HW112164   4.878   4.830   3.895
 3755SOL    HW212165   4.824   4.744   3.768
 3756SOL     OW12166   1.970   1.966   6.004
 3756SOL    HW112167   2.046   1.961   6.068
 3756SOL    HW212168   1.981   2.047   5.946
 3757SOL     OW12169   2.965   5.528   5.681
 3757SOL    HW112170   2.937   5.591   5.609
 3757SOL    HW212171   2.885   5.502   5.736
 3758SOL     OW12172   2.506   0.954   5.209
 3758SOL    HW112173   2.579   0.909   5.260
 3758SOL    HW212174   2.423   0.957   5.266
 3759SOL     OW12175   5.085   5.038   5.750
 3759SOL    HW112176   5.107   4.976   5.674
 3759SOL    HW212177   4.996   5.079   5.734
 3760SOL     OW12178   1.493   3.116   4.246
 3760SOL    HW112179   1.511   3.018   4.234
 3760SOL    HW212180   1.398   3.129   4.273
 3761SOL     OW12181   0.987   6.540   4.848
 3761SOL    HW112182   0.932   6.540   4.764
 3761SOL    HW212183   0.968   6.623   4.900
 3762SOL     OW12184   0.722   4.285   0.679
 3762SOL    HW112185   0.699   4.257   0.586
 3762SOL    HW212186   0.660   4.241   0.743
 3763SOL     OW12187   6.211   3.558   6.283
 3763SOL    HW112188   6.225   3.607   6.369
 3763SOL    HW212189   6.194   3.461   6.303
 3764SOL     OW12190   2.003   0.351   4.395
 3764SOL    HW112191   1.916   0.304   4.379
 3764SOL    HW212192   1.989   0.450   4.387
 3765SOL     OW12193   5.114   1.038   3.597
 3765SOL    HW112194   5.050   0.964   3.620
 3765SOL    HW212195   5.079   1.124   3.632
 3766SOL     OW12196   0.576   1.092   3.855
 3766SOL    HW112197   0.522   1.019   3.897
 3766SOL    HW212198   0.540   1.180   3.883
 3767SOL     OW12199   1.463   5.079   0.045
 3767SOL    HW112200   1.464   4.979   0.052
 3767SOL    HW212201   1.372   5.113   0.073
 3768SOL     OW12202   4.520   6.521   6.684
 3768SOL    HW112203   4.429   6.515   6.725
 3768SOL    HW212204   4.533   6.612   6.646
 3769SOL     OW12205   5.709   5.917   4.810
 3769SOL    HW112206   5.764   5.926   4.893
 3769SOL    HW212207   5.705   5.821   4.782
 3770SOL     OW12208   1.926   1.511   5.940
 3770SOL    HW112209   1.870   1.593   5.943
 3770SOL    HW212210   1.996   1.516   6.012
 3771SOL     OW12211   4.748   2.334   0.670
 3771SOL    HW112212   4.847   2.326   0.681
 3771SOL    HW212213   4.726   2.336   0.573
 3772SOL     OW12214   6.192   0.860   1.390
 3772SOL    HW112215   6.119   0.810   1.436
 3772SOL    HW212216   6.278   0.846   1.438
 3773SOL     OW12217   6.146   3.581   5.643
 3773SOL    HW112218   6.246   3.585   5.643
 3773SOL    HW212219   6.111   3.597   5.735
 3774SOL     OW12220   1.011   6.898   6.742
 3774SOL    HW112221   1.003   6.804   6.775
 3774SOL    HW212222   1.108   6.920   6.729
 3775SOL     OW12223   5.581   3.709   2.846
 3775SOL    HW112224   5.528   3.755   2.917
 3775SOL    HW212225   5.519   3.657   2.787
 3776SOL     OW12226   2.479   2.317   1.108
 3776SOL    HW112227   2.482   2.282   1.202
 3776SOL    HW212228   2.400   2.378   1.098
 3777SOL     OW12229   2.842   5.231   4.600
 3777SOL    HW112230   2.827   5.207   4.504
 3777SOL    HW212231   2.820   5.153   4.658
 3778SOL     OW12232   2.710   6.010   2.983
 3778SOL    HW112233   2.796   5.959   2.989
 3778SOL    HW212234   2.730   6.108   2.976
 3779SOL     OW12235   2.346   4.337   0.235
 3779SOL    HW112236   2.326   4.240   0.222
 3779SOL    HW212237   2.308   4.390   0.159
 3780SOL     OW12238   3.014   5.596   5.110
 3780SOL    HW112239   3.027   5.674   5.171
 3780SOL    HW212240   3.029   5.511   5.161
 3781SOL     OW12241   2.828   6.868   4.232
 3781SOL    HW112242   2.914   6.903   4.194
 3781SOL    HW212243   2.843   6.778   4.271
 3782SOL     OW12244   2.752   1.549   4.380
 3782SOL    HW112245   2.733   1.454   4.356
 3782SOL    HW212246   2.815   1.588   4.312
 3783SOL     OW12247   5.779   6.183   4.658
 3783SOL    HW112248   5.725   6.125   4.597
 3783SOL    HW212249   5.751   6.166   4.753
 3784SOL     OW12250   6.233   1.096   3.560
 3784SOL    HW112251   6.141   1.116   3.594
 3784SOL    HW212252   6.230   1.089   3.460
 3785SOL     OW12253   2.962   1.956   0.335
 3785SOL    HW112254   3.044   1.899   0.333
 3785SOL    HW212255   2.987   2.051   0.352
 3786SOL     OW12256   2.879   4.862   3.653
 3786SOL    HW112257   2.818   4.941   3.654
 3786SOL    HW212258   2.863   4.806   3.734
 3787SOL     OW12259   5.465   1.120   4.282
 3787SOL    HW112260   5.418   1.036   4.254
 3787SOL    HW212261   5.563   1.103   4.288
 3788SOL     OW12262   6.532   2.682   3.859
 3788SOL    HW112263   6.532   2.740   3.940
 3788SOL    HW212264   6.471   2.720   3.790
 3789SOL     OW12265   1.578   4.163   4.246
 3789SOL    HW112266   1.662   4.199   4.287
 3789SOL    HW212267   1.540   4.229   4.182
 3790SOL     OW12268   2.146   3.567   4.837
 3790SOL    HW112269   2.165   3.477   4.797
 3790SOL    HW212270   2.158   3.561   4.937
 3791SOL     OW12271   5.198   6.482   1.157
 3791SOL    HW112272   5.164   6.409   1.098
 3791SOL    HW212273   5.244   6.551   1.101
 3792SOL     OW12274   6.406   0.132   5.203
 3792SOL    HW112275   6.471   0.136   5.280
 3792SOL    HW212276   6.450   0.168   5.121
 3793SOL     OW12277   1.935   1.288   2.358
 3793SOL    HW112278   1.845   1.246   2.371
 3793SOL    HW212279   1.926   1.387   2.365
 3794SOL     OW12280   4.038   5.694   1.770
 3794SOL    HW112281   3.966   5.738   1.716
 3794SOL    HW212282   4.079   5.620   1.716
 3795SOL     OW12283   4.967   0.899   6.904
 3795SOL    HW112284   5.044   0.932   6.850
 3795SOL    HW212285   4.960   0.799   6.894
 3796SOL     OW12286   1.464   2.055   1.156
 3796SOL    HW112287   1.550   2.022   1.195
 3796SOL    HW212288   1.442   2.004   1.073
 3797SOL     OW12289   1.089   5.301   2.126
 3797SOL    HW112290   1.054   5.339   2.040
 3797SOL    HW212291   1.189   5.295   2.120
 3798SOL     OW12292   2.688   4.673   3.259
 3798SOL    HW112293   2.709   4.649   3.164
 3798SOL    HW212294   2.656   4.768   3.263
 3799SOL     OW12295   1.106   1.672   4.711
 3799SOL    HW112296   1.010   1.656   4.688
 3799SOL    HW212297   1.112   1.701   4.807
 3800SOL     OW12298   5.099   2.387   4.869
 3800SOL    HW112299   5.074   2.353   4.778
 3800SOL    HW212300   5.038   2.346   4.938
 3801SOL     OW12301   6.488   6.189   5.359
 3801SOL    HW112302   6.483   6.239   5.446
 3801SOL    HW212303   6.420   6.226   5.296
 3802SOL     OW12304   1.069   1.919   4.963
 3802SOL    HW112305   1.114   1.833   4.985
 3802SOL    HW212306   1.079   1.938   4.865
 3803SOL     OW12307   4.458   0.207   1.933
 3803SOL    HW112308   4.377   0.150   1.919
 3803SOL    HW212309   4.432   0.289   1.984
 3804SOL     OW12310   4.422   1.870   4.631
 3804SOL    HW112311   4.439   1.949   4.689
 3804SOL    HW212312   4.350   1.813   4.672
 3805SOL     OW12313   2.786   4.282   1.663
 3805SOL    HW112314   2.795   4.350   1.735
 3805SOL    HW212315   2.793   4.326   1.574
 3806SOL     OW12316   3.353   2.918   0.087
 3806SOL    HW112317   3.303   2.939   0.171
 3806SOL    HW212318   3.288   2.894   0.015
 3807SOL     OW12319   1.142   6.739   3.904
 3807SOL    HW112320   1.160   6.691   3.990
 3807SOL    HW212321   1.227   6.749   3.853
 3808SOL     OW12322   2.868   0.379   2.362
 3808SOL    HW112323   2.964   0.398   2.381
 3808SOL    HW212324   2.811   0.440   2.417
 3809SOL     OW12325   6.278   1.940   6.915
 3809SOL    HW112326   6.214   2.016   6.911
 3809SOL    HW212327   6.351   1.962   6.980
 3810SOL     OW12328   2.811   2.913   5.802
 3810SOL    HW112329   2.841   2.962   5.884
 3810SOL    HW212330   2.814   2.974   5.723
 3811SOL     OW12331   0.538   3.979   4.343
 3811SOL    HW112332   0.473   3.962   4.417
 3811SOL    HW212333   0.631   3.960   4.375
 3812SOL     OW12334   6.512   2.236   5.822
 3812SOL    HW112335   6.428   2.193   5.789
 3812SOL    HW212336   6.589   2.176   5.804
 3813SOL     OW12337   3.468   5.482   0.853
 3813SOL    HW112338   3.379   5.526   0.835
 3813SOL    HW212339   3.504   5.445   0.768
 3814SOL     OW12340   6.347   6.059   1.140
 3814SOL    HW112341   6.378   6.045   1.234
 3814SOL    HW212342   6.420   6.102   1.087
 3815SOL     OW12343   5.283   2.393   1.407
 3815SOL    HW112344   5.314   2.422   1.497
 3815SOL    HW212345   5.276   2.293   1.405
 3816SOL     OW12346   6.749   6.704   2.008
 3816SOL    HW112347   6.749   6.803   1.994
 3816SOL    HW212348   6.739   6.684   2.105
 3817SOL     OW12349   4.406   2.372   4.056
 3817SOL    HW112350   4.447   2.436   4.121
 3817SOL    HW212351   4.447   2.387   3.965
 3818SOL     OW12352   4.236   6.078   2.792
 3818SOL    HW112353   4.295   6.017   2.740
 3818SOL    HW212354   4.292   6.142   2.845
 3819SOL     OW12355   5.584   5.273   0.347
 3819SOL    HW112356   5.661   5.221   0.310
 3819SOL    HW212357   5.575   5.253   0.445
 3820SOL     OW12358   4.967   5.643   4.359
 3820SOL    HW112359   4.942   5.698   4.279
 3820SOL    HW212360   4.970   5.546   4.333
 3821SOL     OW12361   1.911   3.691   2.234
 3821SOL    HW112362   1.942   3.785   2.247
 3821SOL    HW212363   1.988   3.628   2.250
 3822SOL     OW12364   2.266   5.085   1.625
 3822SOL    HW112365   2.289   5.165   1.681
 3822SOL    HW212366   2.302   5.002   1.668
 3823SOL     OW12367   4.026   2.252   5.809
 3823SOL    HW112368   4.066   2.273   5.720
 3823SOL    HW212369   3.935   2.293   5.815
 3824SOL     OW12370   6.226   2.182   6.068
 3824SOL    HW112371   6.127   2.194   6.068
 3824SOL    HW212372   6.270   2.272   6.071
 3825SOL     OW12373   6.954   0.188   6.945
 3825SOL    HW112374   6.863   0.170   6.907
 3825SOL    HW212375   6.996   0.264   6.896
 3826SOL     OW12376   0.182   3.237   0.620
 3826SOL    HW112377   0.149   3.329   0.643
 3826SOL    HW212378   0.114   3.170   0.648
 3827SOL     OW12379   3.514   3.846   0.444
 3827SOL    HW112380   3.484   3.800   0.360
 3827SOL    HW212381   3.443   3.910   0.474
 3828SOL     OW12382   4.661   2.368   1.761
 3828SOL    HW112383   4.731   2.297   1.774
 3828SOL    HW212384   4.646   2.382   1.663
 3829SOL     OW12385   2.081   5.333   3.455
 3829SOL    HW112386   2.023   5.356   3.376
 3829SOL    HW212387   2.174   5.316   3.423
 3830SOL     OW12388   2.161   7.025   5.480
 3830SOL    HW112389   2.120   0.059   5.411
 3830SOL    HW212390   2.253   0.031   5.502
 3831SOL     OW12391   4.160   1.988   2.359
 3831SOL    HW112392   4.066   1.957   2.343
 3831SOL    HW212393   4.224   1.929   2.310
 3832SOL     OW12394   6.410   0.819   1.563
 3832SOL    HW112395   6.450   0.752   1.500
 3832SOL    HW212396   6.475   0.893   1.579
 3833SOL     OW12397   0.497   4.910   0.904
 3833SOL    HW112398   0.426   4.901   0.974
 3833SOL    HW212399   0.519   4.820   0.867
 3834SOL     OW12400   3.249   1.778   0.589
 3834SOL    HW112401   3.232   1.860   0.534
 3834SOL    HW212402   3.179   1.710   0.570
 3835SOL     OW12403   3.901   5.477   6.093
 3835SOL    HW112404   3.984   5.421   6.090
 3835SOL    HW212405   3.925   5.574   6.092
 3836SOL     OW12406   1.397   4.331   5.974
 3836SOL    HW112407   1.354   4.331   5.884
 3836SOL    HW212408   1.326   4.327   6.045
 3837SOL     OW12409   4.610   3.855   0.182
 3837SOL    HW112410   4.571   3.766   0.158
 3837SOL    HW212411   4.562   3.891   0.263
 3838SOL     OW12412   5.622   2.299   4.377
 3838SOL    HW112413   5.676   2.234   4.430
 3838SOL    HW212414   5.532   2.309   4.418
 3839SOL     OW12415   5.863   6.615   5.299
 3839SOL    HW112416   5.950   6.663   5.306
 3839SOL    HW212417   5.790   6.672   5.337
 3840SOL     OW12418   1.820   1.080   4.061
 3840SOL    HW112419   1.796   0.986   4.039
 3840SOL    HW212420   1.825   1.134   3.977
 3841SOL     OW12421   1.083   3.511   5.516
 3841SOL    HW112422   1.155   3.501   5.447
 3841SOL    HW212423   1.107   3.586   5.578
 3842SOL     OW12424   0.803   5.361   0.267
 3842SOL    HW112425   0.713   5.326   0.240
 3842SOL    HW212426   0.793   5.455   0.300
 3843SOL     OW12427   6.246   3.272   0.584
 3843SOL    HW112428   6.244   3.291   0.682
 3843SOL    HW212429   6.161   3.305   0.542
 3844SOL     OW12430   1.880   5.032   5.858
 3844SOL    HW112431   1.816   5.077   5.796
 3844SOL    HW212432   1.940   5.101   5.900
 3845SOL     OW12433   3.295   3.219   3.086
 3845SOL    HW112434   3.211   3.240   3.035
 3845SOL    HW212435   3.373   3.226   3.024
 3846SOL     OW12436   0.235   4.258   4.514
 3846SOL    HW112437   0.203   4.281   4.422
 3846SOL    HW212438   0.277   4.339   4.556
 3847SOL     OW12439   6.706   0.376   6.333
 3847SOL    HW112440   6.648   0.318   6.276
 3847SOL    HW212441   6.794   0.392   6.287
 3848SOL     OW12442   2.912   5.077   1.760
 3848SOL    HW112443   2.951   5.135   1.831
 3848SOL    HW212444   2.849   5.010   1.802
 3849SOL     OW12445   0.764   2.014   5.712
 3849SOL    HW112446   0.778   2.096   5.657
 3849SOL    HW212447   0.829   2.013   5.788
 3850SOL     OW12448   3.358   3.996   1.842
 3850SOL    HW112449   3.445   3.990   1.890
 3850SOL    HW212450   3.284   4.009   1.908
 3851SOL     OW12451   2.010   3.464   3.376
 3851SOL    HW112452   1.939   3.440   3.442
 3851SOL    HW212453   2.047   3.554   3.398
 3852SOL     OW12454   4.449   0.609   5.097
 3852SOL    HW112455   4.456   0.513   5.070
 3852SOL    HW212456   4.356   0.627   5.131
 3853SOL     OW12457   0.926   3.501   2.129
 3853SOL    HW112458   0.857   3.567   2.158
 3853SOL    HW212459   0.970   3.533   2.045
 3854SOL     OW12460   0.962   3.653   4.328
 3854SOL    HW112461   0.980   3.650   4.427
 3854SOL    HW212462   0.866   3.628   4.311
 3855SOL     OW12463   5.943   4.142   5.763
 3855SOL    HW112464   5.962   4.050   5.726
 3855SOL    HW212465   5.872   4.185   5.708
 3856SOL     OW12466   6.700   6.933   5.805
 3856SOL    HW112467   6.797   6.914   5.822
 3856SOL    HW212468   6.644   6.862   5.847
 3857SOL     OW12469   1.323   6.239   4.883
 3857SOL    HW112470   1.225   6.230   4.897
 3857SOL    HW212471   1.356   6.324   4.924
 3858SOL     OW12472   1.595   5.699   6.194
 3858SOL    HW112473   1.646   5.619   6.161
 3858SOL    HW212474   1.550   5.677   6.280
 3859SOL     OW12475   0.055   3.033   2.982
 3859SOL    HW112476   6.988   2.998   2.988
 3859SOL    HW212477   0.119   2.956   2.973
 3860SOL     OW12478   2.231   6.279   5.957
 3860SOL    HW112479   2.139   6.241   5.971
 3860SOL    HW212480   2.267   6.247   5.870
 3861SOL     OW12481   4.510   4.221   1.379
 3861SOL    HW112482   4.529   4.254   1.471
 3861SOL    HW212483   4.547   4.284   1.312
 3862SOL     OW12484   1.135   6.009   6.182
 3862SOL    HW112485   1.125   6.109   6.178
 3862SOL    HW212486   1.048   5.966   6.157
 3863SOL     OW12487   3.220   3.792   1.451
 3863SOL    HW112488   3.140   3.804   1.392
 3863SOL    HW212489   3.201   3.831   1.541
 3864SOL     OW12490   3.469   1.743   6.690
 3864SOL    HW112491   3.455   1.822   6.630
 3864SOL    HW212492   3.486   1.661   6.634
 3865SOL     OW12493   4.388   0.308   2.356
 3865SOL    HW112494   4.311   0.249   2.380
 3865SOL    HW212495   4.354   0.393   2.315
 3866SOL     OW12496   3.738   0.343   0.954
 3866SOL    HW112497   3.771   0.249   0.958
 3866SOL    HW212498   3.805   0.404   0.998
 3867SOL     OW12499   2.091   3.176   3.294
 3867SOL    HW112500   2.069   3.270   3.318
 3867SOL    HW212501   2.148   3.136   3.366
 3868SOL     OW12502   2.360   6.590   2.539
 3868SOL    HW112503   2.369   6.562   2.444
 3868SOL    HW212504   2.294   6.665   2.546
 3869SOL     OW12505   0.692   2.859   3.327
 3869SOL    HW112506   0.619   2.913   3.285
 3869SOL    HW212507   0.733   2.911   3.402
 3870SOL     OW12508   2.991   5.461   0.550
 3870SOL    HW112509   3.045   5.392   0.597
 3870SOL    HW212510   2.895   5.453   0.577
 3871SOL     OW12511   2.938   0.278   3.461
 3871SOL    HW112512   2.872   0.207   3.485
 3871SOL    HW212513   2.915   0.363   3.509
 3872SOL     OW12514   4.055   3.516   0.957
 3872SOL    HW112515   4.120   3.573   1.006
 3872SOL    HW212516   3.997   3.467   1.022
 3873SOL     OW12517   5.618   4.696   1.519
 3873SOL    HW112518   5.712   4.713   1.550
 3873SOL    HW212519   5.600   4.598   1.518
 3874SOL     OW12520   4.223   0.276   0.448
 3874SOL    HW112521   4.127   0.303   0.443
 3874SOL    HW212522   4.242   0.206   0.378
 3875SOL     OW12523   1.363   4.777   1.410
 3875SOL    HW112524   1.274   4.819   1.431
 3875SOL    HW212525   1.355   4.725   1.325
 3876SOL     OW12526   5.249   3.701   3.866
 3876SOL    HW112527   5.227   3.797   3.886
 3876SOL    HW212528   5.277   3.655   3.950
 3877SOL     OW12529   5.986   1.234   2.122
 3877SOL    HW112530   5.967   1.327   2.090
 3877SOL    HW212531   5.902   1.193   2.158
 3878SOL     OW12532   3.955   6.701   6.043
 3878SOL    HW112533   3.872   6.646   6.053
 3878SOL    HW212534   3.996   6.717   6.132
 3879SOL     OW12535   4.539   5.638   1.813
 3879SOL    HW112536   4.450   5.679   1.792
 3879SOL    HW212537   4.532   5.583   1.896
 3880SOL     OW12538   5.638   3.128   3.198
 3880SOL    HW112539   5.650   3.225   3.178
 3880SOL    HW212540   5.725   3.090   3.231
 3881SOL     OW12541   0.897   4.010   1.050
 3881SOL    HW112542   0.799   4.030   1.058
 3881SOL    HW212543   0.949   4.093   1.069
 3882SOL     OW12544   0.103   0.998   5.468
 3882SOL    HW112545   0.035   0.980   5.539
 3882SOL    HW212546   0.062   1.052   5.395
 3883SOL     OW12547   4.174   0.366   5.387
 3883SOL    HW112548   4.142   0.299   5.321
 3883SOL    HW212549   4.136   0.344   5.478
 3884SOL     OW12550   1.571   5.960   6.075
 3884SOL    HW112551   1.624   5.920   6.000
 3884SOL    HW212552   1.569   5.896   6.152
 3885SOL     OW12553   6.877   0.883   3.836
 3885SOL    HW112554   6.826   0.957   3.879
 3885SOL    HW212555   6.879   0.803   3.897
 3886SOL     OW12556   6.853   6.779   5.175
 3886SOL    HW112557   6.882   6.754   5.082
 3886SOL    HW212558   6.933   6.797   5.232
 3887SOL     OW12559   4.475   2.119   5.698
 3887SOL    HW112560   4.567   2.120   5.659
 3887SOL    HW212561   4.442   2.024   5.703
 3888SOL     OW12562   6.986   2.218   0.801
 3888SOL    HW112563   0.032   2.153   0.826
 3888SOL    HW212564   6.924   2.231   0.878
 3889SOL     OW12565   0.677   6.540   6.486
 3889SOL    HW112566   0.726   6.553   6.572
 3889SOL    HW212567   0.666   6.443   6.468
 3890SOL     OW12568   5.452   4.407   3.116
 3890SOL    HW112569   5.400   4.398   3.031
 3890SOL    HW212570   5.446   4.502   3.149
 3891SOL     OW12571   5.532   5.410   4.779
 3891SOL    HW112572   5.620   5.456   4.794
 3891SOL    HW212573   5.547   5.323   4.733
 3892SOL     OW12574   4.813   0.019   3.136
 3892SOL    HW112575   4.901   0.016   3.183
 3892SOL    HW212576   4.746   0.067   3.193
 3893SOL     OW12577   3.322   6.016   4.231
 3893SOL    HW112578   3.276   6.091   4.280
 3893SOL    HW212579   3.255   5.965   4.178
 3894SOL     OW12580   4.569   3.761   6.912
 3894SOL    HW112581   4.552   3.694   6.984
 3894SOL    HW212582   4.493   3.826   6.908
 3895SOL     OW12583   2.799   1.922   5.637
 3895SOL    HW112584   2.877   1.897   5.579
 3895SOL    HW212585   2.729   1.852   5.630
 3896SOL     OW12586   6.336   2.877   5.333
 3896SOL    HW112587   6.412   2.936   5.308
 3896SOL    HW212588   6.250   2.919   5.305
 3897SOL     OW12589   3.532   0.015   2.065
 3897SOL    HW112590   3.541   0.010   1.965
 3897SOL    HW212591   3.505   6.951   2.100
 3898SOL     OW12592   3.633   4.126   4.335
 3898SOL    HW112593   3.545   4.172   4.346
 3898SOL    HW212594   3.664   4.135   4.241
 3899SOL     OW12595   4.525   1.419   5.499
 3899SOL    HW112596   4.461   1.352   5.537
 3899SOL    HW212597   4.581   1.375   5.429
 3900SOL     OW12598   6.597   2.653   3.293
 3900SOL    HW112599   6.613   2.557   3.318
 3900SOL    HW212600   6.668   2.710   3.332
 3901SOL     OW12601   1.609   6.378   5.738
 3901SOL    HW112602   1.673   6.310   5.704
 3901SOL    HW212603   1.518   6.337   5.745
 3902SOL     OW12604   3.997   4.859   1.432
 3902SOL    HW112605   3.957   4.823   1.348
 3902SOL    HW212606   3.965   4.805   1.510
 3903SOL     OW12607   4.294   2.793   6.692
 3903SOL    HW112608   4.260   2.785   6.785
 3903SOL    HW212609   4.325   2.887   6.676
 3904SOL     OW12610   1.015   6.563   1.183
 3904SOL    HW112611   1.043   6.522   1.270
 3904SOL    HW212612   0.982   6.656   1.199
 3905SOL     OW12613   6.938   0.348   5.066
 3905SOL    HW112614   6.892   0.260   5.078
 3905SOL    HW212615   6.934   0.399   5.152
 3906SOL     OW12616   1.332   5.118   4.092
 3906SOL    HW112617   1.416   5.064   4.103
 3906SOL    HW212618   1.254   5.064   4.122
 3907SOL     OW12619   0.484   0.937   4.093
 3907SOL    HW112620   0.470   1.009   4.160
 3907SOL    HW212621   0.487   0.848   4.139
 3908SOL     OW12622   1.141   0.710   4.936
 3908SOL    HW112623   1.232   0.737   4.905
 3908SOL    HW212624   1.134   0.721   5.035
 3909SOL     OW12625   5.783   2.470   6.353
 3909SOL    HW112626   5.724   2.493   6.430
 3909SOL    HW212627   5.798   2.551   6.297
 3910SOL     OW12628   3.650   1.373   0.226
 3910SOL    HW112629   3.691   1.411   0.309
 3910SOL    HW212630   3.624   1.448   0.165
 3911SOL     OW12631   0.058   1.412   0.851
 3911SOL    HW112632   0.109   1.404   0.766
 3911SOL    HW212633   0.119   1.439   0.925
 3912SOL     OW12634   3.940   1.496   0.438
 3912SOL    HW112635   3.891   1.575   0.475
 3912SOL    HW212636   3.889   1.413   0.459
 3913SOL     OW12637   5.642   5.479   0.882
 3913SOL    HW112638   5.708   5.446   0.815
 3913SOL    HW212639   5.553   5.438   0.863
 3914SOL     OW12640   6.668   1.658   6.986
 3914SOL    HW112641   6.583   1.662   6.934
 3914SOL    HW212642   6.697   1.750   7.009
 3915SOL     OW12643   4.990   5.516   7.001
 3915SOL    HW112644   4.900   5.525   0.019
 3915SOL    HW212645   5.035   5.433   0.009
 3916SOL     OW12646   2.069   1.926   2.073
 3916SOL    HW112647   2.037   1.938   2.167
 3916SOL    HW212648   2.076   2.015   2.029
 3917SOL     OW12649   3.310   5.505   1.486
 3917SOL    HW112650   3.374   5.428   1.482
 3917SOL    HW212651   3.262   5.504   1.574
 3918SOL     OW12652   5.655   1.262   0.603
 3918SOL    HW112653   5.582   1.265   0.534
 3918SOL    HW212654   5.643   1.182   0.661
 3919SOL     OW12655   3.203   0.462   1.984
 3919SOL    HW112656   3.294   0.429   2.011
 3919SOL    HW212657   3.161   0.396   1.922
 3920SOL     OW12658   3.018   1.793   5.499
 3920SOL    HW112659   3.085   1.867   5.501
 3920SOL    HW212660   3.036   1.734   5.420
 3921SOL     OW12661   0.040   2.638   5.983
 3921SOL    HW112662   0.048   2.703   5.907
 3921SOL    HW212663   7.018   2.681   6.059
 3922SOL     OW12664   5.618   4.460   2.703
 3922SOL    HW112665   5.630   4.456   2.604
 3922SOL    HW212666   5.520   4.466   2.724
 3923SOL     OW12667   5.078   1.262   1.824
 3923SOL    HW112668   5.073   1.330   1.897
 3923SOL    HW212669   5.017   1.185   1.846
 3924SOL     OW12670   5.670   4.666   4.205
 3924SOL    HW112671   5.731   4.718   4.145
 3924SOL    HW212672   5.708   4.664   4.297
 3925SOL     OW12673   4.572   3.688   0.637
 3925SOL    HW112674   4.642   3.654   0.699
 3925SOL    HW212675   4.534   3.774   0.672
 3926SOL     OW12676   0.402   6.504   6.409
 3926SOL    HW112677   0.481   6.506   6.470
 3926SOL    HW212678   0.418   6.566   6.332
 3927SOL     OW12679   5.863   2.514   5.665
 3927SOL    HW112680   5.765   2.523   5.686
 3927SOL    HW212681   5.908   2.602   5.679
 3928SOL     OW12682   2.748   6.185   2.328
 3928SOL    HW112683   2.686   6.263   2.337
 3928SOL    HW212684   2.791   6.165   2.416
 3929SOL     OW12685   6.576   1.887   5.041
 3929SOL    HW112686   6.657   1.942   5.063
 3929SOL    HW212687   6.526   1.929   4.966
 3930SOL     OW12688   0.889   4.492   4.100
 3930SOL    HW112689   0.879   4.530   4.008
 3930SOL    HW212690   0.945   4.409   4.095
 3931SOL     OW12691   1.929   2.250   1.403
 3931SOL    HW112692   1.865   2.236   1.328
 3931SOL    HW212693   1.901   2.329   1.457
 3932SOL     OW12694   2.504   5.404   4.004
 3932SOL    HW112695   2.601   5.389   3.982
 3932SOL    HW212696   2.484   5.502   3.998
 3933SOL     OW12697   2.358   5.487   0.965
 3933SOL    HW112698   2.449   5.495   1.005
 3933SOL    HW212699   2.353   5.540   0.881
 3934SOL     OW12700   0.296   1.354   1.239
 3934SOL    HW112701   0.253   1.422   1.298
 3934SOL    HW212702   0.389   1.384   1.215
 3935SOL     OW12703   6.298   3.184   6.086
 3935SOL    HW112704   6.385   3.148   6.051
 3935SOL    HW212705   6.284   3.276   6.049
 3936SOL     OW12706   0.462   4.939   5.742
 3936SOL    HW112707   0.478   5.027   5.697
 3936SOL    HW212708   0.516   4.933   5.826
 3937SOL     OW12709   0.293   6.933   1.771
 3937SOL    HW112710   0.280   7.025   1.735
 3937SOL    HW212711   0.233   6.869   1.723
 3938SOL     OW12712   0.502   3.823   2.874
 3938SOL    HW112713   0.589   3.836   2.922
 3938SOL    HW212714   0.454   3.745   2.914
 3939SOL     OW12715   1.398   0.905   2.084
 3939SOL    HW112716   1.310   0.936   2.048
 3939SOL    HW212717   1.471   0.963   2.050
 3940SOL     OW12718   3.220   5.226   0.893
 3940SOL    HW112719   3.144   5.223   0.828
 3940SOL    HW212720   3.298   5.174   0.857
 3941SOL     OW12721   5.307   6.077   3.425
 3941SOL    HW112722   5.317   6.161   3.372
 3941SOL    HW212723   5.222   6.079   3.476
 3942SOL     OW12724   6.502   5.830   5.421
 3942SOL    HW112725   6.514   5.882   5.337
 3942SOL    HW212726   6.410   5.845   5.458
 3943SOL     OW12727   1.452   2.728   6.972
 3943SOL    HW112728   1.451   2.776   0.034
 3943SOL    HW212729   1.401   2.642   6.981
 3944SOL     OW12730   5.665   2.400   6.841
 3944SOL    HW112731   5.646   2.302   6.837
 3944SOL    HW212732   5.580   2.451   6.855
 3945SOL     OW12733   6.236   0.732   3.417
 3945SOL    HW112734   6.307   0.730   3.347
 3945SOL    HW212735   6.278   0.721   3.507
 3946SOL     OW12736   1.104   2.915   0.256
 3946SOL    HW112737   1.185   2.973   0.267
 3946SOL    HW212738   1.106   2.869   0.167
 3947SOL     OW12739   6.022   4.900   2.515
 3947SOL    HW112740   6.022   4.969   2.442
 3947SOL    HW212741   5.986   4.940   2.599
 3948SOL     OW12742   0.817   2.828   6.282
 3948SOL    HW112743   0.851   2.750   6.335
 3948SOL    HW212744   0.731   2.803   6.238
 3949SOL     OW12745   5.788   6.774   1.586
 3949SOL    HW112746   5.836   6.708   1.644
 3949SOL    HW212747   5.772   6.858   1.638
 3950SOL     OW12748   3.129   4.491   1.660
 3950SOL    HW112749   3.049   4.471   1.717
 3950SOL    HW212750   3.140   4.590   1.653
 3951SOL     OW12751   0.905   2.209   5.086
 3951SOL    HW112752   0.852   2.248   5.011
 3951SOL    HW212753   0.995   2.252   5.089
 3952SOL     OW12754   5.783   3.294   6.148
 3952SOL    HW112755   5.798   3.370   6.211
 3952SOL    HW212756   5.868   3.240   6.141
 3953SOL     OW12757   3.357   4.211   6.334
 3953SOL    HW112758   3.332   4.145   6.262
 3953SOL    HW212759   3.353   4.166   6.423
 3954SOL     OW12760   0.381   3.315   5.148
 3954SOL    HW112761   0.344   3.341   5.058
 3954SOL    HW212762   0.357   3.384   5.215
 3955SOL     OW12763   6.710   4.615   0.299
 3955SOL    HW112764   6.776   4.690   0.301
 3955SOL    HW212765   6.689   4.586   0.392
 3956SOL     OW12766   1.149   2.600   5.433
 3956SOL    HW112767   1.125   2.646   5.518
 3956SOL    HW212768   1.181   2.667   5.366
 3957SOL     OW12769   1.030   1.487   2.740
 3957SOL    HW112770   1.026   1.411   2.805
 3957SOL    HW212771   0.938   1.516   2.717
 3958SOL     OW12772   5.828   6.173   5.883
 3958SOL    HW112773   5.783   6.086   5.901
 3958SOL    HW212774   5.925   6.158   5.865
 3959SOL     OW12775   2.553   4.987   0.765
 3959SOL    HW112776   2.629   4.926   0.787
 3959SOL    HW212777   2.519   5.030   0.849
 3960SOL     OW12778   4.105   3.651   0.419
 3960SOL    HW112779   4.073   3.567   0.376
 3960SOL    HW212780   4.088   3.647   0.518
 3961SOL     OW12781   5.728   0.721   2.573
 3961SOL    HW112782   5.813   0.685   2.534
 3961SOL    HW212783   5.670   0.758   2.500
 3962SOL     OW12784   0.598   6.966   5.910
 3962SOL    HW112785   0.619   7.021   5.992
 3962SOL    HW212786   0.652   7.000   5.833
 3963SOL     OW12787   5.052   5.576   3.504
 3963SOL    HW112788   4.993   5.528   3.440
 3963SOL    HW212789   5.126   5.516   3.533
 3964SOL     OW12790   5.723   6.450   5.838
 3964SOL    HW112791   5.747   6.355   5.817
 3964SOL    HW212792   5.669   6.488   5.762
 3965SOL     OW12793   3.575   3.715   0.161
 3965SOL    HW112794   3.668   3.747   0.144
 3965SOL    HW212795   3.574   3.655   0.240
 3966SOL     OW12796   5.575   4.192   4.993
 3966SOL    HW112797   5.538   4.283   4.978
 3966SOL    HW212798   5.503   4.124   4.981
 3967SOL     OW12799   0.628   5.256   6.366
 3967SOL    HW112800   0.529   5.256   6.358
 3967SOL    HW212801   0.664   5.344   6.334
 3968SOL     OW12802   5.999   0.252   1.500
 3968SOL    HW112803   6.071   0.321   1.495
 3968SOL    HW212804   5.940   0.258   1.419
 3969SOL     OW12805   0.118   5.367   1.550
 3969SOL    HW112806   0.091   5.462   1.563
 3969SOL    HW212807   0.084   5.311   1.625
 3970SOL     OW12808   4.161   4.892   3.247
 3970SOL    HW112809   4.213   4.972   3.274
 3970SOL    HW212810   4.222   4.825   3.205
 3971SOL     OW12811   1.742   5.822   3.816
 3971SOL    HW112812   1.787   5.801   3.903
 3971SOL    HW212813   1.643   5.828   3.830
 3972SOL     OW12814   1.536   6.942   0.713
 3972SOL    HW112815   1.553   6.847   0.687
 3972SOL    HW212816   1.585   6.962   0.798
 3973SOL     OW12817   2.983   3.354   3.355
 3973SOL    HW112818   3.082   3.364   3.355
 3973SOL    HW212819   2.946   3.382   3.267
 3974SOL     OW12820   6.167   1.713   6.377
 3974SOL    HW112821   6.143   1.645   6.446
 3974SOL    HW212822   6.157   1.673   6.286
 3975SOL     OW12823   0.011   0.836   6.077
 3975SOL    HW112824   0.026   0.765   6.008
 3975SOL    HW212825   7.000   0.917   6.033
 3976SOL     OW12826   0.763   3.330   0.006
 3976SOL    HW112827   0.821   3.279   0.070
 3976SOL    HW212828   0.725   3.410   0.052
 3977SOL     OW12829   3.812   6.515   6.715
 3977SOL    HW112830   3.879   6.500   6.643
 3977SOL    HW212831   3.760   6.430   6.731
 3978SOL     OW12832   5.479   3.347   6.147
 3978SOL    HW112833   5.496   3.385   6.238
 3978SOL    HW212834   5.553   3.377   6.085
 3979SOL     OW12835   1.195   6.886   2.960
 3979SOL    HW112836   1.119   6.904   3.022
 3979SOL    HW212837   1.279   6.871   3.013
 3980SOL     OW12838   5.554   3.325   4.752
 3980SOL    HW112839   5.582   3.264   4.826
 3980SOL    HW212840   5.615   3.403   4.749
 3981SOL     OW12841   6.719   1.672   6.221
 3981SOL    HW112842   6.787   1.659   6.294
 3981SOL    HW212843   6.710   1.769   6.200
 3982SOL     OW12844   3.285   1.959   3.794
 3982SOL    HW112845   3.208   2.015   3.764
 3982SOL    HW212846   3.303   1.888   3.726
 3983SOL     OW12847   3.434   6.436   3.887
 3983SOL    HW112848   3.532   6.417   3.878
 3983SOL    HW212849   3.413   6.462   3.981
 3984SOL     OW12850   1.392   6.558   1.451
 3984SOL    HW112851   1.325   6.625   1.419
 3984SOL    HW212852   1.348   6.469   1.459
 3985SOL     OW12853   1.763   3.370   1.861
 3985SOL    HW112854   1.786   3.422   1.778
 3985SOL    HW212855   1.693   3.418   1.912
 3986SOL     OW12856   0.889   2.619   2.218
 3986SOL    HW112857   0.888   2.672   2.303
 3986SOL    HW212858   0.871   2.680   2.141
 3987SOL     OW12859   2.421   4.710   6.969
 3987SOL    HW112860   2.484   4.658   0.002
 3987SOL    HW212861   2.327   4.695   7.000
 3988SOL     OW12862   3.845   2.308   0.646
 3988SOL    HW112863   3.855   2.407   0.656
 3988SOL    HW212864   3.775   2.275   0.710
 3989SOL     OW12865   4.729   0.111   6.508
 3989SOL    HW112866   4.823   0.136   6.528
 3989SOL    HW212867   4.726   0.016   6.478
 3990SOL     OW12868   1.027   3.062   3.915
 3990SOL    HW112869   0.945   3.016   3.950
 3990SOL    HW212870   1.109   3.018   3.954
 3991SOL     OW12871   0.472   1.925   4.090
 3991SOL    HW112872   0.416   1.973   4.022
 3991SOL    HW212873   0.561   1.968   4.096
 3992SOL     OW12874   4.566   3.728   6.221
 3992SOL    HW112875   4.666   3.719   6.219
 3992SOL    HW212876   4.527   3.661   6.284
 3993SOL     OW12877   2.451   2.178   2.999
 3993SOL    HW112878   2.440   2.182   3.098
 3993SOL    HW212879   2.389   2.244   2.956
 3994SOL     OW12880   2.439   2.274   3.261
 3994SOL    HW112881   2.455   2.198   3.323
 3994SOL    HW212882   2.355   2.322   3.288
 3995SOL     OW12883   1.841   4.026   2.942
 3995SOL    HW112884   1.862   3.940   2.896
 3995SOL    HW212885   1.917   4.090   2.929
 3996SOL     OW12886   5.932   0.374   3.235
 3996SOL    HW112887   5.911   0.403   3.141
 3996SOL    HW212888   5.960   0.454   3.288
 3997SOL     OW12889   5.693   3.744   2.544
 3997SOL    HW112890   5.657   3.833   2.570
 3997SOL    HW212891   5.630   3.699   2.481
 3998SOL     OW12892   6.222   2.112   2.780
 3998SOL    HW112893   6.319   2.132   2.774
 3998SOL    HW212894   6.208   2.028   2.833
 3999SOL     OW12895   5.351   2.917   1.777
 3999SOL    HW112896   5.284   2.844   1.791
 3999SOL    HW212897   5.344   2.952   1.684
 4000SOL     OW12898   3.478   5.560   2.224
 4000SOL    HW112899   3.557   5.604   2.182
 4000SOL    HW212900   3.439   5.621   2.293
 4001SOL     OW12901   2.055   4.120   5.032
 4001SOL    HW112902   2.148   4.091   5.013
 4001SOL    HW212903   1.996   4.100   4.953
 4002SOL     OW12904   3.524   3.355   3.854
 4002SOL    HW112905   3.594   3.426   3.855
 4002SOL    HW212906   3.536   3.294   3.932
 4003SOL     OW12907   2.294   0.371   5.273
 4003SOL    HW112908   2.199   0.391   5.295
 4003SOL    HW212909   2.332   0.446   5.220
 4004SOL     OW12910   0.451   3.848   3.387
 4004SOL    HW112911   0.513   3.878   3.459
 4004SOL    HW212912   0.376   3.795   3.427
 4005SOL     OW12913   4.954   3.099   1.280
 4005SOL    HW112914   4.875   3.132   1.332
 4005SOL    HW212915   5.034   3.156   1.300
 4006SOL     OW12916   5.292   5.099   3.148
 4006SOL    HW112917   5.262   5.066   3.059
 4006SOL    HW212918   5.227   5.068   3.218
 4007SOL     OW12919   6.679   1.421   2.573
 4007SOL    HW112920   6.742   1.461   2.506
 4007SOL    HW212921   6.612   1.364   2.527
 4008SOL     OW12922   2.188   0.385   0.692
 4008SOL    HW112923   2.131   0.367   0.772
 4008SOL    HW212924   2.269   0.437   0.720
 4009SOL     OW12925   3.951   2.015   1.195
 4009SOL    HW112926   4.049   2.018   1.173
 4009SOL    HW212927   3.918   2.108   1.212
 4010SOL     OW12928   2.575   5.627   1.596
 4010SOL    HW112929   2.597   5.540   1.639
 4010SOL    HW212930   2.609   5.628   1.502
 4011SOL     OW12931   6.062   5.888   6.998
 4011SOL    HW112932   5.990   5.938   0.020
 4011SOL    HW212933   6.138   5.871   0.035
 4012SOL     OW12934   3.810   0.118   2.065
 4012SOL    HW112935   3.738   0.105   1.997
 4012SOL    HW212936   3.777   0.087   2.154
 4013SOL     OW12937   1.057   1.228   6.702
 4013SOL    HW112938   1.031   1.225   6.798
 4013SOL    HW212939   1.112   1.147   6.680
 4014SOL     OW12940   2.802   5.450   3.435
 4014SOL    HW112941   2.712   5.489   3.456
 4014SOL    HW212942   2.811   5.360   3.477
 4015SOL     OW12943   4.218   5.493   6.414
 4015SOL    HW112944   4.216   5.574   6.473
 4015SOL    HW212945   4.220   5.410   6.471
 4016SOL     OW12946   4.107   5.890   6.065
 4016SOL    HW112947   4.181   5.936   6.115
 4016SOL    HW212948   4.124   5.897   5.967
 4017SOL     OW12949   1.375   4.920   6.206
 4017SOL    HW112950   1.397   4.979   6.129
 4017SOL    HW212951   1.383   4.824   6.178
 4018SOL     OW12952   4.444   6.380   1.915
 4018SOL    HW112953   4.383   6.353   1.989
 4018SOL    HW212954   4.403   6.457   1.865
 4019SOL     OW12955   4.886   3.326   2.919
 4019SOL    HW112956   4.882   3.348   3.016
 4019SOL    HW212957   4.851   3.233   2.905
 4020SOL     OW12958   6.519   4.622   4.609
 4020SOL    HW112959   6.592   4.569   4.565
 4020SOL    HW212960   6.438   4.564   4.620
 4021SOL     OW12961   3.219   3.526   5.592
 4021SOL    HW112962   3.127   3.486   5.593
 4021SOL    HW212963   3.212   3.622   5.564
 4022SOL     OW12964   2.571   0.496   0.433
 4022SOL    HW112965   2.540   0.410   0.474
 4022SOL    HW212966   2.494   0.559   0.427
 4023SOL     OW12967   0.302   2.424   5.216
 4023SOL    HW112968   0.390   2.447   5.172
 4023SOL    HW212969   0.286   2.488   5.291
 4024SOL     OW12970   0.885   4.575   3.836
 4024SOL    HW112971   0.876   4.499   3.772
 4024SOL    HW212972   0.981   4.602   3.842
 4025SOL     OW12973   1.128   6.102   3.513
 4025SOL    HW112974   1.148   6.154   3.430
 4025SOL    HW212975   1.129   6.004   3.492
 4026SOL     OW12976   6.566   5.934   3.739
 4026SOL    HW112977   6.624   5.923   3.659
 4026SOL    HW212978   6.524   6.025   3.738
 4027SOL     OW12979   2.497   3.806   5.771
 4027SOL    HW112980   2.420   3.868   5.789
 4027SOL    HW212981   2.535   3.774   5.858
 4028SOL     OW12982   4.391   1.631   2.453
 4028SOL    HW112983   4.336   1.697   2.504
 4028SOL    HW212984   4.426   1.561   2.516
 4029SOL     OW12985   2.370   4.875   6.756
 4029SOL    HW112986   2.394   4.821   6.837
 4029SOL    HW212987   2.271   4.873   6.743
 4030SOL     OW12988   0.115   1.120   2.484
 4030SOL    HW112989   0.065   1.043   2.445
 4030SOL    HW212990   0.212   1.110   2.466
 4031SOL     OW12991   5.476   0.205   1.458
 4031SOL    HW112992   5.544   0.151   1.409
 4031SOL    HW212993   5.391   0.207   1.404
 4032SOL     OW12994   6.206   6.932   1.340
 4032SOL    HW112995   6.164   6.977   1.262
 4032SOL    HW212996   6.158   6.958   1.424
 4033SOL     OW12997   3.262   2.138   2.655
 4033SOL    HW112998   3.323   2.088   2.594
 4033SOL    HW212999   3.304   2.146   2.745
 4034SOL     OW13000   0.272   3.138   4.842
 4034SOL    HW113001   0.344   3.088   4.889
 4034SOL    HW213002   0.284   3.236   4.855
 4035SOL     OW13003   6.560   2.158   1.064
 4035SOL    HW113004   6.586   2.063   1.047
 4035SOL    HW213005   6.496   2.162   1.141
 4036SOL     OW13006   3.104   5.501   3.631
 4036SOL    HW113007   3.018   5.549   3.650
 4036SOL    HW213008   3.129   5.444   3.709
 4037SOL     OW13009   1.972   1.179   5.663
 4037SOL    HW113010   1.876   1.205   5.653
 4037SOL    HW213011   2.011   1.162   5.572
 4038SOL     OW13012   3.498   4.327   5.909
 4038SOL    HW113013   3.500   4.423   5.935
 4038SOL    HW213014   3.591   4.294   5.892
 4039SOL     OW13015   5.278   4.553   1.461
 4039SOL    HW113016   5.317   4.508   1.542
 4039SOL    HW213017   5.178   4.554   1.469
 4040SOL     OW13018   3.711   5.155   5.303
 4040SOL    HW113019   3.725   5.142   5.401
 4040SOL    HW213020   3.616   5.183   5.287
 4041SOL     OW13021   1.964   6.717   1.240
 4041SOL    HW113022   2.016   6.649   1.188
 4041SOL    HW213023   1.867   6.693   1.238
 4042SOL     OW13024   6.474   0.325   3.016
 4042SOL    HW113025   6.531   0.288   3.089
 4042SOL    HW213026   6.378   0.315   3.042
 4043SOL     OW13027   5.576   3.710   6.223
 4043SOL    HW113028   5.508   3.679   6.157
 4043SOL    HW213029   5.605   3.803   6.202
 4044SOL     OW13030   4.049   4.901   2.985
 4044SOL    HW113031   4.075   4.931   3.076
 4044SOL    HW213032   4.096   4.816   2.962
 4045SOL     OW13033   4.895   0.005   6.108
 4045SOL    HW113034   4.881   6.948   6.162
 4045SOL    HW213035   4.982   7.024   6.059
 4046SOL     OW13036   0.428   1.745   3.175
 4046SOL    HW113037   0.460   1.826   3.224
 4046SOL    HW213038   0.450   1.663   3.228
 4047SOL     OW13039   2.672   3.202   6.642
 4047SOL    HW113040   2.745   3.161   6.695
 4047SOL    HW213041   2.588   3.204   6.697
 4048SOL     OW13042   4.682   0.751   2.284
 4048SOL    HW113043   4.600   0.802   2.307
 4048SOL    HW213044   4.727   0.794   2.205
 4049SOL     OW13045   3.744   5.866   7.022
 4049SOL    HW113046   3.648   5.854   6.998
 4049SOL    HW213047   3.801   5.847   6.942
 4050SOL     OW13048   0.885   6.190   2.650
 4050SOL    HW113049   0.824   6.117   2.618
 4050SOL    HW213050   0.888   6.263   2.581
 4051SOL     OW13051   5.164   0.871   6.400
 4051SOL    HW113052   5.168   0.832   6.308
 4051SOL    HW213053   5.116   0.809   6.461
 4052SOL     OW13054   6.460   1.763   2.900
 4052SOL    HW113055   6.476   1.793   2.994
 4052SOL    HW213056   6.547   1.759   2.851
 4053SOL     OW13057   0.811   5.450   4.716
 4053SOL    HW113058   0.888   5.389   4.702
 4053SOL    HW213059   0.753   5.449   4.634
 4054SOL     OW13060   4.405   3.922   1.030
 4054SOL    HW113061   4.328   3.976   0.997
 4054SOL    HW213062   4.490   3.964   1.000
 4055SOL     OW13063   1.566   3.911   1.985
 4055SOL    HW113064   1.472   3.886   2.009
 4055SOL    HW213065   1.623   3.829   1.984
 4056SOL     OW13066   5.089   3.415   1.001
 4056SOL    HW113067   5.067   3.509   1.029
 4056SOL    HW213068   5.033   3.390   0.922
 4057SOL     OW13069   6.367   3.263   6.590
 4057SOL    HW113070   6.320   3.308   6.666
 4057SOL    HW213071   6.363   3.322   6.509
 4058SOL     OW13072   2.358   5.554   4.771
 4058SOL    HW113073   2.294   5.598   4.834
 4058SOL    HW213074   2.452   5.575   4.799
 4059SOL     OW13075   0.918   2.426   4.353
 4059SOL    HW113076   0.980   2.450   4.278
 4059SOL    HW213077   0.845   2.367   4.318
 4060SOL     OW13078   6.815   5.583   5.001
 4060SOL    HW113079   6.887   5.566   5.068
 4060SOL    HW213080   6.727   5.593   5.048
 4061SOL     OW13081   2.592   5.415   1.789
 4061SOL    HW113082   2.589   5.315   1.779
 4061SOL    HW213083   2.610   5.438   1.884
 4062SOL     OW13084   2.517   1.681   1.952
 4062SOL    HW113085   2.428   1.657   1.911
 4062SOL    HW213086   2.577   1.717   1.881
 4063SOL     OW13087   5.491   0.310   0.962
 4063SOL    HW113088   5.412   0.308   1.023
 4063SOL    HW213089   5.560   0.244   0.994
 4064SOL     OW13090   2.047   2.059   4.370
 4064SOL    HW113091   2.008   2.066   4.461
 4064SOL    HW213092   2.006   2.128   4.310
 4065SOL     OW13093   1.548   6.817   0.300
 4065SOL    HW113094   1.546   6.915   0.317
 4065SOL    HW213095   1.630   6.795   0.247
 4066SOL     OW13096   6.249   4.039   2.878
 4066SOL    HW113097   6.275   4.002   2.789
 4066SOL    HW213098   6.167   3.993   2.911
 4067SOL     OW13099   5.859   4.254   2.497
 4067SOL    HW113100   5.771   4.301   2.506
 4067SOL    HW213101   5.883   4.212   2.584
 4068SOL     OW13102   1.565   2.866   4.865
 4068SOL    HW113103   1.585   2.807   4.787
 4068SOL    HW213104   1.634   2.938   4.870
 4069SOL     OW13105   3.780   6.699   6.954
 4069SOL    HW113106   3.793   6.626   6.886
 4069SOL    HW213107   3.793   6.788   6.909
 4070SOL     OW13108   1.183   2.970   2.999
 4070SOL    HW113109   1.097   2.967   2.948
 4070SOL    HW213110   1.164   2.963   3.097
 4071SOL     OW13111   1.285   0.739   3.841
 4071SOL    HW113112   1.188   0.762   3.845
 4071SOL    HW213113   1.308   0.710   3.748
 4072SOL     OW13114   1.016   5.456   4.407
 4072SOL    HW113115   0.993   5.417   4.318
 4072SOL    HW213116   0.954   5.421   4.476
 4073SOL     OW13117   2.281   5.285   0.336
 4073SOL    HW113118   2.329   5.372   0.329
 4073SOL    HW213119   2.314   5.223   0.265
 4074SOL     OW13120   1.328   4.961   1.774
 4074SOL    HW113121   1.292   4.941   1.865
 4074SOL    HW213122   1.400   4.895   1.752
 4075SOL     OW13123   5.241   1.492   0.879
 4075SOL    HW113124   5.166   1.556   0.897
 4075SOL    HW213125   5.290   1.473   0.963
 4076SOL     OW13126   3.328   3.333   5.419
 4076SOL    HW113127   3.321   3.260   5.486
 4076SOL    HW213128   3.287   3.417   5.457
 4077SOL     OW13129   4.498   1.611   1.515
 4077SOL    HW113130   4.573   1.668   1.550
 4077SOL    HW213131   4.491   1.622   1.416
 4078SOL     OW13132   2.913   4.807   2.813
 4078SOL    HW113133   2.929   4.797   2.714
 4078SOL    HW213134   2.987   4.861   2.853
 4079SOL     OW13135   1.795   2.159   4.296
 4079SOL    HW113136   1.730   2.226   4.260
 4079SOL    HW213137   1.785   2.073   4.247
 4080SOL     OW13138   5.035   2.068   5.200
 4080SOL    HW113139   4.998   2.006   5.130
 4080SOL    HW213140   5.130   2.044   5.218
 4081SOL     OW13141   1.825   2.908   4.325
 4081SOL    HW113142   1.841   3.007   4.324
 4081SOL    HW213143   1.841   2.873   4.417
 4082SOL     OW13144   1.463   3.416   1.104
 4082SOL    HW113145   1.399   3.493   1.109
 4082SOL    HW213146   1.557   3.451   1.100
 4083SOL     OW13147   5.976   2.740   3.573
 4083SOL    HW113148   6.001   2.822   3.522
 4083SOL    HW213149   5.894   2.700   3.531
 4084SOL     OW13150   6.153   1.835   4.035
 4084SOL    HW113151   6.212   1.914   4.020
 4084SOL    HW213152   6.132   1.791   3.948
 4085SOL     OW13153   4.225   6.186   0.712
 4085SOL    HW113154   4.188   6.278   0.727
 4085SOL    HW213155   4.259   6.149   0.798
 4086SOL     OW13156   1.949   5.170   1.549
 4086SOL    HW113157   1.888   5.141   1.623
 4086SOL    HW213158   1.946   5.103   1.475
 4087SOL     OW13159   2.322   2.656   3.029
 4087SOL    HW113160   2.410   2.609   3.024
 4087SOL    HW213161   2.328   2.730   3.095
 4088SOL     OW13162   6.662   1.705   1.464
 4088SOL    HW113163   6.666   1.617   1.512
 4088SOL    HW213164   6.613   1.772   1.521
 4089SOL     OW13165   0.872   6.801   3.497
 4089SOL    HW113166   0.844   6.896   3.512
 4089SOL    HW213167   0.801   6.752   3.446
 4090SOL     OW13168   2.776   4.185   6.133
 4090SOL    HW113169   2.872   4.160   6.120
 4090SOL    HW213170   2.723   4.159   6.052
 4091SOL     OW13171   5.461   6.540   0.295
 4091SOL    HW113172   5.501   6.625   0.262
 4091SOL    HW213173   5.361   6.545   0.286
 4092SOL     OW13174   0.042   2.702   5.087
 4092SOL    HW113175   6.988   2.687   5.145
 4092SOL    HW213176   0.083   2.790   5.109
 4093SOL     OW13177   5.247   0.333   3.698
 4093SOL    HW113178   5.335   0.362   3.735
 4093SOL    HW213179   5.261   0.284   3.611
 4094SOL     OW13180   1.938   4.605   4.989
 4094SOL    HW113181   1.952   4.536   4.919
 4094SOL    HW213182   1.895   4.563   5.069
 4095SOL     OW13183   1.323   3.603   6.038
 4095SOL    HW113184   1.317   3.503   6.037
 4095SOL    HW213185   1.339   3.636   5.945
 4096SOL     OW13186   4.599   5.538   1.210
 4096SOL    HW113187   4.646   5.610   1.262
 4096SOL    HW213188   4.661   5.502   1.140
 4097SOL     OW13189   2.916   4.497   6.043
 4097SOL    HW113190   2.951   4.492   6.136
 4097SOL    HW213191   2.850   4.423   6.028
 4098SOL     OW13192   0.418   2.831   2.760
 4098SOL    HW113193   0.409   2.834   2.661
 4098SOL    HW213194   0.488   2.896   2.790
 4099SOL     OW13195   3.224   5.333   1.751
 4099SOL    HW113196   3.132   5.359   1.782
 4099SOL    HW213197   3.289   5.341   1.827
 4100SOL     OW13198   4.880   5.892   4.007
 4100SOL    HW113199   4.812   5.819   3.999
 4100SOL    HW213200   4.968   5.859   3.975
 4101SOL     OW13201   5.692   1.617   0.201
 4101SOL    HW113202   5.725   1.536   0.152
 4101SOL    HW213203   5.638   1.589   0.280
 4102SOL     OW13204   6.420   0.314   1.161
 4102SOL    HW113205   6.454   0.304   1.254
 4102SOL    HW213206   6.497   0.335   1.100
 4103SOL     OW13207   0.838   1.173   1.850
 4103SOL    HW113208   0.908   1.234   1.887
 4103SOL    HW213209   0.747   1.204   1.880
 4104SOL     OW13210   1.788   4.259   2.503
 4104SOL    HW113211   1.844   4.314   2.442
 4104SOL    HW213212   1.699   4.243   2.461
 4105SOL     OW13213   3.991   5.985   0.970
 4105SOL    HW113214   3.926   5.919   1.007
 4105SOL    HW213215   4.064   5.937   0.922
 4106SOL     OW13216   6.923   3.907   4.690
 4106SOL    HW113217   6.979   3.983   4.657
 4106SOL    HW213218   6.959   3.875   4.778
 4107SOL     OW13219   0.474   6.190   1.081
 4107SOL    HW113220   0.524   6.272   1.109
 4107SOL    HW213221   0.539   6.115   1.067
 4108SOL     OW13222   6.881   4.940   6.371
 4108SOL    HW113223   6.822   4.971   6.445
 4108SOL    HW213224   6.894   5.014   6.305
 4109SOL     OW13225   4.296   6.308   4.358
 4109SOL    HW113226   4.358   6.246   4.406
 4109SOL    HW213227   4.349   6.376   4.308
 4110SOL     OW13228   3.941   4.064   6.655
 4110SOL    HW113229   3.974   4.154   6.684
 4110SOL    HW213230   3.951   4.056   6.556
 4111SOL     OW13231   3.759   3.021   0.095
 4111SOL    HW113232   3.677   3.071   0.066
 4111SOL    HW213233   3.785   3.051   0.187
 4112SOL     OW13234   5.117   1.375   5.240
 4112SOL    HW113235   5.135   1.416   5.329
 4112SOL    HW213236   5.203   1.369   5.188
 4113SOL     OW13237   3.575   5.550   5.086
 4113SOL    HW113238   3.583   5.492   5.005
 4113SOL    HW213239   3.494   5.523   5.139
 4114SOL     OW13240   3.041   2.055   3.692
 4114SOL    HW113241   3.021   2.113   3.770
 4114SOL    HW213242   2.965   2.059   3.627
 4115SOL     OW13243   5.036   6.099   2.441
 4115SOL    HW113244   5.009   6.069   2.533
 4115SOL    HW213245   5.127   6.140   2.445
 4116SOL     OW13246   4.000   1.750   1.598
 4116SOL    HW113247   4.056   1.817   1.549
 4116SOL    HW213248   4.055   1.668   1.617
 4117SOL     OW13249   0.282   5.538   1.385
 4117SOL    HW113250   0.320   5.559   1.295
 4117SOL    HW213251   0.288   5.439   1.401
 4118SOL     OW13252   1.247   6.551   0.983
 4118SOL    HW113253   1.263   6.470   0.926
 4118SOL    HW213254   1.174   6.532   1.049
 4119SOL     OW13255   4.004   1.526   4.416
 4119SOL    HW113256   4.051   1.438   4.403
 4119SOL    HW213257   3.911   1.509   4.451
 4120SOL     OW13258   4.650   6.935   2.278
 4120SOL    HW113259   4.624   0.005   2.287
 4120SOL    HW213260   4.749   6.928   2.269
 4121SOL     OW13261   6.189   1.886   4.802
 4121SOL    HW113262   6.168   1.939   4.883
 4121SOL    HW213263   6.147   1.795   4.809
 4122SOL     OW13264   0.729   6.289   5.028
 4122SOL    HW113265   0.658   6.245   5.082
 4122SOL    HW213266   0.719   6.389   5.035
 4123SOL     OW13267   5.807   4.520   5.923
 4123SOL    HW113268   5.801   4.597   5.987
 4123SOL    HW213269   5.719   4.507   5.878
 4124SOL     OW13270   5.706   5.654   4.657
 4124SOL    HW113271   5.767   5.706   4.597
 4124SOL    HW213272   5.757   5.581   4.701
 4125SOL     OW13273   4.680   0.378   1.680
 4125SOL    HW113274   4.738   0.430   1.743
 4125SOL    HW213275   4.738   0.331   1.613
 4126SOL     OW13276   1.223   3.932   4.311
 4126SOL    HW113277   1.320   3.907   4.320
 4126SOL    HW213278   1.209   3.980   4.224
 4127SOL     OW13279   5.179   3.320   4.095
 4127SOL    HW113280   5.197   3.313   3.997
 4127SOL    HW213281   5.082   3.306   4.113
 4128SOL     OW13282   2.153   3.927   2.522
 4128SOL    HW113283   2.083   3.976   2.574
 4128SOL    HW213284   2.121   3.834   2.504
 4129SOL     OW13285   5.187   1.718   6.363
 4129SOL    HW113286   5.155   1.812   6.358
 4129SOL    HW213287   5.227   1.701   6.453
 4130SOL     OW13288   0.059   3.437   5.563
 4130SOL    HW113289   0.140   3.379   5.556
 4130SOL    HW213290   7.004   3.380   5.576
 4131SOL     OW13291   0.622   5.886   3.849
 4131SOL    HW113292   0.555   5.956   3.823
 4131SOL    HW213293   0.677   5.862   3.770
 4132SOL     OW13294   5.884   3.503   3.584
 4132SOL    HW113295   5.900   3.492   3.486
 4132SOL    HW213296   5.808   3.565   3.599
 4133SOL     OW13297   3.366   0.234   0.716
 4133SOL    HW113298   3.453   0.202   0.677
 4133SOL    HW213299   3.375   0.329   0.744
 4134SOL     OW13300   1.990   2.429   0.484
 4134SOL    HW113301   2.074   2.414   0.537
 4134SOL    HW213302   1.941   2.343   0.473
 4135SOL     OW13303   2.215   0.798   1.971
 4135SOL    HW113304   2.307   0.834   1.989
 4135SOL    HW213305   2.155   0.822   2.047
 4136SOL     OW13306   0.304   2.237   4.008
 4136SOL    HW113307   0.316   2.228   4.106
 4136SOL    HW213308   0.299   2.147   3.966
 4137SOL     OW13309   2.769   3.762   0.757
 4137SOL    HW113310   2.745   3.752   0.853
 4137SOL    HW213311   2.798   3.674   0.720
 4138SOL     OW13312   3.812   5.004   4.085
 4138SOL    HW113313   3.798   5.066   4.008
 4138SOL    HW213314   3.882   4.937   4.061
 4139SOL     OW13315   2.370   2.132   5.827
 4139SOL    HW113316   2.372   2.054   5.765
 4139SOL    HW213317   2.335   2.104   5.916
 4140SOL     OW13318   3.498   0.669   5.514
 4140SOL    HW113319   3.496   0.636   5.608
 4140SOL    HW213320   3.432   0.744   5.504
 4141SOL     OW13321   4.876   4.922   1.439
 4141SOL    HW113322   4.841   4.887   1.526
 4141SOL    HW213323   4.916   5.012   1.453
 4142SOL     OW13324   6.484   5.433   1.133
 4142SOL    HW113325   6.423   5.398   1.204
 4142SOL    HW213326   6.431   5.471   1.058
 4143SOL     OW13327   6.869   3.266   0.433
 4143SOL    HW113328   6.844   3.184   0.485
 4143SOL    HW213329   6.916   3.239   0.349
 4144SOL     OW13330   5.938   1.952   0.803
 4144SOL    HW113331   5.980   1.984   0.719
 4144SOL    HW213332   5.855   2.005   0.821
 4145SOL     OW13333   6.514   6.365   1.725
 4145SOL    HW113334   6.448   6.411   1.666
 4145SOL    HW213335   6.571   6.304   1.670
 4146SOL     OW13336   6.023   0.342   6.005
 4146SOL    HW113337   6.076   0.308   6.083
 4146SOL    HW213338   6.084   0.354   5.927
 4147SOL     OW13339   3.440   2.014   5.865
 4147SOL    HW113340   3.436   1.990   5.768
 4147SOL    HW213341   3.347   2.033   5.897
 4148SOL     OW13342   0.338   0.463   3.714
 4148SOL    HW113343   0.386   0.540   3.671
 4148SOL    HW213344   0.254   0.497   3.757
 4149SOL     OW13345   6.981   3.046   6.799
 4149SOL    HW113346   0.040   3.043   6.851
 4149SOL    HW213347   7.001   3.078   6.706
 4150SOL     OW13348   5.871   0.561   6.110
 4150SOL    HW113349   5.937   0.635   6.121
 4150SOL    HW213350   5.915   0.483   6.064
 4151SOL     OW13351   5.427   5.972   0.151
 4151SOL    HW113352   5.439   5.937   0.058
 4151SOL    HW213353   5.466   6.064   0.157
 4152SOL     OW13354   3.643   5.178   2.202
 4152SOL    HW113355   3.616   5.094   2.251
 4152SOL    HW213356   3.586   5.188   2.121
 4153SOL     OW13357   5.366   5.153   5.692
 4153SOL    HW113358   5.371   5.160   5.792
 4153SOL    HW213359   5.284   5.101   5.667
 4154SOL     OW13360   6.520   3.649   5.065
 4154SOL    HW113361   6.474   3.715   5.125
 4154SOL    HW213362   6.454   3.612   5.000
 4155SOL     OW13363   0.115   3.483   2.931
 4155SOL    HW113364   0.130   3.385   2.944
 4155SOL    HW213365   0.047   3.496   2.859
 4156SOL     OW13366   5.882   0.155   5.148
 4156SOL    HW113367   5.864   0.058   5.136
 4156SOL    HW213368   5.964   0.181   5.097
 4157SOL     OW13369   3.675   0.453   4.063
 4157SOL    HW113370   3.588   0.403   4.070
 4157SOL    HW213371   3.668   0.520   3.989
 4158SOL     OW13372   1.048   5.044   3.911
 4158SOL    HW113373   1.141   5.010   3.892
 4158SOL    HW213374   0.984   5.003   3.846
 4159SOL     OW13375   1.814   3.202   3.723
 4159SOL    HW113376   1.869   3.136   3.672
 4159SOL    HW213377   1.726   3.161   3.746
 4160SOL     OW13378   6.325   0.556   1.282
 4160SOL    HW113379   6.335   0.463   1.249
 4160SOL    HW213380   6.321   0.619   1.204
 4161SOL     OW13381   1.845   0.513   6.508
 4161SOL    HW113382   1.933   0.547   6.541
 4161SOL    HW213383   1.824   0.554   6.419
 4162SOL     OW13384   6.126   0.150   5.025
 4162SOL    HW113385   6.224   0.166   5.036
 4162SOL    HW213386   6.104   0.150   4.927
 4163SOL     OW13387   6.107   1.505   3.113
 4163SOL    HW113388   6.135   1.442   3.186
 4163SOL    HW213389   6.042   1.458   3.053
 4164SOL     OW13390   1.739   0.290   6.916
 4164SOL    HW113391   1.683   0.345   6.855
 4164SOL    HW213392   1.836   0.309   6.899
 4165SOL     OW13393   4.132   6.426   0.775
 4165SOL    HW113394   4.177   6.424   0.864
 4165SOL    HW213395   4.032   6.427   0.789
 4166SOL     OW13396   3.896   2.267   1.267
 4166SOL    HW113397   3.981   2.318   1.279
 4166SOL    HW213398   3.846   2.265   1.353
 4167SOL     OW13399   2.704   2.483   0.996
 4167SOL    HW113400   2.626   2.462   1.055
 4167SOL    HW213401   2.743   2.571   1.022
 4168SOL     OW13402   0.130   5.177   1.099
 4168SOL    HW113403   0.189   5.187   1.179
 4168SOL    HW213404   0.186   5.169   1.016
 4169SOL     OW13405   5.223   4.014   4.290
 4169SOL    HW113406   5.199   4.099   4.338
 4169SOL    HW213407   5.224   3.938   4.355
 4170SOL     OW13408   4.060   2.655   5.583
 4170SOL    HW113409   4.112   2.701   5.512
 4170SOL    HW213410   3.992   2.717   5.621
 4171SOL     OW13411   4.789   3.943   1.119
 4171SOL    HW113412   4.733   4.014   1.076
 4171SOL    HW213413   4.735   3.859   1.127
 4172SOL     OW13414   0.040   2.253   0.246
 4172SOL    HW113415   0.053   2.302   0.332
 4172SOL    HW213416   0.130   2.231   0.207
 4173SOL     OW13417   5.790   3.186   5.207
 4173SOL    HW113418   5.857   3.220   5.273
 4173SOL    HW213419   5.717   3.138   5.256
 4174SOL     OW13420   4.642   0.599   4.008
 4174SOL    HW113421   4.549   0.581   3.977
 4174SOL    HW213422   4.640   0.651   4.093
 4175SOL     OW13423   3.434   0.335   4.070
 4175SOL    HW113424   3.388   0.353   4.157
 4175SOL    HW213425   3.388   0.259   4.023
 4176SOL     OW13426   4.129   0.219   2.667
 4176SOL    HW113427   4.059   0.205   2.736
 4176SOL    HW213428   4.219   0.221   2.710
 4177SOL     OW13429   0.454   5.296   4.952
 4177SOL    HW113430   0.510   5.277   4.871
 4177SOL    HW213431   0.467   5.224   5.020
 4178SOL     OW13432   3.261   1.173   6.128
 4178SOL    HW113433   3.318   1.252   6.106
 4178SOL    HW213434   3.290   1.095   6.073
 4179SOL     OW13435   5.849   2.973   4.235
 4179SOL    HW113436   5.806   2.976   4.325
 4179SOL    HW213437   5.871   2.879   4.211
 4180SOL     OW13438   5.553   4.496   1.995
 4180SOL    HW113439   5.643   4.539   2.000
 4180SOL    HW213440   5.563   4.397   2.012
 4181SOL     OW13441   1.090   2.185   6.230
 4181SOL    HW113442   1.101   2.089   6.258
 4181SOL    HW213443   1.152   2.242   6.285
 4182SOL     OW13444   0.637   0.128   2.514
 4182SOL    HW113445   0.571   0.179   2.571
 4182SOL    HW213446   0.712   0.096   2.572
 4183SOL     OW13447   2.689   1.813   1.746
 4183SOL    HW113448   2.761   1.882   1.734
 4183SOL    HW213449   2.600   1.858   1.742
 4184SOL     OW13450   3.659   5.551   1.213
 4184SOL    HW113451   3.718   5.508   1.145
 4184SOL    HW213452   3.703   5.546   1.303
 4185SOL     OW13453   0.747   6.072   3.300
 4185SOL    HW113454   0.796   6.131   3.234
 4185SOL    HW213455   0.760   5.976   3.275
 4186SOL     OW13456   2.272   3.884   6.879
 4186SOL    HW113457   2.318   3.798   6.900
 4186SOL    HW213458   2.332   3.961   6.904
 4187SOL     OW13459   3.310   3.308   5.936
 4187SOL    HW113460   3.363   3.328   5.854
 4187SOL    HW213461   3.354   3.350   6.015
 4188SOL     OW13462   4.845   0.393   4.637
 4188SOL    HW113463   4.767   0.402   4.697
 4188SOL    HW213464   4.857   0.297   4.611
 4189SOL     OW13465   3.193   1.510   4.445
 4189SOL    HW113466   3.103   1.484   4.481
 4189SOL    HW213467   3.255   1.432   4.452
 4190SOL     OW13468   2.158   0.623   6.849
 4190SOL    HW113469   2.224   0.674   6.794
 4190SOL    HW213470   2.093   0.576   6.788
 4191SOL     OW13471   5.902   3.106   2.966
 4191SOL    HW113472   5.839   3.180   2.940
 4191SOL    HW213473   5.909   3.102   3.065
 4192SOL     OW13474   5.926   1.416   2.936
 4192SOL    HW113475   5.828   1.432   2.950
 4192SOL    HW213476   5.956   1.462   2.853
 4193SOL     OW13477   2.336   7.023   2.135
 4193SOL    HW113478   2.368   6.995   2.045
 4193SOL    HW213479   2.293   6.946   2.181
 4194SOL     OW13480   6.690   2.007   4.420
 4194SOL    HW113481   6.599   2.044   4.438
 4194SOL    HW213482   6.759   2.062   4.467
 4195SOL     OW13483   4.540   0.425   1.456
 4195SOL    HW113484   4.592   0.425   1.542
 4195SOL    HW213485   4.523   0.331   1.428
 4196SOL     OW13486   5.647   2.375   3.816
 4196SOL    HW113487   5.629   2.277   3.806
 4196SOL    HW213488   5.667   2.395   3.912
 4197SOL     OW13489   5.324   4.335   4.577
 4197SOL    HW113490   5.419   4.358   4.601
 4197SOL    HW213491   5.269   4.419   4.577
 4198SOL     OW13492   5.604   3.311   0.060
 4198SOL    HW113493   5.539   3.260   0.117
 4198SOL    HW213494   5.625   3.257   7.004
 4199SOL     OW13495   3.119   3.123   4.994
 4199SOL    HW113496   3.062   3.178   4.933
 4199SOL    HW213497   3.215   3.150   4.982
 4200SOL     OW13498   2.318   6.773   6.029
 4200SOL    HW113499   2.326   6.801   6.124
 4200SOL    HW213500   2.299   6.675   6.024
 4201SOL     OW13501   6.436   6.656   3.049
 4201SOL    HW113502   6.343   6.678   3.077
 4201SOL    HW213503   6.435   6.617   2.957
 4202SOL     OW13504   5.360   4.524   5.560
 4202SOL    HW113505   5.376   4.618   5.531
 4202SOL    HW213506   5.368   4.462   5.482
 4203SOL     OW13507   4.938   6.319   3.086
 4203SOL    HW113508   5.015   6.260   3.112
 4203SOL    HW213509   4.960   6.414   3.111
 4204SOL     OW13510   2.864   3.005   1.533
 4204SOL    HW113511   2.886   2.933   1.599
 4204SOL    HW213512   2.894   3.094   1.569
 4205SOL     OW13513   3.068   5.182   4.812
 4205SOL    HW113514   3.026   5.268   4.782
 4205SOL    HW213515   3.062   5.115   4.738
 4206SOL     OW13516   4.525   0.029   5.158
 4206SOL    HW113517   4.485   0.102   5.213
 4206SOL    HW213518   4.474   6.970   5.173
 4207SOL     OW13519   1.364   1.406   1.723
 4207SOL    HW113520   1.269   1.421   1.696
 4207SOL    HW213521   1.394   1.483   1.780
 4208SOL     OW13522   1.877   2.878   1.084
 4208SOL    HW113523   1.785   2.914   1.073
 4208SOL    HW213524   1.873   2.778   1.082
 4209SOL     OW13525   1.559   6.995   4.660
 4209SOL    HW113526   1.537   6.898   4.670
 4209SOL    HW213527   1.613   7.025   4.739
 4210SOL     OW13528   3.711   3.435   1.351
 4210SOL    HW113529   3.719   3.444   1.450
 4210SOL    HW213530   3.631   3.485   1.319
 4211SOL     OW13531   4.911   4.862   5.004
 4211SOL    HW113532   4.828   4.893   4.958
 4211SOL    HW213533   4.962   4.941   5.038
 4212SOL     OW13534   6.218   1.149   2.567
 4212SOL    HW113535   6.277   1.176   2.643
 4212SOL    HW213536   6.142   1.094   2.601
 4213SOL     OW13537   1.862   0.948   1.837
 4213SOL    HW113538   1.946   0.897   1.820
 4213SOL    HW213539   1.799   0.936   1.760
 4214SOL     OW13540   0.779   3.124   5.817
 4214SOL    HW113541   0.720   3.195   5.857
 4214SOL    HW213542   0.745   3.034   5.842
 4215SOL     OW13543   0.570   5.929   4.716
 4215SOL    HW113544   0.665   5.900   4.721
 4215SOL    HW213545   0.556   5.986   4.635
 4216SOL     OW13546   1.220   2.461   4.216
 4216SOL    HW113547   1.253   2.492   4.127
 4216SOL    HW213548   1.168   2.376   4.205
 4217SOL     OW13549   0.234   0.301   2.301
 4217SOL    HW113550   0.281   0.217   2.272
 4217SOL    HW213551   0.300   0.364   2.340
 4218SOL     OW13552   4.845   6.925   1.848
 4218SOL    HW113553   4.937   6.964   1.852
 4218SOL    HW213554   4.783   6.991   1.806
 4219SOL     OW13555   3.753   4.866   5.192
 4219SOL    HW113556   3.731   4.948   5.244
 4219SOL    HW213557   3.672   4.837   5.140
 4220SOL     OW13558   6.717   3.482   3.420
 4220SOL    HW113559   6.640   3.420   3.406
 4220SOL    HW213560   6.791   3.457   3.358
 4221SOL     OW13561   5.302   5.236   6.010
 4221SOL    HW113562   5.257   5.304   5.952
 4221SOL    HW213563   5.277   5.252   6.106
 4222SOL     OW13564   5.801   2.234   2.008
 4222SOL    HW113565   5.723   2.277   1.964
 4222SOL    HW213566   5.870   2.304   2.030
 4223SOL     OW13567   3.460   3.931   2.482
 4223SOL    HW113568   3.415   3.843   2.467
 4223SOL    HW213569   3.409   4.003   2.434
 4224SOL     OW13570   4.859   2.574   4.648
 4224SOL    HW113571   4.877   2.535   4.558
 4224SOL    HW213572   4.829   2.501   4.710
 4225SOL     OW13573   6.067   0.506   4.493
 4225SOL    HW113574   6.123   0.568   4.437
 4225SOL    HW213575   6.001   0.560   4.545
 4226SOL     OW13576   1.189   1.000   3.308
 4226SOL    HW113577   1.109   0.948   3.277
 4226SOL    HW213578   1.163   1.056   3.387
 4227SOL     OW13579   3.907   4.795   0.420
 4227SOL    HW113580   3.813   4.781   0.451
 4227SOL    HW213581   3.947   4.708   0.392
 4228SOL     OW13582   5.694   5.637   3.808
 4228SOL    HW113583   5.613   5.634   3.867
 4228SOL    HW213584   5.696   5.724   3.759
 4229SOL     OW13585   4.340   5.184   6.247
 4229SOL    HW113586   4.357   5.265   6.304
 4229SOL    HW213587   4.421   5.166   6.191
 4230SOL     OW13588   3.071   0.341   5.197
 4230SOL    HW113589   3.073   0.415   5.130
 4230SOL    HW213590   3.127   0.264   5.164
 4231SOL     OW13591   5.123   6.690   5.438
 4231SOL    HW113592   5.135   6.591   5.426
 4231SOL    HW213593   5.048   6.707   5.502
 4232SOL     OW13594   1.583   5.307   2.375
 4232SOL    HW113595   1.487   5.311   2.349
 4232SOL    HW213596   1.591   5.292   2.473
 4233SOL     OW13597   6.007   0.474   6.885
 4233SOL    HW113598   6.081   0.477   6.819
 4233SOL    HW213599   5.980   0.567   6.910
 4234SOL     OW13600   3.091   5.427   6.491
 4234SOL    HW113601   3.016   5.460   6.434
 4234SOL    HW213602   3.169   5.403   6.434
 4235SOL     OW13603   6.084   4.481   5.681
 4235SOL    HW113604   6.128   4.399   5.716
 4235SOL    HW213605   6.149   4.557   5.679
 4236SOL     OW13606   0.438   2.567   3.814
 4236SOL    HW113607   0.413   2.555   3.718
 4236SOL    HW213608   0.479   2.482   3.849
 4237SOL     OW13609   5.010   3.935   5.071
 4237SOL    HW113610   4.953   3.874   5.126
 4237SOL    HW213611   4.966   4.025   5.065
 4238SOL     OW13612   4.070   5.349   3.762
 4238SOL    HW113613   3.971   5.349   3.746
 4238SOL    HW213614   4.087   5.346   3.861
 4239SOL     OW13615   4.516   6.437   5.418
 4239SOL    HW113616   4.566   6.522   5.399
 4239SOL    HW213617   4.422   6.459   5.444
 4240SOL     OW13618   2.934   4.825   0.236
 4240SOL    HW113619   2.865   4.766   0.194
 4240SOL    HW213620   2.940   4.805   0.334
 4241SOL     OW13621   5.189   0.178   1.400
 4241SOL    HW113622   5.136   0.244   1.453
 4241SOL    HW213623   5.135   0.094   1.389
 4242SOL     OW13624   2.658   6.950   2.573
 4242SOL    HW113625   2.658   6.974   2.670
 4242SOL    HW213626   2.600   7.014   2.523
 4243SOL     OW13627   0.742   3.673   2.202
 4243SOL    HW113628   0.801   3.679   2.282
 4243SOL    HW213629   0.655   3.632   2.227
 4244SOL     OW13630   5.052   6.336   0.997
 4244SOL    HW113631   4.973   6.329   1.058
 4244SOL    HW213632   5.029   6.395   0.920
 4245SOL     OW13633   6.229   3.005   0.477
 4245SOL    HW113634   6.260   2.982   0.384
 4245SOL    HW213635   6.235   3.104   0.490
 4246SOL     OW13636   5.033   2.586   3.205
 4246SOL    HW113637   5.099   2.652   3.170
 4246SOL    HW213638   4.947   2.594   3.155
 4247SOL     OW13639   1.847   4.835   5.129
 4247SOL    HW113640   1.894   4.758   5.086
 4247SOL    HW213641   1.902   4.869   5.205
 4248SOL     OW13642   1.977   0.848   2.555
 4248SOL    HW113643   2.051   0.823   2.492
 4248SOL    HW213644   1.890   0.816   2.519
 4249SOL     OW13645   6.900   0.823   4.490
 4249SOL    HW113646   6.819   0.859   4.444
 4249SOL    HW213647   6.873   0.775   4.573
 4250SOL     OW13648   0.107   6.170   4.226
 4250SOL    HW113649   0.090   6.207   4.318
 4250SOL    HW213650   0.076   6.075   4.222
 4251SOL     OW13651   6.111   2.749   6.474
 4251SOL    HW113652   6.030   2.791   6.433
 4251SOL    HW213653   6.158   2.694   6.405
 4252SOL     OW13654   6.424   6.044   5.665
 4252SOL    HW113655   6.507   6.012   5.710
 4252SOL    HW213656   6.346   5.993   5.700
 4253SOL     OW13657   4.556   6.018   2.704
 4253SOL    HW113658   4.614   6.017   2.786
 4253SOL    HW213659   4.585   6.093   2.644
 4254SOL     OW13660   2.131   3.628   6.590
 4254SOL    HW113661   2.155   3.724   6.602
 4254SOL    HW213662   2.206   3.570   6.621
 4255SOL     OW13663   0.429   3.562   2.618
 4255SOL    HW113664   0.491   3.638   2.600
 4255SOL    HW213665   0.436   3.535   2.714
 4256SOL     OW13666   0.521   5.034   2.493
 4256SOL    HW113667   0.541   5.002   2.400
 4256SOL    HW213668   0.599   5.086   2.528
 4257SOL     OW13669   5.946   1.008   4.928
 4257SOL    HW113670   5.874   1.061   4.885
 4257SOL    HW213671   5.938   0.912   4.901
 4258SOL     OW13672   3.831   6.154   0.485
 4258SOL    HW113673   3.806   6.059   0.498
 4258SOL    HW213674   3.759   6.213   0.522
 4259SOL     OW13675   0.976   6.616   1.626
 4259SOL    HW113676   0.880   6.640   1.641
 4259SOL    HW213677   1.026   6.625   1.712
 4260SOL     OW13678   5.271   0.038   5.049
 4260SOL    HW113679   5.226   7.001   4.986
 4260SOL    HW213680   5.204   0.072   5.116
 4261SOL     OW13681   1.562   0.197   3.947
 4261SOL    HW113682   1.635   0.253   3.986
 4261SOL    HW213683   1.519   0.143   4.020
 4262SOL     OW13684   1.621   4.666   6.687
 4262SOL    HW113685   1.609   4.638   6.783
 4262SOL    HW213686   1.580   4.598   6.627
 4263SOL     OW13687   2.717   2.043   3.511
 4263SOL    HW113688   2.735   1.945   3.498
 4263SOL    HW213689   2.684   2.058   3.604
 4264SOL     OW13690   5.402   1.647   4.125
 4264SOL    HW113691   5.331   1.717   4.130
 4264SOL    HW213692   5.456   1.659   4.042
 4265SOL     OW13693   3.059   0.494   0.945
 4265SOL    HW113694   2.959   0.500   0.955
 4265SOL    HW213695   3.082   0.483   0.849
 4266SOL     OW13696   1.434   6.310   0.428
 4266SOL    HW113697   1.387   6.379   0.483
 4266SOL    HW213698   1.518   6.349   0.390
 4267SOL     OW13699   1.744   4.030   4.614
 4267SOL    HW113700   1.645   4.041   4.618
 4267SOL    HW213701   1.770   3.999   4.522
 4268SOL     OW13702   1.305   4.899   6.626
 4268SOL    HW113703   1.394   4.925   6.590
 4268SOL    HW213704   1.248   4.862   6.553
 4269SOL     OW13705   3.295   1.892   4.281
 4269SOL    HW113706   3.245   1.872   4.365
 4269SOL    HW213707   3.324   1.988   4.281
 4270SOL     OW13708   3.956   2.573   0.471
 4270SOL    HW113709   3.957   2.484   0.425
 4270SOL    HW213710   4.040   2.622   0.450
 4271SOL     OW13711   6.606   0.370   0.970
 4271SOL    HW113712   6.706   0.367   0.973
 4271SOL    HW213713   6.571   0.282   0.939
 4272SOL     OW13714   6.398   2.947   5.860
 4272SOL    HW113715   6.495   2.923   5.865
 4272SOL    HW213716   6.365   2.931   5.767
 4273SOL     OW13717   4.393   5.619   5.122
 4273SOL    HW113718   4.372   5.715   5.105
 4273SOL    HW213719   4.478   5.612   5.174
 4274SOL     OW13720   6.388   0.222   1.661
 4274SOL    HW113721   6.357   0.257   1.749
 4274SOL    HW213722   6.329   0.147   1.631
 4275SOL     OW13723   1.019   2.741   3.458
 4275SOL    HW113724   0.942   2.755   3.521
 4275SOL    HW213725   1.088   2.812   3.474
 4276SOL     OW13726   2.889   6.218   4.051
 4276SOL    HW113727   2.791   6.207   4.068
 4276SOL    HW213728   2.911   6.177   3.962
 4277SOL     OW13729   6.686   5.646   4.188
 4277SOL    HW113730   6.663   5.691   4.102
 4277SOL    HW213731   6.619   5.574   4.207
 4278SOL     OW13732   1.038   6.848   1.993
 4278SOL    HW113733   1.085   6.922   2.042
 4278SOL    HW213734   0.976   6.800   2.055
 4279SOL     OW13735   2.058   2.549   3.079
 4279SOL    HW113736   2.157   2.550   3.063
 4279SOL    HW213737   2.035   2.613   3.152
 4280SOL     OW13738   6.614   6.836   6.301
 4280SOL    HW113739   6.713   6.840   6.319
 4280SOL    HW213740   6.565   6.863   6.384
 4281SOL     OW13741   4.606   5.473   3.882
 4281SOL    HW113742   4.591   5.571   3.871
 4281SOL    HW213743   4.646   5.436   3.798
 4282SOL     OW13744   3.701   4.313   1.005
 4282SOL    HW113745   3.639   4.314   0.927
 4282SOL    HW213746   3.748   4.224   1.010
 4283SOL     OW13747   4.892   1.231   3.645
 4283SOL    HW113748   4.827   1.194   3.712
 4283SOL    HW213749   4.852   1.312   3.602
 4284SOL     OW13750   5.155   5.926   7.010
 4284SOL    HW113751   5.226   5.959   0.046
 4284SOL    HW213752   5.193   5.853   6.952
 4285SOL     OW13753   3.153   0.648   6.099
 4285SOL    HW113754   3.077   0.713   6.098
 4285SOL    HW213755   3.139   0.580   6.028
 4286SOL     OW13756   6.802   1.128   6.407
 4286SOL    HW113757   6.856   1.126   6.491
 4286SOL    HW213758   6.707   1.105   6.427
 4287SOL     OW13759   4.660   0.675   0.018
 4287SOL    HW113760   4.754   0.700   0.040
 4287SOL    HW213761   4.619   0.626   0.095
 4288SOL     OW13762   6.808   6.093   2.020
 4288SOL    HW113763   6.897   6.050   2.002
 4288SOL    HW213764   6.790   6.091   2.119
 4289SOL     OW13765   0.593   3.153   4.895
 4289SOL    HW113766   0.530   3.168   4.971
 4289SOL    HW213767   0.542   3.124   4.814
 4290SOL     OW13768   0.584   0.570   3.103
 4290SOL    HW113769   0.610   0.488   3.052
 4290SOL    HW213770   0.549   0.639   3.039
 4291SOL     OW13771   5.118   3.470   6.040
 4291SOL    HW113772   5.043   3.443   6.100
 4291SOL    HW213773   5.081   3.514   5.958
 4292SOL     OW13774   5.361   2.070   0.682
 4292SOL    HW113775   5.426   2.037   0.613
 4292SOL    HW213776   5.397   2.050   0.773
 4293SOL     OW13777   4.701   3.932   6.722
 4293SOL    HW113778   4.741   3.880   6.647
 4293SOL    HW213779   4.668   3.870   6.793
 4294SOL     OW13780   2.959   2.063   6.281
 4294SOL    HW113781   3.023   1.987   6.278
 4294SOL    HW213782   3.006   2.145   6.314
 4295SOL     OW13783   4.215   6.745   3.016
 4295SOL    HW113784   4.207   6.826   2.957
 4295SOL    HW213785   4.270   6.676   2.969
 4296SOL     OW13786   2.268   6.659   0.782
 4296SOL    HW113787   2.307   6.700   0.865
 4296SOL    HW213788   2.200   6.722   0.744
 4297SOL     OW13789   5.814   5.398   0.664
 4297SOL    HW113790   5.868   5.475   0.631
 4297SOL    HW213791   5.875   5.323   0.692
 4298SOL     OW13792   3.118   6.341   1.383
 4298SOL    HW113793   3.207   6.298   1.399
 4298SOL    HW213794   3.123   6.438   1.408
 4299SOL     OW13795   1.066   2.359   0.304
 4299SOL    HW113796   1.028   2.310   0.226
 4299SOL    HW213797   1.158   2.392   0.281
 4300SOL     OW13798   3.739   0.471   1.340
 4300SOL    HW113799   3.760   0.530   1.418
 4300SOL    HW213800   3.640   0.458   1.333
 4301SOL     OW13801   3.130   0.195   2.252
 4301SOL    HW113802   3.033   0.170   2.256
 4301SOL    HW213803   3.158   0.203   2.156
 4302SOL     OW13804   1.849   5.874   6.230
 4302SOL    HW113805   1.779   5.805   6.250
 4302SOL    HW213806   1.877   5.918   6.315
 4303SOL     OW13807   6.149   4.310   4.270
 4303SOL    HW113808   6.220   4.288   4.337
 4303SOL    HW213809   6.093   4.385   4.305
 4304SOL     OW13810   3.469   3.453   1.685
 4304SOL    HW113811   3.513   3.539   1.660
 4304SOL    HW213812   3.390   3.471   1.742
 4305SOL     OW13813   0.757   0.283   5.326
 4305SOL    HW113814   0.856   0.289   5.340
 4305SOL    HW213815   0.719   0.210   5.383
 4306SOL     OW13816   4.970   3.841   4.353
 4306SOL    HW113817   4.999   3.921   4.301
 4306SOL    HW213818   4.936   3.870   4.443
 4307SOL     OW13819   6.135   1.910   5.442
 4307SOL    HW113820   6.186   1.919   5.528
 4307SOL    HW213821   6.083   1.824   5.444
 4308SOL     OW13822   4.906   4.614   1.184
 4308SOL    HW113823   4.857   4.637   1.100
 4308SOL    HW213824   4.916   4.515   1.191
 4309SOL     OW13825   1.313   3.522   0.388
 4309SOL    HW113826   1.360   3.460   0.324
 4309SOL    HW213827   1.235   3.565   0.343
 4310SOL     OW13828   0.034   1.896   2.221
 4310SOL    HW113829   0.102   1.953   2.174
 4310SOL    HW213830   0.035   1.804   2.180
 4311SOL     OW13831   1.070   6.335   2.338
 4311SOL    HW113832   1.089   6.369   2.245
 4311SOL    HW213833   1.038   6.240   2.332
 4312SOL     OW13834   0.434   4.973   2.119
 4312SOL    HW113835   0.385   4.945   2.036
 4312SOL    HW213836   0.373   4.964   2.198
 4313SOL     OW13837   6.052   1.517   6.539
 4313SOL    HW113838   6.094   1.448   6.480
 4313SOL    HW213839   6.017   1.473   6.622
 4314SOL     OW13840   6.599   2.625   4.811
 4314SOL    HW113841   6.591   2.535   4.769
 4314SOL    HW213842   6.673   2.624   4.879
 4315SOL     OW13843   2.778   1.255   4.342
 4315SOL    HW113844   2.792   1.202   4.425
 4315SOL    HW213845   2.743   1.195   4.270
 4316SOL     OW13846   5.700   6.871   2.305
 4316SOL    HW113847   5.648   6.955   2.286
 4316SOL    HW213848   5.707   6.817   2.222
 4317SOL     OW13849   5.033   0.923   5.958
 4317SOL    HW113850   5.006   0.979   6.035
 4317SOL    HW213851   4.952   0.893   5.907
 4318SOL     OW13852   1.178   1.734   3.864
 4318SOL    HW113853   1.105   1.665   3.869
 4318SOL    HW213854   1.265   1.693   3.893
 4319SOL     OW13855   1.246   4.440   2.281
 4319SOL    HW113856   1.334   4.487   2.290
 4319SOL    HW213857   1.242   4.394   2.193
 4320SOL     OW13858   3.746   6.209   0.194
 4320SOL    HW113859   3.798   6.215   0.109
 4320SOL    HW213860   3.773   6.284   0.255
 4321SOL     OW13861   6.418   6.708   2.479
 4321SOL    HW113862   6.504   6.695   2.528
 4321SOL    HW213863   6.398   6.806   2.474
 4322SOL     OW13864   0.774   3.190   5.307
 4322SOL    HW113865   0.817   3.231   5.227
 4322SOL    HW213866   0.742   3.098   5.284
 4323SOL     OW13867   4.072   5.233   0.207
 4323SOL    HW113868   4.033   5.270   0.291
 4323SOL    HW213869   4.068   5.303   0.135
 4324SOL     OW13870   0.128   3.651   5.775
 4324SOL    HW113871   0.158   3.570   5.725
 4324SOL    HW213872   0.171   3.732   5.736
 4325SOL     OW13873   2.971   0.934   2.714
 4325SOL    HW113874   3.023   0.871   2.658
 4325SOL    HW213875   2.976   1.026   2.676
 4326SOL     OW13876   5.102   2.511   2.737
 4326SOL    HW113877   5.118   2.440   2.668
 4326SOL    HW213878   5.105   2.470   2.828
 4327SOL     OW13879   3.732   5.568   4.247
 4327SOL    HW113880   3.827   5.542   4.265
 4327SOL    HW213881   3.671   5.494   4.273
 4328SOL     OW13882   5.705   5.363   5.044
 4328SOL    HW113883   5.695   5.264   5.043
 4328SOL    HW213884   5.796   5.387   5.077
 4329SOL     OW13885   5.901   2.835   6.291
 4329SOL    HW113886   5.801   2.837   6.283
 4329SOL    HW213887   5.939   2.918   6.250
 4330SOL     OW13888   2.764   5.036   5.174
 4330SOL    HW113889   2.694   4.968   5.154
 4330SOL    HW213890   2.726   5.128   5.161
 4331SOL     OW13891   6.562   0.540   1.540
 4331SOL    HW113892   6.506   0.488   1.475
 4331SOL    HW213893   6.525   0.529   1.632
 4332SOL     OW13894   6.695   4.823   2.700
 4332SOL    HW113895   6.725   4.752   2.764
 4332SOL    HW213896   6.745   4.814   2.614
 4333SOL     OW13897   4.108   1.971   5.216
 4333SOL    HW113898   4.121   1.942   5.121
 4333SOL    HW213899   4.159   1.910   5.277
 4334SOL     OW13900   1.317   3.051   3.649
 4334SOL    HW113901   1.298   3.134   3.596
 4334SOL    HW213902   1.341   3.076   3.743
 4335SOL     OW13903   3.314   3.514   1.407
 4335SOL    HW113904   3.388   3.488   1.469
 4335SOL    HW213905   3.272   3.599   1.439
 4336SOL     OW13906   2.206   5.995   5.985
 4336SOL    HW113907   2.274   5.974   6.055
 4336SOL    HW213908   2.249   5.997   5.895
 4337SOL     OW13909   1.363   5.519   2.518
 4337SOL    HW113910   1.333   5.441   2.463
 4337SOL    HW213911   1.440   5.563   2.473
 4338SOL     OW13912   4.824   0.605   5.953
 4338SOL    HW113913   4.771   0.625   6.035
 4338SOL    HW213914   4.819   0.683   5.891
 4339SOL     OW13915   4.344   2.895   5.733
 4339SOL    HW113916   4.372   2.929   5.823
 4339SOL    HW213917   4.369   2.798   5.725
 4340SOL     OW13918   6.627   3.689   0.987
 4340SOL    HW113919   6.567   3.709   1.064
 4340SOL    HW213920   6.700   3.627   1.017
 4341SOL     OW13921   1.185   5.907   2.426
 4341SOL    HW113922   1.173   5.855   2.511
 4341SOL    HW213923   1.117   5.980   2.421
 4342SOL     OW13924   4.979   4.027   2.629
 4342SOL    HW113925   4.883   4.030   2.655
 4342SOL    HW213926   4.993   3.952   2.565
 4343SOL     OW13927   3.931   0.160   6.159
 4343SOL    HW113928   4.014   0.144   6.212
 4343SOL    HW213929   3.911   0.079   6.103
 4344SOL     OW13930   6.911   2.288   3.762
 4344SOL    HW113931   6.897   2.386   3.770
 4344SOL    HW213932   6.895   2.259   3.667
 4345SOL     OW13933   2.922   3.748   2.336
 4345SOL    HW113934   2.829   3.719   2.358
 4345SOL    HW213935   2.983   3.727   2.412
 4346SOL     OW13936   1.688   3.086   1.843
 4346SOL    HW113937   1.712   3.182   1.833
 4346SOL    HW213938   1.592   3.073   1.818
 4347SOL     OW13939   5.675   4.959   1.981
 4347SOL    HW113940   5.691   4.888   1.913
 4347SOL    HW213941   5.577   4.971   1.994
 4348SOL     OW13942   6.477   6.173   4.322
 4348SOL    HW113943   6.392   6.206   4.363
 4348SOL    HW213944   6.462   6.082   4.283
 4349SOL     OW13945   0.368   3.780   3.804
 4349SOL    HW113946   0.463   3.749   3.810
 4349SOL    HW213947   0.310   3.723   3.862
 4350SOL     OW13948   4.907   1.216   4.925
 4350SOL    HW113949   4.947   1.160   4.852
 4350SOL    HW213950   4.924   1.312   4.906
 4351SOL     OW13951   1.309   6.826   0.968
 4351SOL    HW113952   1.279   6.735   0.996
 4351SOL    HW213953   1.288   6.839   0.871
 4352SOL     OW13954   4.054   3.848   0.895
 4352SOL    HW113955   4.088   3.822   0.985
 4352SOL    HW213956   4.105   3.800   0.824
 4353SOL     OW13957   2.894   3.076   0.112
 4353SOL    HW113958   2.956   3.018   0.059
 4353SOL    HW213959   2.830   3.017   0.163
 4354SOL     OW13960   6.233   7.010   4.607
 4354SOL    HW113961   6.182   6.935   4.650
 4354SOL    HW213962   6.322   6.977   4.576
 4355SOL     OW13963   1.722   6.735   3.619
 4355SOL    HW113964   1.736   6.652   3.673
 4355SOL    HW213965   1.764   6.813   3.666
 4356SOL     OW13966   5.117   2.202   6.734
 4356SOL    HW113967   5.195   2.219   6.674
 4356SOL    HW213968   5.034   2.238   6.691
 4357SOL     OW13969   6.533   0.488   1.802
 4357SOL    HW113970   6.549   0.392   1.779
 4357SOL    HW213971   6.499   0.495   1.896
 4358SOL     OW13972   0.873   0.840   6.992
 4358SOL    HW113973   0.783   0.820   6.954
 4358SOL    HW213974   0.869   0.923   0.021
 4359SOL     OW13975   2.227   1.018   6.533
 4359SOL    HW113976   2.179   1.053   6.452
 4359SOL    HW213977   2.187   1.060   6.615
 4360SOL     OW13978   1.602   3.037   3.652
 4360SOL    HW113979   1.515   2.996   3.680
 4360SOL    HW213980   1.603   3.048   3.553
 4361SOL     OW13981   1.121   2.137   0.880
 4361SOL    HW113982   1.027   2.172   0.884
 4361SOL    HW213983   1.126   2.051   0.930
 4362SOL     OW13984   1.556   5.687   3.970
 4362SOL    HW113985   1.540   5.657   4.064
 4362SOL    HW213986   1.506   5.772   3.953
 4363SOL     OW13987   4.589   0.297   2.536
 4363SOL    HW113988   4.684   0.301   2.505
 4363SOL    HW213989   4.528   0.289   2.456
 4364SOL     OW13990   3.392   3.677   2.846
 4364SOL    HW113991   3.395   3.776   2.831
 4364SOL    HW213992   3.405   3.630   2.759
 4365SOL     OW13993   3.042   2.223   1.764
 4365SOL    HW113994   3.100   2.295   1.724
 4365SOL    HW213995   2.981   2.264   1.832
 4366SOL     OW13996   5.159   6.166   5.328
 4366SOL    HW113997   5.106   6.166   5.413
 4366SOL    HW213998   5.181   6.072   5.302
 4367SOL     OW13999   3.201   5.666   3.898
 4367SOL    HW114000   3.102   5.679   3.887
 4367SOL    HW214001   3.219   5.598   3.969
 4368SOL     OW14002   4.814   4.488   2.272
 4368SOL    HW114003   4.854   4.441   2.193
 4368SOL    HW214004   4.788   4.421   2.341
 4369SOL     OW14005   4.414   5.033   3.014
 4369SOL    HW114006   4.380   5.126   2.998
 4369SOL    HW214007   4.434   4.989   2.927
 4370SOL     OW14008   3.752   4.833   1.722
 4370SOL    HW114009   3.693   4.809   1.800
 4370SOL    HW214010   3.722   4.783   1.641
 4371SOL     OW14011   2.695   0.470   1.341
 4371SOL    HW114012   2.651   0.546   1.294
 4371SOL    HW214013   2.692   0.484   1.439
 4372SOL     OW14014   1.896   2.928   4.835
 4372SOL    HW114015   1.953   2.848   4.856
 4372SOL    HW214016   1.915   3.000   4.902
 4373SOL     OW14017   4.493   0.950   6.169
 4373SOL    HW114018   4.407   0.940   6.118
 4373SOL    HW214019   4.474   0.953   6.267
 4374SOL     OW14020   2.424   1.263   1.128
 4374SOL    HW114021   2.509   1.250   1.180
 4374SOL    HW214022   2.446   1.267   1.030
 4375SOL     OW14023   3.691   0.921   3.455
 4375SOL    HW114024   3.633   1.000   3.439
 4375SOL    HW214025   3.636   0.845   3.490
 4376SOL     OW14026   6.294   6.683   1.177
 4376SOL    HW114027   6.305   6.754   1.107
 4376SOL    HW214028   6.229   6.714   1.246
 4377SOL     OW14029   6.310   6.392   6.636
 4377SOL    HW114030   6.289   6.318   6.572
 4377SOL    HW214031   6.249   6.385   6.715
 4378SOL     OW14032   1.946   6.011   2.447
 4378SOL    HW114033   1.970   6.041   2.539
 4378SOL    HW214034   1.863   5.954   2.450
 4379SOL     OW14035   0.799   1.423   1.565
 4379SOL    HW114036   0.798   1.324   1.569
 4379SOL    HW214037   0.777   1.453   1.472
 4380SOL     OW14038   1.597   6.031   5.319
 4380SOL    HW114039   1.632   6.062   5.407
 4380SOL    HW214040   1.660   6.059   5.247
 4381SOL     OW14041   3.806   0.076   5.009
 4381SOL    HW114042   3.734   0.036   4.953
 4381SOL    HW214043   3.893   0.073   4.958
 4382SOL     OW14044   5.293   4.028   4.699
 4382SOL    HW114045   5.262   3.961   4.632
 4382SOL    HW214046   5.298   4.118   4.655
 4383SOL     OW14047   1.088   2.712   5.760
 4383SOL    HW114048   1.105   2.614   5.767
 4383SOL    HW214049   1.064   2.748   5.850
 4384SOL     OW14050   3.999   6.741   1.200
 4384SOL    HW114051   4.027   6.810   1.134
 4384SOL    HW214052   3.906   6.712   1.181
 4385SOL     OW14053   0.485   1.452   3.237
 4385SOL    HW114054   0.484   1.410   3.146
 4385SOL    HW214055   0.393   1.486   3.259
 4386SOL     OW14056   0.936   3.727   6.686
 4386SOL    HW114057   0.943   3.672   6.602
 4386SOL    HW214058   0.887   3.812   6.666
 4387SOL     OW14059   6.622   3.312   1.256
 4387SOL    HW114060   6.715   3.306   1.293
 4387SOL    HW214061   6.627   3.333   1.158
 4388SOL     OW14062   3.276   0.767   5.890
 4388SOL    HW114063   3.248   0.732   5.980
 4388SOL    HW214064   3.208   0.741   5.822
 4389SOL     OW14065   5.775   3.042   1.652
 4389SOL    HW114066   5.828   3.017   1.571
 4389SOL    HW214067   5.827   3.019   1.735
 4390SOL     OW14068   4.892   2.623   2.097
 4390SOL    HW114069   4.796   2.641   2.076
 4390SOL    HW214070   4.937   2.581   2.018
 4391SOL     OW14071   0.779   5.617   0.361
 4391SOL    HW114072   0.833   5.596   0.442
 4391SOL    HW214073   0.686   5.641   0.388
 4392SOL     OW14074   4.961   3.044   4.448
 4392SOL    HW114075   4.958   3.144   4.452
 4392SOL    HW214076   4.882   3.007   4.497
 4393SOL     OW14077   4.987   0.247   3.469
 4393SOL    HW114078   5.002   0.346   3.474
 4393SOL    HW214079   4.941   0.216   3.552
 4394SOL     OW14080   5.608   6.527   2.372
 4394SOL    HW114081   5.585   6.606   2.430
 4394SOL    HW214082   5.675   6.555   2.303
 4395SOL     OW14083   4.697   1.810   1.507
 4395SOL    HW114084   4.745   1.764   1.582
 4395SOL    HW214085   4.763   1.851   1.445
 4396SOL     OW14086   0.901   1.030   4.188
 4396SOL    HW114087   0.884   0.964   4.261
 4396SOL    HW214088   0.902   0.983   4.100
 4397SOL     OW14089   7.008   0.695   5.469
 4397SOL    HW114090   0.050   0.744   5.524
 4397SOL    HW214091   6.981   0.752   5.392
 4398SOL     OW14092   0.680   4.746   3.849
 4398SOL    HW114093   0.770   4.702   3.846
 4398SOL    HW214094   0.617   4.696   3.789
 4399SOL     OW14095   1.792   1.097   0.646
 4399SOL    HW114096   1.743   1.054   0.571
 4399SOL    HW214097   1.731   1.106   0.725
 4400SOL     OW14098   2.567   6.874   4.307
 4400SOL    HW114099   2.660   6.862   4.273
 4400SOL    HW214100   2.507   6.902   4.233
 4401SOL     OW14101   6.032   5.909   4.306
 4401SOL    HW114102   6.122   5.936   4.271
 4401SOL    HW214103   6.010   5.962   4.388
 4402SOL     OW14104   1.358   5.807   2.878
 4402SOL    HW114105   1.452   5.782   2.900
 4402SOL    HW214106   1.338   5.898   2.914
 4403SOL     OW14107   0.213   0.182   3.005
 4403SOL    HW114108   0.223   0.233   3.091
 4403SOL    HW214109   0.292   0.122   2.993
 4404SOL     OW14110   0.316   4.066   3.147
 4404SOL    HW114111   0.332   4.144   3.087
 4404SOL    HW214112   0.398   4.048   3.201
 4405SOL     OW14113   2.740   4.749   6.056
 4405SOL    HW114114   2.782   4.658   6.050
 4405SOL    HW214115   2.743   4.793   5.966
 4406SOL     OW14116   5.982   4.265   1.231
 4406SOL    HW114117   5.897   4.299   1.192
 4406SOL    HW214118   6.023   4.198   1.168
 4407SOL     OW14119   6.668   6.237   0.360
 4407SOL    HW114120   6.590   6.289   0.325
 4407SOL    HW214121   6.666   6.145   0.322
 4408SOL     OW14122   4.990   0.477   0.406
 4408SOL    HW114123   5.067   0.540   0.414
 4408SOL    HW214124   4.976   0.430   0.493
 4409SOL     OW14125   3.361   0.696   1.689
 4409SOL    HW114126   3.416   0.774   1.657
 4409SOL    HW214127   3.421   0.621   1.714
 4410SOL     OW14128   2.101   5.361   0.944
 4410SOL    HW114129   2.104   5.269   0.904
 4410SOL    HW214130   2.193   5.400   0.945
 4411SOL     OW14131   3.796   3.086   2.627
 4411SOL    HW114132   3.895   3.078   2.618
 4411SOL    HW214133   3.765   3.034   2.707
 4412SOL     OW14134   4.165   1.247   6.528
 4412SOL    HW114135   4.166   1.345   6.547
 4412SOL    HW214136   4.078   1.222   6.485
 4413SOL     OW14137   3.967   5.414   4.325
 4413SOL    HW114138   4.015   5.444   4.242
 4413SOL    HW214139   3.926   5.324   4.308
 4414SOL     OW14140   4.137   4.871   1.976
 4414SOL    HW114141   4.188   4.798   2.020
 4414SOL    HW214142   4.046   4.879   2.018
 4415SOL     OW14143   5.151   3.753   6.401
 4415SOL    HW114144   5.118   3.773   6.309
 4415SOL    HW214145   5.193   3.662   6.403
 4416SOL     OW14146   3.148   0.930   4.598
 4416SOL    HW114147   3.104   0.916   4.509
 4416SOL    HW214148   3.246   0.944   4.585
 4417SOL     OW14149   0.160   5.127   1.986
 4417SOL    HW114150   0.199   5.170   2.067
 4417SOL    HW214151   0.123   5.198   1.925
 4418SOL     OW14152   4.410   6.044   4.667
 4418SOL    HW114153   4.455   6.076   4.584
 4418SOL    HW214154   4.322   6.090   4.677
 4419SOL     OW14155   6.407   5.083   0.358
 4419SOL    HW114156   6.456   5.048   0.437
 4419SOL    HW214157   6.309   5.067   0.369
 4420SOL     OW14158   5.111   1.205   0.153
 4420SOL    HW114159   5.170   1.280   0.184
 4420SOL    HW214160   5.144   1.171   0.065
 4421SOL     OW14161   1.904   1.658   2.840
 4421SOL    HW114162   1.915   1.579   2.901
 4421SOL    HW214163   1.993   1.699   2.822
 4422SOL     OW14164   2.343   4.073   6.271
 4422SOL    HW114165   2.429   4.023   6.286
 4422SOL    HW214166   2.339   4.104   6.176
 4423SOL     OW14167   1.131   2.623   6.411
 4423SOL    HW114168   1.161   2.637   6.506
 4423SOL    HW214169   1.032   2.632   6.405
 4424SOL     OW14170   6.229   6.368   3.160
 4424SOL    HW114171   6.168   6.446   3.146
 4424SOL    HW214172   6.265   6.337   3.072
 4425SOL     OW14173   3.608   5.273   6.408
 4425SOL    HW114174   3.585   5.184   6.445
 4425SOL    HW214175   3.657   5.262   6.321
 4426SOL     OW14176   6.886   0.242   5.607
 4426SOL    HW114177   6.904   0.270   5.701
 4426SOL    HW214178   6.791   0.261   5.584
 4427SOL     OW14179   0.833   0.504   3.259
 4427SOL    HW114180   0.866   0.577   3.198
 4427SOL    HW214181   0.755   0.458   3.216
 4428SOL     OW14182   1.655   5.120   4.528
 4428SOL    HW114183   1.616   5.033   4.495
 4428SOL    HW214184   1.672   5.113   4.626
 4429SOL     OW14185   3.275   6.985   3.564
 4429SOL    HW114186   3.265   0.030   3.494
 4429SOL    HW214187   3.185   6.954   3.594
 4430SOL     OW14188   3.060   1.550   2.943
 4430SOL    HW114189   3.021   1.610   2.874
 4430SOL    HW214190   3.107   1.474   2.898
 4431SOL     OW14191   2.950   1.706   3.655
 4431SOL    HW114192   2.943   1.763   3.736
 4431SOL    HW214193   2.918   1.756   3.575
 4432SOL     OW14194   3.392   3.515   2.628
 4432SOL    HW114195   3.377   3.538   2.532
 4432SOL    HW214196   3.366   3.420   2.644
 4433SOL     OW14197   6.513   6.167   2.753
 4433SOL    HW114198   6.562   6.220   2.684
 4433SOL    HW214199   6.557   6.078   2.764
 4434SOL     OW14200   5.812   1.579   3.504
 4434SOL    HW114201   5.785   1.670   3.474
 4434SOL    HW214202   5.814   1.576   3.604
 4435SOL     OW14203   3.478   2.956   1.608
 4435SOL    HW114204   3.399   2.911   1.650
 4435SOL    HW214205   3.486   3.049   1.644
 4436SOL     OW14206   3.593   1.610   0.032
 4436SOL    HW114207   3.545   1.679   0.086
 4436SOL    HW214208   3.689   1.636   0.022
 4437SOL     OW14209   4.121   0.571   4.986
 4437SOL    HW114210   4.134   0.480   4.946
 4437SOL    HW214211   4.144   0.568   5.083
 4438SOL     OW14212   3.917   2.199   6.928
 4438SOL    HW114213   3.991   2.155   6.878
 4438SOL    HW214214   3.867   2.261   6.867
 4439SOL     OW14215   1.282   5.294   2.383
 4439SOL    HW114216   1.203   5.242   2.416
 4439SOL    HW214217   1.292   5.281   2.285
 4440SOL     OW14218   1.617   6.211   6.646
 4440SOL    HW114219   1.560   6.266   6.707
 4440SOL    HW214220   1.698   6.179   6.695
 4441SOL     OW14221   5.872   2.389   2.325
 4441SOL    HW114222   5.884   2.411   2.422
 4441SOL    HW214223   5.835   2.296   2.316
 4442SOL     OW14224   4.290   6.061   3.840
 4442SOL    HW114225   4.246   6.149   3.819
 4442SOL    HW214226   4.235   6.011   3.907
 4443SOL     OW14227   2.273   2.356   5.709
 4443SOL    HW114228   2.304   2.271   5.752
 4443SOL    HW214229   2.239   2.336   5.617
 4444SOL     OW14230   4.341   6.458   1.023
 4444SOL    HW114231   4.427   6.485   0.980
 4444SOL    HW214232   4.326   6.511   1.106
 4445SOL     OW14233   1.356   0.871   6.301
 4445SOL    HW114234   1.341   0.798   6.234
 4445SOL    HW214235   1.406   0.946   6.258
 4446SOL     OW14236   5.917   0.459   2.979
 4446SOL    HW114237   5.947   0.431   2.888
 4446SOL    HW214238   5.872   0.548   2.974
 4447SOL     OW14239   5.658   2.915   6.113
 4447SOL    HW114240   5.747   2.956   6.094
 4447SOL    HW214241   5.585   2.977   6.083
 4448SOL     OW14242   2.257   3.693   0.284
 4448SOL    HW114243   2.277   3.646   0.198
 4448SOL    HW214244   2.341   3.699   0.338
 4449SOL     OW14245   2.540   0.259   5.352
 4449SOL    HW114246   2.455   0.310   5.335
 4449SOL    HW214247   2.614   0.299   5.299
 4450SOL     OW14248   3.243   3.008   3.230
 4450SOL    HW114249   3.158   3.011   3.282
 4450SOL    HW214250   3.264   3.100   3.195
 4451SOL     OW14251   6.260   4.606   2.066
 4451SOL    HW114252   6.295   4.520   2.104
 4451SOL    HW214253   6.207   4.655   2.137
 4452SOL     OW14254   6.235   6.013   5.905
 4452SOL    HW114255   6.193   6.007   5.996
 4452SOL    HW214256   6.164   6.034   5.837
 4453SOL     OW14257   5.209   2.432   1.824
 4453SOL    HW114258   5.202   2.435   1.924
 4453SOL    HW214259   5.287   2.376   1.798
 4454SOL     OW14260   5.091   2.951   1.069
 4454SOL    HW114261   5.147   3.016   1.017
 4454SOL    HW214262   5.017   3.000   1.114
 4455SOL     OW14263   3.579   0.307   2.831
 4455SOL    HW114264   3.495   0.328   2.881
 4455SOL    HW214265   3.555   0.272   2.740
 4456SOL     OW14266   1.607   5.264   2.652
 4456SOL    HW114267   1.516   5.242   2.686
 4456SOL    HW214268   1.637   5.351   2.691
 4457SOL     OW14269   4.839   2.130   6.244
 4457SOL    HW114270   4.779   2.102   6.169
 4457SOL    HW214271   4.783   2.160   6.322
 4458SOL     OW14272   2.544   2.193   6.446
 4458SOL    HW114273   2.638   2.192   6.481
 4458SOL    HW214274   2.541   2.247   6.362
 4459SOL     OW14275   4.849   6.608   5.183
 4459SOL    HW114276   4.829   6.512   5.200
 4459SOL    HW214277   4.947   6.620   5.170
 4460SOL     OW14278   2.664   3.501   6.631
 4460SOL    HW114279   2.571   3.536   6.615
 4460SOL    HW214280   2.665   3.402   6.616
 4461SOL     OW14281   1.487   6.969   2.650
 4461SOL    HW114282   1.404   6.977   2.595
 4461SOL    HW214283   1.502   0.028   2.700
 4462SOL     OW14284   6.348   5.291   0.559
 4462SOL    HW114285   6.403   5.330   0.632
 4462SOL    HW214286   6.307   5.205   0.590
 4463SOL     OW14287   2.058   3.588   6.326
 4463SOL    HW114288   2.105   3.619   6.409
 4463SOL    HW214289   2.107   3.622   6.246
 4464SOL     OW14290   5.387   3.813   5.704
 4464SOL    HW114291   5.438   3.857   5.631
 4464SOL    HW214292   5.340   3.733   5.668
 4465SOL     OW14293   1.676   6.385   2.037
 4465SOL    HW114294   1.647   6.306   1.983
 4465SOL    HW214295   1.764   6.418   2.002
 4466SOL     OW14296   0.880   1.958   2.373
 4466SOL    HW114297   0.783   1.938   2.385
 4466SOL    HW214298   0.934   1.882   2.408
 4467SOL     OW14299   1.470   0.169   2.893
 4467SOL    HW114300   1.371   0.156   2.891
 4467SOL    HW214301   1.507   0.129   2.977
 4468SOL     OW14302   1.101   2.719   0.039
 4468SOL    HW114303   1.033   2.661   0.085
 4468SOL    HW214304   1.180   2.663   0.014
 4469SOL     OW14305   3.275   0.295   1.538
 4469SOL    HW114306   3.214   0.373   1.547
 4469SOL    HW214307   3.269   0.258   1.445
 4470SOL     OW14308   4.868   3.791   1.424
 4470SOL    HW114309   4.826   3.702   1.409
 4470SOL    HW214310   4.796   3.858   1.444
 4471SOL     OW14311   0.234   2.410   1.759
 4471SOL    HW114312   0.176   2.415   1.840
 4471SOL    HW214313   0.235   2.498   1.712
 4472SOL     OW14314   1.904   3.960   2.333
 4472SOL    HW114315   1.876   4.044   2.286
 4472SOL    HW214316   1.927   3.981   2.428
 4473SOL     OW14317   0.175   6.941   4.324
 4473SOL    HW114318   0.215   0.006   4.328
 4473SOL    HW214319   0.243   6.876   4.288
 4474SOL     OW14320   3.905   7.005   2.693
 4474SOL    HW114321   3.859   6.948   2.761
 4474SOL    HW214322   3.913   6.955   2.607
 4475SOL     OW14323   1.869   4.283   1.411
 4475SOL    HW114324   1.881   4.254   1.316
 4475SOL    HW214325   1.921   4.367   1.426
 4476SOL     OW14326   4.794   6.586   2.150
 4476SOL    HW114327   4.695   6.592   2.136
 4476SOL    HW214328   4.836   6.676   2.139
 4477SOL     OW14329   2.023   1.469   6.993
 4477SOL    HW114330   1.990   1.404   6.925
 4477SOL    HW214331   1.992   1.561   6.969
 4478SOL     OW14332   2.104   6.820   2.461
 4478SOL    HW114333   2.056   6.754   2.403
 4478SOL    HW214334   2.083   6.912   2.429
 4479SOL     OW14335   1.029   0.359   5.475
 4479SOL    HW114336   1.114   0.347   5.526
 4479SOL    HW214337   0.953   0.367   5.539
 4480SOL     OW14338   1.118   4.785   4.617
 4480SOL    HW114339   1.068   4.753   4.697
 4480SOL    HW214340   1.216   4.779   4.635
 4481SOL     OW14341   1.330   6.089   3.933
 4481SOL    HW114342   1.334   6.069   4.030
 4481SOL    HW214343   1.244   6.136   3.912
 4482SOL     OW14344   0.171   4.407   3.615
 4482SOL    HW114345   0.255   4.416   3.561
 4482SOL    HW214346   0.164   4.313   3.650
 4483SOL     OW14347   6.130   2.954   1.182
 4483SOL    HW114348   6.175   2.888   1.242
 4483SOL    HW214349   6.178   3.042   1.187
 4484SOL     OW14350   3.855   2.677   5.316
 4484SOL    HW114351   3.769   2.627   5.316
 4484SOL    HW214352   3.931   2.613   5.333
 4485SOL     OW14353   4.817   1.686   0.021
 4485SOL    HW114354   4.875   1.674   6.966
 4485SOL    HW214355   4.843   1.770   0.068
 4486SOL     OW14356   6.532   3.991   5.151
 4486SOL    HW114357   6.588   3.999   5.069
 4486SOL    HW214358   6.513   4.083   5.188
 4487SOL     OW14359   2.721   3.650   6.104
 4487SOL    HW114360   2.630   3.643   6.063
 4487SOL    HW214361   2.771   3.726   6.063
 4488SOL     OW14362   6.290   1.865   5.666
 4488SOL    HW114363   6.375   1.839   5.620
 4488SOL    HW214364   6.250   1.784   5.710
 4489SOL     OW14365   5.868   5.441   4.711
 4489SOL    HW114366   5.952   5.494   4.718
 4489SOL    HW214367   5.860   5.403   4.619
 4490SOL     OW14368   6.093   1.526   2.221
 4490SOL    HW114369   6.145   1.444   2.244
 4490SOL    HW214370   6.113   1.599   2.287
 4491SOL     OW14371   1.468   3.997   3.188
 4491SOL    HW114372   1.433   4.068   3.126
 4491SOL    HW214373   1.392   3.952   3.234
 4492SOL     OW14374   4.654   2.372   0.410
 4492SOL    HW114375   4.731   2.435   0.400
 4492SOL    HW214376   4.670   2.290   0.356
 4493SOL     OW14377   4.719   5.156   5.079
 4493SOL    HW114378   4.697   5.082   5.016
 4493SOL    HW214379   4.743   5.238   5.027
 4494SOL     OW14380   6.915   4.064   5.090
 4494SOL    HW114381   6.871   3.974   5.087
 4494SOL    HW214382   6.921   4.101   4.997
 4495SOL     OW14383   5.151   6.386   2.439
 4495SOL    HW114384   5.138   6.451   2.365
 4495SOL    HW214385   5.062   6.361   2.477
 4496SOL     OW14386   5.651   3.967   6.017
 4496SOL    HW114387   5.698   4.036   6.073
 4496SOL    HW214388   5.575   4.009   5.968
 4497SOL     OW14389   5.507   5.334   6.840
 4497SOL    HW114390   5.604   5.355   6.854
 4497SOL    HW214391   5.497   5.279   6.757
 4498SOL     OW14392   0.534   3.867   6.699
 4498SOL    HW114393   0.564   3.773   6.682
 4498SOL    HW214394   0.541   3.887   6.797
 4499SOL     OW14395   6.945   3.331   4.681
 4499SOL    HW114396   6.979   3.294   4.767
 4499SOL    HW214397   7.017   3.328   4.612
 4500SOL     OW14398   2.913   3.346   4.540
 4500SOL    HW114399   2.910   3.291   4.623
 4500SOL    HW214400   2.982   3.310   4.477
 4501SOL     OW14401   0.567   4.212   5.229
 4501SOL    HW114402   0.599   4.223   5.323
 4501SOL    HW214403   0.636   4.165   5.175
 4502SOL     OW14404   1.650   2.549   6.913
 4502SOL    HW114405   1.596   2.633   6.905
 4502SOL    HW214406   1.601   2.483   6.969
 4503SOL     OW14407   2.164   1.685   3.493
 4503SOL    HW114408   2.067   1.672   3.511
 4503SOL    HW214409   2.213   1.701   3.579
 4504SOL     OW14410   6.168   2.806   5.963
 4504SOL    HW114411   6.192   2.887   5.911
 4504SOL    HW214412   6.178   2.725   5.906
 4505SOL     OW14413   1.461   6.340   5.374
 4505SOL    HW114414   1.381   6.348   5.314
 4505SOL    HW214415   1.447   6.266   5.439
 4506SOL     OW14416   4.267   1.089   5.302
 4506SOL    HW114417   4.197   1.064   5.369
 4506SOL    HW214418   4.313   1.173   5.330
 4507SOL     OW14419   4.779   4.800   1.007
 4507SOL    HW114420   4.799   4.855   1.088
 4507SOL    HW214421   4.770   4.861   0.928
 4508SOL     OW14422   1.472   3.809   0.041
 4508SOL    HW114423   1.480   3.812   0.141
 4508SOL    HW214424   1.412   3.882   0.010
 4509SOL     OW14425   4.114   2.034   4.455
 4509SOL    HW114426   4.118   1.959   4.521
 4509SOL    HW214427   4.055   2.107   4.490
 4510SOL     OW14428   5.544   0.370   5.107
 4510SOL    HW114429   5.595   0.347   5.024
 4510SOL    HW214430   5.548   0.294   5.172
 4511SOL     OW14431   6.631   3.077   0.289
 4511SOL    HW114432   6.563   3.120   0.349
 4511SOL    HW214433   6.637   3.127   0.203
 4512SOL     OW14434   2.137   6.393   6.898
 4512SOL    HW114435   2.073   6.455   6.853
 4512SOL    HW214436   2.110   6.379   6.993
 4513SOL     OW14437   4.733   6.596   1.436
 4513SOL    HW114438   4.827   6.589   1.405
 4513SOL    HW214439   4.690   6.678   1.397
 4514SOL     OW14440   3.543   0.994   5.137
 4514SOL    HW114441   3.540   0.978   5.039
 4514SOL    HW214442   3.491   1.076   5.160
 4515SOL     OW14443   6.895   4.821   0.294
 4515SOL    HW114444   6.957   4.807   0.371
 4515SOL    HW214445   6.896   4.917   0.267
 4516SOL     OW14446   1.031   1.424   5.109
 4516SOL    HW114447   0.981   1.343   5.077
 4516SOL    HW214448   1.129   1.409   5.099
 4517SOL     OW14449   3.498   6.827   6.575
 4517SOL    HW114450   3.441   6.851   6.653
 4517SOL    HW214451   3.460   6.866   6.492
 4518SOL     OW14452   0.875   1.981   3.749
 4518SOL    HW114453   0.856   2.024   3.661
 4518SOL    HW214454   0.914   2.048   3.812
 4519SOL     OW14455   0.095   2.488   3.650
 4519SOL    HW114456   0.167   2.543   3.607
 4519SOL    HW214457   0.103   2.496   3.750
 4520SOL     OW14458   6.294   4.496   2.404
 4520SOL    HW114459   6.371   4.493   2.469
 4520SOL    HW214460   6.308   4.430   2.331
 4521SOL     OW14461   5.013   2.341   6.367
 4521SOL    HW114462   5.052   2.397   6.293
 4521SOL    HW214463   4.990   2.251   6.331
 4522SOL     OW14464   5.990   6.420   3.341
 4522SOL    HW114465   5.925   6.495   3.349
 4522SOL    HW214466   5.941   6.333   3.349
 4523SOL     OW14467   3.109   4.742   0.488
 4523SOL    HW114468   3.040   4.698   0.546
 4523SOL    HW214469   3.119   4.691   0.403
 4524SOL     OW14470   5.383   1.395   5.193
 4524SOL    HW114471   5.410   1.396   5.097
 4524SOL    HW214472   5.432   1.322   5.241
 4525SOL     OW14473   6.424   1.370   4.274
 4525SOL    HW114474   6.412   1.380   4.373
 4525SOL    HW214475   6.518   1.344   4.253
 4526SOL     OW14476   4.594   6.600   0.922
 4526SOL    HW114477   4.693   6.603   0.933
 4526SOL    HW214478   4.551   6.670   0.979
 4527SOL     OW14479   5.105   1.248   2.806
 4527SOL    HW114480   5.150   1.245   2.895
 4527SOL    HW214481   5.155   1.191   2.741
 4528SOL     OW14482   5.428   0.360   0.265
 4528SOL    HW114483   5.384   0.423   0.201
 4528SOL    HW214484   5.491   0.300   0.215
 4529SOL     OW14485   2.404   0.493   2.673
 4529SOL    HW114486   2.356   0.410   2.704
 4529SOL    HW214487   2.344   0.572   2.686
 4530SOL     OW14488   0.677   3.256   5.546
 4530SOL    HW114489   0.753   3.300   5.594
 4530SOL    HW214490   0.704   3.235   5.452
 4531SOL     OW14491   0.861   3.593   3.907
 4531SOL    HW114492   0.927   3.640   3.966
 4531SOL    HW214493   0.855   3.497   3.933
 4532SOL     OW14494   6.437   1.389   0.943
 4532SOL    HW114495   6.501   1.378   0.867
 4532SOL    HW214496   6.362   1.449   0.915
 4533SOL     OW14497   2.053   6.351   2.938
 4533SOL    HW114498   2.086   6.423   2.876
 4533SOL    HW214499   1.953   6.356   2.945
 4534SOL     OW14500   5.861   3.946   4.910
 4534SOL    HW114501   5.874   3.901   4.822
 4534SOL    HW214502   5.772   3.922   4.948
 4535SOL     OW14503   5.183   3.341   2.096
 4535SOL    HW114504   5.091   3.320   2.062
 4535SOL    HW214505   5.219   3.263   2.146
 4536SOL     OW14506   5.302   0.816   4.528
 4536SOL    HW114507   5.260   0.726   4.534
 4536SOL    HW214508   5.264   0.875   4.599
 4537SOL     OW14509   3.687   3.359   6.851
 4537SOL    HW114510   3.757   3.302   6.894
 4537SOL    HW214511   3.696   3.453   6.884
 4538SOL     OW14512   3.485   1.808   3.137
 4538SOL    HW114513   3.548   1.769   3.205
 4538SOL    HW214514   3.522   1.896   3.105
 4539SOL     OW14515   1.867   2.255   3.391
 4539SOL    HW114516   1.808   2.307   3.453
 4539SOL    HW214517   1.816   2.229   3.310
 4540SOL     OW14518   3.460   3.133   4.713
 4540SOL    HW114519   3.496   3.190   4.639
 4540SOL    HW214520   3.401   3.189   4.772
 4541SOL     OW14521   5.183   1.630   0.547
 4541SOL    HW114522   5.085   1.609   0.547
 4541SOL    HW214523   5.231   1.565   0.605
 4542SOL     OW14524   6.135   5.951   2.041
 4542SOL    HW114525   6.094   5.971   1.952
 4542SOL    HW214526   6.205   5.880   2.031
 4543SOL     OW14527   4.869   2.006   1.149
 4543SOL    HW114528   4.831   2.036   1.237
 4543SOL    HW214529   4.918   2.082   1.107
 4544SOL     OW14530   2.734   5.898   6.620
 4544SOL    HW114531   2.760   5.889   6.523
 4544SOL    HW214532   2.672   5.823   6.645
 4545SOL     OW14533   4.473   2.083   5.286
 4545SOL    HW114534   4.522   2.142   5.350
 4545SOL    HW214535   4.538   2.020   5.243
 4546SOL     OW14536   1.043   6.443   6.635
 4546SOL    HW114537   1.015   6.367   6.693
 4546SOL    HW214538   1.041   6.414   6.539
 4547SOL     OW14539   5.901   2.760   1.372
 4547SOL    HW114540   5.961   2.706   1.431
 4547SOL    HW214541   5.914   2.857   1.391
 4548SOL     OW14542   0.312   4.121   3.626
 4548SOL    HW114543   0.309   4.102   3.724
 4548SOL    HW214544   0.397   4.169   3.605
 4549SOL     OW14545   6.509   3.554   2.719
 4549SOL    HW114546   6.504   3.483   2.789
 4549SOL    HW214547   6.489   3.643   2.760
 4550SOL     OW14548   0.944   5.749   3.050
 4550SOL    HW114549   0.969   5.807   2.972
 4550SOL    HW214550   1.018   5.684   3.068
 4551SOL     OW14551   0.588   2.711   5.130
 4551SOL    HW114552   0.607   2.680   5.037
 4551SOL    HW214553   0.590   2.633   5.192
 4552SOL     OW14554   0.536   3.551   4.807
 4552SOL    HW114555   0.555   3.630   4.864
 4552SOL    HW214556   0.576   3.469   4.849
 4553SOL     OW14557   4.683   5.047   0.544
 4553SOL    HW114558   4.717   5.136   0.514
 4553SOL    HW214559   4.647   4.997   0.465
 4554SOL     OW14560   4.160   6.975   2.868
 4554SOL    HW114561   4.081   6.949   2.811
 4554SOL    HW214562   4.213   0.019   2.820
 4555SOL     OW14563   4.736   2.012   6.830
 4555SOL    HW114564   4.690   2.101   6.839
 4555SOL    HW214565   4.802   2.001   6.904
 4556SOL     OW14566   4.094   0.425   3.723
 4556SOL    HW114567   4.068   0.347   3.667
 4556SOL    HW214568   4.186   0.412   3.758
 4557SOL     OW14569   5.347   0.330   5.648
 4557SOL    HW114570   5.426   0.329   5.586
 4557SOL    HW214571   5.290   0.409   5.628
 4558SOL     OW14572   5.903   3.884   6.355
 4558SOL    HW114573   5.886   3.961   6.293
 4558SOL    HW214574   5.828   3.876   6.421
 4559SOL     OW14575   1.224   6.755   1.328
 4559SOL    HW114576   1.161   6.759   1.251
 4559SOL    HW214577   1.260   6.846   1.347
 4560SOL     OW14578   5.268   2.921   2.887
 4560SOL    HW114579   5.360   2.939   2.920
 4560SOL    HW214580   5.229   3.005   2.848
 4561SOL     OW14581   3.247   1.451   0.210
 4561SOL    HW114582   3.152   1.478   0.227
 4561SOL    HW214583   3.307   1.530   0.219
 4562SOL     OW14584   3.620   5.851   6.294
 4562SOL    HW114585   3.670   5.877   6.377
 4562SOL    HW214586   3.541   5.912   6.282
 4563SOL     OW14587   5.747   1.756   0.576
 4563SOL    HW114588   5.661   1.731   0.620
 4563SOL    HW214589   5.824   1.723   0.631
 4564SOL     OW14590   0.991   5.108   0.894
 4564SOL    HW114591   0.921   5.151   0.950
 4564SOL    HW214592   1.054   5.057   0.953
 4565SOL     OW14593   0.557   1.442   5.027
 4565SOL    HW114594   0.639   1.485   5.064
 4565SOL    HW214595   0.549   1.348   5.062
 4566SOL     OW14596   0.365   0.253   6.541
 4566SOL    HW114597   0.305   0.175   6.562
 4566SOL    HW214598   0.458   0.232   6.569
 4567SOL     OW14599   6.772   1.141   0.642
 4567SOL    HW114600   6.836   1.132   0.719
 4567SOL    HW214601   6.806   1.087   0.565
 4568SOL     OW14602   3.051   4.506   5.799
 4568SOL    HW114603   2.988   4.455   5.741
 4568SOL    HW214604   3.007   4.524   5.887
 4569SOL     OW14605   1.192   1.698   4.397
 4569SOL    HW114606   1.147   1.738   4.477
 4569SOL    HW214607   1.152   1.609   4.376
 4570SOL     OW14608   0.154   5.750   3.106
 4570SOL    HW114609   0.171   5.670   3.047
 4570SOL    HW214610   0.200   5.737   3.193
 4571SOL     OW14611   3.282   3.197   4.411
 4571SOL    HW114612   3.309   3.105   4.384
 4571SOL    HW214613   3.192   3.219   4.372
 4572SOL     OW14614   1.077   0.036   1.201
 4572SOL    HW114615   1.052   0.133   1.196
 4572SOL    HW214616   1.176   0.028   1.217
 4573SOL     OW14617   6.129   5.867   1.262
 4573SOL    HW114618   6.067   5.827   1.195
 4573SOL    HW214619   6.219   5.881   1.220
 4574SOL     OW14620   6.831   4.781   1.350
 4574SOL    HW114621   6.810   4.749   1.443
 4574SOL    HW214622   6.876   4.870   1.354
 4575SOL     OW14623   6.625   1.699   1.170
 4575SOL    HW114624   6.631   1.599   1.178
 4575SOL    HW214625   6.678   1.741   1.243
 4576SOL     OW14626   2.971   6.009   6.760
 4576SOL    HW114627   3.030   6.056   6.694
 4576SOL    HW214628   2.902   5.955   6.711
 4577SOL     OW14629   0.882   3.439   3.104
 4577SOL    HW114630   0.815   3.444   3.030
 4577SOL    HW214631   0.875   3.350   3.149
 4578SOL     OW14632   0.299   3.352   3.476
 4578SOL    HW114633   0.247   3.428   3.438
 4578SOL    HW214634   0.255   3.319   3.559
 4579SOL     OW14635   4.707   1.604   2.698
 4579SOL    HW114636   4.753   1.610   2.787
 4579SOL    HW214637   4.707   1.694   2.654
 4580SOL     OW14638   6.071   5.454   0.989
 4580SOL    HW114639   6.030   5.429   0.901
 4580SOL    HW214640   6.167   5.476   0.976
 4581SOL     OW14641   3.396   5.251   3.301
 4581SOL    HW114642   3.494   5.241   3.285
 4581SOL    HW214643   3.345   5.227   3.218
 4582SOL     OW14644   5.101   6.691   3.866
 4582SOL    HW114645   5.095   6.789   3.889
 4582SOL    HW214646   5.182   6.652   3.910
 4583SOL     OW14647   3.052   1.693   5.246
 4583SOL    HW114648   2.963   1.650   5.259
 4583SOL    HW214649   3.056   1.736   5.156
 4584SOL     OW14650   6.932   5.928   6.052
 4584SOL    HW114651   6.847   5.955   6.096
 4584SOL    HW214652   6.924   5.834   6.017
 4585SOL     OW14653   3.167   6.169   3.333
 4585SOL    HW114654   3.185   6.134   3.425
 4585SOL    HW214655   3.253   6.201   3.293
 4586SOL     OW14656   3.688   5.822   1.809
 4586SOL    HW114657   3.697   5.920   1.791
 4586SOL    HW214658   3.684   5.806   1.908
 4587SOL     OW14659   3.768   3.163   1.277
 4587SOL    HW114660   3.692   3.137   1.218
 4587SOL    HW214661   3.736   3.229   1.346
 4588SOL     OW14662   4.125   3.739   4.832
 4588SOL    HW114663   4.125   3.782   4.742
 4588SOL    HW214664   4.132   3.640   4.821
 4589SOL     OW14665   6.147   2.332   2.942
 4589SOL    HW114666   6.111   2.411   2.892
 4589SOL    HW214667   6.164   2.257   2.878
 4590SOL     OW14668   4.205   5.521   2.476
 4590SOL    HW114669   4.256   5.594   2.432
 4590SOL    HW214670   4.233   5.513   2.571
 4591SOL     OW14671   6.523   5.570   5.528
 4591SOL    HW114672   6.515   5.645   5.463
 4591SOL    HW214673   6.471   5.593   5.611
 4592SOL     OW14674   3.770   2.763   0.760
 4592SOL    HW114675   3.751   2.720   0.848
 4592SOL    HW214676   3.711   2.724   0.690
 4593SOL     OW14677   4.066   5.804   2.617
 4593SOL    HW114678   4.086   5.893   2.577
 4593SOL    HW214679   4.062   5.812   2.717
 4594SOL     OW14680   3.025   1.603   1.688
 4594SOL    HW114681   2.959   1.568   1.621
 4594SOL    HW214682   2.994   1.693   1.720
 4595SOL     OW14683   3.460   2.889   6.161
 4595SOL    HW114684   3.376   2.918   6.206
 4595SOL    HW214685   3.437   2.845   6.074
 4596SOL     OW14686   6.106   6.330   2.563
 4596SOL    HW114687   6.048   6.256   2.530
 4596SOL    HW214688   6.093   6.411   2.506
 4597SOL     OW14689   4.995   4.456   6.237
 4597SOL    HW114690   4.998   4.510   6.153
 4597SOL    HW214691   4.919   4.487   6.294
 4598SOL     OW14692   2.087   5.539   7.012
 4598SOL    HW114693   2.025   5.460   7.006
 4598SOL    HW214694   2.061   5.608   6.945
 4599SOL     OW14695   1.404   4.521   1.292
 4599SOL    HW114696   1.482   4.467   1.261
 4599SOL    HW214697   1.327   4.509   1.228
 4600SOL     OW14698   3.368   5.869   0.269
 4600SOL    HW114699   3.427   5.925   0.212
 4600SOL    HW214700   3.285   5.920   0.291
 4601SOL     OW14701   2.090   1.199   4.821
 4601SOL    HW114702   2.086   1.125   4.889
 4601SOL    HW214703   2.117   1.284   4.866
 4602SOL     OW14704   2.002   6.867   1.462
 4602SOL    HW114705   1.957   6.955   1.453
 4602SOL    HW214706   1.993   6.815   1.377
 4603SOL     OW14707   3.029   6.621   1.938
 4603SOL    HW114708   3.084   6.602   1.856
 4603SOL    HW214709   3.079   6.685   1.997
 4604SOL     OW14710   3.802   0.237   2.566
 4604SOL    HW114711   3.890   0.190   2.559
 4604SOL    HW214712   3.730   0.181   2.524
 4605SOL     OW14713   4.833   0.740   4.331
 4605SOL    HW114714   4.903   0.686   4.284
 4605SOL    HW214715   4.874   0.786   4.410
 4606SOL     OW14716   6.720   6.718   4.469
 4606SOL    HW114717   6.771   6.750   4.390
 4606SOL    HW214718   6.725   6.618   4.475
 4607SOL     OW14719   2.743   1.839   1.407
 4607SOL    HW114720   2.672   1.876   1.346
 4607SOL    HW214721   2.707   1.758   1.454
 4608SOL     OW14722   1.203   5.067   4.913
 4608SOL    HW114723   1.238   4.990   4.967
 4608SOL    HW214724   1.275   5.101   4.853
 4609SOL     OW14725   4.361   5.712   0.073
 4609SOL    HW114726   4.405   5.696   0.162
 4609SOL    HW214727   4.397   5.795   0.032
 4610SOL     OW14728   0.190   2.769   0.024
 4610SOL    HW114729   0.280   2.731   0.047
 4610SOL    HW214730   0.135   2.699   7.003
 4611SOL     OW14731   0.769   3.796   6.920
 4611SOL    HW114732   0.732   3.708   6.952
 4611SOL    HW214733   0.861   3.781   6.882
 4612SOL     OW14734   1.893   6.057   6.432
 4612SOL    HW114735   1.946   6.125   6.483
 4612SOL    HW214736   1.854   6.100   6.350
 4613SOL     OW14737   2.956   5.456   2.542
 4613SOL    HW114738   2.897   5.515   2.486
 4613SOL    HW214739   3.033   5.425   2.487
 4614SOL     OW14740   2.059   5.681   0.271
 4614SOL    HW114741   1.998   5.697   0.193
 4614SOL    HW214742   2.018   5.615   0.333
 4615SOL     OW14743   1.465   1.983   7.020
 4615SOL    HW114744   1.432   2.064   6.971
 4615SOL    HW214745   1.446   1.901   6.967
 4616SOL     OW14746   5.853   6.972   6.530
 4616SOL    HW114747   5.912   6.970   6.611
 4616SOL    HW214748   5.910   6.988   6.448
 4617SOL     OW14749   0.956   2.609   2.727
 4617SOL    HW114750   0.911   2.519   2.728
 4617SOL    HW214751   0.912   2.668   2.660
 4618SOL     OW14752   0.848   2.816   5.651
 4618SOL    HW114753   0.936   2.772   5.671
 4618SOL    HW214754   0.865   2.912   5.627
 4619SOL     OW14755   5.004   1.230   3.952
 4619SOL    HW114756   4.913   1.194   3.930
 4619SOL    HW214757   5.043   1.178   4.029
 4620SOL     OW14758   3.418   4.517   6.952
 4620SOL    HW114759   3.365   4.595   6.986
 4620SOL    HW214760   3.511   4.522   6.989
 4621SOL     OW14761   6.554   1.381   4.792
 4621SOL    HW114762   6.538   1.283   4.804
 4621SOL    HW214763   6.572   1.422   4.881
 4622SOL     OW14764   2.077   3.187   0.697
 4622SOL    HW114765   2.081   3.287   0.689
 4622SOL    HW214766   1.996   3.153   0.649
 4623SOL     OW14767   0.049   4.971   0.733
 4623SOL    HW114768   0.026   5.062   0.699
 4623SOL    HW214769   0.028   4.966   0.831
 4624SOL     OW14770   4.743   1.184   3.874
 4624SOL    HW114771   4.749   1.085   3.880
 4624SOL    HW214772   4.657   1.215   3.915
 4625SOL     OW14773   0.984   4.176   0.082
 4625SOL    HW114774   1.053   4.186   0.154
 4625SOL    HW214775   1.017   4.219   7.023
 4626SOL     OW14776   6.489   5.068   1.633
 4626SOL    HW114777   6.524   5.068   1.726
 4626SOL    HW214778   6.390   5.080   1.634
 4627SOL     OW14779   3.352   5.678   5.455
 4627SOL    HW114780   3.424   5.657   5.521
 4627SOL    HW214781   3.346   5.605   5.386
 4628SOL     OW14782   6.093   4.928   2.155
 4628SOL    HW114783   6.085   5.007   2.215
 4628SOL    HW214784   6.101   4.845   2.210
 4629SOL     OW14785   2.119   5.289   5.614
 4629SOL    HW114786   2.145   5.230   5.690
 4629SOL    HW214787   2.199   5.304   5.555
 4630SOL     OW14788   2.655   5.791   3.295
 4630SOL    HW114789   2.630   5.869   3.239
 4630SOL    HW214790   2.573   5.743   3.325
 4631SOL     OW14791   2.825   6.415   3.719
 4631SOL    HW114792   2.874   6.406   3.632
 4631SOL    HW214793   2.772   6.332   3.736
 4632SOL     OW14794   4.503   5.137   4.291
 4632SOL    HW114795   4.544   5.071   4.354
 4632SOL    HW214796   4.553   5.224   4.297
 4633SOL     OW14797   6.306   1.974   5.248
 4633SOL    HW114798   6.359   1.889   5.250
 4633SOL    HW214799   6.226   1.964   5.308
 4634SOL     OW14800   2.845   4.660   0.558
 4634SOL    HW114801   2.766   4.633   0.503
 4634SOL    HW214802   2.846   4.606   0.642
 4635SOL     OW14803   5.424   3.324   2.304
 4635SOL    HW114804   5.381   3.244   2.265
 4635SOL    HW214805   5.503   3.350   2.248
 4636SOL     OW14806   3.094   5.230   0.644
 4636SOL    HW114807   3.074   5.134   0.666
 4636SOL    HW214808   3.185   5.236   0.604
 4637SOL     OW14809   1.096   0.205   6.098
 4637SOL    HW114810   1.026   0.249   6.154
 4637SOL    HW214811   1.078   0.107   6.092
 4638SOL     OW14812   3.991   3.330   6.310
 4638SOL    HW114813   4.028   3.237   6.315
 4638SOL    HW214814   3.992   3.371   6.401
 4639SOL     OW14815   0.580   4.245   5.505
 4639SOL    HW114816   0.622   4.199   5.583
 4639SOL    HW214817   0.481   4.232   5.508
 4640SOL     OW14818   5.133   4.488   3.894
 4640SOL    HW114819   5.124   4.390   3.912
 4640SOL    HW214820   5.047   4.534   3.919
 4641SOL     OW14821   2.590   4.942   4.368
 4641SOL    HW114822   2.584   4.881   4.446
 4641SOL    HW214823   2.526   4.913   4.297
 4642SOL     OW14824   6.154   5.430   4.393
 4642SOL    HW114825   6.058   5.433   4.423
 4642SOL    HW214826   6.158   5.407   4.296
 4643SOL     OW14827   4.128   2.389   1.369
 4643SOL    HW114828   4.169   2.315   1.422
 4643SOL    HW214829   4.076   2.449   1.431
 4644SOL     OW14830   1.511   6.237   4.680
 4644SOL    HW114831   1.435   6.252   4.744
 4644SOL    HW214832   1.477   6.191   4.598
 4645SOL     OW14833   2.237   6.478   4.383
 4645SOL    HW114834   2.164   6.498   4.318
 4645SOL    HW214835   2.307   6.549   4.379
 4646SOL     OW14836   2.823   0.139   2.237
 4646SOL    HW114837   2.845   0.228   2.278
 4646SOL    HW214838   2.734   0.145   2.191
 4647SOL     OW14839   0.788   0.076   3.635
 4647SOL    HW114840   0.702   0.084   3.585
 4647SOL    HW214841   0.819   0.167   3.663
 4648SOL     OW14842   2.988   6.608   3.015
 4648SOL    HW114843   2.903   6.634   3.061
 4648SOL    HW214844   3.018   6.683   2.956
 4649SOL     OW14845   5.174   0.546   5.624
 4649SOL    HW114846   5.088   0.496   5.638
 4649SOL    HW214847   5.160   0.643   5.642
 4650SOL     OW14848   4.677   6.217   3.132
 4650SOL    HW114849   4.754   6.269   3.096
 4650SOL    HW214850   4.599   6.279   3.145
 4651SOL     OW14851   6.905   2.201   1.936
 4651SOL    HW114852   6.973   2.273   1.918
 4651SOL    HW214853   6.848   2.188   1.855
 4652SOL     OW14854   6.930   0.430   3.986
 4652SOL    HW114855   6.897   0.338   3.966
 4652SOL    HW214856   6.963   0.434   4.080
 4653SOL     OW14857   6.841   6.423   0.370
 4653SOL    HW114858   6.824   6.492   0.300
 4653SOL    HW214859   6.780   6.345   0.355
 4654SOL     OW14860   0.704   6.989   0.596
 4654SOL    HW114861   0.784   6.959   0.648
 4654SOL    HW214862   0.689   6.925   0.520
 4655SOL     OW14863   0.280   4.176   2.701
 4655SOL    HW114864   0.327   4.195   2.788
 4655SOL    HW214865   0.250   4.081   2.699
 4656SOL     OW14866   1.134   0.774   2.944
 4656SOL    HW114867   1.161   0.685   2.982
 4656SOL    HW214868   1.214   0.818   2.903
 4657SOL     OW14869   5.045   6.543   1.376
 4657SOL    HW114870   5.093   6.484   1.310
 4657SOL    HW214871   5.097   6.626   1.391
 4658SOL     OW14872   4.340   0.112   3.249
 4658SOL    HW114873   4.253   0.118   3.200
 4658SOL    HW214874   4.348   0.189   3.313
 4659SOL     OW14875   1.743   2.696   5.180
 4659SOL    HW114876   1.786   2.606   5.175
 4659SOL    HW214877   1.744   2.729   5.274
 4660SOL     OW14878   0.202   1.555   5.386
 4660SOL    HW114879   0.296   1.572   5.354
 4660SOL    HW214880   0.197   1.464   5.427
 4661SOL     OW14881   3.336   4.180   4.423
 4661SOL    HW114882   3.375   4.159   4.512
 4661SOL    HW214883   3.250   4.230   4.435
 4662SOL     OW14884   5.136   0.380   5.361
 4662SOL    HW114885   5.147   0.299   5.304
 4662SOL    HW214886   5.188   0.456   5.323
 4663SOL     OW14887   6.803   1.973   2.216
 4663SOL    HW114888   6.902   1.971   2.222
 4663SOL    HW214889   6.770   2.066   2.230
 4664SOL     OW14890   2.211   2.740   6.271
 4664SOL    HW114891   2.240   2.821   6.322
 4664SOL    HW214892   2.261   2.735   6.185
 4665SOL     OW14893   5.055   0.163   6.275
 4665SOL    HW114894   4.998   0.095   6.230
 4665SOL    HW214895   5.137   0.180   6.219
 4666SOL     OW14896   2.109   2.190   6.845
 4666SOL    HW114897   2.044   2.129   6.798
 4666SOL    HW214898   2.094   2.184   6.944
 4667SOL     OW14899   6.720   4.992   6.592
 4667SOL    HW114900   6.748   4.968   6.685
 4667SOL    HW214901   6.621   4.978   6.582
 4668SOL     OW14902   6.394   1.404   4.528
 4668SOL    HW114903   6.302   1.420   4.564
 4668SOL    HW214904   6.452   1.366   4.601
 4669SOL     OW14905   1.885   6.267   0.265
 4669SOL    HW114906   1.826   6.341   0.296
 4669SOL    HW214907   1.852   6.180   0.303
 4670SOL     OW14908   2.752   1.494   4.998
 4670SOL    HW114909   2.821   1.430   5.030
 4670SOL    HW214910   2.790   1.549   4.924
 4671SOL     OW14911   5.978   3.296   1.644
 4671SOL    HW114912   5.949   3.311   1.739
 4671SOL    HW214913   5.939   3.211   1.610
 4672SOL     OW14914   1.580   4.388   6.282
 4672SOL    HW114915   1.482   4.380   6.265
 4672SOL    HW214916   1.629   4.316   6.232
 4673SOL     OW14917   3.687   0.477   2.074
 4673SOL    HW114918   3.689   0.488   1.974
 4673SOL    HW214919   3.630   0.548   2.114
 4674SOL     OW14920   5.000   5.484   5.637
 4674SOL    HW114921   4.921   5.448   5.587
 4674SOL    HW214922   4.981   5.578   5.666
 4675SOL     OW14923   1.226   3.970   0.961
 4675SOL    HW114924   1.238   3.881   0.917
 4675SOL    HW214925   1.183   3.957   1.050
 4676SOL     OW14926   1.739   5.828   3.355
 4676SOL    HW114927   1.670   5.849   3.424
 4676SOL    HW214928   1.793   5.910   3.336
 4677SOL     OW14929   1.802   2.195   0.560
 4677SOL    HW114930   1.714   2.205   0.607
 4677SOL    HW214931   1.847   2.110   0.590
 4678SOL     OW14932   1.639   4.339   2.935
 4678SOL    HW114933   1.615   4.434   2.955
 4678SOL    HW214934   1.556   4.288   2.909
 4679SOL     OW14935   5.565   6.039   1.672
 4679SOL    HW114936   5.609   6.073   1.589
 4679SOL    HW214937   5.495   5.972   1.648
 4680SOL     OW14938   2.674   1.624   1.555
 4680SOL    HW114939   2.704   1.531   1.576
 4680SOL    HW214940   2.669   1.678   1.639
 4681SOL     OW14941   5.150   4.384   0.395
 4681SOL    HW114942   5.053   4.360   0.401
 4681SOL    HW214943   5.173   4.452   0.464
 4682SOL     OW14944   4.742   3.385   6.504
 4682SOL    HW114945   4.766   3.291   6.528
 4682SOL    HW214946   4.783   3.448   6.571
 4683SOL     OW14947   5.643   4.103   3.516
 4683SOL    HW114948   5.582   4.160   3.571
 4683SOL    HW214949   5.697   4.044   3.577
 4684SOL     OW14950   4.053   6.295   0.410
 4684SOL    HW114951   3.972   6.249   0.446
 4684SOL    HW214952   4.135   6.262   0.458
 4685SOL     OW14953   2.448   3.660   6.002
 4685SOL    HW114954   2.426   3.596   5.929
 4685SOL    HW214955   2.367   3.676   6.058
 4686SOL     OW14956   3.200   6.467   1.078
 4686SOL    HW114957   3.119   6.410   1.094
 4686SOL    HW214958   3.254   6.428   1.004
 4687SOL     OW14959   3.084   1.627   3.316
 4687SOL    HW114960   3.125   1.689   3.383
 4687SOL    HW214961   3.119   1.648   3.225
 4688SOL     OW14962   5.618   2.640   6.157
 4688SOL    HW114963   5.564   2.644   6.241
 4688SOL    HW214964   5.625   2.732   6.118
 4689SOL     OW14965   5.382   0.835   0.625
 4689SOL    HW114966   5.292   0.871   0.649
 4689SOL    HW214967   5.390   0.741   0.657
 4690SOL     OW14968   2.472   1.604   0.739
 4690SOL    HW114969   2.413   1.531   0.703
 4690SOL    HW214970   2.567   1.586   0.713
 4691SOL     OW14971   5.169   4.453   6.870
 4691SOL    HW114972   5.117   4.381   6.826
 4691SOL    HW214973   5.162   4.444   6.970
 4692SOL     OW14974   6.527   4.263   2.886
 4692SOL    HW114975   6.625   4.267   2.868
 4692SOL    HW214976   6.511   4.269   2.984
 4693SOL     OW14977   1.557   1.090   3.782
 4693SOL    HW114978   1.537   0.997   3.813
 4693SOL    HW214979   1.539   1.096   3.683
 4694SOL     OW14980   2.575   1.216   0.654
 4694SOL    HW114981   2.511   1.209   0.577
 4694SOL    HW214982   2.667   1.189   0.623
 4695SOL     OW14983   1.234   5.429   0.852
 4695SOL    HW114984   1.259   5.520   0.883
 4695SOL    HW214985   1.186   5.380   0.925
 4696SOL     OW14986   1.118   5.405   6.375
 4696SOL    HW114987   1.120   5.334   6.305
 4696SOL    HW214988   1.054   5.477   6.348
 4697SOL     OW14989   2.092   3.836   1.240
 4697SOL    HW114990   2.163   3.780   1.198
 4697SOL    HW214991   2.116   3.932   1.232
 4698SOL     OW14992   4.755   0.341   3.127
 4698SOL    HW114993   4.764   0.439   3.144
 4698SOL    HW214994   4.724   0.295   3.210
 4699SOL     OW14995   0.448   0.708   2.208
 4699SOL    HW114996   0.485   0.619   2.235
 4699SOL    HW214997   0.348   0.702   2.201
 4700SOL     OW14998   6.492   2.147   2.696
 4700SOL    HW114999   6.498   2.054   2.660
 4700SOL    HW215000   6.531   2.211   2.631
 4701SOL     OW15001   3.237   2.073   1.994
 4701SOL    HW115002   3.197   2.120   1.916
 4701SOL    HW215003   3.168   2.063   2.066
 4702SOL     OW15004   4.765   5.037   6.911
 4702SOL    HW115005   4.720   5.102   6.850
 4702SOL    HW215006   4.857   5.017   6.877
 4703SOL     OW15007   1.066   4.709   2.540
 4703SOL    HW115008   1.126   4.787   2.523
 4703SOL    HW215009   1.085   4.638   2.472
 4704SOL     OW15010   0.132   5.969   5.861
 4704SOL    HW115011   0.040   5.958   5.897
 4704SOL    HW215012   0.137   5.930   5.769
 4705SOL     OW15013   3.183   2.411   0.939
 4705SOL    HW115014   3.124   2.454   0.871
 4705SOL    HW215015   3.130   2.387   1.020
 4706SOL     OW15016   1.415   0.315   0.957
 4706SOL    HW115017   1.415   0.336   0.859
 4706SOL    HW215018   1.503   0.339   0.996
 4707SOL     OW15019   1.854   6.285   1.173
 4707SOL    HW115020   1.858   6.351   1.248
 4707SOL    HW215021   1.762   6.282   1.135
 4708SOL     OW15022   1.398   2.225   4.808
 4708SOL    HW115023   1.442   2.216   4.897
 4708SOL    HW215024   1.407   2.138   4.758
 4709SOL     OW15025   5.087   4.919   4.806
 4709SOL    HW115026   5.051   4.967   4.726
 4709SOL    HW215027   5.011   4.889   4.863
 4710SOL     OW15028   5.225   6.847   4.650
 4710SOL    HW115029   5.263   6.756   4.633
 4710SOL    HW215030   5.290   6.917   4.618
 4711SOL     OW15031   6.342   2.916   3.672
 4711SOL    HW115032   6.310   2.823   3.651
 4711SOL    HW215033   6.308   2.942   3.763
 4712SOL     OW15034   4.349   4.551   5.692
 4712SOL    HW115035   4.361   4.537   5.790
 4712SOL    HW215036   4.254   4.578   5.673
 4713SOL     OW15037   5.732   4.385   1.166
 4713SOL    HW115038   5.668   4.395   1.089
 4713SOL    HW215039   5.689   4.420   1.249
 4714SOL     OW15040   6.421   1.696   6.472
 4714SOL    HW115041   6.336   1.707   6.419
 4714SOL    HW215042   6.440   1.599   6.484
 4715SOL     OW15043   6.091   1.757   1.965
 4715SOL    HW115044   6.036   1.679   1.993
 4715SOL    HW215045   6.122   1.807   2.046
 4716SOL     OW15046   3.854   5.413   5.485
 4716SOL    HW115047   3.909   5.467   5.548
 4716SOL    HW215048   3.792   5.473   5.434
 4717SOL     OW15049   2.616   5.266   5.617
 4717SOL    HW115050   2.666   5.242   5.533
 4717SOL    HW215051   2.537   5.205   5.627
 4718SOL     OW15052   5.300   2.988   0.871
 4718SOL    HW115053   5.393   2.950   0.864
 4718SOL    HW215054   5.239   2.936   0.812
 4719SOL     OW15055   6.049   3.203   3.466
 4719SOL    HW115056   6.064   3.106   3.484
 4719SOL    HW215057   5.958   3.229   3.499
 4720SOL     OW15058   3.374   5.212   0.581
 4720SOL    HW115059   3.425   5.294   0.555
 4720SOL    HW215060   3.433   5.151   0.635
 4721SOL     OW15061   6.185   3.611   1.785
 4721SOL    HW115062   6.275   3.616   1.741
 4721SOL    HW215063   6.174   3.688   1.847
 4722SOL     OW15064   0.981   4.781   6.886
 4722SOL    HW115065   0.944   4.732   6.965
 4722SOL    HW215066   0.939   4.745   6.802
 4723SOL     OW15067   3.613   4.714   5.756
 4723SOL    HW115068   3.581   4.620   5.745
 4723SOL    HW215069   3.591   4.746   5.848
 4724SOL     OW15070   0.180   6.519   3.942
 4724SOL    HW115071   0.207   6.429   3.976
 4724SOL    HW215072   0.250   6.553   3.879
 4725SOL     OW15073   5.421   5.358   0.824
 4725SOL    HW115074   5.453   5.293   0.755
 4725SOL    HW215075   5.352   5.314   0.882
 4726SOL     OW15076   1.753   2.835   5.990
 4726SOL    HW115077   1.687   2.809   6.060
 4726SOL    HW215078   1.726   2.923   5.950
 4727SOL     OW15079   0.493   5.299   0.727
 4727SOL    HW115080   0.520   5.395   0.737
 4727SOL    HW215081   0.571   5.240   0.749
 4728SOL     OW15082   6.205   0.996   3.003
 4728SOL    HW115083   6.138   0.924   2.988
 4728SOL    HW215084   6.187   1.072   2.941
 4729SOL     OW15085   5.377   0.748   7.015
 4729SOL    HW115086   5.327   0.672   0.030
 4729SOL    HW215087   5.384   0.734   6.916
 4730SOL     OW15088   3.921   6.994   4.630
 4730SOL    HW115089   3.906   6.907   4.585
 4730SOL    HW215090   3.932   0.040   4.562
 4731SOL     OW15091   3.109   0.462   0.664
 4731SOL    HW115092   3.207   0.482   0.667
 4731SOL    HW215093   3.060   0.541   0.625
 4732SOL     OW15094   0.537   3.853   4.888
 4732SOL    HW115095   0.538   3.822   4.983
 4732SOL    HW215096   0.470   3.926   4.877
 4733SOL     OW15097   2.200   3.971   3.198
 4733SOL    HW115098   2.222   3.901   3.130
 4733SOL    HW215099   2.262   4.049   3.187
 4734SOL     OW15100   5.019   3.540   5.776
 4734SOL    HW115101   4.954   3.465   5.762
 4734SOL    HW215102   5.042   3.582   5.688
 4735SOL     OW15103   0.377   6.322   4.498
 4735SOL    HW115104   0.315   6.245   4.482
 4735SOL    HW215105   0.331   6.392   4.553
 4736SOL     OW15106   6.754   1.921   3.678
 4736SOL    HW115107   6.680   1.971   3.632
 4736SOL    HW215108   6.782   1.844   3.621
 4737SOL     OW15109   2.197   5.078   1.111
 4737SOL    HW115110   2.236   5.059   1.201
 4737SOL    HW215111   2.270   5.097   1.046
 4738SOL     OW15112   2.709   0.317   4.137
 4738SOL    HW115113   2.779   0.284   4.200
 4738SOL    HW215114   2.666   0.399   4.175
 4739SOL     OW15115   6.150   3.035   4.728
 4739SOL    HW115116   6.060   3.065   4.698
 4739SOL    HW215117   6.212   3.114   4.734
 4740SOL     OW15118   0.557   1.144   1.582
 4740SOL    HW115119   0.546   1.193   1.668
 4740SOL    HW215120   0.654   1.144   1.556
 4741SOL     OW15121   4.162   4.551   0.912
 4741SOL    HW115122   4.109   4.517   0.990
 4741SOL    HW215123   4.099   4.588   0.843
 4742SOL     OW15124   2.416   5.851   1.689
 4742SOL    HW115125   2.485   5.807   1.632
 4742SOL    HW215126   2.437   5.948   1.698
 4743SOL     OW15127   2.550   1.511   6.030
 4743SOL    HW115128   2.601   1.463   5.959
 4743SOL    HW215129   2.604   1.514   6.114
 4744SOL     OW15130   1.834   3.731   5.496
 4744SOL    HW115131   1.930   3.758   5.495
 4744SOL    HW215132   1.825   3.640   5.454
 4745SOL     OW15133   2.804   5.147   5.472
 4745SOL    HW115134   2.821   5.076   5.404
 4745SOL    HW215135   2.868   5.136   5.548
 4746SOL     OW15136   6.120   5.600   6.918
 4746SOL    HW115137   6.067   5.657   6.982
 4746SOL    HW215138   6.058   5.542   6.866
 4747SOL     OW15139   6.974   2.750   0.167
 4747SOL    HW115140   0.031   2.776   0.119
 4747SOL    HW215141   6.935   2.830   0.212
 4748SOL     OW15142   1.087   0.834   1.462
 4748SOL    HW115143   1.117   0.835   1.557
 4748SOL    HW215144   1.147   0.773   1.409
 4749SOL     OW15145   2.096   6.350   0.128
 4749SOL    HW115146   2.185   6.358   0.174
 4749SOL    HW215147   2.027   6.324   0.195
 4750SOL     OW15148   0.510   1.652   4.140
 4750SOL    HW115149   0.431   1.593   4.158
 4750SOL    HW215150   0.483   1.748   4.147
 4751SOL     OW15151   1.302   4.441   6.757
 4751SOL    HW115152   1.325   4.533   6.789
 4751SOL    HW215153   1.343   4.373   6.817
 4752SOL     OW15154   2.350   6.288   1.028
 4752SOL    HW115155   2.375   6.312   1.122
 4752SOL    HW215156   2.273   6.224   1.030
 4753SOL     OW15157   5.627   0.151   5.258
 4753SOL    HW115158   5.718   0.159   5.217
 4753SOL    HW215159   5.590   0.060   5.240
 4754SOL     OW15160   6.606   0.053   6.519
 4754SOL    HW115161   6.629   0.136   6.469
 4754SOL    HW215162   6.512   0.060   6.555
 4755SOL     OW15163   2.396   1.141   6.258
 4755SOL    HW115164   2.447   1.180   6.334
 4755SOL    HW215165   2.452   1.072   6.211
 4756SOL     OW15166   4.938   2.502   1.826
 4756SOL    HW115167   5.038   2.492   1.823
 4756SOL    HW215168   4.909   2.572   1.761
 4757SOL     OW15169   2.270   2.658   2.000
 4757SOL    HW115170   2.256   2.560   1.996
 4757SOL    HW215171   2.211   2.697   2.072
 4758SOL     OW15172   4.210   5.263   5.586
 4758SOL    HW115173   4.285   5.211   5.545
 4758SOL    HW215174   4.130   5.261   5.525
 4759SOL     OW15175   5.477   5.995   4.965
 4759SOL    HW115176   5.529   6.071   5.004
 4759SOL    HW215177   5.539   5.934   4.915
 4760SOL     OW15178   1.625   1.184   1.404
 4760SOL    HW115179   1.686   1.241   1.459
 4760SOL    HW215180   1.548   1.154   1.461
 4761SOL     OW15181   6.633   0.450   6.858
 4761SOL    HW115182   6.695   0.487   6.789
 4761SOL    HW215183   6.608   0.357   6.835
 4762SOL     OW15184   2.340   4.804   2.092
 4762SOL    HW115185   2.393   4.741   2.150
 4762SOL    HW215186   2.318   4.886   2.145
 4763SOL     OW15187   6.351   5.792   2.822
 4763SOL    HW115188   6.264   5.837   2.806
 4763SOL    HW215189   6.361   5.771   2.919
 4764SOL     OW15190   4.525   3.870   5.308
 4764SOL    HW115191   4.517   3.773   5.288
 4764SOL    HW215192   4.609   3.906   5.267
 4765SOL     OW15193   4.598   5.953   5.270
 4765SOL    HW115194   4.671   5.947   5.202
 4765SOL    HW215195   4.551   6.041   5.262
 4766SOL     OW15196   2.892   1.057   3.568
 4766SOL    HW115197   2.960   1.129   3.554
 4766SOL    HW215198   2.801   1.092   3.544
 4767SOL     OW15199   3.516   0.139   1.202
 4767SOL    HW115200   3.481   0.215   1.146
 4767SOL    HW215201   3.525   0.057   1.145
 4768SOL     OW15202   5.016   1.603   4.581
 4768SOL    HW115203   4.968   1.662   4.516
 4768SOL    HW215204   5.046   1.520   4.534
 4769SOL     OW15205   3.815   5.532   1.434
 4769SOL    HW115206   3.908   5.537   1.396
 4769SOL    HW215207   3.812   5.462   1.505
 4770SOL     OW15208   2.212   0.531   3.072
 4770SOL    HW115209   2.265   0.552   3.154
 4770SOL    HW215210   2.209   0.611   3.013
 4771SOL     OW15211   3.307   4.977   6.517
 4771SOL    HW115212   3.366   4.904   6.552
 4771SOL    HW215213   3.331   4.996   6.422
 4772SOL     OW15214   2.839   0.121   1.098
 4772SOL    HW115215   2.903   0.085   1.030
 4772SOL    HW215216   2.770   0.051   1.119
 4773SOL     OW15217   0.230   5.863   4.038
 4773SOL    HW115218   0.230   5.766   4.014
 4773SOL    HW215219   0.215   5.874   4.136
 4774SOL     OW15220   0.715   2.962   2.475
 4774SOL    HW115221   0.630   2.910   2.468
 4774SOL    HW215222   0.783   2.909   2.525
 4775SOL     OW15223   4.838   0.133   2.465
 4775SOL    HW115224   4.897   0.192   2.410
 4775SOL    HW215225   4.825   0.174   2.555
 4776SOL     OW15226   2.450   6.124   2.475
 4776SOL    HW115227   2.463   6.165   2.385
 4776SOL    HW215228   2.526   6.152   2.535
 4777SOL     OW15229   2.871   4.572   0.836
 4777SOL    HW115230   2.878   4.513   0.917
 4777SOL    HW215231   2.781   4.616   0.836
 4778SOL     OW15232   5.135   3.611   1.975
 4778SOL    HW115233   5.186   3.652   1.899
 4778SOL    HW215234   5.167   3.518   1.990
 4779SOL     OW15235   6.781   0.097   2.971
 4779SOL    HW115236   6.772   0.127   2.876
 4779SOL    HW215237   6.709   0.029   2.991
 4780SOL     OW15238   0.854   0.565   6.052
 4780SOL    HW115239   0.767   0.602   6.020
 4780SOL    HW215240   0.922   0.638   6.054
 4781SOL     OW15241   2.012   5.743   1.098
 4781SOL    HW115242   1.939   5.733   1.165
 4781SOL    HW215243   2.098   5.709   1.136
 4782SOL     OW15244   5.665   0.417   6.974
 4782SOL    HW115245   5.717   0.474   0.012
 4782SOL    HW215246   5.612   0.476   6.912
 4783SOL     OW15247   4.627   4.532   0.637
 4783SOL    HW115248   4.622   4.559   0.734
 4783SOL    HW215249   4.669   4.607   0.585
 4784SOL     OW15250   6.325   4.765   5.422
 4784SOL    HW115251   6.350   4.673   5.392
 4784SOL    HW215252   6.385   4.794   5.496
 4785SOL     OW15253   6.594   6.811   0.989
 4785SOL    HW115254   6.522   6.804   1.058
 4785SOL    HW215255   6.597   6.905   0.954
 4786SOL     OW15256   1.901   2.662   2.066
 4786SOL    HW115257   1.912   2.757   2.036
 4786SOL    HW215258   1.864   2.661   2.159
 4787SOL     OW15259   2.825   2.261   3.373
 4787SOL    HW115260   2.778   2.186   3.419
 4787SOL    HW215261   2.922   2.238   3.364
 4788SOL     OW15262   1.124   5.519   5.648
 4788SOL    HW115263   1.199   5.464   5.686
 4788SOL    HW215264   1.161   5.604   5.611
 4789SOL     OW15265   5.268   0.516   0.067
 4789SOL    HW115266   5.188   0.513   0.127
 4789SOL    HW215267   5.249   0.463   7.010
 4790SOL     OW15268   5.303   2.337   6.527
 4790SOL    HW115269   5.228   2.310   6.467
 4790SOL    HW215270   5.283   2.426   6.568
 4791SOL     OW15271   5.820   0.113   2.290
 4791SOL    HW115272   5.822   0.204   2.330
 4791SOL    HW215273   5.729   0.096   2.251
 4792SOL     OW15274   2.032   3.281   2.583
 4792SOL    HW115275   2.063   3.210   2.647
 4792SOL    HW215276   2.036   3.245   2.490
 4793SOL     OW15277   1.256   0.272   5.595
 4793SOL    HW115278   1.290   0.354   5.643
 4793SOL    HW215279   1.211   0.212   5.661
 4794SOL     OW15280   3.577   6.955   2.703
 4794SOL    HW115281   3.622   7.025   2.647
 4794SOL    HW215282   3.598   6.972   2.799
 4795SOL     OW15283   6.432   2.842   4.749
 4795SOL    HW115284   6.484   2.757   4.762
 4795SOL    HW215285   6.372   2.856   4.828
 4796SOL     OW15286   4.934   3.039   0.407
 4796SOL    HW115287   4.855   3.038   0.468
 4796SOL    HW215288   4.910   2.992   0.322
 4797SOL     OW15289   1.098   5.170   6.150
 4797SOL    HW115290   1.039   5.111   6.206
 4797SOL    HW215291   1.088   5.145   6.054
 4798SOL     OW15292   0.105   4.692   4.762
 4798SOL    HW115293   0.078   4.779   4.802
 4798SOL    HW215294   0.185   4.656   4.810
 4799SOL     OW15295   5.493   1.413   4.925
 4799SOL    HW115296   5.506   1.451   4.834
 4799SOL    HW215297   5.574   1.430   4.980
 4800SOL     OW15298   2.931   2.818   6.216
 4800SOL    HW115299   2.839   2.789   6.190
 4800SOL    HW215300   2.952   2.785   6.308
 4801SOL     OW15301   1.805   1.993   0.274
 4801SOL    HW115302   1.707   1.971   0.278
 4801SOL    HW215303   1.844   1.987   0.366
 4802SOL     OW15304   1.927   6.434   1.963
 4802SOL    HW115305   1.976   6.499   1.905
 4802SOL    HW215306   1.992   6.391   2.026
 4803SOL     OW15307   0.963   6.887   0.967
 4803SOL    HW115308   1.025   6.925   1.035
 4803SOL    HW215309   0.879   6.942   0.964
 4804SOL     OW15310   4.382   5.519   6.900
 4804SOL    HW115311   4.388   5.593   6.966
 4804SOL    HW215312   4.351   5.436   6.946
 4805SOL     OW15313   6.972   0.292   0.606
 4805SOL    HW115314   7.021   0.208   0.583
 4805SOL    HW215315   7.021   0.371   0.567
 4806SOL     OW15316   6.816   3.928   2.963
 4806SOL    HW115317   6.832   3.830   2.968
 4806SOL    HW215318   6.829   3.968   3.054
 4807SOL     OW15319   0.719   5.801   1.709
 4807SOL    HW115320   0.675   5.720   1.671
 4807SOL    HW215321   0.681   5.883   1.665
 4808SOL     OW15322   5.450   3.265   0.697
 4808SOL    HW115323   5.353   3.246   0.714
 4808SOL    HW215324   5.503   3.242   0.778
 4809SOL     OW15325   3.283   4.782   0.014
 4809SOL    HW115326   3.276   4.817   6.946
 4809SOL    HW215327   3.242   4.848   0.077
 4810SOL     OW15328   0.736   5.377   1.696
 4810SOL    HW115329   0.835   5.386   1.701
 4810SOL    HW215330   0.700   5.439   1.626
 4811SOL     OW15331   3.051   5.095   2.007
 4811SOL    HW115332   3.129   5.141   2.050
 4811SOL    HW215333   3.057   4.997   2.024
 4812SOL     OW15334   6.938   5.199   4.196
 4812SOL    HW115335   7.000   5.189   4.273
 4812SOL    HW215336   6.843   5.187   4.227
 4813SOL     OW15337   4.988   1.527   2.396
 4813SOL    HW115338   5.015   1.515   2.491
 4813SOL    HW215339   5.069   1.534   2.338
 4814SOL     OW15340   6.504   4.202   0.650
 4814SOL    HW115341   6.537   4.124   0.597
 4814SOL    HW215342   6.442   4.256   0.595
 4815SOL     OW15343   5.217   5.228   2.351
 4815SOL    HW115344   5.314   5.207   2.347
 4815SOL    HW215345   5.202   5.309   2.409
 4816SOL     OW15346   5.204   5.302   2.910
 4816SOL    HW115347   5.127   5.345   2.957
 4816SOL    HW215348   5.213   5.208   2.940
 4817SOL     OW15349   0.778   1.918   5.435
 4817SOL    HW115350   0.854   1.983   5.431
 4817SOL    HW215351   0.741   1.916   5.528
 4818SOL     OW15352   0.127   6.962   3.597
 4818SOL    HW115353   0.046   6.976   3.655
 4818SOL    HW215354   0.204   6.935   3.654
 4819SOL     OW15355   1.420   3.364   0.165
 4819SOL    HW115356   1.398   3.441   0.105
 4819SOL    HW215357   1.464   3.291   0.112
 4820SOL     OW15358   0.020   3.154   1.833
 4820SOL    HW115359   0.023   3.133   1.735
 4820SOL    HW215360   7.018   3.249   1.847
 4821SOL     OW15361   0.290   5.982   2.090
 4821SOL    HW115362   0.267   5.921   2.165
 4821SOL    HW215363   0.339   5.930   2.019
 4822SOL     OW15364   1.044   4.009   4.498
 4822SOL    HW115365   1.019   4.105   4.496
 4822SOL    HW215366   1.102   3.987   4.419
 4823SOL     OW15367   1.026   2.767   2.395
 4823SOL    HW115368   1.003   2.835   2.464
 4823SOL    HW215369   1.113   2.791   2.353
 4824SOL     OW15370   5.117   0.853   5.208
 4824SOL    HW115371   5.152   0.759   5.209
 4824SOL    HW215372   5.018   0.851   5.193
 4825SOL     OW15373   1.341   0.547   4.392
 4825SOL    HW115374   1.263   0.488   4.413
 4825SOL    HW215375   1.374   0.591   4.476
 4826SOL     OW15376   4.745   7.025   1.513
 4826SOL    HW115377   4.717   7.001   1.607
 4826SOL    HW215378   4.776   0.094   1.512
 4827SOL     OW15379   6.803   1.882   0.092
 4827SOL    HW115380   6.726   1.905   0.151
 4827SOL    HW215381   6.856   1.964   0.072
 4828SOL     OW15382   4.741   6.981   2.673
 4828SOL    HW115383   4.661   6.951   2.726
 4828SOL    HW215384   4.713   0.025   2.607
 4829SOL     OW15385   4.384   6.791   5.767
 4829SOL    HW115386   4.315   6.798   5.695
 4829SOL    HW215387   4.339   6.797   5.857
 4830SOL     OW15388   4.031   5.653   3.727
 4830SOL    HW115389   4.115   5.634   3.778
 4830SOL    HW215390   4.054   5.703   3.643
 4831SOL     OW15391   3.558   5.475   5.889
 4831SOL    HW115392   3.489   5.530   5.843
 4831SOL    HW215393   3.570   5.507   5.983
 4832SOL     OW15394   2.912   3.553   4.887
 4832SOL    HW115395   2.892   3.467   4.934
 4832SOL    HW215396   2.850   3.624   4.919
 4833SOL     OW15397   5.716   2.708   4.470
 4833SOL    HW115398   5.627   2.701   4.426
 4833SOL    HW215399   5.739   2.805   4.486
 4834SOL     OW15400   2.359   5.457   2.663
 4834SOL    HW115401   2.287   5.388   2.663
 4834SOL    HW215402   2.435   5.427   2.720
 4835SOL     OW15403   6.885   3.559   5.712
 4835SOL    HW115404   6.985   3.565   5.702
 4835SOL    HW215405   6.863   3.500   5.790
 4836SOL     OW15406   4.864   0.571   5.159
 4836SOL    HW115407   4.786   0.523   5.198
 4836SOL    HW215408   4.845   0.669   5.156
 4837SOL     OW15409   6.798   2.860   3.883
 4837SOL    HW115410   6.795   2.790   3.955
 4837SOL    HW215411   6.720   2.921   3.892
 4838SOL     OW15412   1.296   4.590   6.452
 4838SOL    HW115413   1.380   4.555   6.495
 4838SOL    HW215414   1.217   4.544   6.490
 4839SOL     OW15415   2.324   2.292   0.411
 4839SOL    HW115416   2.311   2.339   0.499
 4839SOL    HW215417   2.417   2.256   0.407
 4840SOL     OW15418   4.853   3.807   5.229
 4840SOL    HW115419   4.833   3.869   5.304
 4840SOL    HW215420   4.795   3.725   5.236
 4841SOL     OW15421   3.046   5.207   3.650
 4841SOL    HW115422   2.947   5.196   3.648
 4841SOL    HW215423   3.072   5.270   3.723
 4842SOL     OW15424   2.487   5.216   2.883
 4842SOL    HW115425   2.544   5.261   2.814
 4842SOL    HW215426   2.528   5.128   2.907
 4843SOL     OW15427   0.191   2.793   2.075
 4843SOL    HW115428   0.196   2.759   2.169
 4843SOL    HW215429   0.188   2.893   2.076
 4844SOL     OW15430   1.236   5.076   5.271
 4844SOL    HW115431   1.285   5.011   5.212
 4844SOL    HW215432   1.266   5.169   5.250
 4845SOL     OW15433   4.498   4.345   5.290
 4845SOL    HW115434   4.408   4.384   5.268
 4845SOL    HW215435   4.554   4.414   5.335
 4846SOL     OW15436   0.437   2.809   4.372
 4846SOL    HW115437   0.453   2.839   4.278
 4846SOL    HW215438   0.343   2.828   4.398
 4847SOL     OW15439   2.671   6.364   5.800
 4847SOL    HW115440   2.629   6.394   5.715
 4847SOL    HW215441   2.635   6.417   5.877
 4848SOL     OW15442   2.464   1.275   3.850
 4848SOL    HW115443   2.562   1.255   3.848
 4848SOL    HW215444   2.429   1.262   3.942
 4849SOL     OW15445   2.200   0.559   0.427
 4849SOL    HW115446   2.189   0.541   0.329
 4849SOL    HW215447   2.128   0.512   0.478
 4850SOL     OW15448   4.768   0.986   1.174
 4850SOL    HW115449   4.717   0.917   1.123
 4850SOL    HW215450   4.863   0.989   1.142
 4851SOL     OW15451   3.126   6.451   6.997
 4851SOL    HW115452   3.153   6.401   6.915
 4851SOL    HW215453   3.036   6.493   6.983
 4852SOL     OW15454   4.054   5.470   5.011
 4852SOL    HW115455   4.035   5.429   5.100
 4852SOL    HW215456   4.153   5.466   4.993
 4853SOL     OW15457   3.581   0.588   3.356
 4853SOL    HW115458   3.578   0.607   3.258
 4853SOL    HW215459   3.675   0.598   3.389
 4854SOL     OW15460   6.036   5.926   1.509
 4854SOL    HW115461   6.083   5.917   1.421
 4854SOL    HW215462   5.977   5.846   1.523
 4855SOL     OW15463   6.446   4.765   5.035
 4855SOL    HW115464   6.508   4.690   5.014
 4855SOL    HW215465   6.496   4.852   5.032
 4856SOL     OW15466   0.452   3.992   2.430
 4856SOL    HW115467   0.539   3.998   2.478
 4856SOL    HW215468   0.466   3.957   2.338
 4857SOL     OW15469   2.923   2.301   4.192
 4857SOL    HW115470   2.950   2.279   4.286
 4857SOL    HW215471   2.824   2.313   4.187
 4858SOL     OW15472   0.640   6.936   4.686
 4858SOL    HW115473   0.601   6.940   4.778
 4858SOL    HW215474   0.569   6.910   4.621
 4859SOL     OW15475   0.677   5.748   1.971
 4859SOL    HW115476   0.756   5.727   2.029
 4859SOL    HW215477   0.703   5.740   1.875
 4860SOL     OW15478   5.049   5.376   0.671
 4860SOL    HW115479   4.997   5.400   0.589
 4860SOL    HW215480   5.146   5.398   0.656
 4861SOL     OW15481   6.740   4.769   5.954
 4861SOL    HW115482   6.643   4.791   5.966
 4861SOL    HW215483   6.789   4.849   5.920
 4862SOL     OW15484   2.565   4.891   4.886
 4862SOL    HW115485   2.560   4.825   4.811
 4862SOL    HW215486   2.572   4.843   4.973
 4863SOL     OW15487   4.609   2.616   2.917
 4863SOL    HW115488   4.617   2.628   2.818
 4863SOL    HW215489   4.673   2.545   2.948
 4864SOL     OW15490   3.212   1.017   1.949
 4864SOL    HW115491   3.180   0.923   1.933
 4864SOL    HW215492   3.167   1.054   2.030
 4865SOL     OW15493   3.795   5.165   5.582
 4865SOL    HW115494   3.819   5.252   5.539
 4865SOL    HW215495   3.705   5.174   5.627
 4866SOL     OW15496   5.891   4.846   1.854
 4866SOL    HW115497   5.854   4.861   1.762
 4866SOL    HW215498   5.990   4.840   1.849
 4867SOL     OW15499   4.925   5.391   2.558
 4867SOL    HW115500   4.889   5.461   2.620
 4867SOL    HW215501   4.911   5.301   2.599
 4868SOL     OW15502   0.292   5.855   1.147
 4868SOL    HW115503   0.328   5.763   1.130
 4868SOL    HW215504   0.362   5.923   1.124
 4869SOL     OW15505   7.002   1.737   6.994
 4869SOL    HW115506   0.060   1.732   0.022
 4869SOL    HW215507   6.924   1.754   0.029
 4870SOL     OW15508   4.644   6.706   1.720
 4870SOL    HW115509   4.642   6.643   1.643
 4870SOL    HW215510   4.735   6.705   1.761
 4871SOL     OW15511   1.158   2.306   3.685
 4871SOL    HW115512   1.218   2.381   3.657
 4871SOL    HW215513   1.213   2.224   3.703
 4872SOL     OW15514   1.194   0.098   2.835
 4872SOL    HW115515   1.107   0.094   2.785
 4872SOL    HW215516   1.215   0.009   2.874
 4873SOL     OW15517   0.152   5.574   4.603
 4873SOL    HW115518   0.071   5.629   4.581
 4873SOL    HW215519   0.217   5.629   4.654
 4874SOL     OW15520   5.385   3.541   3.141
 4874SOL    HW115521   5.320   3.497   3.078
 4874SOL    HW215522   5.385   3.640   3.124
 4875SOL     OW15523   5.407   1.407   1.072
 4875SOL    HW115524   5.392   1.343   1.148
 4875SOL    HW215525   5.448   1.491   1.108
 4876SOL     OW15526   6.559   1.033   6.556
 4876SOL    HW115527   6.466   1.059   6.580
 4876SOL    HW215528   6.593   0.965   6.620
 4877SOL     OW15529   6.253   1.307   1.224
 4877SOL    HW115530   6.285   1.212   1.230
 4877SOL    HW215531   6.306   1.355   1.154
 4878SOL     OW15532   6.961   1.565   1.441
 4878SOL    HW115533   0.020   1.513   1.451
 4878SOL    HW215534   6.890   1.525   1.499
 4879SOL     OW15535   3.920   4.825   3.655
 4879SOL    HW115536   3.823   4.839   3.675
 4879SOL    HW215537   3.967   4.913   3.655
 4880SOL     OW15538   6.029   1.283   7.021
 4880SOL    HW115539   6.106   1.331   0.036
 4880SOL    HW215540   5.943   1.319   0.033
 4881SOL     OW15541   3.431   6.330   6.290
 4881SOL    HW115542   3.336   6.332   6.260
 4881SOL    HW215543   3.489   6.299   6.215
 4882SOL     OW15544   5.796   1.222   5.233
 4882SOL    HW115545   5.864   1.295   5.234
 4882SOL    HW215546   5.821   1.154   5.164
 4883SOL     OW15547   6.422   4.748   1.871
 4883SOL    HW115548   6.501   4.699   1.834
 4883SOL    HW215549   6.367   4.685   1.926
 4884SOL     OW15550   3.528   6.285   1.732
 4884SOL    HW115551   3.497   6.380   1.733
 4884SOL    HW215552   3.628   6.283   1.733
 4885SOL     OW15553   1.911   0.054   1.125
 4885SOL    HW115554   1.901   0.046   1.224
 4885SOL    HW215555   2.001   0.090   1.103
 4886SOL     OW15556   6.048   0.328   0.310
 4886SOL    HW115557   6.067   0.267   0.386
 4886SOL    HW215558   5.953   0.317   0.281
 4887SOL     OW15559   6.967   2.011   3.817
 4887SOL    HW115560   6.967   2.110   3.803
 4887SOL    HW215561   6.880   1.973   3.784
 4888SOL     OW15562   1.947   6.155   2.683
 4888SOL    HW115563   2.045   6.173   2.694
 4888SOL    HW215564   1.907   6.224   2.623
 4889SOL     OW15565   1.162   1.954   6.845
 4889SOL    HW115566   1.081   1.931   6.899
 4889SOL    HW215567   1.233   1.885   6.860
 4890SOL     OW15568   0.770   0.732   4.193
 4890SOL    HW115569   0.858   0.690   4.171
 4890SOL    HW215570   0.782   0.796   4.269
 4891SOL     OW15571   1.027   4.838   0.694
 4891SOL    HW115572   1.071   4.907   0.636
 4891SOL    HW215573   0.931   4.829   0.667
 4892SOL     OW15574   1.031   5.522   1.382
 4892SOL    HW115575   0.981   5.586   1.323
 4892SOL    HW215576   1.129   5.534   1.369
 4893SOL     OW15577   0.388   4.178   6.441
 4893SOL    HW115578   0.326   4.221   6.375
 4893SOL    HW215579   0.370   4.216   6.532
 4894SOL     OW15580   2.188   0.888   3.366
 4894SOL    HW115581   2.109   0.943   3.392
 4894SOL    HW215582   2.195   0.886   3.266
 4895SOL     OW15583   0.833   2.824   0.283
 4895SOL    HW115584   0.766   2.883   0.238
 4895SOL    HW215585   0.917   2.875   0.299
 4896SOL     OW15586   3.535   4.945   4.935
 4896SOL    HW115587   3.506   4.891   5.015
 4896SOL    HW215588   3.457   4.999   4.903
 4897SOL     OW15589   3.341   5.715   0.505
 4897SOL    HW115590   3.378   5.773   0.432
 4897SOL    HW215591   3.392   5.732   0.590
 4898SOL     OW15592   5.432   1.343   5.536
 4898SOL    HW115593   5.484   1.293   5.467
 4898SOL    HW215594   5.362   1.398   5.490
 4899SOL     OW15595   6.342   4.595   3.505
 4899SOL    HW115596   6.429   4.552   3.530
 4899SOL    HW215597   6.290   4.614   3.588
 4900SOL     OW15598   0.476   6.475   5.976
 4900SOL    HW115599   0.408   6.423   6.027
 4900SOL    HW215600   0.445   6.569   5.965
 4901SOL     OW15601   1.079   6.142   3.845
 4901SOL    HW115602   1.040   6.131   3.753
 4901SOL    HW215603   1.012   6.184   3.905
 4902SOL     OW15604   2.850   4.959   1.523
 4902SOL    HW115605   2.761   4.997   1.498
 4902SOL    HW215606   2.886   5.006   1.603
 4903SOL     OW15607   4.624   6.988   6.712
 4903SOL    HW115608   4.647   0.033   6.645
 4903SOL    HW215609   4.626   0.002   6.804
 4904SOL     OW15610   2.092   5.943   4.373
 4904SOL    HW115611   2.108   6.042   4.378
 4904SOL    HW215612   2.130   5.908   4.287
 4905SOL     OW15613   4.765   3.137   1.704
 4905SOL    HW115614   4.712   3.074   1.761
 4905SOL    HW215615   4.709   3.167   1.627
 4906SOL     OW15616   5.157   0.172   0.592
 4906SOL    HW115617   5.093   0.215   0.656
 4906SOL    HW215618   5.111   0.100   0.541
 4907SOL     OW15619   3.714   0.337   3.454
 4907SOL    HW115620   3.618   0.318   3.434
 4907SOL    HW215621   3.724   0.363   3.550
 4908SOL     OW15622   3.439   6.560   6.484
 4908SOL    HW115623   3.488   6.498   6.424
 4908SOL    HW215624   3.488   6.647   6.490
 4909SOL     OW15625   6.604   5.997   5.190
 4909SOL    HW115626   6.614   6.022   5.094
 4909SOL    HW215627   6.561   6.073   5.240
 4910SOL     OW15628   5.080   0.555   4.984
 4910SOL    HW115629   5.019   0.553   5.064
 4910SOL    HW215630   5.143   0.477   4.988
 4911SOL     OW15631   0.333   2.523   5.691
 4911SOL    HW115632   0.423   2.487   5.714
 4911SOL    HW215633   0.321   2.612   5.736
 4912SOL     OW15634   3.633   1.827   2.220
 4912SOL    HW115635   3.564   1.857   2.153
 4912SOL    HW215636   3.722   1.822   2.175
 4913SOL     OW15637   3.502   3.702   3.383
 4913SOL    HW115638   3.479   3.709   3.286
 4913SOL    HW215639   3.549   3.615   3.400
 4914SOL     OW15640   2.182   6.896   3.594
 4914SOL    HW115641   2.122   6.839   3.537
 4914SOL    HW215642   2.132   6.977   3.624
 4915SOL     OW15643   3.910   6.541   3.855
 4915SOL    HW115644   3.899   6.534   3.954
 4915SOL    HW215645   3.910   6.637   3.828
 4916SOL     OW15646   2.662   2.039   2.900
 4916SOL    HW115647   2.700   2.089   2.822
 4916SOL    HW215648   2.575   2.080   2.927
 4917SOL     OW15649   1.876   4.498   1.112
 4917SOL    HW115650   1.952   4.554   1.146
 4917SOL    HW215651   1.806   4.490   1.183
 4918SOL     OW15652   2.104   0.218   2.016
 4918SOL    HW115653   2.021   0.163   2.032
 4918SOL    HW215654   2.184   0.165   2.043
 4919SOL     OW15655   1.773   2.653   2.302
 4919SOL    HW115656   1.705   2.726   2.291
 4919SOL    HW215657   1.807   2.653   2.396
 4920SOL     OW15658   4.185   0.784   1.015
 4920SOL    HW115659   4.194   0.720   0.938
 4920SOL    HW215660   4.263   0.846   1.015
 4921SOL     OW15661   2.032   4.066   1.748
 4921SOL    HW115662   2.129   4.069   1.721
 4921SOL    HW215663   1.997   4.159   1.759
 4922SOL     OW15664   1.476   3.318   5.439
 4922SOL    HW115665   1.516   3.305   5.348
 4922SOL    HW215666   1.420   3.239   5.462
 4923SOL     OW15667   5.083   0.673   1.721
 4923SOL    HW115668   5.007   0.705   1.778
 4923SOL    HW215669   5.169   0.691   1.769
 4924SOL     OW15670   0.767   3.865   4.465
 4924SOL    HW115671   0.860   3.901   4.477
 4924SOL    HW215672   0.771   3.769   4.439
 4925SOL     OW15673   5.136   6.254   0.666
 4925SOL    HW115674   5.066   6.191   0.632
 4925SOL    HW215675   5.096   6.345   0.677
 4926SOL     OW15676   4.641   2.616   2.124
 4926SOL    HW115677   4.593   2.529   2.135
 4926SOL    HW215678   4.614   2.678   2.197
 4927SOL     OW15679   3.175   2.971   2.940
 4927SOL    HW115680   3.149   3.061   2.907
 4927SOL    HW215681   3.178   2.972   3.040
 4928SOL     OW15682   0.689   6.620   0.067
 4928SOL    HW115683   0.651   6.584   0.152
 4928SOL    HW215684   0.616   6.633   0.000
 4929SOL     OW15685   0.861   5.144   4.324
 4929SOL    HW115686   0.775   5.144   4.375
 4929SOL    HW215687   0.907   5.056   4.335
 4930SOL     OW15688   0.462   2.140   0.322
 4930SOL    HW115689   0.400   2.159   0.246
 4930SOL    HW215690   0.413   2.093   0.395
 4931SOL     OW15691   0.621   0.377   0.672
 4931SOL    HW115692   0.695   0.313   0.653
 4931SOL    HW215693   0.594   0.423   0.587
 4932SOL     OW15694   2.517   1.991   1.292
 4932SOL    HW115695   2.475   2.080   1.312
 4932SOL    HW215696   2.449   1.919   1.304
 4933SOL     OW15697   2.732   0.998   3.811
 4933SOL    HW115698   2.774   0.990   3.721
 4933SOL    HW215699   2.748   1.090   3.848
 4934SOL     OW15700   0.809   5.926   4.044
 4934SOL    HW115701   0.750   5.903   3.967
 4934SOL    HW215702   0.879   5.991   4.014
 4935SOL     OW15703   1.900   1.694   6.915
 4935SOL    HW115704   1.938   1.786   6.900
 4935SOL    HW215705   1.850   1.666   6.833
 4936SOL     OW15706   3.783   6.038   1.444
 4936SOL    HW115707   3.706   6.080   1.395
 4936SOL    HW215708   3.784   5.939   1.426
 4937SOL     OW15709   0.701   2.852   5.926
 4937SOL    HW115710   0.660   2.762   5.937
 4937SOL    HW215711   0.798   2.848   5.950
 4938SOL     OW15712   3.422   4.497   1.392
 4938SOL    HW115713   3.488   4.528   1.461
 4938SOL    HW215714   3.329   4.518   1.424
 4939SOL     OW15715   1.430   1.935   1.609
 4939SOL    HW115716   1.352   1.996   1.592
 4939SOL    HW215717   1.423   1.897   1.701
 4940SOL     OW15718   6.927   2.776   3.672
 4940SOL    HW115719   6.886   2.837   3.741
 4940SOL    HW215720   7.020   2.806   3.653
 4941SOL     OW15721   4.315   2.379   5.332
 4941SOL    HW115722   4.274   2.382   5.423
 4941SOL    HW215723   4.270   2.445   5.272
 4942SOL     OW15724   5.366   2.603   3.445
 4942SOL    HW115725   5.409   2.577   3.531
 4942SOL    HW215726   5.267   2.590   3.451
 4943SOL     OW15727   5.160   3.042   6.512
 4943SOL    HW115728   5.198   3.003   6.595
 4943SOL    HW215729   5.124   2.969   6.454
 4944SOL     OW15730   1.551   5.196   1.296
 4944SOL    HW115731   1.582   5.114   1.344
 4944SOL    HW215732   1.630   5.253   1.272
 4945SOL     OW15733   2.002   0.450   5.210
 4945SOL    HW115734   2.000   0.355   5.178
 4945SOL    HW215735   1.946   0.458   5.292
 4946SOL     OW15736   1.441   4.923   0.603
 4946SOL    HW115737   1.422   4.886   0.694
 4946SOL    HW215738   1.520   4.985   0.607
 4947SOL     OW15739   2.042   0.795   1.655
 4947SOL    HW115740   2.089   0.880   1.631
 4947SOL    HW215741   2.108   0.731   1.694
 4948SOL     OW15742   1.548   2.340   1.337
 4948SOL    HW115743   1.530   2.332   1.435
 4948SOL    HW215744   1.462   2.353   1.288
 4949SOL     OW15745   6.609   3.269   5.824
 4949SOL    HW115746   6.643   3.296   5.914
 4949SOL    HW215747   6.669   3.200   5.784
 4950SOL     OW15748   2.596   4.539   5.401
 4950SOL    HW115749   2.597   4.461   5.339
 4950SOL    HW215750   2.690   4.563   5.425
 4951SOL     OW15751   5.144   5.955   3.861
 4951SOL    HW115752   5.188   6.006   3.935
 4951SOL    HW215753   5.208   5.885   3.827
 4952SOL     OW15754   0.112   0.300   6.074
 4952SOL    HW115755   0.133   0.202   6.066
 4952SOL    HW215756   0.197   0.352   6.070
 4953SOL     OW15757   1.569   1.929   4.971
 4953SOL    HW115758   1.666   1.928   4.995
 4953SOL    HW215759   1.517   1.882   5.041
 4954SOL     OW15760   3.022   4.061   5.186
 4954SOL    HW115761   2.977   4.146   5.215
 4954SOL    HW215762   3.114   4.082   5.153
 4955SOL     OW15763   3.008   6.161   7.018
 4955SOL    HW115764   2.968   6.134   6.930
 4955SOL    HW215765   3.108   6.166   7.009
 4956SOL     OW15766   2.285   0.119   5.112
 4956SOL    HW115767   2.350   0.156   5.046
 4956SOL    HW215768   2.227   0.192   5.145
 4957SOL     OW15769   6.397   4.068   6.665
 4957SOL    HW115770   6.329   4.131   6.702
 4957SOL    HW215771   6.480   4.072   6.720
 4958SOL     OW15772   2.353   0.515   6.372
 4958SOL    HW115773   2.402   0.450   6.314
 4958SOL    HW215774   2.415   0.551   6.442
 4959SOL     OW15775   6.881   2.927   1.834
 4959SOL    HW115776   6.821   2.916   1.913
 4959SOL    HW215777   6.923   3.018   1.836
 4960SOL     OW15778   4.055   4.866   3.965
 4960SOL    HW115779   4.134   4.808   3.979
 4960SOL    HW215780   4.022   4.855   3.871
 4961SOL     OW15781   3.235   0.758   6.839
 4961SOL    HW115782   3.159   0.785   6.899
 4961SOL    HW215783   3.201   0.695   6.769
 4962SOL     OW15784   6.984   3.740   1.147
 4962SOL    HW115785   7.006   3.808   1.077
 4962SOL    HW215786   7.018   3.772   1.235
 4963SOL     OW15787   0.512   4.113   0.106
 4963SOL    HW115788   0.540   4.208   0.124
 4963SOL    HW215789   0.590   4.063   0.069
 4964SOL     OW15790   2.563   6.763   4.772
 4964SOL    HW115791   2.660   6.743   4.757
 4964SOL    HW215792   2.509   6.682   4.749
 4965SOL     OW15793   1.351   6.575   2.775
 4965SOL    HW115794   1.311   6.492   2.813
 4965SOL    HW215795   1.378   6.636   2.850
 4966SOL     OW15796   3.340   6.367   4.388
 4966SOL    HW115797   3.418   6.325   4.435
 4966SOL    HW215798   3.265   6.302   4.383
 4967SOL     OW15799   3.856   4.724   5.572
 4967SOL    HW115800   3.893   4.816   5.558
 4967SOL    HW215801   3.773   4.730   5.628
 4968SOL     OW15802   0.612   1.780   3.856
 4968SOL    HW115803   0.553   1.787   3.776
 4968SOL    HW215804   0.569   1.721   3.925
 4969SOL     OW15805   0.672   6.270   2.376
 4969SOL    HW115806   0.585   6.319   2.381
 4969SOL    HW215807   0.747   6.333   2.399
 4970SOL     OW15808   1.384   1.184   1.541
 4970SOL    HW115809   1.367   1.095   1.583
 4970SOL    HW215810   1.385   1.255   1.612
 4971SOL     OW15811   6.807   5.913   2.932
 4971SOL    HW115812   6.832   5.925   3.028
 4971SOL    HW215813   6.836   5.993   2.879
 4972SOL     OW15814   1.601   4.352   1.200
 4972SOL    HW115815   1.601   4.276   1.135
 4972SOL    HW215816   1.618   4.318   1.292
 4973SOL     OW15817   0.519   0.899   0.824
 4973SOL    HW115818   0.510   0.946   0.912
 4973SOL    HW215819   0.448   0.829   0.816
 4974SOL     OW15820   3.665   4.490   6.164
 4974SOL    HW115821   3.565   4.493   6.158
 4974SOL    HW215822   3.693   4.476   6.259
 4975SOL     OW15823   5.759   3.636   0.092
 4975SOL    HW115824   5.763   3.542   0.125
 4975SOL    HW215825   5.698   3.640   0.012
 4976SOL     OW15826   0.896   6.752   4.216
 4976SOL    HW115827   0.844   6.810   4.277
 4976SOL    HW215828   0.970   6.804   4.174
 4977SOL     OW15829   2.853   5.429   6.354
 4977SOL    HW115830   2.797   5.508   6.377
 4977SOL    HW215831   2.838   5.404   6.258
 4978SOL     OW15832   5.131   4.527   5.101
 4978SOL    HW115833   5.148   4.448   5.159
 4978SOL    HW215834   5.080   4.499   5.020
 4979SOL     OW15835   1.721   6.841   6.328
 4979SOL    HW115836   1.768   6.754   6.342
 4979SOL    HW215837   1.783   6.916   6.347
 4980SOL     OW15838   6.194   3.710   3.016
 4980SOL    HW115839   6.288   3.724   2.985
 4980SOL    HW215840   6.157   3.627   2.975
 4981SOL     OW15841   3.426   4.977   1.950
 4981SOL    HW115842   3.392   4.966   1.856
 4981SOL    HW215843   3.493   4.905   1.969
 4982SOL     OW15844   4.735   1.429   6.937
 4982SOL    HW115845   4.638   1.417   6.956
 4982SOL    HW215846   4.758   1.526   6.941
 4983SOL     OW15847   6.500   5.156   3.825
 4983SOL    HW115848   6.593   5.188   3.810
 4983SOL    HW215849   6.500   5.083   3.893
 4984SOL     OW15850   5.265   4.365   2.924
 4984SOL    HW115851   5.236   4.395   2.833
 4984SOL    HW215852   5.189   4.319   2.970
 4985SOL     OW15853   5.933   5.806   2.985
 4985SOL    HW115854   6.026   5.829   3.013
 4985SOL    HW215855   5.899   5.730   3.041
 4986SOL     OW15856   0.900   4.714   1.899
 4986SOL    HW115857   0.932   4.741   1.990
 4986SOL    HW215858   0.828   4.777   1.870
 4987SOL     OW15859   0.931   0.268   2.428
 4987SOL    HW115860   0.923   0.366   2.409
 4987SOL    HW215861   0.927   0.253   2.526
 4988SOL     OW15862   5.943   0.110   3.347
 4988SOL    HW115863   5.962   0.066   3.435
 4988SOL    HW215864   5.993   0.196   3.340
 4989SOL     OW15865   4.936   0.854   2.198
 4989SOL    HW115866   5.003   0.927   2.182
 4989SOL    HW215867   4.960   0.774   2.142
 4990SOL     OW15868   4.423   1.562   6.513
 4990SOL    HW115869   4.422   1.595   6.418
 4990SOL    HW215870   4.330   1.537   6.541
 4991SOL     OW15871   0.962   5.779   4.950
 4991SOL    HW115872   1.006   5.869   4.952
 4991SOL    HW215873   1.032   5.708   4.956
 4992SOL     OW15874   0.086   0.604   3.522
 4992SOL    HW115875   0.033   0.690   3.518
 4992SOL    HW215876   0.093   0.574   3.617
 4993SOL     OW15877   4.522   6.159   5.573
 4993SOL    HW115878   4.519   6.124   5.479
 4993SOL    HW215879   4.460   6.236   5.582
 4994SOL     OW15880   2.938   5.066   5.704
 4994SOL    HW115881   2.965   4.976   5.672
 4994SOL    HW215882   2.850   5.061   5.750
 4995SOL     OW15883   0.345   0.725   4.548
 4995SOL    HW115884   0.300   0.752   4.632
 4995SOL    HW215885   0.323   0.629   4.527
 4996SOL     OW15886   0.304   1.923   4.365
 4996SOL    HW115887   0.262   1.954   4.450
 4996SOL    HW215888   0.341   2.001   4.315
 4997SOL     OW15889   3.474   1.978   1.347
 4997SOL    HW115890   3.573   1.967   1.355
 4997SOL    HW215891   3.438   2.015   1.433
 4998SOL     OW15892   0.970   3.320   3.472
 4998SOL    HW115893   1.061   3.305   3.432
 4998SOL    HW215894   0.976   3.312   3.571
 4999SOL     OW15895   1.209   3.635   4.752
 4999SOL    HW115896   1.174   3.597   4.838
 4999SOL    HW215897   1.157   3.717   4.728
 5000SOL     OW15898   3.133   5.770   3.108
 5000SOL    HW115899   3.198   5.703   3.143
 5000SOL    HW215900   3.063   5.788   3.178
 5001SOL     OW15901   0.984   5.156   2.825
 5001SOL    HW115902   1.014   5.250   2.841
 5001SOL    HW215903   1.000   5.101   2.907
 5002SOL     OW15904   0.610   4.468   2.740
 5002SOL    HW115905   0.597   4.435   2.647
 5002SOL    HW215906   0.537   4.533   2.763
 5003SOL     OW15907   4.272   6.082   3.240
 5003SOL    HW115908   4.173   6.096   3.243
 5003SOL    HW215909   4.313   6.154   3.184
 5004SOL     OW15910   3.400   6.021   6.205
 5004SOL    HW115911   3.344   5.941   6.222
 5004SOL    HW215912   3.350   6.104   6.230
 5005SOL     OW15913   3.075   3.107   6.310
 5005SOL    HW115914   2.976   3.114   6.324
 5005SOL    HW215915   3.114   3.199   6.299
 5006SOL     OW15916   5.440   1.503   1.862
 5006SOL    HW115917   5.437   1.600   1.887
 5006SOL    HW215918   5.391   1.489   1.776
 5007SOL     OW15919   6.518   0.772   1.284
 5007SOL    HW115920   6.521   0.820   1.196
 5007SOL    HW215921   6.487   0.678   1.269
 5008SOL     OW15922   6.511   6.769   1.679
 5008SOL    HW115923   6.554   6.859   1.682
 5008SOL    HW215924   6.578   6.699   1.704
 5009SOL     OW15925   0.791   2.733   0.698
 5009SOL    HW115926   0.713   2.735   0.635
 5009SOL    HW215927   0.873   2.765   0.650
 5010SOL     OW15928   3.670   2.558   0.099
 5010SOL    HW115929   3.644   2.592   0.009
 5010SOL    HW215930   3.608   2.485   0.127
 5011SOL     OW15931   1.734   3.628   6.860
 5011SOL    HW115932   1.790   3.615   6.943
 5011SOL    HW215933   1.670   3.704   6.874
 5012SOL     OW15934   5.515   2.416   5.998
 5012SOL    HW115935   5.569   2.481   6.051
 5012SOL    HW215936   5.529   2.324   6.033
 5013SOL     OW15937   6.220   0.568   5.281
 5013SOL    HW115938   6.194   0.480   5.322
 5013SOL    HW215939   6.319   0.573   5.272
 5014SOL     OW15940   6.719   4.000   0.610
 5014SOL    HW115941   6.747   4.094   0.587
 5014SOL    HW215942   6.741   3.980   0.705
 5015SOL     OW15943   5.699   0.464   4.547
 5015SOL    HW115944   5.615   0.411   4.532
 5015SOL    HW215945   5.675   0.560   4.563
 5016SOL     OW15946   1.268   3.491   5.330
 5016SOL    HW115947   1.306   3.568   5.278
 5016SOL    HW215948   1.342   3.434   5.364
 5017SOL     OW15949   0.814   2.657   0.948
 5017SOL    HW115950   0.799   2.685   0.853
 5017SOL    HW215951   0.852   2.734   1.000
 5018SOL     OW15952   0.491   5.323   2.425
 5018SOL    HW115953   0.421   5.265   2.466
 5018SOL    HW215954   0.480   5.323   2.326
 5019SOL     OW15955   1.755   5.547   5.791
 5019SOL    HW115956   1.853   5.526   5.784
 5019SOL    HW215957   1.705   5.463   5.810
 5020SOL     OW15958   0.445   6.747   4.924
 5020SOL    HW115959   0.373   6.786   4.866
 5020SOL    HW215960   0.514   6.817   4.942
 5021SOL     OW15961   1.646   0.442   1.080
 5021SOL    HW115962   1.666   0.505   1.154
 5021SOL    HW215963   1.637   0.349   1.116
 5022SOL     OW15964   0.031   2.617   1.597
 5022SOL    HW115965   0.066   2.668   1.675
 5022SOL    HW215966   0.043   2.671   1.514
 5023SOL     OW15967   6.936   3.341   1.323
 5023SOL    HW115968   6.948   3.392   1.238
 5023SOL    HW215969   6.906   3.403   1.396
 5024SOL     OW15970   5.254   3.897   0.634
 5024SOL    HW115971   5.198   3.974   0.662
 5024SOL    HW215972   5.323   3.879   0.705
 5025SOL     OW15973   4.120   1.710   4.248
 5025SOL    HW115974   4.091   1.634   4.306
 5025SOL    HW215975   4.053   1.785   4.255
 5026SOL     OW15976   6.244   5.753   4.514
 5026SOL    HW115977   6.227   5.697   4.434
 5026SOL    HW215978   6.329   5.724   4.558
 5027SOL     OW15979   5.238   0.876   1.051
 5027SOL    HW115980   5.310   0.813   1.077
 5027SOL    HW215981   5.277   0.964   1.025
 5028SOL     OW15982   0.114   1.914   2.936
 5028SOL    HW115983   0.155   1.824   2.924
 5028SOL    HW215984   0.126   1.944   3.031
 5029SOL     OW15985   6.412   2.890   2.267
 5029SOL    HW115986   6.371   2.929   2.348
 5029SOL    HW215987   6.499   2.847   2.291
 5030SOL     OW15988   6.669   5.936   6.205
 5030SOL    HW115989   6.684   5.857   6.264
 5030SOL    HW215990   6.659   6.018   6.261
 5031SOL     OW15991   0.053   1.155   5.206
 5031SOL    HW115992   0.008   1.236   5.167
 5031SOL    HW215993   0.145   1.179   5.236
 5032SOL     OW15994   3.421   2.201   6.383
 5032SOL    HW115995   3.461   2.293   6.387
 5032SOL    HW215996   3.464   2.149   6.310
 5033SOL     OW15997   2.487   1.536   0.384
 5033SOL    HW115998   2.555   1.582   0.443
 5033SOL    HW215999   2.399   1.581   0.395
 5034SOL     OW16000   4.445   6.516   4.202
 5034SOL    HW116001   4.535   6.538   4.241
 5034SOL    HW216002   4.379   6.587   4.227
 5035SOL     OW16003   6.653   4.068   4.915
 5035SOL    HW116004   6.582   4.139   4.915
 5035SOL    HW216005   6.743   4.110   4.923
 5036SOL     OW16006   6.977   4.344   5.459
 5036SOL    HW116007   6.991   4.431   5.411
 5036SOL    HW216008   6.887   4.345   5.503
 5037SOL     OW16009   4.243   4.241   1.410
 5037SOL    HW116010   4.339   4.219   1.391
 5037SOL    HW216011   4.221   4.213   1.503
 5038SOL     OW16012   3.853   3.476   4.105
 5038SOL    HW116013   3.931   3.414   4.116
 5038SOL    HW216014   3.886   3.567   4.080
 5039SOL     OW16015   1.903   3.177   6.121
 5039SOL    HW116016   1.926   3.082   6.140
 5039SOL    HW216017   1.913   3.195   6.023
 5040SOL     OW16018   1.397   5.110   5.510
 5040SOL    HW116019   1.496   5.101   5.502
 5040SOL    HW216020   1.354   5.076   5.426
 5041SOL     OW16021   0.922   3.175   2.082
 5041SOL    HW116022   0.849   3.185   2.149
 5041SOL    HW216023   0.958   3.082   2.085
 5042SOL     OW16024   0.297   3.933   6.532
 5042SOL    HW116025   0.346   4.014   6.499
 5042SOL    HW216026   0.344   3.896   6.612
 5043SOL     OW16027   4.266   0.763   0.258
 5043SOL    HW116028   4.169   0.741   0.260
 5043SOL    HW216029   4.285   0.824   0.181
 5044SOL     OW16030   0.003   6.313   1.620
 5044SOL    HW116031   7.008   6.270   1.707
 5044SOL    HW216032   0.032   6.408   1.635
 5045SOL     OW16033   6.272   4.663   5.800
 5045SOL    HW116034   6.273   4.763   5.792
 5045SOL    HW216035   6.352   4.633   5.854
 5046SOL     OW16036   3.610   3.750   4.315
 5046SOL    HW116037   3.549   3.740   4.237
 5046SOL    HW216038   3.696   3.791   4.285
 5047SOL     OW16039   2.103   3.503   2.753
 5047SOL    HW116040   2.091   3.494   2.852
 5047SOL    HW216041   2.076   3.418   2.708
 5048SOL     OW16042   1.871   0.827   5.086
 5048SOL    HW116043   1.894   0.739   5.045
 5048SOL    HW216044   1.828   0.812   5.175
 5049SOL     OW16045   6.208   1.010   6.356
 5049SOL    HW116046   6.165   0.935   6.408
 5049SOL    HW216047   6.210   0.986   6.259
 5050SOL     OW16048   1.715   1.623   6.736
 5050SOL    HW116049   1.686   1.553   6.670
 5050SOL    HW216050   1.678   1.601   6.826
 5051SOL     OW16051   4.016   4.390   1.092
 5051SOL    HW116052   4.043   4.448   1.169
 5051SOL    HW216053   3.921   4.408   1.068
 5052SOL     OW16054   3.735   1.848   6.119
 5052SOL    HW116055   3.729   1.903   6.036
 5052SOL    HW216056   3.829   1.819   6.133
 5053SOL     OW16057   0.715   4.918   3.320
 5053SOL    HW116058   0.688   4.982   3.248
 5053SOL    HW216059   0.793   4.955   3.371
 5054SOL     OW16060   3.488   4.915   5.522
 5054SOL    HW116061   3.546   4.847   5.568
 5054SOL    HW216062   3.426   4.868   5.459
 5055SOL     OW16063   0.592   3.006   6.112
 5055SOL    HW116064   0.512   2.969   6.157
 5055SOL    HW216065   0.624   2.942   6.042
 5056SOL     OW16066   4.767   4.160   4.951
 5056SOL    HW116067   4.824   4.206   4.882
 5056SOL    HW216068   4.774   4.061   4.940
 5057SOL     OW16069   1.099   0.046   2.563
 5057SOL    HW116070   1.163   0.069   2.491
 5057SOL    HW216071   1.031   7.006   2.529
 5058SOL     OW16072   3.607   4.746   6.868
 5058SOL    HW116073   3.546   4.820   6.838
 5058SOL    HW216074   3.675   4.782   6.931
 5059SOL     OW16075   7.002   0.016   3.193
 5059SOL    HW116076   6.993   0.051   3.100
 5059SOL    HW216077   0.064   0.044   3.231
 5060SOL     OW16078   6.837   2.081   5.983
 5060SOL    HW116079   6.769   2.018   5.945
 5060SOL    HW216080   6.791   2.154   6.033
 5061SOL     OW16081   4.818   2.413   0.077
 5061SOL    HW116082   4.828   2.341   0.145
 5061SOL    HW216083   4.721   2.434   0.065
 5062SOL     OW16084   0.390   0.087   2.201
 5062SOL    HW116085   0.468   0.149   2.204
 5062SOL    HW216086   0.412   0.009   2.143
 5063SOL     OW16087   0.715   6.675   1.708
 5063SOL    HW116088   0.629   6.628   1.728
 5063SOL    HW216089   0.713   6.766   1.749
 5064SOL     OW16090   4.815   3.254   0.201
 5064SOL    HW116091   4.815   3.307   0.286
 5064SOL    HW216092   4.778   3.163   0.220
 5065SOL     OW16093   3.367   6.881   5.188
 5065SOL    HW116094   3.371   6.977   5.217
 5065SOL    HW216095   3.451   6.856   5.141
 5066SOL     OW16096   5.399   4.456   1.686
 5066SOL    HW116097   5.494   4.430   1.672
 5066SOL    HW216098   5.343   4.374   1.698
 5067SOL     OW16099   5.270   1.401   0.308
 5067SOL    HW116100   5.332   1.452   0.368
 5067SOL    HW216101   5.192   1.458   0.284
 5068SOL     OW16102   3.311   4.279   0.714
 5068SOL    HW116103   3.268   4.337   0.645
 5068SOL    HW216104   3.272   4.187   0.709
 5069SOL     OW16105   1.375   4.327   3.123
 5069SOL    HW116106   1.451   4.336   3.187
 5069SOL    HW216107   1.346   4.417   3.092
 5070SOL     OW16108   4.990   3.556   4.074
 5070SOL    HW116109   5.088   3.570   4.091
 5070SOL    HW216110   4.956   3.485   4.136
 5071SOL     OW16111   4.163   2.227   5.035
 5071SOL    HW116112   4.071   2.218   5.072
 5071SOL    HW216113   4.196   2.321   5.050
 5072SOL     OW16114   0.142   5.444   0.840
 5072SOL    HW116115   0.083   5.481   0.912
 5072SOL    HW216116   0.198   5.518   0.802
 5073SOL     OW16117   6.711   6.663   2.272
 5073SOL    HW116118   6.627   6.626   2.233
 5073SOL    HW216119   6.732   6.615   2.357
 5074SOL     OW16120   2.921   3.919   6.817
 5074SOL    HW116121   2.908   3.820   6.807
 5074SOL    HW216122   3.016   3.942   6.799
 5075SOL     OW16123   6.971   0.912   5.697
 5075SOL    HW116124   6.979   0.832   5.757
 5075SOL    HW216125   6.893   0.900   5.636
 5076SOL     OW16126   3.477   0.343   0.445
 5076SOL    HW116127   3.381   0.372   0.441
 5076SOL    HW216128   3.487   0.254   0.401
 5077SOL     OW16129   1.424   2.487   3.719
 5077SOL    HW116130   1.435   2.556   3.648
 5077SOL    HW216131   1.453   2.398   3.684
 5078SOL     OW16132   1.311   2.322   3.375
 5078SOL    HW116133   1.253   2.402   3.362
 5078SOL    HW216134   1.315   2.269   3.290
 5079SOL     OW16135   3.041   5.504   6.087
 5079SOL    HW116136   2.982   5.425   6.102
 5079SOL    HW216137   3.092   5.524   6.171
 5080SOL     OW16138   5.805   6.625   5.028
 5080SOL    HW116139   5.822   6.621   5.126
 5080SOL    HW216140   5.707   6.626   5.011
 5081SOL     OW16141   3.158   3.967   3.220
 5081SOL    HW116142   3.257   3.985   3.217
 5081SOL    HW216143   3.134   3.926   3.309
 5082SOL     OW16144   6.229   6.582   5.914
 5082SOL    HW116145   6.256   6.554   5.821
 5082SOL    HW216146   6.235   6.681   5.921
 5083SOL     OW16147   1.386   0.031   2.198
 5083SOL    HW116148   1.457   0.004   2.133
 5083SOL    HW216149   1.298   0.038   2.150
 5084SOL     OW16150   1.476   4.728   4.227
 5084SOL    HW116151   1.558   4.708   4.174
 5084SOL    HW216152   1.425   4.643   4.243
 5085SOL     OW16153   5.669   1.076   6.501
 5085SOL    HW116154   5.751   1.121   6.537
 5085SOL    HW216155   5.588   1.127   6.531
 5086SOL     OW16156   6.403   4.736   3.955
 5086SOL    HW116157   6.350   4.814   3.988
 5086SOL    HW216158   6.497   4.743   3.987
 5087SOL     OW16159   6.351   6.491   4.240
 5087SOL    HW116160   6.342   6.466   4.337
 5087SOL    HW216161   6.440   6.533   4.225
 5088SOL     OW16162   6.453   0.825   6.265
 5088SOL    HW116163   6.535   0.795   6.314
 5088SOL    HW216164   6.465   0.918   6.232
 5089SOL     OW16165   6.511   3.366   2.926
 5089SOL    HW116166   6.418   3.378   2.962
 5089SOL    HW216167   6.568   3.324   2.996
 5090SOL     OW16168   2.285   4.732   1.376
 5090SOL    HW116169   2.261   4.687   1.461
 5090SOL    HW216170   2.255   4.675   1.299
 5091SOL     OW16171   1.232   6.054   2.941
 5091SOL    HW116172   1.140   6.045   2.903
 5091SOL    HW216173   1.252   6.151   2.955
 5092SOL     OW16174   3.527   2.508   1.667
 5092SOL    HW116175   3.428   2.512   1.675
 5092SOL    HW216176   3.563   2.440   1.731
 5093SOL     OW16177   1.363   2.454   2.031
 5093SOL    HW116178   1.451   2.498   2.015
 5093SOL    HW216179   1.313   2.502   2.103
 5094SOL     OW16180   1.104   6.956   5.725
 5094SOL    HW116181   1.052   6.881   5.766
 5094SOL    HW216182   1.120   6.936   5.628
 5095SOL     OW16183   1.485   0.596   4.624
 5095SOL    HW116184   1.583   0.614   4.620
 5095SOL    HW216185   1.468   0.500   4.601
 5096SOL     OW16186   4.875   3.711   0.831
 5096SOL    HW116187   4.929   3.741   0.909
 5096SOL    HW216188   4.931   3.715   0.748
 5097SOL     OW16189   1.609   0.743   5.562
 5097SOL    HW116190   1.568   0.715   5.649
 5097SOL    HW216191   1.694   0.791   5.579
 5098SOL     OW16192   0.577   1.265   1.850
 5098SOL    HW116193   0.604   1.346   1.903
 5098SOL    HW216194   0.495   1.225   1.890
 5099SOL     OW16195   1.019   0.588   5.363
 5099SOL    HW116196   0.968   0.640   5.432
 5099SOL    HW216197   1.031   0.494   5.394
 5100SOL     OW16198   5.337   6.711   6.607
 5100SOL    HW116199   5.290   6.798   6.623
 5100SOL    HW216200   5.295   6.639   6.661
 5101SOL     OW16201   4.458   6.440   0.136
 5101SOL    HW116202   4.427   6.346   0.150
 5101SOL    HW216203   4.528   6.462   0.204
 5102SOL     OW16204   5.470   0.975   5.468
 5102SOL    HW116205   5.374   0.960   5.492
 5102SOL    HW216206   5.529   0.944   5.542
 5103SOL     OW16207   0.129   0.466   4.260
 5103SOL    HW116208   0.029   0.470   4.271
 5103SOL    HW216209   0.154   0.511   4.174
 5104SOL     OW16210   2.638   0.941   1.818
 5104SOL    HW116211   2.666   1.014   1.756
 5104SOL    HW216212   2.594   0.868   1.765
 5105SOL     OW16213   4.154   4.403   6.208
 5105SOL    HW116214   4.083   4.371   6.271
 5105SOL    HW216215   4.221   4.331   6.193
 5106SOL     OW16216   3.396   0.194   2.642
 5106SOL    HW116217   3.325   0.245   2.592
 5106SOL    HW216218   3.353   0.141   2.715
 5107SOL     OW16219   2.993   0.484   6.883
 5107SOL    HW116220   3.093   0.477   6.885
 5107SOL    HW216221   2.958   0.443   6.799
 5108SOL     OW16222   2.954   3.690   3.971
 5108SOL    HW116223   2.915   3.682   4.063
 5108SOL    HW216224   3.021   3.764   3.969
 5109SOL     OW16225   0.308   1.488   0.701
 5109SOL    HW116226   0.304   1.491   0.801
 5109SOL    HW216227   0.356   1.406   0.671
 5110SOL     OW16228   2.159   6.535   5.989
 5110SOL    HW116229   2.194   6.445   5.964
 5110SOL    HW216230   2.060   6.537   5.978
 5111SOL     OW16231   1.072   1.608   6.310
 5111SOL    HW116232   0.982   1.570   6.331
 5111SOL    HW216233   1.061   1.699   6.269
 5112SOL     OW16234   0.297   6.444   3.570
 5112SOL    HW116235   0.394   6.424   3.559
 5112SOL    HW216236   0.260   6.478   3.483
 5113SOL     OW16237   1.270   0.658   0.386
 5113SOL    HW116238   1.345   0.594   0.403
 5113SOL    HW216239   1.289   0.712   0.304
 5114SOL     OW16240   3.384   4.784   0.440
 5114SOL    HW116241   3.424   4.810   0.352
 5114SOL    HW216242   3.294   4.825   0.449
 5115SOL     OW16243   1.245   3.857   6.547
 5115SOL    HW116244   1.230   3.766   6.508
 5115SOL    HW216245   1.326   3.898   6.506
 5116SOL     OW16246   5.141   4.679   6.360
 5116SOL    HW116247   5.113   4.666   6.265
 5116SOL    HW216248   5.068   4.647   6.421
 5117SOL     OW16249   2.641   4.603   4.099
 5117SOL    HW116250   2.596   4.524   4.140
 5117SOL    HW216251   2.582   4.642   4.028
 5118SOL     OW16252   4.548   5.709   0.308
 5118SOL    HW116253   4.646   5.725   0.295
 5118SOL    HW216254   4.512   5.775   0.374
 5119SOL     OW16255   5.361   0.754   2.025
 5119SOL    HW116256   5.412   0.838   2.005
 5119SOL    HW216257   5.360   0.695   1.944
 5120SOL     OW16258   5.797   1.006   2.810
 5120SOL    HW116259   5.820   0.939   2.740
 5120SOL    HW216260   5.723   1.065   2.777
 5121SOL     OW16261   0.252   3.258   5.486
 5121SOL    HW116262   0.339   3.217   5.511
 5121SOL    HW216263   0.199   3.191   5.433
 5122SOL     OW16264   2.408   0.555   3.257
 5122SOL    HW116265   2.435   0.652   3.263
 5122SOL    HW216266   2.432   0.508   3.342
 5123SOL     OW16267   5.156   3.833   3.241
 5123SOL    HW116268   5.113   3.743   3.233
 5123SOL    HW216269   5.149   3.881   3.153
 5124SOL     OW16270   2.833   6.522   6.918
 5124SOL    HW116271   2.827   6.621   6.905
 5124SOL    HW216272   2.784   6.497   7.002
 5125SOL     OW16273   0.362   3.385   3.864
 5125SOL    HW116274   0.268   3.416   3.855
 5125SOL    HW216275   0.410   3.394   3.777
 5126SOL     OW16276   5.981   4.919   6.563
 5126SOL    HW116277   5.976   5.016   6.538
 5126SOL    HW216278   5.902   4.871   6.525
 5127SOL     OW16279   5.770   3.658   6.550
 5127SOL    HW116280   5.702   3.696   6.487
 5127SOL    HW216281   5.726   3.595   6.613
 5128SOL     OW16282   1.279   0.960   6.654
 5128SOL    HW116283   1.340   0.882   6.667
 5128SOL    HW216284   1.297   1.001   6.565
 5129SOL     OW16285   5.300   0.451   2.275
 5129SOL    HW116286   5.285   0.420   2.369
 5129SOL    HW216287   5.396   0.473   2.262
 5130SOL     OW16288   1.003   5.237   4.658
 5130SOL    HW116289   0.968   5.159   4.710
 5130SOL    HW216290   1.081   5.208   4.603
 5131SOL     OW16291   3.047   5.039   3.438
 5131SOL    HW116292   2.998   4.952   3.433
 5131SOL    HW216293   3.032   5.080   3.528
 5132SOL     OW16294   3.443   1.338   6.507
 5132SOL    HW116295   3.527   1.284   6.497
 5132SOL    HW216296   3.379   1.289   6.567
 5133SOL     OW16297   3.946   5.803   6.834
 5133SOL    HW116298   4.003   5.885   6.826
 5133SOL    HW216299   3.949   5.751   6.749
 5134SOL     OW16300   6.505   6.854   1.398
 5134SOL    HW116301   6.415   6.880   1.361
 5134SOL    HW216302   6.493   6.811   1.487
 5135SOL     OW16303   6.484   3.079   2.052
 5135SOL    HW116304   6.391   3.043   2.054
 5135SOL    HW216305   6.490   3.155   1.988
 5136SOL     OW16306   0.733   0.989   6.502
 5136SOL    HW116307   0.719   1.007   6.405
 5136SOL    HW216308   0.825   0.951   6.516
 5137SOL     OW16309   5.303   2.176   5.425
 5137SOL    HW116310   5.319   2.130   5.338
 5137SOL    HW216311   5.240   2.122   5.480
 5138SOL     OW16312   3.794   3.555   4.409
 5138SOL    HW116313   3.831   3.524   4.322
 5138SOL    HW216314   3.732   3.632   4.394
 5139SOL     OW16315   2.004   0.184   5.130
 5139SOL    HW116316   2.035   0.169   5.036
 5139SOL    HW216317   1.906   0.201   5.130
 5140SOL     OW16318   4.106   2.078   5.988
 5140SOL    HW116319   4.062   2.134   5.918
 5140SOL    HW216320   4.092   1.981   5.967
 5141SOL     OW16321   6.721   2.940   2.049
 5141SOL    HW116322   6.742   2.888   2.131
 5141SOL    HW216323   6.633   2.985   2.059
 5142SOL     OW16324   0.095   6.724   3.451
 5142SOL    HW116325   0.011   6.680   3.483
 5142SOL    HW216326   0.097   6.819   3.483
 5143SOL     OW16327   0.638   5.031   4.107
 5143SOL    HW116328   0.699   5.055   4.182
 5143SOL    HW216329   0.673   4.949   4.061
 5144SOL     OW16330   1.638   3.438   6.540
 5144SOL    HW116331   1.654   3.392   6.452
 5144SOL    HW216332   1.721   3.488   6.567
 5145SOL     OW16333   2.652   6.672   6.570
 5145SOL    HW116334   2.715   6.631   6.505
 5145SOL    HW216335   2.565   6.622   6.569
 5146SOL     OW16336   4.679   4.696   6.013
 5146SOL    HW116337   4.616   4.624   5.985
 5146SOL    HW216338   4.773   4.662   6.008
 5147SOL     OW16339   4.832   2.885   3.475
 5147SOL    HW116340   4.791   2.820   3.411
 5147SOL    HW216341   4.827   2.848   3.568
 5148SOL     OW16342   0.611   0.757   1.914
 5148SOL    HW116343   0.676   0.824   1.951
 5148SOL    HW216344   0.571   0.704   1.988
 5149SOL     OW16345   5.581   4.479   3.363
 5149SOL    HW116346   5.657   4.539   3.388
 5149SOL    HW216347   5.527   4.459   3.445
 5150SOL     OW16348   1.329   4.937   3.864
 5150SOL    HW116349   1.386   5.019   3.872
 5150SOL    HW216350   1.371   4.873   3.800
 5151SOL     OW16351   5.783   4.623   1.993
 5151SOL    HW116352   5.812   4.702   1.937
 5151SOL    HW216353   5.855   4.553   1.991
 5152SOL     OW16354   1.435   0.264   6.191
 5152SOL    HW116355   1.342   0.275   6.156
 5152SOL    HW216356   1.478   0.184   6.148
 5153SOL     OW16357   1.371   2.109   0.475
 5153SOL    HW116358   1.312   2.174   0.524
 5153SOL    HW216359   1.398   2.036   0.538
 5154SOL     OW16360   0.629   3.080   6.623
 5154SOL    HW116361   0.694   3.067   6.549
 5154SOL    HW216362   0.538   3.051   6.593
 5155SOL     OW16363   2.293   1.461   0.613
 5155SOL    HW116364   2.245   1.412   0.540
 5155SOL    HW216365   2.263   1.556   0.616
 5156SOL     OW16366   5.707   5.140   5.780
 5156SOL    HW116367   5.799   5.173   5.801
 5156SOL    HW216368   5.670   5.191   5.702
 5157SOL     OW16369   3.723   0.809   2.584
 5157SOL    HW116370   3.730   0.885   2.649
 5157SOL    HW216371   3.813   0.767   2.572
 5158SOL     OW16372   4.172   1.012   2.845
 5158SOL    HW116373   4.080   0.977   2.862
 5158SOL    HW216374   4.168   1.111   2.835
 5159SOL     OW16375   5.525   3.568   5.841
 5159SOL    HW116376   5.478   3.589   5.755
 5159SOL    HW216377   5.463   3.583   5.918
 5160SOL     OW16378   0.015   6.421   2.894
 5160SOL    HW116379   6.956   6.375   2.919
 5160SOL    HW216380   0.052   6.468   2.975
 5161SOL     OW16381   0.955   3.196   0.167
 5161SOL    HW116382   0.976   3.190   0.070
 5161SOL    HW216383   1.018   3.137   0.219
 5162SOL     OW16384   0.006   6.586   2.526
 5162SOL    HW116385   6.939   6.550   2.532
 5162SOL    HW216386   0.003   6.679   2.489
 5163SOL     OW16387   3.175   6.535   1.686
 5163SOL    HW116388   3.136   6.446   1.709
 5163SOL    HW216389   3.135   6.568   1.601
 5164SOL     OW16390   3.041   3.838   1.276
 5164SOL    HW116391   3.034   3.739   1.272
 5164SOL    HW216392   2.951   3.877   1.294
 5165SOL     OW16393   1.454   4.782   0.065
 5165SOL    HW116394   1.357   4.769   0.083
 5165SOL    HW216395   1.485   4.715   7.024
 5166SOL     OW16396   2.066   5.650   1.705
 5166SOL    HW116397   1.983   5.606   1.670
 5166SOL    HW216398   2.044   5.697   1.791
 5167SOL     OW16399   5.017   3.135   5.436
 5167SOL    HW116400   5.114   3.161   5.436
 5167SOL    HW216401   4.991   3.104   5.345
 5168SOL     OW16402   4.116   2.262   2.180
 5168SOL    HW116403   4.077   2.354   2.179
 5168SOL    HW216404   4.047   2.197   2.212
 5169SOL     OW16405   3.940   0.403   4.195
 5169SOL    HW116406   3.875   0.420   4.122
 5169SOL    HW216407   3.894   0.409   4.284
 5170SOL     OW16408   1.382   3.508   6.510
 5170SOL    HW116409   1.472   3.474   6.538
 5170SOL    HW216410   1.394   3.573   6.435
 5171SOL     OW16411   1.896   5.897   5.596
 5171SOL    HW116412   1.847   5.866   5.678
 5171SOL    HW216413   1.971   5.957   5.623
 5172SOL     OW16414   0.176   5.576   3.762
 5172SOL    HW116415   0.196   5.577   3.860
 5172SOL    HW216416   0.242   5.635   3.714
 5173SOL     OW16417   4.470   3.752   5.824
 5173SOL    HW116418   4.499   3.820   5.757
 5173SOL    HW216419   4.408   3.687   5.780
 5174SOL     OW16420   2.615   6.667   3.447
 5174SOL    HW116421   2.673   6.585   3.455
 5174SOL    HW216422   2.538   6.647   3.386
 5175SOL     OW16423   2.750   4.430   0.052
 5175SOL    HW116424   2.692   4.405   7.000
 5175SOL    HW216425   2.842   4.451   0.019
 5176SOL     OW16426   5.371   5.671   0.262
 5176SOL    HW116427   5.448   5.610   0.244
 5176SOL    HW216428   5.384   5.716   0.350
 5177SOL     OW16429   4.806   0.795   0.894
 5177SOL    HW116430   4.728   0.766   0.949
 5177SOL    HW216431   4.831   0.889   0.918
 5178SOL     OW16432   1.028   3.534   1.893
 5178SOL    HW116433   1.006   3.447   1.848
 5178SOL    HW216434   1.121   3.561   1.866
 5179SOL     OW16435   6.036   4.423   3.194
 5179SOL    HW116436   5.938   4.433   3.174
 5179SOL    HW216437   6.085   4.503   3.159
 5180SOL     OW16438   2.574   0.296   1.130
 5180SOL    HW116439   2.670   0.271   1.117
 5180SOL    HW216440   2.569   0.375   1.190
 5181SOL     OW16441   0.496   0.666   6.496
 5181SOL    HW116442   0.420   0.639   6.556
 5181SOL    HW216443   0.552   0.585   6.476
 5182SOL     OW16444   4.278   5.240   3.174
 5182SOL    HW116445   4.187   5.204   3.153
 5182SOL    HW216446   4.269   5.331   3.214
 5183SOL     OW16447   4.325   1.579   3.454
 5183SOL    HW116448   4.381   1.647   3.407
 5183SOL    HW216449   4.298   1.507   3.389
 5184SOL     OW16450   2.155   1.447   4.140
 5184SOL    HW116451   2.130   1.515   4.072
 5184SOL    HW216452   2.244   1.469   4.179
 5185SOL     OW16453   5.517   0.422   1.882
 5185SOL    HW116454   5.518   0.520   1.860
 5185SOL    HW216455   5.463   0.373   1.814
 5186SOL     OW16456   6.826   3.063   5.813
 5186SOL    HW116457   6.877   3.100   5.890
 5186SOL    HW216458   6.856   3.107   5.728
 5187SOL     OW16459   2.086   4.576   5.354
 5187SOL    HW116460   2.120   4.488   5.388
 5187SOL    HW216461   2.002   4.561   5.303
 5188SOL     OW16462   6.697   6.968   1.726
 5188SOL    HW116463   6.698   6.985   1.825
 5188SOL    HW216464   6.790   6.950   1.695
 5189SOL     OW16465   5.748   0.338   5.934
 5189SOL    HW116466   5.835   0.314   5.977
 5189SOL    HW216467   5.687   0.258   5.936
 5190SOL     OW16468   1.442   3.128   1.634
 5190SOL    HW116469   1.428   3.220   1.668
 5190SOL    HW216470   1.511   3.129   1.561
 5191SOL     OW16471   2.799   5.900   2.305
 5191SOL    HW116472   2.884   5.867   2.263
 5191SOL    HW216473   2.811   5.993   2.337
 5192SOL     OW16474   2.122   5.452   1.967
 5192SOL    HW116475   2.036   5.402   1.958
 5192SOL    HW216476   2.187   5.397   2.020
 5193SOL     OW16477   5.774   0.574   0.124
 5193SOL    HW116478   5.810   0.623   0.044
 5193SOL    HW216479   5.732   0.640   0.187
 5194SOL     OW16480   4.329   2.187   6.930
 5194SOL    HW116481   4.280   2.214   7.013
 5194SOL    HW216482   4.282   2.225   6.850
 5195SOL     OW16483   0.185   0.921   4.201
 5195SOL    HW116484   0.130   1.000   4.175
 5195SOL    HW216485   0.145   0.877   4.282
 5196SOL     OW16486   4.777   6.292   3.452
 5196SOL    HW116487   4.797   6.387   3.426
 5196SOL    HW216488   4.754   6.239   3.370
 5197SOL     OW16489   1.339   4.461   5.634
 5197SOL    HW116490   1.300   4.373   5.659
 5197SOL    HW216491   1.352   4.517   5.715
 5198SOL     OW16492   5.236   5.587   3.161
 5198SOL    HW116493   5.265   5.672   3.204
 5198SOL    HW216494   5.315   5.541   3.121
 5199SOL     OW16495   6.720   5.315   1.189
 5199SOL    HW116496   6.639   5.359   1.151
 5199SOL    HW216497   6.691   5.243   1.253
 5200SOL     OW16498   0.279   3.879   5.685
 5200SOL    HW116499   0.204   3.904   5.624
 5200SOL    HW216500   0.276   3.935   5.767
 5201SOL     OW16501   1.892   5.562   4.024
 5201SOL    HW116502   1.836   5.563   3.942
 5201SOL    HW216503   1.896   5.653   4.064
 5202SOL     OW16504   6.722   3.845   6.766
 5202SOL    HW116505   6.706   3.940   6.739
 5202SOL    HW216506   6.700   3.785   6.688
 5203SOL     OW16507   0.337   2.523   6.787
 5203SOL    HW116508   0.379   2.510   6.697
 5203SOL    HW216509   0.409   2.531   6.856
 5204SOL     OW16510   4.295   5.127   0.475
 5204SOL    HW116511   4.310   5.186   0.396
 5204SOL    HW216512   4.320   5.033   0.451
 5205SOL     OW16513   1.948   1.121   1.485
 5205SOL    HW116514   1.884   1.052   1.450
 5205SOL    HW216515   2.039   1.082   1.491
 5206SOL     OW16516   0.531   4.430   0.075
 5206SOL    HW116517   0.450   4.469   0.120
 5206SOL    HW216518   0.512   4.421   7.003
 5207SOL     OW16519   1.621   5.471   4.310
 5207SOL    HW116520   1.663   5.385   4.280
 5207SOL    HW216521   1.684   5.546   4.294
 5208SOL     OW16522   4.006   0.710   0.173
 5208SOL    HW116523   3.911   0.692   0.199
 5208SOL    HW216524   4.012   0.721   0.074
 5209SOL     OW16525   6.131   5.917   3.259
 5209SOL    HW116526   6.091   5.868   3.336
 5209SOL    HW216527   6.172   6.002   3.292
 5210SOL     OW16528   4.863   3.803   4.064
 5210SOL    HW116529   4.854   3.783   3.966
 5210SOL    HW216530   4.893   3.720   4.112
 5211SOL     OW16531   3.316   3.421   3.280
 5211SOL    HW116532   3.334   3.506   3.230
 5211SOL    HW216533   3.310   3.345   3.216
 5212SOL     OW16534   0.817   2.173   0.563
 5212SOL    HW116535   0.742   2.160   0.627
 5212SOL    HW216536   0.856   2.265   0.575
 5213SOL     OW16537   4.994   2.531   5.624
 5213SOL    HW116538   5.053   2.466   5.576
 5213SOL    HW216539   5.044   2.570   5.701
 5214SOL     OW16540   5.602   1.763   5.321
 5214SOL    HW116541   5.630   1.855   5.345
 5214SOL    HW216542   5.524   1.736   5.378
 5215SOL     OW16543   5.196   4.407   3.487
 5215SOL    HW116544   5.117   4.355   3.520
 5215SOL    HW216545   5.172   4.504   3.482
 5216SOL     OW16546   4.994   4.597   1.463
 5216SOL    HW116547   4.956   4.661   1.529
 5216SOL    HW216548   4.957   4.618   1.372
 5217SOL     OW16549   3.418   5.393   3.973
 5217SOL    HW116550   3.409   5.373   4.071
 5217SOL    HW216551   3.477   5.473   3.961
 5218SOL     OW16552   1.591   6.747   3.908
 5218SOL    HW116553   1.606   6.672   3.973
 5218SOL    HW216554   1.679   6.785   3.880
 5219SOL     OW16555   3.131   6.940   6.320
 5219SOL    HW116556   3.227   6.913   6.318
 5219SOL    HW216557   3.084   6.891   6.393
 5220SOL     OW16558   1.058   5.994   2.111
 5220SOL    HW116559   1.111   5.912   2.128
 5220SOL    HW216560   1.120   6.072   2.097
 5221SOL     OW16561   5.225   1.068   4.417
 5221SOL    HW116562   5.305   1.123   4.392
 5221SOL    HW216563   5.252   0.971   4.423
 5222SOL     OW16564   2.258   0.493   4.013
 5222SOL    HW116565   2.274   0.409   4.064
 5222SOL    HW216566   2.324   0.563   4.040
 5223SOL     OW16567   4.816   0.265   1.493
 5223SOL    HW116568   4.903   0.315   1.487
 5223SOL    HW216569   4.783   0.244   1.401
 5224SOL     OW16570   6.555   2.295   2.486
 5224SOL    HW116571   6.491   2.273   2.411
 5224SOL    HW216572   6.648   2.292   2.451
 5225SOL     OW16573   6.867   0.140   3.943
 5225SOL    HW116574   6.908   0.124   4.033
 5225SOL    HW216575   6.884   0.061   3.884
 5226SOL     OW16576   1.067   6.334   4.511
 5226SOL    HW116577   1.011   6.294   4.584
 5226SOL    HW216578   1.008   6.375   4.442
 5227SOL     OW16579   6.896   5.538   3.703
 5227SOL    HW116580   6.990   5.510   3.685
 5227SOL    HW216581   6.869   5.607   3.636
 5228SOL     OW16582   5.529   1.710   0.743
 5228SOL    HW116583   5.488   1.627   0.707
 5228SOL    HW216584   5.562   1.694   0.836
 5229SOL     OW16585   1.011   3.972   6.429
 5229SOL    HW116586   1.095   3.936   6.471
 5229SOL    HW216587   0.933   3.953   6.490
 5230SOL     OW16588   0.276   0.899   1.139
 5230SOL    HW116589   0.354   0.958   1.118
 5230SOL    HW216590   0.303   0.833   1.210
 5231SOL     OW16591   3.894   2.978   4.513
 5231SOL    HW116592   3.908   3.077   4.525
 5231SOL    HW216593   3.977   2.930   4.539
 5232SOL     OW16594   4.665   2.187   6.445
 5232SOL    HW116595   4.669   2.212   6.542
 5232SOL    HW216596   4.599   2.247   6.398
 5233SOL     OW16597   6.163   6.225   1.863
 5233SOL    HW116598   6.232   6.152   1.858
 5233SOL    HW216599   6.141   6.257   1.771
 5234SOL     OW16600   3.225   0.387   0.393
 5234SOL    HW116601   3.148   0.366   0.333
 5234SOL    HW216602   3.190   0.408   0.485
 5235SOL     OW16603   1.782   3.327   0.898
 5235SOL    HW116604   1.861   3.277   0.933
 5235SOL    HW216605   1.764   3.299   0.804
 5236SOL     OW16606   5.517   3.214   1.187
 5236SOL    HW116607   5.511   3.122   1.226
 5236SOL    HW216608   5.434   3.233   1.134
 5237SOL     OW16609   2.649   1.874   5.255
 5237SOL    HW116610   2.598   1.931   5.190
 5237SOL    HW216611   2.645   1.915   5.346
 5238SOL     OW16612   1.243   5.329   0.476
 5238SOL    HW116613   1.180   5.364   0.407
 5238SOL    HW216614   1.198   5.328   0.565
 5239SOL     OW16615   3.045   3.107   3.978
 5239SOL    HW116616   3.098   3.176   3.929
 5239SOL    HW216617   2.952   3.140   3.994
 5240SOL     OW16618   3.029   2.488   5.386
 5240SOL    HW116619   3.044   2.584   5.412
 5240SOL    HW216620   3.095   2.462   5.315
 5241SOL     OW16621   0.862   6.069   6.610
 5241SOL    HW116622   0.846   6.082   6.512
 5241SOL    HW216623   0.825   5.981   6.638
 5242SOL     OW16624   6.020   1.437   5.535
 5242SOL    HW116625   5.951   1.374   5.569
 5242SOL    HW216626   6.018   1.438   5.435
 5243SOL     OW16627   0.580   5.930   0.990
 5243SOL    HW116628   0.656   5.948   0.928
 5243SOL    HW216629   0.594   5.842   1.035
 5244SOL     OW16630   3.938   3.712   5.784
 5244SOL    HW116631   3.842   3.729   5.808
 5244SOL    HW216632   3.946   3.699   5.685
 5245SOL     OW16633   4.176   4.154   5.672
 5245SOL    HW116634   4.226   4.207   5.603
 5245SOL    HW216635   4.241   4.118   5.739
 5246SOL     OW16636   0.448   3.555   2.941
 5246SOL    HW116637   0.358   3.513   2.940
 5246SOL    HW216638   0.470   3.586   3.033
 5247SOL     OW16639   6.997   5.338   0.370
 5247SOL    HW116640   6.997   5.414   0.435
 5247SOL    HW216641   7.020   5.373   0.279
 5248SOL     OW16642   5.150   0.699   6.137
 5248SOL    HW116643   5.066   0.669   6.183
 5248SOL    HW216644   5.128   0.734   6.046
 5249SOL     OW16645   0.790   5.493   4.053
 5249SOL    HW116646   0.827   5.404   4.080
 5249SOL    HW216647   0.753   5.486   3.960
 5250SOL     OW16648   0.564   1.512   6.192
 5250SOL    HW116649   0.543   1.557   6.105
 5250SOL    HW216650   0.623   1.572   6.247
 5251SOL     OW16651   6.678   3.603   0.652
 5251SOL    HW116652   6.768   3.634   0.681
 5251SOL    HW216653   6.621   3.682   0.630
 5252SOL     OW16654   2.735   6.143   0.944
 5252SOL    HW116655   2.743   6.179   1.037
 5252SOL    HW216656   2.663   6.191   0.896
 5253SOL     OW16657   5.533   3.534   4.422
 5253SOL    HW116658   5.457   3.469   4.432
 5253SOL    HW216659   5.553   3.548   4.326
 5254SOL     OW16660   4.535   1.240   4.045
 5254SOL    HW116661   4.606   1.226   4.113
 5254SOL    HW216662   4.449   1.198   4.076
 5255SOL     OW16663   3.490   0.398   4.841
 5255SOL    HW116664   3.578   0.385   4.795
 5255SOL    HW216665   3.505   0.407   4.939
 5256SOL     OW16666   5.250   1.733   3.435
 5256SOL    HW116667   5.206   1.787   3.363
 5256SOL    HW216668   5.194   1.737   3.518
 5257SOL     OW16669   3.825   0.099   1.035
 5257SOL    HW116670   3.865   0.108   1.126
 5257SOL    HW216671   3.748   0.035   1.039
 5258SOL     OW16672   5.199   4.134   2.549
 5258SOL    HW116673   5.248   4.076   2.614
 5258SOL    HW216674   5.103   4.141   2.576
 5259SOL     OW16675   4.593   6.212   2.510
 5259SOL    HW116676   4.653   6.182   2.436
 5259SOL    HW216677   4.641   6.280   2.566
 5260SOL     OW16678   5.194   3.457   0.638
 5260SOL    HW116679   5.179   3.386   0.569
 5260SOL    HW216680   5.155   3.427   0.725
 5261SOL     OW16681   6.802   2.045   5.042
 5261SOL    HW116682   6.782   2.045   4.944
 5261SOL    HW216683   6.859   2.125   5.065
 5262SOL     OW16684   2.766   0.210   2.691
 5262SOL    HW116685   2.689   0.235   2.632
 5262SOL    HW216686   2.736   0.140   2.756
 5263SOL     OW16687   1.526   0.223   5.895
 5263SOL    HW116688   1.522   0.129   5.930
 5263SOL    HW216689   1.433   0.254   5.874
 5264SOL     OW16690   6.484   1.470   1.555
 5264SOL    HW116691   6.501   1.388   1.500
 5264SOL    HW216692   6.388   1.474   1.580
 5265SOL     OW16693   5.545   4.108   2.356
 5265SOL    HW116694   5.621   4.075   2.300
 5265SOL    HW216695   5.465   4.122   2.297
 5266SOL     OW16696   2.190   6.358   1.589
 5266SOL    HW116697   2.177   6.443   1.538
 5266SOL    HW216698   2.230   6.379   1.678
 5267SOL     OW16699   4.815   4.826   5.603
 5267SOL    HW116700   4.715   4.826   5.605
 5267SOL    HW216701   4.846   4.800   5.512
 5268SOL     OW16702   6.665   5.578   5.254
 5268SOL    HW116703   6.716   5.535   5.329
 5268SOL    HW216704   6.672   5.678   5.263
 5269SOL     OW16705   1.870   5.638   3.676
 5269SOL    HW116706   1.824   5.714   3.722
 5269SOL    HW216707   1.821   5.553   3.695
 5270SOL     OW16708   5.562   2.260   1.379
 5270SOL    HW116709   5.545   2.338   1.440
 5270SOL    HW216710   5.475   2.230   1.340
 5271SOL     OW16711   4.528   5.049   5.267
 5271SOL    HW116712   4.582   4.965   5.275
 5271SOL    HW216713   4.564   5.105   5.193
 5272SOL     OW16714   0.510   5.795   4.988
 5272SOL    HW116715   0.555   5.811   4.900
 5272SOL    HW216716   0.579   5.773   5.057
 5273SOL     OW16717   0.515   2.260   3.849
 5273SOL    HW116718   0.439   2.247   3.913
 5273SOL    HW216719   0.602   2.250   3.897
 5274SOL     OW16720   6.802   5.135   3.711
 5274SOL    HW116721   6.887   5.171   3.750
 5274SOL    HW216722   6.816   5.039   3.685
 5275SOL     OW16723   2.905   0.050   6.246
 5275SOL    HW116724   2.977   7.020   6.288
 5275SOL    HW216725   2.829   7.017   6.220
 5276SOL     OW16726   0.049   6.802   1.144
 5276SOL    HW116727   7.016   6.724   1.122
 5276SOL    HW216728   0.001   6.864   1.206
 5277SOL     OW16729   1.422   2.244   3.624
 5277SOL    HW116730   1.388   2.153   3.647
 5277SOL    HW216731   1.399   2.266   3.529
 5278SOL     OW16732   6.324   6.667   6.264
 5278SOL    HW116733   6.370   6.641   6.350
 5278SOL    HW216734   6.226   6.677   6.280
 5279SOL     OW16735   1.339   5.655   6.354
 5279SOL    HW116736   1.266   5.712   6.393
 5279SOL    HW216737   1.350   5.572   6.410
 5280SOL     OW16738   3.772   6.086   5.191
 5280SOL    HW116739   3.673   6.099   5.200
 5280SOL    HW216740   3.792   6.049   5.101
 5281SOL     OW16741   1.149   0.435   4.723
 5281SOL    HW116742   1.231   0.427   4.780
 5281SOL    HW216743   1.070   0.404   4.776
 5282SOL     OW16744   2.010   0.298   2.786
 5282SOL    HW116745   2.108   0.275   2.785
 5282SOL    HW216746   1.989   0.349   2.869
 5283SOL     OW16747   0.803   0.374   3.690
 5283SOL    HW116748   0.775   0.366   3.785
 5283SOL    HW216749   0.750   0.446   3.645
 5284SOL     OW16750   5.091   2.327   2.553
 5284SOL    HW116751   4.999   2.364   2.564
 5284SOL    HW216752   5.091   2.258   2.481
 5285SOL     OW16753   0.888   2.824   3.152
 5285SOL    HW116754   0.818   2.833   3.223
 5285SOL    HW216755   0.949   2.748   3.175
 5286SOL     OW16756   6.841   3.663   0.303
 5286SOL    HW116757   6.879   3.746   0.342
 5286SOL    HW216758   6.741   3.671   0.298
 5287SOL     OW16759   3.426   5.415   1.939
 5287SOL    HW116760   3.436   5.457   2.030
 5287SOL    HW216761   3.460   5.478   1.869
 5288SOL     OW16762   5.085   0.013   1.896
 5288SOL    HW116763   5.114   0.100   1.934
 5288SOL    HW216764   5.138   6.965   1.938
 5289SOL     OW16765   2.471   5.271   6.675
 5289SOL    HW116766   2.396   5.218   6.637
 5289SOL    HW216767   2.548   5.211   6.694
 5290SOL     OW16768   1.792   4.408   5.617
 5290SOL    HW116769   1.716   4.420   5.552
 5290SOL    HW216770   1.788   4.481   5.685
 5291SOL     OW16771   2.523   4.466   5.646
 5291SOL    HW116772   2.501   4.369   5.659
 5291SOL    HW216773   2.554   4.481   5.553
 5292SOL     OW16774   6.565   4.003   6.443
 5292SOL    HW116775   6.529   4.021   6.352
 5292SOL    HW216776   6.500   4.037   6.512
 5293SOL     OW16777   2.084   5.241   4.521
 5293SOL    HW116778   2.168   5.249   4.466
 5293SOL    HW216779   2.019   5.182   4.474
 5294SOL     OW16780   4.640   0.921   5.469
 5294SOL    HW116781   4.599   0.896   5.381
 5294SOL    HW216782   4.645   0.841   5.527
 5295SOL     OW16783   3.949   0.848   3.414
 5295SOL    HW116784   3.855   0.874   3.436
 5295SOL    HW216785   3.957   0.830   3.315
 5296SOL     OW16786   3.553   3.667   0.635
 5296SOL    HW116787   3.646   3.691   0.663
 5296SOL    HW216788   3.522   3.733   0.566
 5297SOL     OW16789   2.168   3.430   0.558
 5297SOL    HW116790   2.214   3.519   0.564
 5297SOL    HW216791   2.088   3.439   0.499
 5298SOL     OW16792   2.495   6.016   6.912
 5298SOL    HW116793   2.396   6.009   6.911
 5298SOL    HW216794   2.524   6.082   6.982
 5299SOL     OW16795   3.253   2.356   0.631
 5299SOL    HW116796   3.159   2.382   0.607
 5299SOL    HW216797   3.251   2.284   0.699
 5300SOL     OW16798   0.673   5.099   0.793
 5300SOL    HW116799   0.720   5.024   0.745
 5300SOL    HW216800   0.584   5.066   0.825
 5301SOL     OW16801   4.374   0.182   6.743
 5301SOL    HW116802   4.338   0.156   6.833
 5301SOL    HW216803   4.371   0.103   6.682
 5302SOL     OW16804   5.351   6.071   4.028
 5302SOL    HW116805   5.294   6.152   4.041
 5302SOL    HW216806   5.334   6.006   4.102
 5303SOL     OW16807   0.284   5.314   5.863
 5303SOL    HW116808   0.277   5.362   5.951
 5303SOL    HW216809   0.338   5.231   5.875
 5304SOL     OW16810   6.482   0.905   1.051
 5304SOL    HW116811   6.430   0.824   1.023
 5304SOL    HW216812   6.450   0.985   0.999
 5305SOL     OW16813   1.771   5.295   2.183
 5305SOL    HW116814   1.706   5.326   2.253
 5305SOL    HW216815   1.816   5.211   2.215
 5306SOL     OW16816   0.109   4.206   5.658
 5306SOL    HW116817   0.184   4.159   5.611
 5306SOL    HW216818   0.065   4.270   5.595
 5307SOL     OW16819   4.415   1.961   0.498
 5307SOL    HW116820   4.444   2.002   0.585
 5307SOL    HW216821   4.489   1.971   0.430
 5308SOL     OW16822   1.284   4.516   2.866
 5308SOL    HW116823   1.324   4.526   2.775
 5308SOL    HW216824   1.344   4.560   2.933
 5309SOL     OW16825   3.540   6.002   2.054
 5309SOL    HW116826   3.613   5.967   2.113
 5309SOL    HW216827   3.569   6.088   2.013
 5310SOL     OW16828   6.216   3.286   2.666
 5310SOL    HW116829   6.118   3.268   2.676
 5310SOL    HW216830   6.230   3.374   2.620
 5311SOL     OW16831   5.767   0.193   6.856
 5311SOL    HW116832   5.759   0.204   6.757
 5311SOL    HW216833   5.736   0.277   6.901
 5312SOL     OW16834   0.414   5.800   1.903
 5312SOL    HW116835   0.503   5.784   1.946
 5312SOL    HW216836   0.402   5.736   1.827
 5313SOL     OW16837   0.677   4.544   5.374
 5313SOL    HW116838   0.646   4.455   5.409
 5313SOL    HW216839   0.631   4.617   5.424
 5314SOL     OW16840   4.812   0.067   1.095
 5314SOL    HW116841   4.805   0.167   1.099
 5314SOL    HW216842   4.777   0.035   1.007
 5315SOL     OW16843   4.799   2.805   3.022
 5315SOL    HW116844   4.710   2.766   3.000
 5315SOL    HW216845   4.866   2.777   2.953
 5316SOL     OW16846   1.018   3.974   5.260
 5316SOL    HW116847   1.110   3.945   5.233
 5316SOL    HW216848   1.017   4.073   5.272
 5317SOL     OW16849   6.323   1.150   5.579
 5317SOL    HW116850   6.251   1.181   5.641
 5317SOL    HW216851   6.361   1.229   5.531
 5318SOL     OW16852   0.403   2.920   0.832
 5318SOL    HW116853   0.432   2.825   0.820
 5318SOL    HW216854   0.374   2.934   0.927
 5319SOL     OW16855   4.840   6.289   1.212
 5319SOL    HW116856   4.741   6.272   1.210
 5319SOL    HW216857   4.889   6.203   1.223
 5320SOL     OW16858   4.062   5.573   1.341
 5320SOL    HW116859   4.130   5.501   1.358
 5320SOL    HW216860   4.099   5.661   1.368
 5321SOL     OW16861   2.408   4.459   4.833
 5321SOL    HW116862   2.328   4.518   4.831
 5321SOL    HW216863   2.382   4.367   4.802
 5322SOL     OW16864   5.742   6.972   0.081
 5322SOL    HW116865   5.669   6.934   0.024
 5322SOL    HW216866   5.831   6.953   0.040
 5323SOL     OW16867   4.325   1.213   5.597
 5323SOL    HW116868   4.391   1.156   5.646
 5323SOL    HW216869   4.254   1.154   5.557
 5324SOL     OW16870   3.125   2.232   0.342
 5324SOL    HW116871   3.137   2.304   0.273
 5324SOL    HW216872   3.051   2.257   0.404
 5325SOL     OW16873   3.003   1.387   5.016
 5325SOL    HW116874   3.080   1.422   5.069
 5325SOL    HW216875   3.031   1.371   4.922
 5326SOL     OW16876   6.638   5.704   3.470
 5326SOL    HW116877   6.721   5.734   3.516
 5326SOL    HW216878   6.633   5.604   3.473
 5327SOL     OW16879   6.026   2.428   4.664
 5327SOL    HW116880   6.064   2.518   4.646
 5327SOL    HW216881   5.965   2.433   4.743
 5328SOL     OW16882   3.276   3.689   5.963
 5328SOL    HW116883   3.362   3.736   5.941
 5328SOL    HW216884   3.296   3.613   6.025
 5329SOL     OW16885   0.793   5.120   6.530
 5329SOL    HW116886   0.721   5.161   6.475
 5329SOL    HW216887   0.752   5.054   6.594
 5330SOL     OW16888   3.800   4.778   0.032
 5330SOL    HW116889   3.809   4.864   0.083
 5330SOL    HW216890   3.881   4.764   7.002
 5331SOL     OW16891   6.126   2.310   6.646
 5331SOL    HW116892   6.213   2.272   6.614
 5331SOL    HW216893   6.086   2.366   6.574
 5332SOL     OW16894   1.453   3.767   1.629
 5332SOL    HW116895   1.553   3.770   1.642
 5332SOL    HW216896   1.431   3.701   1.558
 5333SOL     OW16897   1.303   1.425   3.063
 5333SOL    HW116898   1.298   1.331   3.098
 5333SOL    HW216899   1.398   1.444   3.035
 5334SOL     OW16900   3.117   0.532   5.008
 5334SOL    HW116901   3.189   0.501   4.945
 5334SOL    HW216902   3.049   0.585   4.957
 5335SOL     OW16903   6.687   6.087   1.079
 5335SOL    HW116904   6.673   6.173   1.030
 5335SOL    HW216905   6.785   6.073   1.094
 5336SOL     OW16906   1.829   3.284   2.242
 5336SOL    HW116907   1.894   3.283   2.166
 5336SOL    HW216908   1.836   3.199   2.293
 5337SOL     OW16909   5.196   3.820   1.373
 5337SOL    HW116910   5.153   3.862   1.293
 5337SOL    HW216911   5.126   3.796   1.440
 5338SOL     OW16912   5.935   1.440   6.789
 5338SOL    HW116913   5.905   1.523   6.835
 5338SOL    HW216914   5.979   1.379   6.854
 5339SOL     OW16915   0.059   1.290   3.719
 5339SOL    HW116916   0.063   1.363   3.787
 5339SOL    HW216917   6.990   1.277   3.689
 5340SOL     OW16918   5.916   3.570   0.455
 5340SOL    HW116919   5.970   3.585   0.538
 5340SOL    HW216920   5.823   3.543   0.480
 5341SOL     OW16921   3.814   2.237   6.208
 5341SOL    HW116922   3.893   2.177   6.215
 5341SOL    HW216923   3.833   2.322   6.258
 5342SOL     OW16924   3.823   0.628   5.351
 5342SOL    HW116925   3.866   0.715   5.329
 5342SOL    HW216926   3.812   0.574   5.268
 5343SOL     OW16927   3.227   3.787   3.838
 5343SOL    HW116928   3.221   3.764   3.740
 5343SOL    HW216929   3.259   3.707   3.889
 5344SOL     OW16930   1.889   2.524   2.644
 5344SOL    HW116931   1.878   2.429   2.614
 5344SOL    HW216932   1.943   2.574   2.576
 5345SOL     OW16933   4.096   5.925   1.471
 5345SOL    HW116934   4.176   5.915   1.529
 5345SOL    HW216935   4.014   5.900   1.522
 5346SOL     OW16936   3.147   6.395   3.705
 5346SOL    HW116937   3.195   6.477   3.675
 5346SOL    HW216938   3.195   6.354   3.783
 5347SOL     OW16939   0.145   2.451   2.224
 5347SOL    HW116940   0.175   2.356   2.229
 5347SOL    HW216941   0.066   2.465   2.283
 5348SOL     OW16942   0.850   1.537   0.483
 5348SOL    HW116943   0.943   1.544   0.520
 5348SOL    HW216944   0.821   1.626   0.448
 5349SOL     OW16945   1.448   2.450   0.563
 5349SOL    HW116946   1.354   2.431   0.591
 5349SOL    HW216947   1.481   2.377   0.504
 5350SOL     OW16948   2.143   0.697   6.307
 5350SOL    HW116949   2.083   0.654   6.240
 5350SOL    HW216950   2.223   0.639   6.321
 5351SOL     OW16951   5.207   5.490   1.830
 5351SOL    HW116952   5.221   5.400   1.872
 5351SOL    HW216953   5.294   5.524   1.795
 5352SOL     OW16954   2.295   6.041   4.098
 5352SOL    HW116955   2.298   6.141   4.093
 5352SOL    HW216956   2.289   6.003   4.006
 5353SOL     OW16957   3.594   5.970   4.657
 5353SOL    HW116958   3.603   5.914   4.575
 5353SOL    HW216959   3.553   5.915   4.730
 5354SOL     OW16960   1.967   4.875   2.117
 5354SOL    HW116961   1.878   4.897   2.158
 5354SOL    HW216962   1.962   4.786   2.072
 5355SOL     OW16963   5.070   2.498   4.020
 5355SOL    HW116964   5.157   2.481   4.066
 5355SOL    HW216965   5.024   2.411   4.003
 5356SOL     OW16966   5.865   4.396   1.720
 5356SOL    HW116967   5.921   4.396   1.803
 5356SOL    HW216968   5.921   4.366   1.643
 5357SOL     OW16969   3.424   0.349   1.023
 5357SOL    HW116970   3.348   0.414   1.013
 5357SOL    HW216971   3.504   0.385   0.974
 5358SOL     OW16972   4.001   2.061   0.712
 5358SOL    HW116973   3.962   2.137   0.661
 5358SOL    HW216974   3.928   2.002   0.746
 5359SOL     OW16975   1.958   2.070   0.064
 5359SOL    HW116976   2.036   2.045   0.123
 5359SOL    HW216977   1.873   2.062   0.116
 5360SOL     OW16978   3.997   6.591   4.714
 5360SOL    HW116979   3.968   6.495   4.718
 5360SOL    HW216980   4.097   6.594   4.702
 5361SOL     OW16981   2.240   6.917   4.798
 5361SOL    HW116982   2.217   6.943   4.892
 5361SOL    HW216983   2.308   6.981   4.762
 5362SOL     OW16984   4.975   4.302   3.597
 5362SOL    HW116985   5.022   4.251   3.669
 5362SOL    HW216986   4.889   4.338   3.633
 5363SOL     OW16987   0.760   6.253   6.368
 5363SOL    HW116988   0.714   6.180   6.318
 5363SOL    HW216989   0.858   6.252   6.345
 5364SOL     OW16990   6.806   5.582   1.146
 5364SOL    HW116991   6.741   5.654   1.165
 5364SOL    HW216992   6.764   5.493   1.163
 5365SOL     OW16993   4.010   3.153   6.635
 5365SOL    HW116994   3.965   3.117   6.717
 5365SOL    HW216995   4.066   3.232   6.660
 5366SOL     OW16996   5.245   4.832   1.436
 5366SOL    HW116997   5.255   4.735   1.458
 5366SOL    HW216998   5.207   4.880   1.516
 5367SOL     OW16999   0.478   5.210   0.452
 5367SOL    HW117000   0.503   5.264   0.533
 5367SOL    HW217001   0.404   5.257   0.403
 5368SOL     OW17002   5.260   1.284   3.041
 5368SOL    HW117003   5.339   1.239   3.084
 5368SOL    HW217004   5.280   1.382   3.030
 5369SOL     OW17005   2.986   6.333   3.507
 5369SOL    HW117006   3.036   6.323   3.421
 5369SOL    HW217007   3.049   6.365   3.578
 5370SOL     OW17008   3.878   3.183   1.683
 5370SOL    HW117009   3.785   3.215   1.701
 5370SOL    HW217010   3.918   3.146   1.767
 5371SOL     OW17011   1.839   3.643   4.335
 5371SOL    HW117012   1.937   3.627   4.341
 5371SOL    HW217013   1.790   3.569   4.381
 5372SOL     OW17014   2.311   5.725   2.745
 5372SOL    HW117015   2.216   5.750   2.728
 5372SOL    HW217016   2.325   5.628   2.725
 5373SOL     OW17017   2.873   4.774   4.122
 5373SOL    HW117018   2.795   4.713   4.132
 5373SOL    HW217019   2.915   4.789   4.212
 5374SOL     OW17020   1.079   3.746   7.014
 5374SOL    HW117021   1.137   3.777   6.938
 5374SOL    HW217022   1.107   3.793   0.072
 5375SOL     OW17023   1.130   4.658   5.086
 5375SOL    HW117024   1.094   4.681   4.996
 5375SOL    HW217025   1.164   4.564   5.087
 5376SOL     OW17026   1.613   3.001   1.113
 5376SOL    HW117027   1.585   3.068   1.045
 5376SOL    HW217028   1.630   3.046   1.200
 5377SOL     OW17029   6.974   6.966   1.661
 5377SOL    HW117030   0.017   6.894   1.665
 5377SOL    HW217031   6.989   7.023   1.580
 5378SOL     OW17032   6.718   0.316   1.614
 5378SOL    HW117033   6.729   0.255   1.536
 5378SOL    HW217034   6.675   0.401   1.583
 5379SOL     OW17035   0.268   5.130   4.758
 5379SOL    HW117036   0.328   5.167   4.828
 5379SOL    HW217037   0.219   5.204   4.712
 5380SOL     OW17038   1.720   1.096   3.168
 5380SOL    HW117039   1.652   1.030   3.199
 5380SOL    HW217040   1.798   1.096   3.231
 5381SOL     OW17041   6.554   3.713   0.263
 5381SOL    HW117042   6.514   3.622   0.266
 5381SOL    HW217043   6.588   3.733   0.171
 5382SOL     OW17044   3.200   0.166   1.979
 5382SOL    HW117045   3.268   0.201   1.915
 5382SOL    HW217046   3.198   0.066   1.974
 5383SOL     OW17047   2.968   2.044   5.129
 5383SOL    HW117048   2.905   2.082   5.198
 5383SOL    HW217049   3.031   2.115   5.098
 5384SOL     OW17050   6.582   1.014   4.124
 5384SOL    HW117051   6.592   1.021   4.024
 5384SOL    HW217052   6.502   0.956   4.144
 5385SOL     OW17053   3.070   3.970   2.940
 5385SOL    HW117054   3.070   3.984   3.039
 5385SOL    HW217055   3.074   3.872   2.920
 5386SOL     OW17056   4.669   6.584   4.324
 5386SOL    HW117057   4.673   6.683   4.339
 5386SOL    HW217058   4.699   6.537   4.407
 5387SOL     OW17059   1.990   5.695   3.434
 5387SOL    HW117060   1.936   5.668   3.513
 5387SOL    HW217061   1.934   5.752   3.373
 5388SOL     OW17062   5.195   6.591   3.630
 5388SOL    HW117063   5.154   6.500   3.619
 5388SOL    HW217064   5.162   6.632   3.714
 5389SOL     OW17065   5.046   0.989   1.622
 5389SOL    HW117066   5.108   1.026   1.553
 5389SOL    HW217067   4.966   0.949   1.577
 5390SOL     OW17068   4.395   5.202   4.040
 5390SOL    HW117069   4.446   5.199   4.127
 5390SOL    HW217070   4.308   5.154   4.051
 5391SOL     OW17071   2.527   2.145   0.419
 5391SOL    HW117072   2.532   2.049   0.447
 5391SOL    HW217073   2.606   2.195   0.454
 5392SOL     OW17074   6.183   3.737   0.946
 5392SOL    HW117075   6.097   3.745   0.996
 5392SOL    HW217076   6.177   3.661   0.881
 5393SOL     OW17077   6.176   6.524   6.989
 5393SOL    HW117078   6.140   6.582   6.916
 5393SOL    HW217079   6.106   6.461   7.020
 5394SOL     OW17080   6.844   3.998   6.418
 5394SOL    HW117081   6.756   4.034   6.449
 5394SOL    HW217082   6.839   3.976   6.321
 5395SOL     OW17083   4.843   0.702   1.881
 5395SOL    HW117084   4.859   0.797   1.907
 5395SOL    HW217085   4.777   0.661   1.945
 5396SOL     OW17086   4.934   3.632   3.171
 5396SOL    HW117087   4.901   3.538   3.179
 5396SOL    HW217088   4.880   3.691   3.231
 5397SOL     OW17089   6.531   2.979   1.708
 5397SOL    HW117090   6.593   2.960   1.631
 5397SOL    HW217091   6.565   3.057   1.760
 5398SOL     OW17092   3.579   1.641   1.804
 5398SOL    HW117093   3.497   1.697   1.798
 5398SOL    HW217094   3.660   1.700   1.805
 5399SOL     OW17095   2.163   6.244   0.763
 5399SOL    HW117096   2.229   6.309   0.726
 5399SOL    HW217097   2.208   6.157   0.782
 5400SOL     OW17098   2.913   4.131   0.482
 5400SOL    HW117099   2.901   4.194   0.558
 5400SOL    HW217100   2.984   4.164   0.421
 5401SOL     OW17101   5.774   3.611   1.344
 5401SOL    HW117102   5.773   3.711   1.345
 5401SOL    HW217103   5.681   3.577   1.330
 5402SOL     OW17104   2.541   5.898   1.978
 5402SOL    HW117105   2.543   5.891   2.078
 5402SOL    HW217106   2.450   5.872   1.945
 5403SOL     OW17107   6.204   3.285   6.317
 5403SOL    HW117108   6.197   3.207   6.380
 5403SOL    HW217109   6.225   3.251   6.225
 5404SOL     OW17110   0.696   1.895   3.521
 5404SOL    HW117111   0.743   1.959   3.460
 5404SOL    HW217112   0.764   1.844   3.574
 5405SOL     OW17113   6.229   5.548   0.441
 5405SOL    HW117114   6.301   5.612   0.469
 5405SOL    HW217115   6.255   5.455   0.466
 5406SOL     OW17116   2.430   1.562   6.436
 5406SOL    HW117117   2.401   1.504   6.361
 5406SOL    HW217118   2.371   1.643   6.440
 5407SOL     OW17119   4.683   3.597   0.387
 5407SOL    HW117120   4.624   3.652   0.447
 5407SOL    HW217121   4.685   3.503   0.419
 5408SOL     OW17122   2.864   1.320   6.270
 5408SOL    HW117123   2.801   1.397   6.275
 5408SOL    HW217124   2.920   1.328   6.187
 5409SOL     OW17125   5.426   0.268   3.480
 5409SOL    HW117126   5.398   0.202   3.410
 5409SOL    HW217127   5.525   0.270   3.486
 5410SOL     OW17128   2.771   2.368   1.691
 5410SOL    HW117129   2.695   2.304   1.707
 5410SOL    HW217130   2.810   2.396   1.779
 5411SOL     OW17131   6.551   5.011   5.770
 5411SOL    HW117132   6.563   5.035   5.866
 5411SOL    HW217133   6.601   5.076   5.713
 5412SOL     OW17134   5.088   2.019   0.713
 5412SOL    HW117135   5.187   2.029   0.725
 5412SOL    HW217136   5.060   2.063   0.628
 5413SOL     OW17137   3.023   1.592   1.322
 5413SOL    HW117138   2.924   1.587   1.331
 5413SOL    HW217139   3.049   1.575   1.227
 5414SOL     OW17140   5.365   2.246   4.987
 5414SOL    HW117141   5.279   2.285   4.954
 5414SOL    HW217142   5.389   2.167   4.930
 5415SOL     OW17143   0.548   5.790   1.255
 5415SOL    HW117144   0.486   5.858   1.293
 5415SOL    HW217145   0.496   5.712   1.220
 5416SOL     OW17146   5.120   5.366   5.864
 5416SOL    HW117147   5.071   5.399   5.783
 5416SOL    HW217148   5.087   5.276   5.890
 5417SOL     OW17149   3.487   6.865   5.459
 5417SOL    HW117150   3.511   6.953   5.418
 5417SOL    HW217151   3.535   6.791   5.411
 5418SOL     OW17152   3.411   0.281   3.646
 5418SOL    HW117153   3.388   0.377   3.627
 5418SOL    HW217154   3.335   0.223   3.618
 5419SOL     OW17155   3.472   5.533   0.202
 5419SOL    HW117156   3.380   5.572   0.204
 5419SOL    HW217157   3.466   5.434   0.187
 5420SOL     OW17158   1.680   3.124   2.470
 5420SOL    HW117159   1.745   3.064   2.425
 5420SOL    HW217160   1.667   3.096   2.565
 5421SOL     OW17161   1.574   3.597   1.856
 5421SOL    HW117162   1.527   3.683   1.839
 5421SOL    HW217163   1.667   3.615   1.886
 5422SOL     OW17164   0.285   5.033   0.514
 5422SOL    HW117165   0.217   5.098   0.547
 5422SOL    HW217166   0.362   5.082   0.473
 5423SOL     OW17167   6.693   3.351   6.362
 5423SOL    HW117168   6.602   3.393   6.357
 5423SOL    HW217169   6.761   3.417   6.331
 5424SOL     OW17170   5.799   3.067   3.466
 5424SOL    HW117171   5.768   2.972   3.468
 5424SOL    HW217172   5.811   3.100   3.560
 5425SOL     OW17173   4.252   1.242   4.598
 5425SOL    HW117174   4.335   1.295   4.579
 5425SOL    HW217175   4.216   1.267   4.688
 5426SOL     OW17176   6.379   5.589   4.263
 5426SOL    HW117177   6.312   5.533   4.214
 5426SOL    HW217178   6.415   5.538   4.341
 5427SOL     OW17179   5.177   5.324   6.237
 5427SOL    HW117180   5.117   5.403   6.222
 5427SOL    HW217181   5.192   5.311   6.335
 5428SOL     OW17182   6.924   6.915   1.323
 5428SOL    HW117183   6.889   6.838   1.376
 5428SOL    HW217184   6.900   7.001   1.369
 5429SOL     OW17185   2.206   1.972   6.168
 5429SOL    HW117186   2.295   1.926   6.170
 5429SOL    HW217187   2.219   2.068   6.140
 5430SOL     OW17188   0.259   2.992   5.988
 5430SOL    HW117189   0.292   3.079   5.950
 5430SOL    HW217190   0.182   2.960   5.933
 5431SOL     OW17191   2.895   6.242   0.575
 5431SOL    HW117192   2.806   6.286   0.576
 5431SOL    HW217193   2.884   6.143   0.586
 5432SOL     OW17194   5.597   0.547   6.725
 5432SOL    HW117195   5.533   0.623   6.718
 5432SOL    HW217196   5.603   0.500   6.638
 5433SOL     OW17197   0.175   1.706   4.946
 5433SOL    HW117198   0.251   1.680   5.006
 5433SOL    HW217199   0.108   1.759   4.999
 5434SOL     OW17200   3.165   0.713   5.546
 5434SOL    HW117201   3.125   0.637   5.597
 5434SOL    HW217202   3.133   0.710   5.451
 5435SOL     OW17203   5.846   6.974   1.775
 5435SOL    HW117204   5.790   0.031   1.781
 5435SOL    HW217205   5.931   6.987   1.826
 5436SOL     OW17206   5.263   3.634   4.128
 5436SOL    HW117207   5.267   3.733   4.144
 5436SOL    HW217208   5.349   3.592   4.156
 5437SOL     OW17209   2.721   3.922   0.530
 5437SOL    HW117210   2.799   3.981   0.509
 5437SOL    HW217211   2.742   3.867   0.611
 5438SOL     OW17212   6.630   2.867   2.441
 5438SOL    HW117213   6.630   2.966   2.426
 5438SOL    HW217214   6.653   2.849   2.537
 5439SOL     OW17215   0.618   2.455   1.009
 5439SOL    HW117216   0.675   2.536   0.994
 5439SOL    HW217217   0.652   2.405   1.089
 5440SOL     OW17218   1.124   1.350   0.768
 5440SOL    HW117219   1.130   1.336   0.866
 5440SOL    HW217220   1.205   1.400   0.736
 5441SOL     OW17221   4.399   2.477   3.012
 5441SOL    HW117222   4.463   2.547   2.979
 5441SOL    HW217223   4.413   2.462   3.110
 5442SOL     OW17224   3.451   6.276   3.568
 5442SOL    HW117225   3.388   6.330   3.511
 5442SOL    HW217226   3.402   6.244   3.649
 5443SOL     OW17227   3.353   0.422   4.333
 5443SOL    HW117228   3.373   0.482   4.410
 5443SOL    HW217229   3.299   0.344   4.365
 5444SOL     OW17230   0.975   0.575   4.074
 5444SOL    HW117231   0.936   0.601   3.986
 5444SOL    HW217232   1.074   0.586   4.072
 5445SOL     OW17233   6.488   3.910   3.554
 5445SOL    HW117234   6.529   3.820   3.568
 5445SOL    HW217235   6.400   3.914   3.601
 5446SOL     OW17236   6.339   5.090   4.692
 5446SOL    HW117237   6.415   5.029   4.670
 5446SOL    HW217238   6.253   5.043   4.676
 5447SOL     OW17239   3.182   2.281   6.806
 5447SOL    HW117240   3.118   2.330   6.746
 5447SOL    HW217241   3.162   2.183   6.803
 5448SOL     OW17242   4.216   3.207   5.389
 5448SOL    HW117243   4.236   3.235   5.483
 5448SOL    HW217244   4.165   3.121   5.389
 5449SOL     OW17245   1.842   3.152   6.510
 5449SOL    HW117246   1.798   3.195   6.431
 5449SOL    HW217247   1.839   3.053   6.501
 5450SOL     OW17248   1.954   0.655   1.424
 5450SOL    HW117249   2.026   0.649   1.355
 5450SOL    HW217250   1.995   0.680   1.512
 5451SOL     OW17251   1.866   6.055   3.262
 5451SOL    HW117252   1.956   6.079   3.225
 5451SOL    HW217253   1.795   6.082   3.197
 5452SOL     OW17254   2.250   4.470   0.007
 5452SOL    HW117255   2.220   4.424   6.949
 5452SOL    HW217256   2.181   4.538   0.034
 5453SOL     OW17257   6.140   3.886   0.681
 5453SOL    HW117258   6.133   3.839   0.769
 5453SOL    HW217259   6.211   3.843   0.625
 5454SOL     OW17260   0.503   4.375   6.840
 5454SOL    HW117261   0.529   4.432   6.762
 5454SOL    HW217262   0.407   4.347   6.830
 5455SOL     OW17263   6.399   3.488   6.989
 5455SOL    HW117264   6.480   3.539   7.019
 5455SOL    HW217265   6.349   3.455   0.043
 5456SOL     OW17266   3.453   6.388   6.980
 5456SOL    HW117267   3.520   6.450   7.021
 5456SOL    HW217268   3.410   6.433   6.901
 5457SOL     OW17269   5.758   2.445   0.554
 5457SOL    HW117270   5.793   2.509   0.623
 5457SOL    HW217271   5.736   2.358   0.599
 5458SOL     OW17272   0.289   4.573   0.135
 5458SOL    HW117273   0.330   4.639   0.199
 5458SOL    HW217274   0.195   4.555   0.163
 5459SOL     OW17275   2.029   4.624   6.836
 5459SOL    HW117276   2.057   4.712   6.875
 5459SOL    HW217277   1.962   4.581   6.896
 5460SOL     OW17278   2.965   6.853   2.636
 5460SOL    HW117279   2.879   6.874   2.590
 5460SOL    HW217280   3.032   6.924   2.616
 5461SOL     OW17281   6.391   6.473   5.305
 5461SOL    HW117282   6.411   6.436   5.214
 5461SOL    HW217283   6.413   6.570   5.307
 5462SOL     OW17284   1.323   0.408   0.155
 5462SOL    HW117285   1.365   0.347   0.223
 5462SOL    HW217286   1.226   0.420   0.176
 5463SOL     OW17287   6.323   2.300   7.018
 5463SOL    HW117288   6.250   2.247   6.976
 5463SOL    HW217289   6.294   2.330   0.083
 5464SOL     OW17290   1.696   0.650   4.294
 5464SOL    HW117291   1.772   0.675   4.233
 5464SOL    HW217292   1.638   0.730   4.308
 5465SOL     OW17293   3.650   6.954   3.381
 5465SOL    HW117294   3.591   6.889   3.428
 5465SOL    HW217295   3.600   6.997   3.306
 5466SOL     OW17296   5.597   4.605   5.220
 5466SOL    HW117297   5.574   4.549   5.140
 5466SOL    HW217298   5.522   4.668   5.239
 5467SOL     OW17299   5.223   2.321   3.240
 5467SOL    HW117300   5.203   2.395   3.304
 5467SOL    HW217301   5.322   2.312   3.229
 5468SOL     OW17302   5.226   1.876   4.416
 5468SOL    HW117303   5.269   1.786   4.430
 5468SOL    HW217304   5.264   1.918   4.333
 5469SOL     OW17305   4.041   5.403   7.022
 5469SOL    HW117306   4.078   5.494   0.014
 5469SOL    HW217307   3.944   5.411   6.997
 5470SOL     OW17308   2.400   5.665   3.356
 5470SOL    HW117309   2.345   5.680   3.437
 5470SOL    HW217310   2.352   5.604   3.293
 5471SOL     OW17311   5.657   6.809   1.361
 5471SOL    HW117312   5.730   6.787   1.425
 5471SOL    HW217313   5.654   6.741   1.288
 5472SOL     OW17314   3.931   4.248   5.999
 5472SOL    HW117315   3.937   4.263   5.900
 5472SOL    HW217316   4.015   4.203   6.031
 5473SOL     OW17317   0.902   3.837   3.213
 5473SOL    HW117318   0.938   3.830   3.307
 5473SOL    HW217319   0.976   3.865   3.152
 5474SOL     OW17320   1.446   4.320   4.071
 5474SOL    HW117321   1.392   4.253   4.021
 5474SOL    HW217322   1.500   4.374   4.007
 5475SOL     OW17323   3.125   2.633   0.109
 5475SOL    HW117324   3.205   2.668   0.159
 5475SOL    HW217325   3.148   2.547   0.064
 5476SOL     OW17326   2.226   3.720   6.167
 5476SOL    HW117327   2.196   3.725   6.072
 5476SOL    HW217328   2.208   3.808   6.212
 5477SOL     OW17329   1.811   3.463   3.575
 5477SOL    HW117330   1.834   3.375   3.615
 5477SOL    HW217331   1.769   3.522   3.644
 5478SOL     OW17332   5.022   5.078   5.120
 5478SOL    HW117333   4.956   5.097   5.192
 5478SOL    HW217334   5.055   5.164   5.081
 5479SOL     OW17335   4.820   0.845   5.795
 5479SOL    HW117336   4.759   0.912   5.838
 5479SOL    HW217337   4.781   0.816   5.708
 5480SOL     OW17338   0.076   3.384   3.827
 5480SOL    HW117339   0.038   3.411   3.738
 5480SOL    HW217340   0.036   3.297   3.854
 5481SOL     OW17341   3.644   1.082   4.519
 5481SOL    HW117342   3.665   1.031   4.435
 5481SOL    HW217343   3.721   1.076   4.582
 5482SOL     OW17344   3.982   4.429   1.605
 5482SOL    HW117345   4.059   4.417   1.667
 5482SOL    HW217346   3.910   4.363   1.628
 5483SOL     OW17347   0.902   3.082   5.542
 5483SOL    HW117348   0.865   3.131   5.463
 5483SOL    HW217349   0.848   3.103   5.623
 5484SOL     OW17350   4.917   0.316   5.055
 5484SOL    HW117351   4.892   0.397   5.108
 5484SOL    HW217352   4.833   0.267   5.028
 5485SOL     OW17353   3.550   6.594   5.274
 5485SOL    HW117354   3.529   6.643   5.190
 5485SOL    HW217355   3.466   6.551   5.309
 5486SOL     OW17356   2.338   5.914   5.099
 5486SOL    HW117357   2.308   6.009   5.104
 5486SOL    HW217358   2.413   5.906   5.033
 5487SOL     OW17359   2.752   4.711   6.340
 5487SOL    HW117360   2.833   4.762   6.371
 5487SOL    HW217361   2.746   4.715   6.240
 5488SOL     OW17362   6.899   1.165   0.369
 5488SOL    HW117363   6.825   1.155   0.303
 5488SOL    HW217364   6.937   1.075   0.390
 5489SOL     OW17365   6.550   3.619   2.227
 5489SOL    HW117366   6.595   3.538   2.262
 5489SOL    HW217367   6.610   3.666   2.162
 5490SOL     OW17368   1.845   6.685   2.548
 5490SOL    HW117369   1.757   6.705   2.591
 5490SOL    HW217370   1.916   6.741   2.591
 5491SOL     OW17371   6.760   2.923   1.174
 5491SOL    HW117372   6.689   2.989   1.199
 5491SOL    HW217373   6.717   2.843   1.131
 5492SOL     OW17374   1.321   3.678   5.788
 5492SOL    HW117375   1.392   3.629   5.737
 5492SOL    HW217376   1.268   3.735   5.726
 5493SOL     OW17377   4.122   3.651   2.232
 5493SOL    HW117378   4.091   3.611   2.318
 5493SOL    HW217379   4.222   3.658   2.232
 5494SOL     OW17380   5.992   4.301   5.453
 5494SOL    HW117381   5.898   4.301   5.420
 5494SOL    HW217382   5.997   4.348   5.541
 5495SOL     OW17383   6.054   0.799   0.560
 5495SOL    HW117384   6.143   0.844   0.563
 5495SOL    HW217385   6.051   0.735   0.483
 5496SOL     OW17386   4.235   0.737   4.205
 5496SOL    HW117387   4.265   0.736   4.300
 5496SOL    HW217388   4.138   0.712   4.200
 5497SOL     OW17389   0.263   0.933   5.859
 5497SOL    HW117390   0.188   0.868   5.872
 5497SOL    HW217391   0.294   0.966   5.948
 5498SOL     OW17392   0.434   5.307   1.598
 5498SOL    HW117393   0.521   5.329   1.644
 5498SOL    HW217394   0.358   5.345   1.650
 5499SOL     OW17395   0.468   0.710   3.648
 5499SOL    HW117396   0.412   0.759   3.715
 5499SOL    HW217397   0.522   0.775   3.595
 5500SOL     OW17398   1.906   1.281   6.819
 5500SOL    HW117399   1.874   1.264   6.726
 5500SOL    HW217400   1.829   1.273   6.883
 5501SOL     OW17401   4.074   2.031   0.288
 5501SOL    HW117402   4.135   1.953   0.304
 5501SOL    HW217403   4.123   2.101   0.237
 5502SOL     OW17404   4.818   3.810   6.490
 5502SOL    HW117405   4.877   3.889   6.469
 5502SOL    HW217406   4.815   3.749   6.411
 5503SOL     OW17407   0.568   3.890   0.458
 5503SOL    HW117408   0.569   3.854   0.551
 5503SOL    HW217409   0.499   3.962   0.451
 5504SOL     OW17410   4.434   0.773   6.432
 5504SOL    HW117411   4.391   0.863   6.419
 5504SOL    HW217412   4.519   0.784   6.483
 5505SOL     OW17413   2.253   4.121   3.848
 5505SOL    HW117414   2.220   4.027   3.852
 5505SOL    HW217415   2.247   4.155   3.754
 5506SOL     OW17416   0.009   3.764   6.390
 5506SOL    HW117417   6.980   3.828   6.444
 5506SOL    HW217418   0.042   3.810   6.308
 5507SOL     OW17419   3.557   0.388   5.760
 5507SOL    HW117420   3.469   0.341   5.761
 5507SOL    HW217421   3.616   0.350   5.831
 5508SOL     OW17422   1.259   0.797   0.146
 5508SOL    HW117423   1.192   0.869   0.165
 5508SOL    HW217424   1.223   0.736   0.075
 5509SOL     OW17425   0.423   5.348   1.155
 5509SOL    HW117426   0.406   5.300   1.070
 5509SOL    HW217427   0.359   5.316   1.225
 5510SOL     OW17428   5.106   5.757   0.216
 5510SOL    HW117429   5.201   5.738   0.243
 5510SOL    HW217430   5.105   5.807   0.130
 5511SOL     OW17431   0.449   1.545   5.641
 5511SOL    HW117432   0.529   1.598   5.673
 5511SOL    HW217433   0.378   1.547   5.712
 5512SOL     OW17434   3.306   1.108   1.708
 5512SOL    HW117435   3.261   1.074   1.790
 5512SOL    HW217436   3.240   1.113   1.633
 5513SOL     OW17437   3.966   5.016   6.162
 5513SOL    HW117438   3.901   5.052   6.095
 5513SOL    HW217439   3.960   5.070   6.246
 5514SOL     OW17440   3.287   6.489   5.338
 5514SOL    HW117441   3.316   6.423   5.269
 5514SOL    HW217442   3.197   6.465   5.372
 5515SOL     OW17443   2.399   5.615   2.150
 5515SOL    HW117444   2.425   5.694   2.205
 5515SOL    HW217445   2.364   5.647   2.062
 5516SOL     OW17446   2.323   2.697   5.021
 5516SOL    HW117447   2.363   2.673   4.932
 5516SOL    HW217448   2.345   2.792   5.043
 5517SOL     OW17449   1.924   4.041   2.582
 5517SOL    HW117450   1.876   3.990   2.653
 5517SOL    HW217451   1.881   4.131   2.571
 5518SOL     OW17452   5.324   4.288   5.730
 5518SOL    HW117453   5.311   4.374   5.682
 5518SOL    HW217454   5.258   4.221   5.697
 5519SOL     OW17455   5.025   2.669   3.820
 5519SOL    HW117456   5.091   2.656   3.746
 5519SOL    HW217457   5.053   2.615   3.900
 5520SOL     OW17458   5.717   6.262   2.210
 5520SOL    HW117459   5.734   6.301   2.300
 5520SOL    HW217460   5.797   6.276   2.152
 5521SOL     OW17461   5.697   5.259   2.284
 5521SOL    HW117462   5.761   5.328   2.319
 5521SOL    HW217463   5.741   5.169   2.287
 5522SOL     OW17464   5.896   5.154   1.648
 5522SOL    HW117465   5.899   5.163   1.747
 5522SOL    HW217466   5.884   5.244   1.606
 5523SOL     OW17467   5.884   1.036   3.102
 5523SOL    HW117468   5.922   0.960   3.155
 5523SOL    HW217469   5.907   1.024   3.006
 5524SOL     OW17470   3.642   0.896   5.387
 5524SOL    HW117471   3.592   0.917   5.303
 5524SOL    HW217472   3.611   0.809   5.424
 5525SOL     OW17473   6.351   3.028   0.954
 5525SOL    HW117474   6.411   3.047   0.877
 5525SOL    HW217475   6.399   3.048   1.040
 5526SOL     OW17476   4.847   4.125   3.204
 5526SOL    HW117477   4.821   4.219   3.224
 5526SOL    HW217478   4.932   4.103   3.253
 5527SOL     OW17479   4.974   2.605   4.252
 5527SOL    HW117480   5.026   2.689   4.269
 5527SOL    HW217481   4.998   2.568   4.163
 5528SOL     OW17482   1.140   2.242   1.462
 5528SOL    HW117483   1.146   2.208   1.368
 5528SOL    HW217484   1.044   2.243   1.490
 5529SOL     OW17485   2.547   1.113   2.898
 5529SOL    HW117486   2.452   1.082   2.902
 5529SOL    HW217487   2.558   1.181   2.826
 5530SOL     OW17488   6.141   2.450   1.329
 5530SOL    HW117489   6.152   2.535   1.278
 5530SOL    HW217490   6.097   2.382   1.269
 5531SOL     OW17491   3.714   3.953   1.404
 5531SOL    HW117492   3.623   3.917   1.425
 5531SOL    HW217493   3.783   3.885   1.427
 5532SOL     OW17494   2.204   2.401   0.657
 5532SOL    HW117495   2.152   2.468   0.711
 5532SOL    HW217496   2.245   2.334   0.719
 5533SOL     OW17497   4.415   1.222   4.337
 5533SOL    HW117498   4.369   1.308   4.316
 5533SOL    HW217499   4.510   1.240   4.362
 5534SOL     OW17500   0.962   1.175   5.511
 5534SOL    HW117501   0.999   1.151   5.600
 5534SOL    HW217502   0.865   1.195   5.519
 5535SOL     OW17503   0.941   1.701   2.531
 5535SOL    HW117504   1.032   1.664   2.509
 5535SOL    HW217505   0.935   1.717   2.629
 5536SOL     OW17506   2.908   1.193   5.196
 5536SOL    HW117507   2.936   1.265   5.133
 5536SOL    HW217508   2.988   1.154   5.241
 5537SOL     OW17509   3.843   1.183   3.083
 5537SOL    HW117510   3.748   1.164   3.057
 5537SOL    HW217511   3.845   1.249   3.158
 5538SOL     OW17512   4.557   5.405   4.863
 5538SOL    HW117513   4.624   5.431   4.932
 5538SOL    HW217514   4.604   5.384   4.777
 5539SOL     OW17515   2.539   2.624   0.680
 5539SOL    HW117516   2.516   2.593   0.772
 5539SOL    HW217517   2.493   2.710   0.661
 5540SOL     OW17518   5.103   4.787   3.235
 5540SOL    HW117519   5.059   4.813   3.149
 5540SOL    HW217520   5.103   4.864   3.298
 5541SOL     OW17521   4.859   1.583   6.102
 5541SOL    HW117522   4.788   1.528   6.147
 5541SOL    HW217523   4.949   1.556   6.137
 5542SOL     OW17524   3.423   4.711   6.148
 5542SOL    HW117525   3.370   4.652   6.089
 5542SOL    HW217526   3.507   4.739   6.101
 5543SOL     OW17527   6.291   3.616   6.563
 5543SOL    HW117528   6.258   3.559   6.638
 5543SOL    HW217529   6.221   3.683   6.539
 5544SOL     OW17530   5.839   0.931   5.314
 5544SOL    HW117531   5.824   1.001   5.384
 5544SOL    HW217532   5.936   0.905   5.315
 5545SOL     OW17533   4.237   1.853   2.645
 5545SOL    HW117534   4.186   1.898   2.572
 5545SOL    HW217535   4.316   1.909   2.670
 5546SOL     OW17536   1.660   5.446   6.125
 5546SOL    HW117537   1.756   5.475   6.125
 5546SOL    HW217538   1.654   5.352   6.160
 5547SOL     OW17539   3.217   4.829   5.853
 5547SOL    HW117540   3.122   4.859   5.841
 5547SOL    HW217541   3.240   4.762   5.782
 5548SOL     OW17542   6.325   3.711   5.332
 5548SOL    HW117543   6.228   3.688   5.326
 5548SOL    HW217544   6.380   3.627   5.334
 5549SOL     OW17545   2.833   4.730   6.935
 5549SOL    HW117546   2.782   4.735   6.849
 5549SOL    HW217547   2.879   4.817   6.953
 5550SOL     OW17548   2.976   6.005   1.328
 5550SOL    HW117549   3.023   6.022   1.242
 5550SOL    HW217550   2.954   6.093   1.372
 5551SOL     OW17551   1.581   1.891   3.342
 5551SOL    HW117552   1.625   1.965   3.292
 5551SOL    HW217553   1.619   1.885   3.434
 5552SOL     OW17554   0.035   2.174   1.645
 5552SOL    HW117555   6.987   2.128   1.595
 5552SOL    HW217556   0.007   2.266   1.671
 5553SOL     OW17557   4.406   5.882   0.464
 5553SOL    HW117558   4.396   5.870   0.562
 5553SOL    HW217559   4.413   5.980   0.443
 5554SOL     OW17560   3.016   1.809   4.982
 5554SOL    HW117561   2.984   1.892   5.029
 5554SOL    HW217562   2.942   1.773   4.925
 5555SOL     OW17563   0.010   5.082   3.502
 5555SOL    HW117564   6.997   5.004   3.549
 5555SOL    HW217565   6.975   5.110   3.428
 5556SOL     OW17566   0.605   2.218   5.474
 5556SOL    HW117567   0.623   2.129   5.433
 5556SOL    HW217568   0.506   2.233   5.478
 5557SOL     OW17569   1.938   6.559   4.023
 5557SOL    HW117570   1.922   6.512   4.110
 5557SOL    HW217571   2.029   6.536   3.989
 5558SOL     OW17572   5.117   3.101   5.145
 5558SOL    HW117573   5.214   3.114   5.129
 5558SOL    HW217574   5.068   3.185   5.123
 5559SOL     OW17575   1.887   0.754   0.919
 5559SOL    HW117576   1.947   0.802   0.856
 5559SOL    HW217577   1.846   0.819   0.983
 5560SOL     OW17578   0.364   1.011   3.496
 5560SOL    HW117579   0.461   1.026   3.483
 5560SOL    HW217580   0.334   1.059   3.579
 5561SOL     OW17581   1.444   3.164   3.400
 5561SOL    HW117582   1.493   3.251   3.396
 5561SOL    HW217583   1.481   3.103   3.330
 5562SOL     OW17584   2.429   3.213   6.191
 5562SOL    HW117585   2.354   3.269   6.157
 5562SOL    HW217586   2.460   3.151   6.118
 5563SOL     OW17587   4.944   5.806   2.541
 5563SOL    HW117588   5.022   5.837   2.595
 5563SOL    HW217589   4.896   5.734   2.591
 5564SOL     OW17590   5.235   3.769   1.776
 5564SOL    HW117591   5.175   3.849   1.775
 5564SOL    HW217592   5.308   3.782   1.708
 5565SOL     OW17593   3.302   2.426   5.567
 5565SOL    HW117594   3.365   2.350   5.583
 5565SOL    HW217595   3.324   2.470   5.480
 5566SOL     OW17596   1.918   5.006   1.325
 5566SOL    HW117597   1.994   4.988   1.261
 5566SOL    HW217598   1.849   4.934   1.315
 5567SOL     OW17599   1.729   5.669   1.940
 5567SOL    HW117600   1.673   5.748   1.913
 5567SOL    HW217601   1.745   5.611   1.860
 5568SOL     OW17602   3.812   1.142   1.962
 5568SOL    HW117603   3.871   1.090   1.901
 5568SOL    HW217604   3.720   1.102   1.960
 5569SOL     OW17605   4.448   1.900   0.054
 5569SOL    HW117606   4.521   1.860   7.025
 5569SOL    HW217607   4.428   1.993   0.022
 5570SOL     OW17608   6.609   4.137   5.750
 5570SOL    HW117609   6.579   4.152   5.655
 5570SOL    HW217610   6.552   4.067   5.792
 5571SOL     OW17611   6.712   5.582   6.805
 5571SOL    HW117612   6.641   5.651   6.821
 5571SOL    HW217613   6.766   5.609   6.725
 5572SOL     OW17614   4.789   2.647   6.367
 5572SOL    HW117615   4.738   2.640   6.453
 5572SOL    HW217616   4.784   2.560   6.318
 5573SOL     OW17617   1.671   3.849   0.986
 5573SOL    HW117618   1.680   3.751   0.971
 5573SOL    HW217619   1.621   3.890   0.910
 5574SOL     OW17620   0.724   5.758   5.414
 5574SOL    HW117621   0.814   5.780   5.451
 5574SOL    HW217622   0.697   5.666   5.444
 5575SOL     OW17623   1.361   1.526   0.663
 5575SOL    HW117624   1.412   1.609   0.683
 5575SOL    HW217625   1.407   1.448   0.705
 5576SOL     OW17626   6.070   6.372   0.463
 5576SOL    HW117627   6.098   6.437   0.393
 5576SOL    HW217628   6.150   6.321   0.496
 5577SOL     OW17629   1.851   3.942   5.261
 5577SOL    HW117630   1.814   3.859   5.304
 5577SOL    HW217631   1.932   3.919   5.208
 5578SOL     OW17632   4.313   2.532   0.092
 5578SOL    HW117633   4.287   2.565   0.183
 5578SOL    HW217634   4.238   2.479   0.053
 5579SOL     OW17635   4.944   4.025   6.796
 5579SOL    HW117636   4.849   3.999   6.777
 5579SOL    HW217637   5.006   3.960   6.753
 5580SOL     OW17638   6.021   1.625   0.421
 5580SOL    HW117639   6.027   1.666   0.330
 5580SOL    HW217640   5.925   1.616   0.447
 5581SOL     OW17641   2.214   1.714   6.468
 5581SOL    HW117642   2.135   1.679   6.418
 5581SOL    HW217643   2.186   1.793   6.524
 5582SOL     OW17644   3.740   3.121   3.794
 5582SOL    HW117645   3.691   3.206   3.777
 5582SOL    HW217646   3.681   3.043   3.771
 5583SOL     OW17647   3.820   0.237   1.642
 5583SOL    HW117648   3.827   0.316   1.702
 5583SOL    HW217649   3.857   0.261   1.552
 5584SOL     OW17650   6.596   2.965   3.520
 5584SOL    HW117651   6.516   2.911   3.545
 5584SOL    HW217652   6.578   3.015   3.436
 5585SOL     OW17653   5.991   0.260   4.392
 5585SOL    HW117654   5.911   0.215   4.430
 5585SOL    HW217655   6.005   0.348   4.438
 5586SOL     OW17656   1.755   0.980   5.869
 5586SOL    HW117657   1.795   1.060   5.914
 5586SOL    HW217658   1.656   0.978   5.886
 5587SOL     OW17659   3.243   0.179   4.387
 5587SOL    HW117660   3.267   0.090   4.426
 5587SOL    HW217661   3.193   0.232   4.455
 5588SOL     OW17662   2.878   0.109   5.784
 5588SOL    HW117663   2.871   0.168   5.704
 5588SOL    HW217664   2.951   0.042   5.770
 5589SOL     OW17665   4.588   2.937   6.241
 5589SOL    HW117666   4.683   2.920   6.217
 5589SOL    HW217667   4.571   2.907   6.335
 5590SOL     OW17668   6.899   6.120   3.614
 5590SOL    HW117669   6.976   6.148   3.557
 5590SOL    HW217670   6.922   6.033   3.659
 5591SOL     OW17671   5.098   0.927   0.653
 5591SOL    HW117672   5.087   0.951   0.556
 5591SOL    HW217673   5.043   0.988   0.709
 5592SOL     OW17674   1.824   3.453   2.651
 5592SOL    HW117675   1.893   3.388   2.620
 5592SOL    HW217676   1.785   3.501   2.573
 5593SOL     OW17677   1.698   3.038   5.774
 5593SOL    HW117678   1.611   3.071   5.811
 5593SOL    HW217679   1.690   3.029   5.675
 5594SOL     OW17680   1.785   0.673   0.028
 5594SOL    HW117681   1.687   0.654   0.034
 5594SOL    HW217682   1.831   0.635   0.109
 5595SOL     OW17683   0.008   2.454   5.780
 5595SOL    HW117684   0.041   2.502   5.861
 5595SOL    HW217685   6.940   2.424   5.795
 5596SOL     OW17686   4.961   0.642   3.165
 5596SOL    HW117687   5.035   0.641   3.233
 5596SOL    HW217688   4.875   0.616   3.210
 5597SOL     OW17689   0.131   0.536   6.408
 5597SOL    HW117690   0.144   0.518   6.311
 5597SOL    HW217691   0.069   0.467   6.447
 5598SOL     OW17692   6.772   1.575   3.707
 5598SOL    HW117693   6.820   1.629   3.776
 5598SOL    HW217694   6.838   1.522   3.653
 5599SOL     OW17695   4.898   3.333   3.187
 5599SOL    HW117696   4.973   3.275   3.153
 5599SOL    HW217697   4.871   3.301   3.278
 5600SOL     OW17698   2.330   1.871   2.333
 5600SOL    HW117699   2.267   1.866   2.411
 5600SOL    HW217700   2.341   1.781   2.292
 5601SOL     OW17701   5.766   2.848   5.709
 5601SOL    HW117702   5.793   2.894   5.794
 5601SOL    HW217703   5.669   2.823   5.715
 5602SOL     OW17704   0.372   1.870   2.508
 5602SOL    HW117705   0.279   1.838   2.491
 5602SOL    HW217706   0.374   1.922   2.594
 5603SOL     OW17707   3.909   2.210   4.530
 5603SOL    HW117708   3.841   2.192   4.459
 5603SOL    HW217709   3.865   2.206   4.620
 5604SOL     OW17710   0.628   0.299   4.281
 5604SOL    HW117711   0.625   0.277   4.184
 5604SOL    HW217712   0.639   0.215   4.335
 5605SOL     OW17713   2.909   6.066   4.290
 5605SOL    HW117714   2.885   6.113   4.205
 5605SOL    HW217715   2.924   5.969   4.271
 5606SOL     OW17716   4.485   2.263   0.973
 5606SOL    HW117717   4.416   2.288   1.041
 5606SOL    HW217718   4.493   2.336   0.905
 5607SOL     OW17719   6.169   2.684   2.485
 5607SOL    HW117720   6.149   2.596   2.444
 5607SOL    HW217721   6.103   2.703   2.558
 5608SOL     OW17722   4.780   0.924   3.596
 5608SOL    HW117723   4.775   0.919   3.696
 5608SOL    HW217724   4.717   0.995   3.563
 5609SOL     OW17725   6.563   0.101   0.858
 5609SOL    HW117726   6.603   0.125   0.769
 5609SOL    HW217727   6.509   0.017   0.848
 5610SOL     OW17728   5.032   4.707   0.176
 5610SOL    HW117729   5.117   4.667   0.208
 5610SOL    HW217730   4.955   4.647   0.201
 5611SOL     OW17731   0.318   4.796   1.392
 5611SOL    HW117732   0.380   4.717   1.398
 5611SOL    HW217733   0.234   4.769   1.346
 5612SOL     OW17734   2.858   1.446   0.741
 5612SOL    HW117735   2.863   1.420   0.837
 5612SOL    HW217736   2.863   1.364   0.684
 5613SOL     OW17737   6.777   5.484   5.554
 5613SOL    HW117738   6.850   5.538   5.596
 5613SOL    HW217739   6.694   5.539   5.549
 5614SOL     OW17740   5.477   2.255   4.063
 5614SOL    HW117741   5.551   2.286   4.122
 5614SOL    HW217742   5.401   2.320   4.066
 5615SOL     OW17743   0.486   3.042   3.230
 5615SOL    HW117744   0.525   3.134   3.227
 5615SOL    HW217745   0.407   3.040   3.292
 5616SOL     OW17746   1.515   3.625   2.723
 5616SOL    HW117747   1.533   3.529   2.744
 5616SOL    HW217748   1.554   3.647   2.633
 5617SOL     OW17749   1.833   5.390   6.396
 5617SOL    HW117750   1.734   5.394   6.410
 5617SOL    HW217751   1.866   5.479   6.366
 5618SOL     OW17752   6.876   5.967   3.185
 5618SOL    HW117753   6.855   6.065   3.183
 5618SOL    HW217754   6.927   5.946   3.269
 5619SOL     OW17755   3.718   2.971   4.179
 5619SOL    HW117756   3.772   2.892   4.208
 5619SOL    HW217757   3.654   2.997   4.252
 5620SOL     OW17758   4.690   4.847   5.239
 5620SOL    HW117759   4.630   4.803   5.172
 5620SOL    HW217760   4.779   4.801   5.239
 5621SOL     OW17761   1.296   2.241   5.578
 5621SOL    HW117762   1.249   2.170   5.632
 5621SOL    HW217763   1.277   2.330   5.619
 5622SOL     OW17764   4.592   5.842   4.631
 5622SOL    HW117765   4.493   5.858   4.639
 5622SOL    HW217766   4.627   5.888   4.549
 5623SOL     OW17767   5.026   6.011   3.608
 5623SOL    HW117768   4.926   6.001   3.610
 5623SOL    HW217769   5.059   6.030   3.700
 5624SOL     OW17770   6.633   4.914   4.236
 5624SOL    HW117771   6.568   4.921   4.311
 5624SOL    HW217772   6.679   4.826   4.239
 5625SOL     OW17773   0.967   5.848   5.530
 5625SOL    HW117774   1.022   5.795   5.595
 5625SOL    HW217775   1.020   5.864   5.447
 5626SOL     OW17776   1.210   4.235   4.909
 5626SOL    HW117777   1.179   4.142   4.929
 5626SOL    HW217778   1.303   4.232   4.873
 5627SOL     OW17779   1.092   5.753   6.742
 5627SOL    HW117780   1.191   5.746   6.733
 5627SOL    HW217781   1.069   5.822   6.812
 5628SOL     OW17782   2.442   2.253   1.389
 5628SOL    HW117783   2.507   2.248   1.464
 5628SOL    HW217784   2.357   2.296   1.420
 5629SOL     OW17785   5.304   4.017   1.544
 5629SOL    HW117786   5.261   3.943   1.492
 5629SOL    HW217787   5.381   3.980   1.596
 5630SOL     OW17788   1.844   4.474   0.023
 5630SOL    HW117789   1.866   4.378   0.039
 5630SOL    HW217790   1.851   4.524   0.110
 5631SOL     OW17791   4.093   1.138   1.696
 5631SOL    HW117792   4.093   1.179   1.605
 5631SOL    HW217793   4.177   1.163   1.744
 5632SOL     OW17794   5.746   6.771   5.669
 5632SOL    HW117795   5.739   6.785   5.571
 5632SOL    HW217796   5.714   6.679   5.692
 5633SOL     OW17797   0.790   5.406   6.006
 5633SOL    HW117798   0.801   5.307   6.003
 5633SOL    HW217799   0.827   5.446   5.922
 5634SOL     OW17800   2.422   0.021   0.363
 5634SOL    HW117801   2.509   7.013   0.399
 5634SOL    HW217802   2.426   0.026   0.263
 5635SOL     OW17803   1.820   0.689   6.291
 5635SOL    HW117804   1.802   0.742   6.208
 5635SOL    HW217805   1.863   0.748   6.359
 5636SOL     OW17806   6.171   1.666   5.785
 5636SOL    HW117807   6.179   1.568   5.764
 5636SOL    HW217808   6.125   1.677   5.874
 5637SOL     OW17809   4.802   6.296   4.968
 5637SOL    HW117810   4.751   6.329   5.047
 5637SOL    HW217811   4.870   6.229   4.999
 5638SOL     OW17812   5.998   5.342   1.230
 5638SOL    HW117813   6.054   5.260   1.241
 5638SOL    HW217814   6.022   5.386   1.144
 5639SOL     OW17815   1.183   0.486   1.079
 5639SOL    HW117816   1.133   0.545   1.016
 5639SOL    HW217817   1.228   0.413   1.028
 5640SOL     OW17818   2.483   5.996   3.124
 5640SOL    HW117819   2.437   5.932   3.064
 5640SOL    HW217820   2.568   6.028   3.081
 5641SOL     OW17821   0.900   4.316   3.714
 5641SOL    HW117822   0.842   4.299   3.794
 5641SOL    HW217823   0.964   4.240   3.703
 5642SOL     OW17824   1.657   5.127   0.511
 5642SOL    HW117825   1.697   5.096   0.425
 5642SOL    HW217826   1.620   5.219   0.499
 5643SOL     OW17827   4.632   1.850   4.790
 5643SOL    HW117828   4.572   1.840   4.711
 5643SOL    HW217829   4.722   1.811   4.770
 5644SOL     OW17830   4.192   0.618   5.257
 5644SOL    HW117831   4.168   0.548   5.324
 5644SOL    HW217832   4.145   0.703   5.278
 5645SOL     OW17833   5.545   5.381   3.717
 5645SOL    HW117834   5.596   5.454   3.762
 5645SOL    HW217835   5.482   5.420   3.650
 5646SOL     OW17836   0.572   6.655   4.433
 5646SOL    HW117837   0.584   6.581   4.367
 5646SOL    HW217838   0.513   6.623   4.507
 5647SOL     OW17839   5.715   5.572   5.772
 5647SOL    HW117840   5.683   5.591   5.865
 5647SOL    HW217841   5.639   5.582   5.708
 5648SOL     OW17842   1.512   1.875   3.986
 5648SOL    HW117843   1.585   1.886   3.919
 5648SOL    HW217844   1.485   1.779   3.991
 5649SOL     OW17845   0.735   0.984   5.348
 5649SOL    HW117846   0.819   0.932   5.360
 5649SOL    HW217847   0.722   1.005   5.251
 5650SOL     OW17848   6.779   5.016   6.862
 5650SOL    HW117849   6.754   4.934   6.913
 5650SOL    HW217850   6.734   5.096   6.903
 5651SOL     OW17851   6.956   0.873   2.448
 5651SOL    HW117852   6.883   0.941   2.436
 5651SOL    HW217853   6.928   0.786   2.407
 5652SOL     OW17854   4.754   5.394   1.048
 5652SOL    HW117855   4.773   5.328   1.120
 5652SOL    HW217856   4.789   5.359   0.961
 5653SOL     OW17857   0.404   5.615   6.538
 5653SOL    HW117858   0.436   5.604   6.444
 5653SOL    HW217859   0.343   5.694   6.544
 5654SOL     OW17860   6.810   0.124   5.142
 5654SOL    HW117861   6.745   0.140   5.216
 5654SOL    HW217862   6.890   0.076   5.178
 5655SOL     OW17863   6.807   3.383   4.364
 5655SOL    HW117864   6.767   3.294   4.384
 5655SOL    HW217865   6.798   3.403   4.266
 5656SOL     OW17866   3.425   4.524   0.255
 5656SOL    HW117867   3.507   4.542   0.202
 5656SOL    HW217868   3.387   4.435   0.229
 5657SOL     OW17869   3.553   0.503   1.788
 5657SOL    HW117870   3.649   0.513   1.762
 5657SOL    HW217871   3.529   0.406   1.790
 5658SOL     OW17872   3.542   6.957   5.911
 5658SOL    HW117873   3.505   7.018   5.981
 5658SOL    HW217874   3.577   7.010   5.834
 5659SOL     OW17875   3.091   3.983   2.644
 5659SOL    HW117876   3.027   3.929   2.699
 5659SOL    HW217877   3.128   4.057   2.701
 5660SOL     OW17878   5.037   6.393   6.904
 5660SOL    HW117879   5.020   6.301   6.937
 5660SOL    HW217880   4.997   6.459   6.967
 5661SOL     OW17881   6.191   5.451   3.979
 5661SOL    HW117882   6.276   5.469   3.930
 5661SOL    HW217883   6.116   5.499   3.934
 5662SOL     OW17884   2.081   4.758   4.056
 5662SOL    HW117885   2.130   4.704   4.125
 5662SOL    HW217886   2.138   4.766   3.974
 5663SOL     OW17887   1.472   4.229   0.799
 5663SOL    HW117888   1.374   4.234   0.778
 5663SOL    HW217889   1.504   4.319   0.829
 5664SOL     OW17890   6.930   4.732   2.205
 5664SOL    HW117891   6.950   4.816   2.154
 5664SOL    HW217892   6.848   4.689   2.168
 5665SOL     OW17893   2.620   3.473   5.731
 5665SOL    HW117894   2.637   3.438   5.639
 5665SOL    HW217895   2.526   3.454   5.758
 5666SOL     OW17896   5.532   4.393   0.959
 5666SOL    HW117897   5.460   4.324   0.967
 5666SOL    HW217898   5.557   4.406   0.863
 5667SOL     OW17899   6.841   4.937   3.046
 5667SOL    HW117900   6.763   4.998   3.035
 5667SOL    HW217901   6.808   4.842   3.054
 5668SOL     OW17902   5.610   1.992   6.577
 5668SOL    HW117903   5.615   1.915   6.514
 5668SOL    HW217904   5.694   2.047   6.570
 5669SOL     OW17905   0.627   4.902   6.574
 5669SOL    HW117906   0.611   4.934   6.480
 5669SOL    HW217907   0.672   4.813   6.572
 5670SOL     OW17908   0.391   3.483   4.139
 5670SOL    HW117909   0.425   3.576   4.145
 5670SOL    HW217910   0.409   3.446   4.048
 5671SOL     OW17911   1.302   0.527   5.724
 5671SOL    HW117912   1.216   0.578   5.720
 5671SOL    HW217913   1.377   0.588   5.749
 5672SOL     OW17914   5.058   4.501   5.545
 5672SOL    HW117915   5.006   4.559   5.608
 5672SOL    HW217916   5.156   4.518   5.557
 5673SOL     OW17917   0.556   0.451   2.131
 5673SOL    HW117918   0.530   0.379   2.195
 5673SOL    HW217919   0.502   0.443   2.047
 5674SOL     OW17920   6.702   3.302   1.644
 5674SOL    HW117921   6.765   3.229   1.618
 5674SOL    HW217922   6.754   3.387   1.658
 5675SOL     OW17923   4.473   2.592   5.194
 5675SOL    HW117924   4.447   2.537   5.274
 5675SOL    HW217925   4.415   2.568   5.117
 5676SOL     OW17926   1.970   0.429   1.859
 5676SOL    HW117927   1.872   0.430   1.875
 5676SOL    HW217928   2.017   0.392   1.939
 5677SOL     OW17929   6.490   0.962   3.605
 5677SOL    HW117930   6.523   0.878   3.563
 5677SOL    HW217931   6.412   0.997   3.552
 5678SOL     OW17932   3.003   6.969   3.091
 5678SOL    HW117933   3.050   7.009   3.012
 5678SOL    HW217934   3.071   6.941   3.159
 5679SOL     OW17935   1.748   6.777   4.778
 5679SOL    HW117936   1.704   6.745   4.694
 5679SOL    HW217937   1.769   6.698   4.837
 5680SOL     OW17938   2.191   5.403   6.557
 5680SOL    HW117939   2.187   5.502   6.570
 5680SOL    HW217940   2.129   5.358   6.620
 5681SOL     OW17941   1.401   2.981   6.849
 5681SOL    HW117942   1.408   2.892   6.893
 5681SOL    HW217943   1.435   3.052   6.910
 5682SOL     OW17944   1.150   3.146   5.693
 5682SOL    HW117945   1.061   3.151   5.648
 5682SOL    HW217946   1.208   3.079   5.647
 5683SOL     OW17947   3.539   2.475   6.347
 5683SOL    HW117948   3.451   2.520   6.335
 5683SOL    HW217949   3.587   2.472   6.259
 5684SOL     OW17950   3.611   4.126   4.049
 5684SOL    HW117951   3.566   4.037   4.062
 5684SOL    HW217952   3.585   4.163   3.960
 5685SOL     OW17953   6.980   4.925   2.037
 5685SOL    HW117954   6.913   4.901   1.968
 5685SOL    HW217955   0.021   4.989   1.998
 5686SOL     OW17956   3.634   0.054   0.617
 5686SOL    HW117957   3.690   7.026   0.679
 5686SOL    HW217958   3.549   0.005   0.597
 5687SOL     OW17959   5.315   5.274   5.342
 5687SOL    HW117960   5.277   5.200   5.398
 5687SOL    HW217961   5.359   5.236   5.261
 5688SOL     OW17962   5.793   2.203   1.488
 5688SOL    HW117963   5.803   2.184   1.585
 5688SOL    HW217964   5.696   2.219   1.467
 5689SOL     OW17965   4.191   1.926   0.908
 5689SOL    HW117966   4.154   2.016   0.931
 5689SOL    HW217967   4.133   1.882   0.841
 5690SOL     OW17968   4.064   5.633   1.070
 5690SOL    HW117969   4.077   5.607   1.165
 5690SOL    HW217970   4.115   5.718   1.051
 5691SOL     OW17971   1.919   6.985   1.770
 5691SOL    HW117972   1.844   6.976   1.705
 5691SOL    HW217973   1.982   0.030   1.737
 5692SOL     OW17974   6.672   3.407   6.099
 5692SOL    HW117975   6.666   3.340   6.173
 5692SOL    HW217976   6.705   3.494   6.135
 5693SOL     OW17977   4.392   2.359   2.563
 5693SOL    HW117978   4.384   2.331   2.658
 5693SOL    HW217979   4.307   2.337   2.515
 5694SOL     OW17980   0.645   0.856   3.505
 5694SOL    HW117981   0.680   0.940   3.547
 5694SOL    HW217982   0.706   0.828   3.431
 5695SOL     OW17983   1.603   3.380   3.360
 5695SOL    HW117984   1.670   3.424   3.420
 5695SOL    HW217985   1.570   3.446   3.293
 5696SOL     OW17986   2.708   0.861   5.378
 5696SOL    HW117987   2.754   0.777   5.405
 5696SOL    HW217988   2.667   0.904   5.458
 5697SOL     OW17989   6.587   2.781   0.351
 5697SOL    HW117990   6.546   2.779   0.442
 5697SOL    HW217991   6.600   2.876   0.323
 5698SOL     OW17992   0.644   3.316   1.742
 5698SOL    HW117993   0.623   3.379   1.667
 5698SOL    HW217994   0.641   3.222   1.708
 5699SOL     OW17995   5.562   0.850   4.964
 5699SOL    HW117996   5.534   0.831   5.058
 5699SOL    HW217997   5.553   0.948   4.945
 5700SOL     OW17998   1.535   5.733   5.277
 5700SOL    HW117999   1.561   5.830   5.279
 5700SOL    HW218000   1.451   5.722   5.224
 5701SOL     OW18001   6.733   5.561   2.355
 5701SOL    HW118002   6.785   5.628   2.302
 5701SOL    HW218003   6.726   5.592   2.450
 5702SOL     OW18004   2.386   6.609   6.629
 5702SOL    HW118005   2.366   6.593   6.726
 5702SOL    HW218006   2.325   6.553   6.573
 5703SOL     OW18007   4.372   4.871   0.370
 5703SOL    HW118008   4.388   4.817   0.452
 5703SOL    HW218009   4.297   4.831   0.318
 5704SOL     OW18010   4.661   5.369   3.647
 5704SOL    HW118011   4.712   5.372   3.561
 5704SOL    HW218012   4.567   5.339   3.630
 5705SOL     OW18013   6.008   0.132   1.117
 5705SOL    HW118014   5.952   0.173   1.188
 5705SOL    HW218015   5.985   0.173   1.028
 5706SOL     OW18016   1.385   1.444   6.829
 5706SOL    HW118017   1.311   1.464   6.765
 5706SOL    HW218018   1.347   1.407   6.914
 5707SOL     OW18019   1.906   1.207   6.270
 5707SOL    HW118020   1.909   1.273   6.345
 5707SOL    HW218021   1.989   1.150   6.273
 5708SOL     OW18022   5.017   7.019   2.691
 5708SOL    HW118023   4.918   7.001   2.692
 5708SOL    HW218024   5.033   0.092   2.696
 5709SOL     OW18025   0.657   6.300   2.737
 5709SOL    HW118026   0.732   6.256   2.687
 5709SOL    HW218027   0.572   6.250   2.719
 5710SOL     OW18028   3.040   3.219   5.988
 5710SOL    HW118029   2.985   3.297   5.958
 5710SOL    HW218030   3.137   3.242   5.984
 5711SOL     OW18031   4.831   1.494   3.863
 5711SOL    HW118032   4.747   1.507   3.916
 5711SOL    HW218033   4.879   1.413   3.896
 5712SOL     OW18034   0.225   6.267   5.890
 5712SOL    HW118035   0.180   6.182   5.863
 5712SOL    HW218036   0.216   6.335   5.816
 5713SOL     OW18037   6.909   2.979   2.576
 5713SOL    HW118038   6.935   3.057   2.519
 5713SOL    HW218039   6.992   2.934   2.611
 5714SOL     OW18040   1.067   0.640   5.707
 5714SOL    HW118041   0.995   0.577   5.736
 5714SOL    HW218042   1.025   0.723   5.670
 5715SOL     OW18043   1.457   6.535   2.097
 5715SOL    HW118044   1.538   6.476   2.098
 5715SOL    HW218045   1.436   6.560   2.003
 5716SOL     OW18046   1.505   3.874   6.360
 5716SOL    HW118047   1.514   3.965   6.321
 5716SOL    HW218048   1.591   3.824   6.350
 5717SOL     OW18049   1.146   4.250   0.987
 5717SOL    HW118050   1.195   4.172   0.947
 5717SOL    HW218051   1.079   4.285   0.922
 5718SOL     OW18052   2.524   4.868   6.404
 5718SOL    HW118053   2.603   4.806   6.401
 5718SOL    HW218054   2.463   4.847   6.328
 5719SOL     OW18055   3.515   0.457   6.645
 5719SOL    HW118056   3.463   0.423   6.567
 5719SOL    HW218057   3.552   0.380   6.696
 5720SOL     OW18058   1.317   5.379   5.461
 5720SOL    HW118059   1.316   5.287   5.501
 5720SOL    HW218060   1.378   5.437   5.515
 5721SOL     OW18061   0.376   3.129   1.297
 5721SOL    HW118062   0.284   3.161   1.275
 5721SOL    HW218063   0.393   3.041   1.251
 5722SOL     OW18064   5.523   0.068   4.903
 5722SOL    HW118065   5.435   0.061   4.949
 5722SOL    HW218066   5.591   0.016   4.955
 5723SOL     OW18067   3.760   5.552   0.512
 5723SOL    HW118068   3.830   5.514   0.451
 5723SOL    HW218069   3.764   5.652   0.508
 5724SOL     OW18070   5.404   1.924   6.280
 5724SOL    HW118071   5.427   2.022   6.277
 5724SOL    HW218072   5.464   1.878   6.345
 5725SOL     OW18073   5.434   5.153   4.683
 5725SOL    HW118074   5.386   5.066   4.691
 5725SOL    HW218075   5.393   5.208   4.610
 5726SOL     OW18076   5.790   3.755   5.578
 5726SOL    HW118077   5.768   3.767   5.675
 5726SOL    HW218078   5.759   3.664   5.549
 5727SOL     OW18079   5.759   1.851   3.466
 5727SOL    HW118080   5.663   1.846   3.493
 5727SOL    HW218081   5.777   1.937   3.420
 5728SOL     OW18082   6.101   0.862   5.337
 5728SOL    HW118083   6.137   0.892   5.249
 5728SOL    HW218084   6.170   0.810   5.385
 5729SOL     OW18085   0.085   1.247   6.298
 5729SOL    HW118086   0.081   1.169   6.359
 5729SOL    HW218087   0.132   1.323   6.343
 5730SOL     OW18088   4.031   5.491   5.750
 5730SOL    HW118089   4.121   5.515   5.714
 5730SOL    HW218090   4.038   5.406   5.802
 5731SOL     OW18091   2.677   0.883   4.109
 5731SOL    HW118092   2.673   0.857   4.012
 5731SOL    HW218093   2.735   0.818   4.158
 5732SOL     OW18094   5.995   5.357   5.105
 5732SOL    HW118095   6.006   5.260   5.129
 5732SOL    HW218096   5.973   5.409   5.187
 5733SOL     OW18097   3.472   0.668   6.953
 5733SOL    HW118098   3.534   0.745   6.964
 5733SOL    HW218099   3.388   0.698   6.907
 5734SOL     OW18100   1.498   6.945   5.726
 5734SOL    HW118101   1.426   6.956   5.795
 5734SOL    HW218102   1.511   0.006   5.677
 5735SOL     OW18103   3.972   0.848   2.333
 5735SOL    HW118104   3.874   0.858   2.315
 5735SOL    HW218105   4.019   0.823   2.249
 5736SOL     OW18106   4.358   4.246   6.918
 5736SOL    HW118107   4.381   4.159   6.960
 5736SOL    HW218108   4.387   4.321   6.978
 5737SOL     OW18109   4.909   5.198   1.509
 5737SOL    HW118110   4.970   5.271   1.539
 5737SOL    HW218111   4.839   5.236   1.448
 5738SOL     OW18112   3.704   1.235   6.505
 5738SOL    HW118113   3.773   1.167   6.531
 5738SOL    HW218114   3.712   1.255   6.408
 5739SOL     OW18115   2.887   0.751   6.117
 5739SOL    HW118116   2.848   0.837   6.084
 5739SOL    HW218117   2.816   0.697   6.161
 5740SOL     OW18118   5.365   3.525   1.089
 5740SOL    HW118119   5.267   3.502   1.087
 5740SOL    HW218120   5.381   3.596   1.158
 5741SOL     OW18121   0.703   3.502   4.247
 5741SOL    HW118122   0.621   3.512   4.190
 5741SOL    HW218123   0.677   3.504   4.343
 5742SOL     OW18124   4.405   6.994   3.508
 5742SOL    HW118125   4.410   6.984   3.409
 5742SOL    HW218126   4.385   0.064   3.531
 5743SOL     OW18127   3.572   4.007   5.371
 5743SOL    HW118128   3.646   4.046   5.426
 5743SOL    HW218129   3.556   4.065   5.291
 5744SOL     OW18130   5.805   6.648   3.067
 5744SOL    HW118131   5.708   6.627   3.070
 5744SOL    HW218132   5.820   6.743   3.093
 5745SOL     OW18133   2.255   2.428   3.469
 5745SOL    HW118134   2.177   2.487   3.489
 5745SOL    HW218135   2.336   2.463   3.518
 5746SOL     OW18136   4.055   0.256   3.480
 5746SOL    HW118137   4.093   0.319   3.412
 5746SOL    HW218138   3.958   0.241   3.460
 5747SOL     OW18139   0.986   5.830   1.834
 5747SOL    HW118140   0.889   5.822   1.813
 5747SOL    HW218141   0.997   5.871   1.925
 5748SOL     OW18142   0.086   5.940   0.561
 5748SOL    HW118143   0.051   6.016   0.615
 5748SOL    HW218144   0.079   5.855   0.614
 5749SOL     OW18145   1.476   6.400   5.037
 5749SOL    HW118146   1.434   6.380   5.126
 5749SOL    HW218147   1.560   6.346   5.027
 5750SOL     OW18148   6.880   4.048   4.251
 5750SOL    HW118149   6.966   3.998   4.248
 5750SOL    HW218150   6.819   4.006   4.318
 5751SOL     OW18151   2.113   3.616   4.346
 5751SOL    HW118152   2.149   3.548   4.410
 5751SOL    HW218153   2.120   3.707   4.387
 5752SOL     OW18154   5.567   0.281   0.677
 5752SOL    HW118155   5.480   0.266   0.630
 5752SOL    HW218156   5.550   0.296   0.774
 5753SOL     OW18157   3.252   4.150   4.904
 5753SOL    HW118158   3.306   4.115   4.981
 5753SOL    HW218159   3.237   4.248   4.916
 5754SOL     OW18160   1.005   5.910   1.470
 5754SOL    HW118161   0.918   5.860   1.476
 5754SOL    HW218162   1.055   5.878   1.390
 5755SOL     OW18163   2.323   2.468   6.939
 5755SOL    HW118164   2.326   2.412   6.856
 5755SOL    HW218165   2.325   2.409   7.019
 5756SOL     OW18166   6.023   6.334   2.073
 5756SOL    HW118167   6.038   6.286   1.986
 5756SOL    HW218168   6.056   6.277   2.148
 5757SOL     OW18169   6.839   6.614   3.497
 5757SOL    HW118170   6.853   6.651   3.405
 5757SOL    HW218171   6.816   6.517   3.491
 5758SOL     OW18172   1.470   6.489   3.234
 5758SOL    HW118173   1.485   6.390   3.232
 5758SOL    HW218174   1.541   6.535   3.180
 5759SOL     OW18175   4.182   6.875   1.967
 5759SOL    HW118176   4.282   6.884   1.973
 5759SOL    HW218177   4.153   6.798   2.023
 5760SOL     OW18178   6.558   3.318   2.216
 5760SOL    HW118179   6.528   3.301   2.309
 5760SOL    HW218180   6.550   3.233   2.162
 5761SOL     OW18181   5.435   5.718   4.608
 5761SOL    HW118182   5.376   5.657   4.556
 5761SOL    HW218183   5.517   5.668   4.636
 5762SOL     OW18184   5.827   4.320   6.814
 5762SOL    HW118185   5.770   4.301   6.894
 5762SOL    HW218186   5.850   4.234   6.768
 5763SOL     OW18187   5.391   0.564   0.660
 5763SOL    HW118188   5.351   0.546   0.750
 5763SOL    HW218189   5.395   0.479   0.607
 5764SOL     OW18190   4.450   5.204   3.572
 5764SOL    HW118191   4.371   5.265   3.572
 5764SOL    HW218192   4.454   5.154   3.486
 5765SOL     OW18193   6.432   5.156   0.984
 5765SOL    HW118194   6.441   5.185   1.079
 5765SOL    HW218195   6.372   5.076   0.980
 5766SOL     OW18196   1.317   1.467   4.628
 5766SOL    HW118197   1.226   1.506   4.636
 5766SOL    HW218198   1.310   1.368   4.614
 5767SOL     OW18199   1.903   0.958   0.320
 5767SOL    HW118200   1.955   0.906   0.253
 5767SOL    HW218201   1.900   0.908   0.406
 5768SOL     OW18202   6.706   6.850   3.919
 5768SOL    HW118203   6.688   6.774   3.857
 5768SOL    HW218204   6.657   6.931   3.887
 5769SOL     OW18205   1.989   5.201   6.679
 5769SOL    HW118206   1.933   5.232   6.602
 5769SOL    HW218207   1.934   5.143   6.739
 5770SOL     OW18208   0.384   5.914   0.783
 5770SOL    HW118209   0.467   5.932   0.835
 5770SOL    HW218210   0.334   6.000   0.769
 5771SOL     OW18211   2.103   5.427   3.913
 5771SOL    HW118212   2.005   5.443   3.916
 5771SOL    HW218213   2.145   5.460   3.998
 5772SOL     OW18214   4.352   0.448   2.064
 5772SOL    HW118215   4.347   0.546   2.080
 5772SOL    HW218216   4.261   0.407   2.076
 5773SOL     OW18217   4.167   1.896   1.987
 5773SOL    HW118218   4.255   1.944   1.982
 5773SOL    HW218219   4.099   1.946   1.934
 5774SOL     OW18220   1.272   6.389   3.784
 5774SOL    HW118221   1.369   6.367   3.779
 5774SOL    HW218222   1.236   6.405   3.691
 5775SOL     OW18223   0.815   5.457   3.032
 5775SOL    HW118224   0.853   5.454   3.125
 5775SOL    HW218225   0.765   5.542   3.019
 5776SOL     OW18226   1.991   0.625   3.250
 5776SOL    HW118227   2.016   0.578   3.166
 5776SOL    HW218228   2.052   0.703   3.264
 5777SOL     OW18229   1.660   0.355   3.127
 5777SOL    HW118230   1.603   0.389   3.052
 5777SOL    HW218231   1.652   0.416   3.206
 5778SOL     OW18232   1.168   1.465   6.673
 5778SOL    HW118233   1.096   1.528   6.702
 5778SOL    HW218234   1.139   1.371   6.690
 5779SOL     OW18235   4.705   2.408   6.662
 5779SOL    HW118236   4.678   2.345   6.735
 5779SOL    HW218237   4.804   2.419   6.663
 5780SOL     OW18238   5.516   5.144   3.867
 5780SOL    HW118239   5.604   5.099   3.880
 5780SOL    HW218240   5.528   5.225   3.810
 5781SOL     OW18241   6.692   4.604   4.999
 5781SOL    HW118242   6.646   4.521   5.030
 5781SOL    HW218243   6.762   4.630   5.065
 5782SOL     OW18244   1.098   1.539   0.163
 5782SOL    HW118245   1.128   1.444   0.169
 5782SOL    HW218246   1.150   1.595   0.228
 5783SOL     OW18247   1.502   1.551   1.930
 5783SOL    HW118248   1.538   1.617   1.863
 5783SOL    HW218249   1.579   1.507   1.977
 5784SOL     OW18250   0.455   6.186   6.762
 5784SOL    HW118251   0.430   6.282   6.758
 5784SOL    HW218252   0.431   6.141   6.676
 5785SOL     OW18253   2.850   1.792   0.673
 5785SOL    HW118254   2.931   1.738   0.651
 5785SOL    HW218255   2.872   1.889   0.668
 5786SOL     OW18256   6.985   4.487   6.864
 5786SOL    HW118257   6.929   4.468   6.945
 5786SOL    HW218258   0.056   4.480   6.889
 5787SOL     OW18259   2.017   2.145   5.620
 5787SOL    HW118260   2.037   2.169   5.715
 5787SOL    HW218261   2.096   2.164   5.563
 5788SOL     OW18262   2.274   1.338   2.622
 5788SOL    HW118263   2.286   1.348   2.523
 5788SOL    HW218264   2.200   1.273   2.640
 5789SOL     OW18265   3.393   5.641   6.887
 5789SOL    HW118266   3.366   5.544   6.891
 5789SOL    HW218267   3.318   5.695   6.849
 5790SOL     OW18268   0.116   3.260   4.526
 5790SOL    HW118269   0.081   3.168   4.507
 5790SOL    HW218270   0.154   3.299   4.442
 5791SOL     OW18271   3.182   0.281   2.483
 5791SOL    HW118272   3.118   0.351   2.514
 5791SOL    HW218273   3.161   0.256   2.389
 5792SOL     OW18274   0.095   1.953   3.202
 5792SOL    HW118275   0.097   1.910   3.292
 5792SOL    HW218276   0.122   2.049   3.210
 5793SOL     OW18277   6.962   0.813   3.570
 5793SOL    HW118278   6.926   0.851   3.655
 5793SOL    HW218279   6.943   0.876   3.495
 5794SOL     OW18280   3.915   2.593   0.187
 5794SOL    HW118281   3.935   2.644   0.271
 5794SOL    HW218282   3.816   2.585   0.176
 5795SOL     OW18283   5.827   5.389   5.562
 5795SOL    HW118284   5.752   5.323   5.558
 5795SOL    HW218285   5.803   5.463   5.625
 5796SOL     OW18286   3.553   0.751   0.244
 5796SOL    HW118287   3.587   0.657   0.246
 5796SOL    HW218288   3.599   0.805   0.314
 5797SOL     OW18289   3.876   1.855   5.302
 5797SOL    HW118290   3.910   1.768   5.338
 5797SOL    HW218291   3.948   1.901   5.251
 5798SOL     OW18292   0.606   3.878   5.320
 5798SOL    HW118293   0.566   3.794   5.283
 5798SOL    HW218294   0.683   3.906   5.262
 5799SOL     OW18295   5.570   0.562   3.707
 5799SOL    HW118296   5.526   0.487   3.755
 5799SOL    HW218297   5.508   0.599   3.638
 5800SOL     OW18298   5.785   5.966   1.352
 5800SOL    HW118299   5.768   6.063   1.372
 5800SOL    HW218300   5.869   5.957   1.299
 5801SOL     OW18301   0.746   1.996   4.073
 5801SOL    HW118302   0.817   1.951   4.127
 5801SOL    HW218303   0.717   1.936   3.998
 5802SOL     OW18304   0.805   4.348   6.742
 5802SOL    HW118305   0.732   4.395   6.793
 5802SOL    HW218306   0.786   4.354   6.644
 5803SOL     OW18307   1.659   5.178   1.678
 5803SOL    HW118308   1.721   5.128   1.738
 5803SOL    HW218309   1.624   5.117   1.607
 5804SOL     OW18310   6.233   4.292   4.030
 5804SOL    HW118311   6.326   4.329   4.035
 5804SOL    HW218312   6.189   4.301   4.119
 5805SOL     OW18313   3.762   4.134   6.851
 5805SOL    HW118314   3.797   4.073   6.780
 5805SOL    HW218315   3.676   4.097   6.887
 5806SOL     OW18316   0.653   6.876   6.996
 5806SOL    HW118317   0.720   6.834   0.032
 5806SOL    HW218318   0.701   6.932   6.928
 5807SOL     OW18319   1.220   3.891   1.809
 5807SOL    HW118320   1.229   3.866   1.906
 5807SOL    HW218321   1.310   3.911   1.771
 5808SOL     OW18322   5.382   3.567   2.708
 5808SOL    HW118323   5.308   3.548   2.644
 5808SOL    HW218324   5.403   3.484   2.761
 5809SOL     OW18325   6.347   2.696   4.322
 5809SOL    HW118326   6.357   2.609   4.371
 5809SOL    HW218327   6.280   2.753   4.368
 5810SOL     OW18328   3.338   1.249   4.316
 5810SOL    HW118329   3.344   1.174   4.382
 5810SOL    HW218330   3.312   1.213   4.227
 5811SOL     OW18331   3.371   0.138   4.894
 5811SOL    HW118332   3.360   0.120   4.992
 5811SOL    HW218333   3.393   0.235   4.880
 5812SOL     OW18334   5.042   0.204   4.368
 5812SOL    HW118335   5.036   0.190   4.467
 5812SOL    HW218336   5.013   0.297   4.345
 5813SOL     OW18337   1.241   1.111   6.404
 5813SOL    HW118338   1.225   1.208   6.382
 5813SOL    HW218339   1.299   1.070   6.333
 5814SOL     OW18340   6.500   3.804   0.574
 5814SOL    HW118341   6.551   3.890   0.564
 5814SOL    HW218342   6.472   3.772   0.483
 5815SOL     OW18343   4.507   2.473   3.275
 5815SOL    HW118344   4.448   2.444   3.349
 5815SOL    HW218345   4.602   2.449   3.296
 5816SOL     OW18346   5.846   6.604   0.285
 5816SOL    HW118347   5.790   6.570   0.361
 5816SOL    HW218348   5.818   6.561   0.200
 5817SOL     OW18349   5.724   2.895   5.395
 5817SOL    HW118350   5.785   2.873   5.471
 5817SOL    HW218351   5.635   2.923   5.430
 5818SOL     OW18352   6.609   6.010   4.523
 5818SOL    HW118353   6.612   6.091   4.464
 5818SOL    HW218354   6.514   5.980   4.532
 5819SOL     OW18355   4.178   0.431   1.040
 5819SOL    HW118356   4.130   0.419   0.953
 5819SOL    HW218357   4.112   0.430   1.115
 5820SOL     OW18358   4.843   0.204   3.718
 5820SOL    HW118359   4.763   0.205   3.778
 5820SOL    HW218360   4.920   0.161   3.765
 5821SOL     OW18361   2.210   0.597   1.781
 5821SOL    HW118362   2.149   0.520   1.799
 5821SOL    HW218363   2.203   0.664   1.855
 5822SOL     OW18364   0.688   2.229   1.733
 5822SOL    HW118365   0.712   2.166   1.807
 5822SOL    HW218366   0.598   2.206   1.697
 5823SOL     OW18367   1.027   0.981   5.346
 5823SOL    HW118368   1.017   1.052   5.415
 5823SOL    HW218369   1.034   1.023   5.256
 5824SOL     OW18370   6.843   6.654   2.882
 5824SOL    HW118371   6.870   6.728   2.819
 5824SOL    HW218372   6.890   6.570   2.856
 5825SOL     OW18373   2.292   1.919   5.675
 5825SOL    HW118374   2.326   1.955   5.587
 5825SOL    HW218375   2.251   1.829   5.660
 5826SOL     OW18376   6.740   6.123   5.506
 5826SOL    HW118377   6.720   6.168   5.419
 5826SOL    HW218378   6.740   6.024   5.494
 5827SOL     OW18379   1.174   5.376   4.811
 5827SOL    HW118380   1.258   5.321   4.817
 5827SOL    HW218381   1.109   5.330   4.751
 5828SOL     OW18382   0.352   3.456   1.695
 5828SOL    HW118383   0.310   3.488   1.610
 5828SOL    HW218384   0.334   3.523   1.767
 5829SOL     OW18385   2.831   1.194   2.574
 5829SOL    HW118386   2.925   1.176   2.546
 5829SOL    HW218387   2.768   1.164   2.502
 5830SOL     OW18388   3.786   0.704   5.849
 5830SOL    HW118389   3.691   0.675   5.844
 5830SOL    HW218390   3.841   0.651   5.784
 5831SOL     OW18391   6.027   6.664   4.148
 5831SOL    HW118392   6.044   6.762   4.140
 5831SOL    HW218393   5.941   6.640   4.103
 5832SOL     OW18394   4.246   3.657   5.304
 5832SOL    HW118395   4.257   3.748   5.343
 5832SOL    HW218396   4.174   3.659   5.235
 5833SOL     OW18397   3.155   3.506   4.225
 5833SOL    HW118398   3.236   3.498   4.167
 5833SOL    HW218399   3.108   3.592   4.206
 5834SOL     OW18400   6.261   1.906   0.518
 5834SOL    HW118401   6.316   1.978   0.561
 5834SOL    HW218402   6.165   1.933   0.517
 5835SOL     OW18403   5.217   2.775   3.146
 5835SOL    HW118404   5.187   2.795   3.240
 5835SOL    HW218405   5.200   2.854   3.088
 5836SOL     OW18406   2.910   5.797   3.277
 5836SOL    HW118407   2.812   5.779   3.284
 5836SOL    HW218408   2.957   5.758   3.357
 5837SOL     OW18409   4.276   4.599   6.412
 5837SOL    HW118410   4.348   4.568   6.474
 5837SOL    HW218411   4.212   4.524   6.395
 5838SOL     OW18412   1.797   1.740   5.938
 5838SOL    HW118413   1.713   1.789   5.916
 5838SOL    HW218414   1.869   1.805   5.961
 5839SOL     OW18415   0.151   2.611   2.568
 5839SOL    HW118416   0.212   2.597   2.490
 5839SOL    HW218417   0.186   2.562   2.648
 5840SOL     OW18418   1.410   5.588   0.087
 5840SOL    HW118419   1.465   5.606   0.006
 5840SOL    HW218420   1.379   5.675   0.126
 5841SOL     OW18421   5.691   3.017   2.241
 5841SOL    HW118422   5.614   2.957   2.258
 5841SOL    HW218423   5.725   3.053   2.327
 5842SOL     OW18424   3.551   3.109   0.640
 5842SOL    HW118425   3.504   3.093   0.553
 5842SOL    HW218426   3.592   3.200   0.639
 5843SOL     OW18427   2.142   3.648   2.518
 5843SOL    HW118428   2.148   3.609   2.610
 5843SOL    HW218429   2.144   3.574   2.451
 5844SOL     OW18430   0.405   6.747   5.972
 5844SOL    HW118431   0.331   6.738   5.906
 5844SOL    HW218432   0.481   6.796   5.931
 5845SOL     OW18433   1.040   1.251   2.942
 5845SOL    HW118434   1.123   1.246   2.998
 5845SOL    HW218435   0.960   1.237   3.000
 5846SOL     OW18436   6.744   2.956   5.011
 5846SOL    HW118437   6.785   2.949   4.921
 5846SOL    HW218438   6.665   3.019   5.007
 5847SOL     OW18439   1.993   1.965   2.343
 5847SOL    HW118440   2.055   1.947   2.420
 5847SOL    HW218441   1.904   1.994   2.377
 5848SOL     OW18442   2.637   4.978   3.803
 5848SOL    HW118443   2.578   5.047   3.760
 5848SOL    HW218444   2.592   4.889   3.800
 5849SOL     OW18445   0.670   0.714   5.903
 5849SOL    HW118446   0.698   0.808   5.883
 5849SOL    HW218447   0.579   0.714   5.943
 5850SOL     OW18448   0.604   3.502   1.961
 5850SOL    HW118449   0.595   3.449   1.877
 5850SOL    HW218450   0.603   3.441   2.040
 5851SOL     OW18451   5.561   3.051   2.653
 5851SOL    HW118452   5.510   2.996   2.587
 5851SOL    HW218453   5.539   3.021   2.746
 5852SOL     OW18454   4.430   6.219   2.981
 5852SOL    HW118455   4.514   6.167   3.000
 5852SOL    HW218456   4.449   6.317   2.989
 5853SOL     OW18457   3.103   5.674   5.903
 5853SOL    HW118458   3.071   5.601   5.963
 5853SOL    HW218459   3.076   5.655   5.809
 5854SOL     OW18460   6.897   3.428   5.944
 5854SOL    HW118461   6.967   3.488   5.981
 5854SOL    HW218462   6.820   3.423   6.008
 5855SOL     OW18463   0.939   0.983   4.827
 5855SOL    HW118464   0.995   0.915   4.874
 5855SOL    HW218465   0.997   1.044   4.773
 5856SOL     OW18466   1.917   5.371   3.243
 5856SOL    HW118467   1.829   5.391   3.285
 5856SOL    HW218468   1.916   5.278   3.207
 5857SOL     OW18469   5.849   2.716   5.065
 5857SOL    HW118470   5.825   2.663   4.983
 5857SOL    HW218471   5.778   2.784   5.083
 5858SOL     OW18472   2.518   2.271   1.741
 5858SOL    HW118473   2.454   2.342   1.711
 5858SOL    HW218474   2.545   2.289   1.836
 5859SOL     OW18475   5.787   6.281   0.834
 5859SOL    HW118476   5.775   6.252   0.929
 5859SOL    HW218477   5.765   6.205   0.773
 5860SOL     OW18478   2.356   4.309   1.913
 5860SOL    HW118479   2.409   4.237   1.868
 5860SOL    HW218480   2.385   4.398   1.880
 5861SOL     OW18481   5.076   1.841   3.635
 5861SOL    HW118482   5.029   1.928   3.648
 5861SOL    HW218483   5.162   1.841   3.687
 5862SOL     OW18484   4.164   5.527   2.923
 5862SOL    HW118485   4.081   5.530   2.868
 5862SOL    HW218486   4.140   5.534   3.020
 5863SOL     OW18487   2.557   0.830   5.656
 5863SOL    HW118488   2.637   0.887   5.640
 5863SOL    HW218489   2.583   0.750   5.710
 5864SOL     OW18490   4.224   3.893   1.715
 5864SOL    HW118491   4.156   3.827   1.748
 5864SOL    HW218492   4.239   3.963   1.785
 5865SOL     OW18493   5.745   0.702   3.902
 5865SOL    HW118494   5.720   0.669   3.993
 5865SOL    HW218495   5.691   0.654   3.833
 5866SOL     OW18496   4.083   6.237   6.688
 5866SOL    HW118497   4.088   6.192   6.599
 5866SOL    HW218498   3.991   6.228   6.726
 5867SOL     OW18499   0.374   2.904   0.541
 5867SOL    HW118500   0.298   2.865   0.490
 5867SOL    HW218501   0.356   2.897   0.639
 5868SOL     OW18502   0.335   0.227   5.358
 5868SOL    HW118503   0.270   0.298   5.383
 5868SOL    HW218504   0.304   0.139   5.395
 5869SOL     OW18505   2.327   5.029   3.713
 5869SOL    HW118506   2.295   5.122   3.697
 5869SOL    HW218507   2.337   4.981   3.626
 5870SOL     OW18508   4.839   5.282   4.869
 5870SOL    HW118509   4.893   5.203   4.839
 5870SOL    HW218510   4.901   5.355   4.899
 5871SOL     OW18511   4.034   4.087   0.016
 5871SOL    HW118512   3.944   4.067   7.002
 5871SOL    HW218513   4.068   4.173   7.006
 5872SOL     OW18514   4.085   5.682   0.034
 5872SOL    HW118515   4.183   5.682   0.053
 5872SOL    HW218516   4.065   5.747   6.986
 5873SOL     OW18517   2.285   2.741   0.322
 5873SOL    HW118518   2.278   2.840   0.309
 5873SOL    HW218519   2.193   2.701   0.320
 5874SOL     OW18520   2.582   3.216   1.210
 5874SOL    HW118521   2.540   3.302   1.239
 5874SOL    HW218522   2.635   3.231   1.127
 5875SOL     OW18523   3.827   1.232   0.481
 5875SOL    HW118524   3.858   1.151   0.431
 5875SOL    HW218525   3.783   1.204   0.566
 5876SOL     OW18526   3.361   3.084   6.665
 5876SOL    HW118527   3.354   3.050   6.571
 5876SOL    HW218528   3.315   3.021   6.727
 5877SOL     OW18529   6.197   6.216   1.586
 5877SOL    HW118530   6.248   6.131   1.580
 5877SOL    HW218531   6.251   6.290   1.546
 5878SOL     OW18532   5.378   5.659   2.850
 5878SOL    HW118533   5.457   5.713   2.878
 5878SOL    HW218534   5.374   5.575   2.904
 5879SOL     OW18535   3.577   3.118   6.071
 5879SOL    HW118536   3.536   3.035   6.109
 5879SOL    HW218537   3.570   3.116   5.971
 5880SOL     OW18538   4.682   3.557   5.575
 5880SOL    HW118539   4.589   3.579   5.544
 5880SOL    HW218540   4.726   3.497   5.508
 5881SOL     OW18541   1.393   6.496   2.511
 5881SOL    HW118542   1.326   6.503   2.585
 5881SOL    HW218543   1.481   6.532   2.542
 5882SOL     OW18544   1.270   6.607   5.786
 5882SOL    HW118545   1.327   6.527   5.767
 5882SOL    HW218546   1.291   6.680   5.721
 5883SOL     OW18547   6.845   3.016   0.600
 5883SOL    HW118548   6.863   2.986   0.506
 5883SOL    HW218549   6.929   3.010   0.654
 5884SOL     OW18550   6.586   1.139   3.774
 5884SOL    HW118551   6.516   1.193   3.821
 5884SOL    HW218552   6.545   1.088   3.699
 5885SOL     OW18553   0.357   5.630   0.775
 5885SOL    HW118554   0.435   5.585   0.730
 5885SOL    HW218555   0.372   5.729   0.777
 5886SOL     OW18556   1.340   3.177   2.927
 5886SOL    HW118557   1.428   3.175   2.973
 5886SOL    HW218558   1.286   3.097   2.955
 5887SOL     OW18559   2.263   1.921   1.624
 5887SOL    HW118560   2.214   1.994   1.576
 5887SOL    HW218561   2.203   1.881   1.693
 5888SOL     OW18562   2.804   0.146   0.605
 5888SOL    HW118563   2.903   0.143   0.622
 5888SOL    HW218564   2.763   0.222   0.656
 5889SOL     OW18565   6.951   1.565   1.164
 5889SOL    HW118566   6.860   1.532   1.137
 5889SOL    HW218567   6.965   1.549   1.261
 5890SOL     OW18568   2.200   6.266   2.667
 5890SOL    HW118569   2.168   6.357   2.693
 5890SOL    HW218570   2.296   6.255   2.692
 5891SOL     OW18571   2.962   3.592   0.330
 5891SOL    HW118572   2.880   3.550   0.368
 5891SOL    HW218573   3.023   3.618   0.405
 5892SOL     OW18574   0.319   3.895   0.640
 5892SOL    HW118575   0.289   3.807   0.603
 5892SOL    HW218576   0.398   3.880   0.700
 5893SOL     OW18577   1.023   5.469   1.934
 5893SOL    HW118578   1.040   5.493   1.839
 5893SOL    HW218579   1.021   5.553   1.989
 5894SOL     OW18580   0.926   5.911   6.046
 5894SOL    HW118581   0.887   5.924   5.955
 5894SOL    HW218582   0.942   5.813   6.061
 5895SOL     OW18583   6.291   3.152   5.033
 5895SOL    HW118584   6.207   3.098   5.035
 5895SOL    HW218585   6.280   3.233   5.090
 5896SOL     OW18586   5.461   1.824   1.730
 5896SOL    HW118587   5.382   1.779   1.689
 5896SOL    HW218588   5.454   1.923   1.717
 5897SOL     OW18589   3.941   1.413   1.779
 5897SOL    HW118590   3.860   1.463   1.810
 5897SOL    HW218591   3.981   1.363   1.856
 5898SOL     OW18592   1.673   1.548   5.515
 5898SOL    HW118593   1.680   1.526   5.417
 5898SOL    HW218594   1.745   1.499   5.565
 5899SOL     OW18595   6.327   5.670   6.344
 5899SOL    HW118596   6.397   5.609   6.306
 5899SOL    HW218597   6.340   5.762   6.308
 5900SOL     OW18598   0.118   5.313   3.200
 5900SOL    HW118599   0.195   5.329   3.262
 5900SOL    HW218600   0.067   5.233   3.231
 5901SOL     OW18601   1.540   0.045   6.689
 5901SOL    HW118602   1.481   6.997   6.659
 5901SOL    HW218603   1.491   0.132   6.683
 5902SOL     OW18604   5.673   3.630   4.656
 5902SOL    HW118605   5.674   3.569   4.577
 5902SOL    HW218606   5.583   3.671   4.666
 5903SOL     OW18607   5.406   2.707   6.748
 5903SOL    HW118608   5.422   2.638   6.819
 5903SOL    HW218609   5.493   2.734   6.708
 5904SOL     OW18610   1.417   5.238   1.792
 5904SOL    HW118611   1.514   5.228   1.768
 5904SOL    HW218612   1.374   5.148   1.794
 5905SOL     OW18613   5.569   1.034   3.717
 5905SOL    HW118614   5.617   1.121   3.703
 5905SOL    HW218615   5.471   1.051   3.719
 5906SOL     OW18616   5.548   1.205   5.337
 5906SOL    HW118617   5.639   1.198   5.297
 5906SOL    HW218618   5.512   1.113   5.355
 5907SOL     OW18619   1.598   1.125   0.405
 5907SOL    HW118620   1.546   1.066   0.343
 5907SOL    HW218621   1.674   1.166   0.356
 5908SOL     OW18622   4.113   3.240   0.002
 5908SOL    HW118623   4.053   3.315   7.000
 5908SOL    HW218624   4.177   3.220   6.954
 5909SOL     OW18625   0.343   4.603   5.621
 5909SOL    HW118626   0.327   4.686   5.568
 5909SOL    HW218627   0.329   4.523   5.563
 5910SOL     OW18628   1.768   3.841   1.721
 5910SOL    HW118629   1.741   3.930   1.684
 5910SOL    HW218630   1.856   3.814   1.681
 5911SOL     OW18631   6.708   5.216   6.279
 5911SOL    HW118632   6.617   5.196   6.316
 5911SOL    HW218633   6.763   5.263   6.349
 5912SOL     OW18634   6.086   3.170   6.878
 5912SOL    HW118635   6.027   3.154   6.799
 5912SOL    HW218636   6.039   3.144   6.962
 5913SOL     OW18637   2.235   2.629   5.456
 5913SOL    HW118638   2.259   2.688   5.533
 5913SOL    HW218639   2.290   2.655   5.377
 5914SOL     OW18640   2.460   5.723   0.429
 5914SOL    HW118641   2.487   5.799   0.370
 5914SOL    HW218642   2.484   5.744   0.524
 5915SOL     OW18643   5.679   2.813   2.820
 5915SOL    HW118644   5.771   2.823   2.783
 5915SOL    HW218645   5.627   2.749   2.764
 5916SOL     OW18646   4.311   0.055   5.865
 5916SOL    HW118647   4.312   0.135   5.805
 5916SOL    HW218648   4.255   7.009   5.824
 5917SOL     OW18649   3.480   2.914   3.244
 5917SOL    HW118650   3.481   2.884   3.339
 5917SOL    HW218651   3.387   2.938   3.217
 5918SOL     OW18652   1.483   3.523   4.182
 5918SOL    HW118653   1.426   3.590   4.134
 5918SOL    HW218654   1.566   3.505   4.128
 5919SOL     OW18655   3.018   2.523   0.627
 5919SOL    HW118656   3.046   2.547   0.534
 5919SOL    HW218657   3.074   2.573   0.693
 5920SOL     OW18658   2.993   6.775   7.024
 5920SOL    HW118659   3.008   6.736   0.089
 5920SOL    HW218660   3.081   6.794   6.981
 5921SOL     OW18661   3.834   5.089   5.928
 5921SOL    HW118662   3.923   5.125   5.900
 5921SOL    HW218663   3.763   5.127   5.869
 5922SOL     OW18664   6.498   4.775   3.164
 5922SOL    HW118665   6.514   4.678   3.144
 5922SOL    HW218666   6.566   4.806   3.231
 5923SOL     OW18667   6.396   0.332   3.645
 5923SOL    HW118668   6.420   0.261   3.579
 5923SOL    HW218669   6.439   0.313   3.732
 5924SOL     OW18670   5.214   2.656   4.846
 5924SOL    HW118671   5.167   2.569   4.833
 5924SOL    HW218672   5.147   2.731   4.847
 5925SOL     OW18673   5.324   5.890   2.348
 5925SOL    HW118674   5.377   5.847   2.275
 5925SOL    HW218675   5.229   5.857   2.345
 5926SOL     OW18676   3.741   5.324   1.619
 5926SOL    HW118677   3.721   5.227   1.606
 5926SOL    HW218678   3.724   5.349   1.714
 5927SOL     OW18679   2.621   6.065   1.568
 5927SOL    HW118680   2.613   6.130   1.644
 5927SOL    HW218681   2.716   6.058   1.539
 5928SOL     OW18682   1.704   0.521   2.143
 5928SOL    HW118683   1.661   0.542   2.231
 5928SOL    HW218684   1.787   0.575   2.133
 5929SOL     OW18685   0.933   6.666   5.626
 5929SOL    HW118686   0.971   6.701   5.540
 5929SOL    HW218687   0.968   6.574   5.643
 5930SOL     OW18688   6.102   1.411   4.139
 5930SOL    HW118689   6.141   1.409   4.047
 5930SOL    HW218690   6.137   1.490   4.189
 5931SOL     OW18691   6.080   5.286   1.872
 5931SOL    HW118692   5.986   5.253   1.884
 5931SOL    HW218693   6.142   5.231   1.928
 5932SOL     OW18694   2.312   6.461   0.624
 5932SOL    HW118695   2.396   6.478   0.573
 5932SOL    HW218696   2.300   6.532   0.693
 5933SOL     OW18697   0.375   3.880   2.175
 5933SOL    HW118698   0.451   3.862   2.112
 5933SOL    HW218699   0.331   3.794   2.200
 5934SOL     OW18700   3.726   3.506   3.138
 5934SOL    HW118701   3.755   3.412   3.117
 5934SOL    HW218702   3.690   3.510   3.231
 5935SOL     OW18703   3.411   4.119   4.673
 5935SOL    HW118704   3.336   4.063   4.708
 5935SOL    HW218705   3.484   4.124   4.741
 5936SOL     OW18706   4.780   4.337   6.610
 5936SOL    HW118707   4.695   4.286   6.603
 5936SOL    HW218708   4.792   4.395   6.529
 5937SOL     OW18709   0.732   3.872   1.404
 5937SOL    HW118710   0.785   3.954   1.385
 5937SOL    HW218711   0.708   3.827   1.318
 5938SOL     OW18712   1.867   4.671   3.493
 5938SOL    HW118713   1.883   4.610   3.570
 5938SOL    HW218714   1.771   4.699   3.491
 5939SOL     OW18715   3.376   0.889   3.352
 5939SOL    HW118716   3.459   0.925   3.310
 5939SOL    HW218717   3.361   0.934   3.440
 5940SOL     OW18718   3.605   6.563   2.387
 5940SOL    HW118719   3.525   6.518   2.346
 5940SOL    HW218720   3.612   6.656   2.352
 5941SOL     OW18721   6.162   4.874   1.880
 5941SOL    HW118722   6.136   4.893   1.975
 5941SOL    HW218723   6.251   4.827   1.879
 5942SOL     OW18724   4.019   3.063   6.268
 5942SOL    HW118725   3.979   2.990   6.324
 5942SOL    HW218726   4.070   3.023   6.192
 5943SOL     OW18727   2.065   5.600   0.651
 5943SOL    HW118728   2.005   5.595   0.730
 5943SOL    HW218729   2.047   5.523   0.590
 5944SOL     OW18730   4.885   1.171   2.360
 5944SOL    HW118731   4.891   1.092   2.420
 5944SOL    HW218732   4.804   1.224   2.383
 5945SOL     OW18733   6.608   4.975   5.066
 5945SOL    HW118734   6.702   4.939   5.061
 5945SOL    HW218735   6.579   4.977   5.162
 5946SOL     OW18736   3.343   4.170   5.497
 5946SOL    HW118737   3.333   4.105   5.421
 5946SOL    HW218738   3.370   4.120   5.579
 5947SOL     OW18739   4.220   3.434   1.807
 5947SOL    HW118740   4.239   3.388   1.720
 5947SOL    HW218741   4.151   3.383   1.858
 5948SOL     OW18742   3.682   4.884   2.966
 5948SOL    HW118743   3.781   4.880   2.953
 5948SOL    HW218744   3.661   4.894   3.064
 5949SOL     OW18745   3.853   4.814   1.204
 5949SOL    HW118746   3.823   4.762   1.123
 5949SOL    HW218747   3.829   4.910   1.192
 5950SOL     OW18748   6.080   2.202   4.479
 5950SOL    HW118749   6.092   2.250   4.392
 5950SOL    HW218750   6.003   2.242   4.529
 5951SOL     OW18751   1.271   6.457   4.302
 5951SOL    HW118752   1.212   6.415   4.372
 5951SOL    HW218753   1.237   6.433   4.211
 5952SOL     OW18754   6.459   5.713   3.902
 5952SOL    HW118755   6.412   5.632   3.868
 5952SOL    HW218756   6.510   5.756   3.828
 5953SOL     OW18757   6.983   3.050   5.167
 5953SOL    HW118758   6.993   3.119   5.096
 5953SOL    HW218759   6.899   2.998   5.152
 5954SOL     OW18760   6.842   4.522   5.916
 5954SOL    HW118761   6.931   4.478   5.930
 5954SOL    HW218762   6.847   4.618   5.941
 5955SOL     OW18763   5.632   5.305   1.881
 5955SOL    HW118764   5.680   5.393   1.881
 5955SOL    HW218765   5.589   5.290   1.970
 5956SOL     OW18766   3.680   1.902   6.991
 5956SOL    HW118767   3.666   1.926   6.895
 5956SOL    HW218768   3.748   1.830   6.998
 5957SOL     OW18769   5.324   6.542   6.341
 5957SOL    HW118770   5.376   6.469   6.296
 5957SOL    HW218771   5.372   6.571   6.424
 5958SOL     OW18772   6.644   6.305   2.237
 5958SOL    HW118773   6.738   6.320   2.206
 5958SOL    HW218774   6.587   6.384   2.213
 5959SOL     OW18775   3.147   2.072   5.569
 5959SOL    HW118776   3.116   2.143   5.632
 5959SOL    HW218777   3.161   2.112   5.479
 5960SOL     OW18778   2.810   0.113   3.977
 5960SOL    HW118779   2.786   0.146   3.885
 5960SOL    HW218780   2.761   0.168   4.045
 5961SOL     OW18781   3.534   0.955   4.875
 5961SOL    HW118782   3.476   0.886   4.832
 5961SOL    HW218783   3.547   1.032   4.813
 5962SOL     OW18784   5.091   5.556   2.798
 5962SOL    HW118785   5.159   5.489   2.826
 5962SOL    HW218786   5.006   5.540   2.847
 5963SOL     OW18787   4.004   3.547   3.089
 5963SOL    HW118788   3.904   3.546   3.087
 5963SOL    HW218789   4.035   3.525   3.182
 5964SOL     OW18790   6.854   5.357   6.907
 5964SOL    HW118791   6.784   5.330   6.973
 5964SOL    HW218792   6.820   5.436   6.854
 5965SOL     OW18793   1.513   2.328   6.465
 5965SOL    HW118794   1.519   2.253   6.531
 5965SOL    HW218795   1.522   2.415   6.513
 5966SOL     OW18796   2.878   5.609   4.872
 5966SOL    HW118797   2.925   5.540   4.818
 5966SOL    HW218798   2.929   5.627   4.956
 5967SOL     OW18799   4.786   6.416   2.629
 5967SOL    HW118800   4.768   6.502   2.676
 5967SOL    HW218801   4.801   6.433   2.531
 5968SOL     OW18802   6.659   2.012   2.921
 5968SOL    HW118803   6.681   1.955   2.842
 5968SOL    HW218804   6.577   2.065   2.901
 5969SOL     OW18805   6.080   3.112   4.355
 5969SOL    HW118806   6.041   3.164   4.431
 5969SOL    HW218807   6.061   3.158   4.269
 5970SOL     OW18808   1.061   3.826   2.801
 5970SOL    HW118809   1.049   3.841   2.900
 5970SOL    HW218810   1.105   3.906   2.761
 5971SOL     OW18811   2.016   0.050   3.111
 5971SOL    HW118812   2.102   0.099   3.095
 5971SOL    HW218813   1.978   0.079   3.198
 5972SOL     OW18814   4.738   6.389   0.716
 5972SOL    HW118815   4.745   6.476   0.667
 5972SOL    HW218816   4.663   6.394   0.781
 5973SOL     OW18817   1.878   4.774   2.686
 5973SOL    HW118818   1.960   4.811   2.644
 5973SOL    HW218819   1.852   4.689   2.639
 5974SOL     OW18820   6.741   4.060   6.131
 5974SOL    HW118821   6.738   4.145   6.079
 5974SOL    HW218822   6.660   4.055   6.190
 5975SOL     OW18823   3.875   2.318   0.957
 5975SOL    HW118824   3.786   2.293   0.918
 5975SOL    HW218825   3.866   2.328   1.056
 5976SOL     OW18826   3.257   2.972   4.633
 5976SOL    HW118827   3.350   3.005   4.651
 5976SOL    HW218828   3.209   2.957   4.719
 5977SOL     OW18829   1.927   4.208   2.237
 5977SOL    HW118830   1.860   4.262   2.187
 5977SOL    HW218831   1.973   4.266   2.305
 5978SOL     OW18832   5.352   3.888   2.662
 5978SOL    HW118833   5.375   3.797   2.628
 5978SOL    HW218834   5.263   3.885   2.708
 5979SOL     OW18835   6.118   0.303   3.557
 5979SOL    HW118836   6.047   0.373   3.568
 5979SOL    HW218837   6.205   0.347   3.533
 5980SOL     OW18838   4.660   4.566   0.145
 5980SOL    HW118839   4.752   4.528   0.142
 5980SOL    HW218840   4.647   4.629   0.069
 5981SOL     OW18841   6.427   1.617   1.891
 5981SOL    HW118842   6.494   1.618   1.816
 5981SOL    HW218843   6.406   1.523   1.916
 5982SOL     OW18844   6.295   2.146   6.520
 5982SOL    HW118845   6.339   2.140   6.430
 5982SOL    HW218846   6.278   2.053   6.555
 5983SOL     OW18847   2.087   2.224   4.118
 5983SOL    HW118848   2.164   2.201   4.177
 5983SOL    HW218849   2.085   2.160   4.040
 5984SOL     OW18850   0.042   6.263   4.468
 5984SOL    HW118851   7.017   6.315   4.537
 5984SOL    HW218852   0.088   6.186   4.512
 5985SOL     OW18853   5.554   2.129   3.484
 5985SOL    HW118854   5.535   2.035   3.510
 5985SOL    HW218855   5.653   2.142   3.476
 5986SOL     OW18856   3.069   3.096   3.423
 5986SOL    HW118857   3.076   3.090   3.523
 5986SOL    HW218858   3.024   3.183   3.399
 5987SOL     OW18859   4.515   0.131   5.439
 5987SOL    HW118860   4.460   0.181   5.372
 5987SOL    HW218861   4.533   0.190   5.517
 5988SOL     OW18862   4.298   6.963   4.692
 5988SOL    HW118863   4.218   6.920   4.734
 5988SOL    HW218864   4.378   6.948   4.752
 5989SOL     OW18865   2.222   0.259   6.568
 5989SOL    HW118866   2.250   0.273   6.663
 5989SOL    HW218867   2.297   0.285   6.507
 5990SOL     OW18868   3.568   4.514   0.519
 5990SOL    HW118869   3.492   4.536   0.459
 5990SOL    HW218870   3.641   4.470   0.466
 5991SOL     OW18871   3.912   5.162   5.123
 5991SOL    HW118872   3.825   5.167   5.172
 5991SOL    HW218873   3.895   5.139   5.027
 5992SOL     OW18874   3.700   1.352   3.984
 5992SOL    HW118875   3.672   1.359   4.080
 5992SOL    HW218876   3.751   1.434   3.958
 5993SOL     OW18877   2.748   6.073   5.523
 5993SOL    HW118878   2.832   6.025   5.547
 5993SOL    HW218879   2.686   6.072   5.601
 5994SOL     OW18880   6.121   2.221   2.013
 5994SOL    HW118881   6.061   2.299   1.995
 5994SOL    HW218882   6.167   2.195   1.928
 5995SOL     OW18883   6.877   5.202   1.010
 5995SOL    HW118884   6.816   5.255   1.069
 5995SOL    HW218885   6.971   5.212   1.043
 5996SOL     OW18886   0.306   5.864   6.862
 5996SOL    HW118887   0.260   5.945   6.827
 5996SOL    HW218888   0.308   5.866   6.962
 5997SOL     OW18889   0.519   0.227   1.762
 5997SOL    HW118890   0.465   0.228   1.847
 5997SOL    HW218891   0.615   0.209   1.785
 5998SOL     OW18892   5.085   2.126   2.367
 5998SOL    HW118893   5.137   2.042   2.382
 5998SOL    HW218894   4.987   2.106   2.370
 5999SOL     OW18895   1.356   1.743   3.424
 5999SOL    HW118896   1.440   1.770   3.379
 5999SOL    HW218897   1.296   1.822   3.433
 6000SOL     OW18898   4.167   5.173   2.349
 6000SOL    HW118899   4.223   5.208   2.424
 6000SOL    HW218900   4.079   5.141   2.385
 6001SOL     OW18901   6.898   3.499   6.873
 6001SOL    HW118902   6.987   3.516   6.830
 6001SOL    HW218903   6.831   3.476   6.802
 6002SOL     OW18904   0.729   0.081   1.370
 6002SOL    HW118905   0.745   7.022   1.421
 6002SOL    HW218906   0.635   0.113   1.386
 6003SOL     OW18907   5.652   3.796   4.993
 6003SOL    HW118908   5.618   3.704   4.976
 6003SOL    HW218909   5.669   3.807   5.091
 6004SOL     OW18910   0.535   3.715   3.160
 6004SOL    HW118911   0.598   3.773   3.108
 6004SOL    HW218912   0.496   3.767   3.236
 6005SOL     OW18913   4.128   5.338   4.034
 6005SOL    HW118914   4.130   5.248   4.078
 6005SOL    HW218915   4.199   5.396   4.074
 6006SOL     OW18916   2.943   6.857   6.513
 6006SOL    HW118917   2.886   6.779   6.489
 6006SOL    HW218918   2.887   6.930   6.551
 6007SOL     OW18919   5.306   2.891   3.510
 6007SOL    HW118920   5.348   2.801   3.504
 6007SOL    HW218921   5.323   2.942   3.425
 6008SOL     OW18922   3.315   5.243   5.875
 6008SOL    HW118923   3.303   5.315   5.807
 6008SOL    HW218924   3.339   5.157   5.830
 6009SOL     OW18925   2.957   1.916   4.696
 6009SOL    HW118926   2.888   1.968   4.646
 6009SOL    HW218927   3.020   1.979   4.740
 6010SOL     OW18928   2.164   4.245   2.538
 6010SOL    HW118929   2.165   4.223   2.440
 6010SOL    HW218930   2.156   4.161   2.591
 6011SOL     OW18931   5.181   2.697   1.738
 6011SOL    HW118932   5.206   2.604   1.764
 6011SOL    HW218933   5.159   2.700   1.641
 6012SOL     OW18934   6.986   2.293   6.775
 6012SOL    HW118935   0.037   2.353   6.800
 6012SOL    HW218936   7.020   2.215   6.723
 6013SOL     OW18937   6.476   1.027   1.898
 6013SOL    HW118938   6.557   1.070   1.938
 6013SOL    HW218939   6.394   1.070   1.934
 6014SOL     OW18940   6.129   1.627   0.674
 6014SOL    HW118941   6.146   1.529   0.687
 6014SOL    HW218942   6.118   1.646   0.576
 6015SOL     OW18943   5.796   2.241   5.021
 6015SOL    HW118944   5.885   2.265   4.983
 6015SOL    HW218945   5.798   2.254   5.121
 6016SOL     OW18946   0.396   0.673   5.544
 6016SOL    HW118947   0.344   0.759   5.536
 6016SOL    HW218948   0.493   0.692   5.529
 6017SOL     OW18949   5.913   5.034   3.535
 6017SOL    HW118950   5.979   5.040   3.610
 6017SOL    HW218951   5.841   4.969   3.558
 6018SOL     OW18952   3.238   2.940   0.337
 6018SOL    HW118953   3.290   2.861   0.370
 6018SOL    HW218954   3.192   2.984   0.414
 6019SOL     OW18955   4.766   1.464   3.581
 6019SOL    HW118956   4.797   1.473   3.675
 6019SOL    HW218957   4.792   1.546   3.529
 6020SOL     OW18958   3.592   0.095   2.471
 6020SOL    HW118959   3.577   0.130   2.378
 6020SOL    HW218960   3.519   0.128   2.530
 6021SOL     OW18961   4.663   0.795   2.859
 6021SOL    HW118962   4.651   0.734   2.938
 6021SOL    HW218963   4.691   0.741   2.779
 6022SOL     OW18964   5.021   1.367   3.142
 6022SOL    HW118965   5.096   1.326   3.091
 6022SOL    HW218966   4.940   1.308   3.137
 6023SOL     OW18967   6.467   0.706   3.201
 6023SOL    HW118968   6.469   0.802   3.176
 6023SOL    HW218969   6.558   0.679   3.235
 6024SOL     OW18970   0.454   4.778   2.567
 6024SOL    HW118971   0.450   4.727   2.653
 6024SOL    HW218972   0.474   4.874   2.586
 6025SOL     OW18973   4.305   0.725   2.074
 6025SOL    HW118974   4.207   0.745   2.076
 6025SOL    HW218975   4.347   0.757   2.159
 6026SOL     OW18976   0.323   5.083   5.360
 6026SOL    HW118977   0.301   5.181   5.356
 6026SOL    HW218978   0.402   5.064   5.301
 6027SOL     OW18979   1.906   4.254   6.331
 6027SOL    HW118980   1.873   4.169   6.372
 6027SOL    HW218981   1.903   4.246   6.231
 6028SOL     OW18982   1.666   4.502   0.466
 6028SOL    HW118983   1.606   4.436   0.511
 6028SOL    HW218984   1.675   4.584   0.523
 6029SOL     OW18985   1.931   6.143   0.637
 6029SOL    HW118986   1.933   6.153   0.537
 6029SOL    HW218987   2.019   6.172   0.674
 6030SOL     OW18988   2.586   1.023   2.257
 6030SOL    HW118989   2.532   0.966   2.194
 6030SOL    HW218990   2.550   1.015   2.349
 6031SOL     OW18991   5.173   6.318   6.017
 6031SOL    HW118992   5.078   6.348   6.021
 6031SOL    HW218993   5.200   6.305   5.922
 6032SOL     OW18994   1.368   3.800   2.883
 6032SOL    HW118995   1.440   3.755   2.831
 6032SOL    HW218996   1.288   3.813   2.824
 6033SOL     OW18997   2.244   2.003   3.252
 6033SOL    HW118998   2.203   2.089   3.219
 6033SOL    HW218999   2.321   2.024   3.312
 6034SOL     OW19000   2.567   4.747   4.565
 6034SOL    HW119001   2.597   4.727   4.658
 6034SOL    HW219002   2.499   4.680   4.537
 6035SOL     OW19003   5.124   1.057   4.161
 6035SOL    HW119004   5.168   0.981   4.113
 6035SOL    HW219005   5.167   1.068   4.251
 6036SOL     OW19006   0.215   6.898   4.841
 6036SOL    HW119007   0.116   6.889   4.835
 6036SOL    HW219008   0.240   6.994   4.839
 6037SOL     OW19009   4.754   4.495   5.693
 6037SOL    HW119010   4.686   4.443   5.745
 6037SOL    HW219011   4.797   4.563   5.752
 6038SOL     OW19012   0.192   3.320   6.094
 6038SOL    HW119013   0.221   3.397   6.038
 6038SOL    HW219014   0.136   3.353   6.170
 6039SOL     OW19015   3.348   3.679   2.385
 6039SOL    HW119016   3.321   3.728   2.302
 6039SOL    HW219017   3.440   3.642   2.373
 6040SOL     OW19018   0.990   1.625   6.002
 6040SOL    HW119019   1.008   1.570   6.084
 6040SOL    HW219020   1.053   1.598   5.929
 6041SOL     OW19021   0.955   1.907   6.998
 6041SOL    HW119022   0.950   1.826   0.031
 6041SOL    HW219023   0.872   1.961   7.009
 6042SOL     OW19024   5.459   5.159   2.414
 6042SOL    HW119025   5.468   5.066   2.377
 6042SOL    HW219026   5.539   5.213   2.389
 6043SOL     OW19027   1.372   4.864   4.686
 6043SOL    HW119028   1.368   4.954   4.731
 6043SOL    HW219029   1.437   4.806   4.735
 6044SOL     OW19030   0.272   1.490   0.983
 6044SOL    HW119031   0.306   1.583   0.995
 6044SOL    HW219032   0.294   1.436   1.064
 6045SOL     OW19033   5.752   5.749   0.558
 6045SOL    HW119034   5.691   5.748   0.638
 6045SOL    HW219035   5.698   5.760   0.475
 6046SOL     OW19036   2.851   2.321   0.001
 6046SOL    HW119037   2.883   2.355   6.938
 6046SOL    HW219038   2.891   2.231   0.018
 6047SOL     OW19039   6.255   0.620   4.219
 6047SOL    HW119040   6.161   0.651   4.207
 6047SOL    HW219041   6.255   0.521   4.235
 6048SOL     OW19042   3.785   0.817   3.803
 6048SOL    HW119043   3.795   0.885   3.730
 6048SOL    HW219044   3.874   0.776   3.823
 6049SOL     OW19045   4.458   3.320   6.683
 6049SOL    HW119046   4.489   3.415   6.681
 6049SOL    HW219047   4.489   3.273   6.600
 6050SOL     OW19048   3.961   4.324   5.464
 6050SOL    HW119049   4.050   4.296   5.429
 6050SOL    HW219050   3.890   4.263   5.427
 6051SOL     OW19051   2.034   2.635   2.400
 6051SOL    HW119052   1.965   2.630   2.327
 6051SOL    HW219053   2.124   2.620   2.360
 6052SOL     OW19054   6.640   0.926   0.088
 6052SOL    HW119055   6.702   0.864   0.039
 6052SOL    HW219056   6.546   0.906   0.061
 6053SOL     OW19057   3.668   0.487   6.961
 6053SOL    HW119058   3.586   0.539   6.934
 6053SOL    HW219059   3.723   0.467   6.881
 6054SOL     OW19060   1.750   4.792   1.306
 6054SOL    HW119061   1.696   4.787   1.222
 6054SOL    HW219062   1.724   4.716   1.366
 6055SOL     OW19063   5.128   0.954   5.460
 6055SOL    HW119064   5.068   1.034   5.460
 6055SOL    HW219065   5.131   0.914   5.369
 6056SOL     OW19066   4.360   1.267   5.967
 6056SOL    HW119067   4.459   1.275   5.976
 6056SOL    HW219068   4.334   1.170   5.969
 6057SOL     OW19069   4.553   0.821   5.231
 6057SOL    HW119070   4.529   0.735   5.186
 6057SOL    HW219071   4.478   0.887   5.219
 6058SOL     OW19072   5.275   3.068   4.394
 6058SOL    HW119073   5.291   2.979   4.352
 6058SOL    HW219074   5.177   3.081   4.408
 6059SOL     OW19075   4.753   5.217   6.119
 6059SOL    HW119076   4.775   5.261   6.032
 6059SOL    HW219077   4.828   5.157   6.146
 6060SOL     OW19078   3.946   4.382   5.765
 6060SOL    HW119079   3.958   4.364   5.667
 6060SOL    HW219080   4.016   4.447   5.795
 6061SOL     OW19081   3.482   2.214   6.760
 6061SOL    HW119082   3.422   2.283   6.718
 6061SOL    HW219083   3.446   2.190   6.850
 6062SOL     OW19084   2.326   0.991   5.015
 6062SOL    HW119085   2.403   0.957   5.068
 6062SOL    HW219086   2.354   1.070   4.960
 6063SOL     OW19087   4.443   0.447   6.777
 6063SOL    HW119088   4.402   0.493   6.855
 6063SOL    HW219089   4.406   0.355   6.769
 6064SOL     OW19090   1.596   5.725   2.930
 6064SOL    HW119091   1.660   5.778   2.986
 6064SOL    HW219092   1.612   5.745   2.833
 6065SOL     OW19093   5.984   7.013   0.714
 6065SOL    HW119094   6.014   7.019   0.619
 6065SOL    HW219095   5.986   6.917   0.743
 6066SOL     OW19096   4.211   2.069   1.163
 6066SOL    HW119097   4.309   2.046   1.158
 6066SOL    HW219098   4.192   2.148   1.105
 6067SOL     OW19099   6.440   1.569   6.173
 6067SOL    HW119100   6.492   1.495   6.130
 6067SOL    HW219101   6.489   1.601   6.254
 6068SOL     OW19102   4.786   2.898   4.727
 6068SOL    HW119103   4.836   2.811   4.736
 6068SOL    HW219104   4.688   2.880   4.718
 6069SOL     OW19105   0.063   3.928   5.507
 6069SOL    HW119106   0.012   4.003   5.465
 6069SOL    HW219107   0.074   3.853   5.441
 6070SOL     OW19108   4.248   1.809   6.418
 6070SOL    HW119109   4.293   1.885   6.465
 6070SOL    HW219110   4.150   1.827   6.411
 6071SOL     OW19111   4.227   5.931   5.819
 6071SOL    HW119112   4.323   5.960   5.819
 6071SOL    HW219113   4.184   5.959   5.733
 6072SOL     OW19114   1.195   2.077   1.661
 6072SOL    HW119115   1.219   2.143   1.733
 6072SOL    HW219116   1.183   2.124   1.574
 6073SOL     OW19117   6.268   3.247   0.213
 6073SOL    HW119118   6.175   3.283   0.220
 6073SOL    HW219119   6.266   3.158   0.167
 6074SOL     OW19120   0.913   6.920   4.724
 6074SOL    HW119121   0.818   6.904   4.697
 6074SOL    HW219122   0.956   6.833   4.748
 6075SOL     OW19123   6.822   3.398   0.116
 6075SOL    HW119124   6.728   3.365   0.121
 6075SOL    HW219125   6.843   3.426   0.022
 6076SOL     OW19126   2.201   6.645   4.744
 6076SOL    HW119127   2.285   6.601   4.712
 6076SOL    HW219128   2.221   6.741   4.768
 6077SOL     OW19129   5.751   6.278   2.715
 6077SOL    HW119130   5.829   6.269   2.776
 6077SOL    HW219131   5.692   6.352   2.746
 6078SOL     OW19132   3.493   5.210   3.783
 6078SOL    HW119133   3.465   5.253   3.869
 6078SOL    HW219134   3.431   5.238   3.710
 6079SOL     OW19135   2.339   3.285   0.145
 6079SOL    HW119136   2.378   3.283   0.053
 6079SOL    HW219137   2.258   3.226   0.147
 6080SOL     OW19138   6.278   1.705   1.179
 6080SOL    HW119139   6.372   1.740   1.181
 6080SOL    HW219140   6.222   1.766   1.122
 6081SOL     OW19141   6.679   3.391   4.117
 6081SOL    HW119142   6.603   3.441   4.075
 6081SOL    HW219143   6.759   3.398   4.057
 6082SOL     OW19144   3.715   0.236   3.120
 6082SOL    HW119145   3.764   0.303   3.177
 6082SOL    HW219146   3.765   0.222   3.035
 6083SOL     OW19147   1.276   5.401   6.618
 6083SOL    HW119148   1.334   5.327   6.584
 6083SOL    HW219149   1.196   5.411   6.560
 6084SOL     OW19150   6.213   5.389   4.650
 6084SOL    HW119151   6.199   5.439   4.565
 6084SOL    HW219152   6.234   5.293   4.629
 6085SOL     OW19153   0.110   4.071   6.946
 6085SOL    HW119154   0.027   4.122   6.925
 6085SOL    HW219155   0.085   3.983   6.986
 6086SOL     OW19156   4.048   1.390   4.157
 6086SOL    HW119157   3.948   1.399   4.163
 6086SOL    HW219158   4.081   1.442   4.078
 6087SOL     OW19159   5.594   6.708   0.123
 6087SOL    HW119160   5.653   6.773   0.172
 6087SOL    HW219161   5.557   6.752   0.041
 6088SOL     OW19162   0.287   6.834   4.555
 6088SOL    HW119163   0.227   6.883   4.491
 6088SOL    HW219164   0.234   6.805   4.635
 6089SOL     OW19165   0.568   3.668   0.942
 6089SOL    HW119166   0.620   3.589   0.909
 6089SOL    HW219167   0.560   3.664   1.041
 6090SOL     OW19168   0.754   6.288   6.068
 6090SOL    HW119169   0.689   6.230   6.117
 6090SOL    HW219170   0.761   6.377   6.114
 6091SOL     OW19171   6.696   1.525   1.810
 6091SOL    HW119172   6.682   1.491   1.903
 6091SOL    HW219173   6.725   1.621   1.814
 6092SOL     OW19174   2.599   0.774   2.617
 6092SOL    HW119175   2.633   0.820   2.699
 6092SOL    HW219176   2.508   0.810   2.593
 6093SOL     OW19177   1.856   3.469   1.241
 6093SOL    HW119178   1.943   3.507   1.209
 6093SOL    HW219179   1.799   3.543   1.279
 6094SOL     OW19180   1.469   1.639   1.112
 6094SOL    HW119181   1.475   1.546   1.078
 6094SOL    HW219182   1.526   1.649   1.194
 6095SOL     OW19183   5.315   3.113   6.924
 6095SOL    HW119184   5.273   3.199   6.896
 6095SOL    HW219185   5.337   3.116   7.022
 6096SOL     OW19186   5.243   1.362   3.929
 6096SOL    HW119187   5.145   1.348   3.935
 6096SOL    HW219188   5.262   1.434   3.862
 6097SOL     OW19189   2.334   0.912   2.675
 6097SOL    HW119190   2.287   0.907   2.763
 6097SOL    HW219191   2.270   0.891   2.601
 6098SOL     OW19192   1.956   2.668   6.318
 6098SOL    HW119193   2.053   2.687   6.306
 6098SOL    HW219194   1.937   2.572   6.297
 6099SOL     OW19195   5.566   5.634   5.072
 6099SOL    HW119196   5.484   5.641   5.129
 6099SOL    HW219197   5.597   5.538   5.071
 6100SOL     OW19198   6.513   3.567   6.288
 6100SOL    HW119199   6.547   3.634   6.222
 6100SOL    HW219200   6.413   3.577   6.296
 6101SOL     OW19201   6.836   2.057   5.645
 6101SOL    HW119202   6.784   2.006   5.714
 6101SOL    HW219203   6.774   2.117   5.595
 6102SOL     OW19204   2.937   0.740   5.000
 6102SOL    HW119205   2.893   0.810   5.057
 6102SOL    HW219206   2.953   0.777   4.909
 6103SOL     OW19207   0.194   0.719   4.031
 6103SOL    HW119208   0.182   0.795   4.095
 6103SOL    HW219209   0.143   0.737   3.948
 6104SOL     OW19210   5.819   2.044   6.951
 6104SOL    HW119211   5.816   1.964   7.012
 6104SOL    HW219212   5.726   2.066   6.921
 6105SOL     OW19213   3.639   5.568   6.137
 6105SOL    HW119214   3.736   5.555   6.117
 6105SOL    HW219215   3.626   5.653   6.188
 6106SOL     OW19216   3.021   4.834   6.370
 6106SOL    HW119217   3.102   4.818   6.313
 6106SOL    HW219218   3.009   4.932   6.384
 6107SOL     OW19219   2.196   4.683   4.805
 6107SOL    HW119220   2.111   4.679   4.858
 6107SOL    HW219221   2.198   4.768   4.752
 6108SOL     OW19222   0.739   2.247   3.984
 6108SOL    HW119223   0.831   2.263   3.947
 6108SOL    HW219224   0.734   2.153   4.018
 6109SOL     OW19225   4.850   2.558   0.407
 6109SOL    HW119226   4.839   2.616   0.487
 6109SOL    HW219227   4.917   2.599   0.344
 6110SOL     OW19228   3.464   2.454   5.846
 6110SOL    HW119229   3.501   2.483   5.934
 6110SOL    HW219230   3.372   2.418   5.859
 6111SOL     OW19231   0.878   4.717   2.989
 6111SOL    HW119232   0.789   4.699   3.029
 6111SOL    HW219233   0.936   4.763   3.056
 6112SOL     OW19234   2.027   1.850   3.201
 6112SOL    HW119235   2.045   1.773   3.140
 6112SOL    HW219236   2.109   1.907   3.207
 6113SOL     OW19237   1.223   0.433   6.006
 6113SOL    HW119238   1.233   0.432   5.906
 6113SOL    HW219239   1.171   0.353   6.035
 6114SOL     OW19240   5.262   5.651   6.986
 6114SOL    HW119241   5.181   5.593   6.990
 6114SOL    HW219242   5.311   5.646   0.047
 6115SOL     OW19243   4.893   5.189   3.007
 6115SOL    HW119244   4.916   5.092   3.015
 6115SOL    HW219245   4.930   5.238   3.086
 6116SOL     OW19246   2.773   1.072   1.606
 6116SOL    HW119247   2.811   0.983   1.581
 6116SOL    HW219248   2.697   1.095   1.546
 6117SOL     OW19249   5.914   6.733   4.390
 6117SOL    HW119250   5.971   6.689   4.321
 6117SOL    HW219251   5.852   6.798   4.345
 6118SOL     OW19252   6.301   1.360   2.733
 6118SOL    HW119253   6.319   1.401   2.822
 6118SOL    HW219254   6.372   1.388   2.669
 6119SOL     OW19255   0.594   4.909   4.891
 6119SOL    HW119256   0.616   4.994   4.844
 6119SOL    HW219257   0.584   4.836   4.824
 6120SOL     OW19258   3.306   0.138   3.932
 6120SOL    HW119259   3.373   0.080   3.885
 6120SOL    HW219260   3.263   0.199   3.866
 6121SOL     OW19261   0.540   2.646   3.543
 6121SOL    HW119262   0.599   2.658   3.623
 6121SOL    HW219263   0.596   2.634   3.461
 6122SOL     OW19264   4.016   6.128   3.230
 6122SOL    HW119265   3.967   6.205   3.191
 6122SOL    HW219266   3.958   6.047   3.230
 6123SOL     OW19267   0.020   0.922   1.516
 6123SOL    HW119268   6.977   0.944   1.447
 6123SOL    HW219269   0.106   0.966   1.492
 6124SOL     OW19270   3.409   0.098   5.314
 6124SOL    HW119271   3.492   0.150   5.332
 6124SOL    HW219272   3.332   0.140   5.363
 6125SOL     OW19273   1.903   6.297   1.650
 6125SOL    HW119274   1.998   6.267   1.662
 6125SOL    HW219275   1.843   6.217   1.644
 6126SOL     OW19276   5.055   4.872   3.986
 6126SOL    HW119277   5.098   4.935   3.922
 6126SOL    HW219278   5.087   4.779   3.969
 6127SOL     OW19279   2.153   6.579   1.425
 6127SOL    HW119280   2.120   6.646   1.492
 6127SOL    HW219281   2.114   6.600   1.335
 6128SOL     OW19282   0.337   3.153   0.422
 6128SOL    HW119283   0.280   3.203   0.487
 6128SOL    HW219284   0.349   3.059   0.453
 6129SOL     OW19285   6.057   3.554   2.749
 6129SOL    HW119286   6.117   3.612   2.692
 6129SOL    HW219287   5.965   3.553   2.709
 6130SOL     OW19288   5.693   2.814   3.446
 6130SOL    HW119289   5.616   2.839   3.387
 6130SOL    HW219290   5.708   2.716   3.441
 6131SOL     OW19291   0.041   1.823   6.053
 6131SOL    HW119292   0.061   1.920   6.038
 6131SOL    HW219293   0.089   1.792   6.135
 6132SOL     OW19294   3.753   2.163   0.121
 6132SOL    HW119295   3.737   2.071   0.084
 6132SOL    HW219296   3.808   2.216   0.056
 6133SOL     OW19297   0.670   3.389   1.479
 6133SOL    HW119298   0.573   3.399   1.455
 6133SOL    HW219299   0.703   3.473   1.521
 6134SOL     OW19300   3.365   3.423   6.772
 6134SOL    HW119301   3.328   3.438   6.680
 6134SOL    HW219302   3.309   3.472   6.839
 6135SOL     OW19303   6.303   6.881   0.971
 6135SOL    HW119304   6.280   6.970   1.009
 6135SOL    HW219305   6.284   6.880   0.872
 6136SOL     OW19306   1.211   1.598   2.456
 6136SOL    HW119307   1.295   1.555   2.488
 6136SOL    HW219308   1.220   1.620   2.359
 6137SOL     OW19309   3.262   6.934   5.571
 6137SOL    HW119310   3.242   6.857   5.632
 6137SOL    HW219311   3.340   6.911   5.513
 6138SOL     OW19312   3.909   6.453   2.384
 6138SOL    HW119313   3.841   6.525   2.397
 6138SOL    HW219314   4.000   6.488   2.407
 6139SOL     OW19315   1.626   4.065   5.142
 6139SOL    HW119316   1.582   4.110   5.219
 6139SOL    HW219317   1.699   4.005   5.175
 6140SOL     OW19318   0.915   0.001   1.806
 6140SOL    HW119319   0.948   6.961   1.873
 6140SOL    HW219320   0.991   0.030   1.748
 6141SOL     OW19321   6.998   5.642   5.675
 6141SOL    HW119322   0.072   5.654   5.681
 6141SOL    HW219323   6.961   5.707   5.609
 6142SOL     OW19324   6.779   3.881   0.859
 6142SOL    HW119325   6.770   3.971   0.901
 6142SOL    HW219326   6.727   3.814   0.912
 6143SOL     OW19327   6.200   5.243   6.119
 6143SOL    HW119328   6.232   5.229   6.026
 6143SOL    HW219329   6.158   5.333   6.127
 6144SOL     OW19330   0.148   3.890   3.264
 6144SOL    HW119331   0.132   3.815   3.200
 6144SOL    HW219332   0.221   3.949   3.228
 6145SOL     OW19333   5.126   5.026   3.360
 6145SOL    HW119334   5.200   5.025   3.427
 6145SOL    HW219335   5.049   5.079   3.397
 6146SOL     OW19336   5.495   1.593   3.332
 6146SOL    HW119337   5.441   1.601   3.416
 6146SOL    HW219338   5.481   1.503   3.291
 6147SOL     OW19339   2.170   4.502   3.008
 6147SOL    HW119340   2.259   4.549   3.012
 6147SOL    HW219341   2.165   4.449   2.924
 6148SOL     OW19342   6.085   6.177   4.205
 6148SOL    HW119343   6.115   6.264   4.166
 6148SOL    HW219344   6.107   6.175   4.302
 6149SOL     OW19345   3.257   5.028   3.009
 6149SOL    HW119346   3.165   5.022   2.972
 6149SOL    HW219347   3.268   4.961   3.083
 6150SOL     OW19348   4.749   5.767   6.731
 6150SOL    HW119349   4.742   5.830   6.653
 6150SOL    HW219350   4.707   5.680   6.707
 6151SOL     OW19351   5.171   2.401   5.458
 6151SOL    HW119352   5.184   2.474   5.391
 6151SOL    HW219353   5.199   2.314   5.418
 6152SOL     OW19354   5.737   4.784   6.645
 6152SOL    HW119355   5.778   4.773   6.736
 6152SOL    HW219356   5.693   4.698   6.618
 6153SOL     OW19357   4.610   3.948   1.430
 6153SOL    HW119358   4.579   4.039   1.403
 6153SOL    HW219359   4.558   3.879   1.380
 6154SOL     OW19360   6.158   1.979   2.119
 6154SOL    HW119361   6.164   2.077   2.103
 6154SOL    HW219362   6.210   1.955   2.201
 6155SOL     OW19363   0.184   3.369   4.286
 6155SOL    HW119364   0.146   3.379   4.194
 6155SOL    HW219365   0.268   3.422   4.294
 6156SOL     OW19366   5.452   6.660   3.177
 6156SOL    HW119367   5.395   6.673   3.097
 6156SOL    HW219368   5.395   6.663   3.260
 6157SOL     OW19369   1.973   1.846   3.743
 6157SOL    HW119370   1.970   1.889   3.653
 6157SOL    HW219371   1.947   1.750   3.736
 6158SOL     OW19372   4.241   0.582   6.960
 6158SOL    HW119373   4.237   0.681   6.970
 6158SOL    HW219374   4.231   0.538   0.023
 6159SOL     OW19375   5.342   2.090   7.025
 6159SOL    HW119376   5.312   2.040   0.079
 6159SOL    HW219377   5.281   2.167   7.008
 6160SOL     OW19378   5.241   5.623   0.944
 6160SOL    HW119379   5.151   5.582   0.959
 6160SOL    HW219380   5.231   5.711   0.898
 6161SOL     OW19381   5.695   0.803   5.965
 6161SOL    HW119382   5.603   0.785   6.000
 6161SOL    HW219383   5.762   0.784   6.037
 6162SOL     OW19384   1.342   5.381   4.079
 6162SOL    HW119385   1.332   5.281   4.074
 6162SOL    HW219386   1.436   5.404   4.104
 6163SOL     OW19387   5.856   3.884   1.018
 6163SOL    HW119388   5.874   3.794   1.057
 6163SOL    HW219389   5.823   3.874   0.924
 6164SOL     OW19390   2.501   1.576   1.211
 6164SOL    HW119391   2.598   1.556   1.198
 6164SOL    HW219392   2.489   1.674   1.225
 6165SOL     OW19393   4.148   6.008   0.228
 6165SOL    HW119394   4.055   5.971   0.241
 6165SOL    HW219395   4.215   5.937   0.251
 6166SOL     OW19396   3.200   2.000   6.008
 6166SOL    HW119397   3.208   1.932   6.081
 6166SOL    HW219398   3.135   2.071   6.036
 6167SOL     OW19399   0.115   4.554   2.607
 6167SOL    HW119400   0.121   4.572   2.509
 6167SOL    HW219401   0.081   4.461   2.621
 6168SOL     OW19402   0.293   3.734   1.597
 6168SOL    HW119403   0.340   3.815   1.562
 6168SOL    HW219404   0.294   3.735   1.697
 6169SOL     OW19405   2.393   4.310   2.207
 6169SOL    HW119406   2.411   4.223   2.252
 6169SOL    HW219407   2.372   4.295   2.111
 6170SOL     OW19408   0.012   2.984   5.428
 6170SOL    HW119409   0.050   2.892   5.431
 6170SOL    HW219410   7.022   3.011   5.333
 6171SOL     OW19411   0.907   0.611   0.612
 6171SOL    HW119412   0.836   0.647   0.672
 6171SOL    HW219413   0.993   0.660   0.630
 6172SOL     OW19414   0.922   2.500   3.159
 6172SOL    HW119415   0.878   2.418   3.122
 6172SOL    HW219416   0.975   2.545   3.087
 6173SOL     OW19417   6.870   6.853   2.712
 6173SOL    HW119418   6.897   6.817   2.622
 6173SOL    HW219419   6.925   6.934   2.733
 6174SOL     OW19420   5.268   4.685   2.680
 6174SOL    HW119421   5.307   4.704   2.770
 6174SOL    HW219422   5.218   4.598   2.682
 6175SOL     OW19423   2.675   1.162   5.047
 6175SOL    HW119424   2.640   1.097   5.115
 6175SOL    HW219425   2.739   1.225   5.091
 6176SOL     OW19426   4.169   4.242   5.315
 6176SOL    HW119427   4.195   4.322   5.261
 6176SOL    HW219428   4.251   4.190   5.340
 6177SOL     OW19429   5.434   1.147   1.741
 6177SOL    HW119430   5.494   1.160   1.661
 6177SOL    HW219431   5.345   1.189   1.722
 6178SOL     OW19432   5.006   3.903   2.383
 6178SOL    HW119433   5.104   3.886   2.377
 6178SOL    HW219434   4.956   3.825   2.345
 6179SOL     OW19435   6.556   5.051   1.908
 6179SOL    HW119436   6.497   4.979   1.944
 6179SOL    HW219437   6.515   5.140   1.927
 6180SOL     OW19438   3.074   4.952   0.680
 6180SOL    HW119439   3.085   4.899   0.596
 6180SOL    HW219440   3.108   4.898   0.757
 6181SOL     OW19441   4.701   5.147   6.561
 6181SOL    HW119442   4.618   5.138   6.615
 6181SOL    HW219443   4.684   5.206   6.482
 6182SOL     OW19444   3.068   3.297   0.211
 6182SOL    HW119445   3.016   3.363   0.265
 6182SOL    HW219446   3.012   3.217   0.193
 6183SOL     OW19447   1.408   2.328   1.092
 6183SOL    HW119448   1.336   2.345   1.025
 6183SOL    HW219449   1.419   2.229   1.104
 6184SOL     OW19450   2.827   1.062   6.364
 6184SOL    HW119451   2.893   1.009   6.417
 6184SOL    HW219452   2.872   1.141   6.322
 6185SOL     OW19453   3.866   2.901   5.172
 6185SOL    HW119454   3.783   2.933   5.127
 6185SOL    HW219455   3.846   2.817   5.223
 6186SOL     OW19456   6.033   1.977   1.789
 6186SOL    HW119457   6.056   1.904   1.854
 6186SOL    HW219458   6.106   2.045   1.788
 6187SOL     OW19459   5.214   2.573   5.195
 6187SOL    HW119460   5.204   2.492   5.138
 6187SOL    HW219461   5.292   2.627   5.162
 6188SOL     OW19462   2.151   1.815   5.230
 6188SOL    HW119463   2.087   1.881   5.269
 6188SOL    HW219464   2.146   1.729   5.279
 6189SOL     OW19465   4.926   6.431   1.982
 6189SOL    HW119466   4.845   6.380   1.954
 6189SOL    HW219467   4.909   6.476   2.070
 6190SOL     OW19468   6.347   2.367   5.530
 6190SOL    HW119469   6.391   2.283   5.498
 6190SOL    HW219470   6.265   2.344   5.583
 6191SOL     OW19471   3.087   3.672   6.642
 6191SOL    HW119472   3.009   3.638   6.590
 6191SOL    HW219473   3.126   3.751   6.595
 6192SOL     OW19474   2.264   1.899   0.074
 6192SOL    HW119475   2.287   1.846   0.156
 6192SOL    HW219476   2.343   1.954   0.046
 6193SOL     OW19477   5.130   5.743   0.546
 6193SOL    HW119478   5.055   5.695   0.500
 6193SOL    HW219479   5.197   5.677   0.579
 6194SOL     OW19480   6.671   0.710   6.397
 6194SOL    HW119481   6.685   0.612   6.412
 6194SOL    HW219482   6.760   0.756   6.389
 6195SOL     OW19483   6.115   0.289   5.320
 6195SOL    HW119484   6.087   0.268   5.414
 6195SOL    HW219485   6.036   0.282   5.259
 6196SOL     OW19486   5.133   3.906   2.819
 6196SOL    HW119487   5.042   3.937   2.790
 6196SOL    HW219488   5.124   3.824   2.876
 6197SOL     OW19489   2.624   5.697   2.643
 6197SOL    HW119490   2.654   5.721   2.735
 6197SOL    HW219491   2.537   5.743   2.623
 6198SOL     OW19492   6.065   6.303   6.771
 6198SOL    HW119493   6.005   6.325   6.694
 6198SOL    HW219494   6.031   6.221   6.817
 6199SOL     OW19495   0.879   0.191   0.931
 6199SOL    HW119496   0.877   0.151   1.023
 6199SOL    HW219497   0.974   0.204   0.903
 6200SOL     OW19498   2.010   2.193   1.970
 6200SOL    HW119499   1.947   2.195   1.893
 6200SOL    HW219500   2.101   2.222   1.941
 6201SOL     OW19501   6.489   3.545   3.950
 6201SOL    HW119502   6.486   3.621   4.015
 6201SOL    HW219503   6.421   3.560   3.878
 6202SOL     OW19504   6.590   1.387   3.000
 6202SOL    HW119505   6.616   1.342   2.915
 6202SOL    HW219506   6.504   1.436   2.987
 6203SOL     OW19507   6.472   5.339   1.939
 6203SOL    HW119508   6.424   5.326   2.025
 6203SOL    HW219509   6.408   5.370   1.869
 6204SOL     OW19510   1.576   6.960   5.419
 6204SOL    HW119511   1.666   6.956   5.376
 6204SOL    HW219512   1.541   0.028   5.416
 6205SOL     OW19513   4.759   4.077   2.378
 6205SOL    HW119514   4.706   3.992   2.374
 6205SOL    HW219515   4.856   4.056   2.366
 6206SOL     OW19516   5.301   2.218   3.657
 6206SOL    HW119517   5.310   2.149   3.728
 6206SOL    HW219518   5.366   2.198   3.583
 6207SOL     OW19519   1.455   5.657   4.218
 6207SOL    HW119520   1.364   5.659   4.260
 6207SOL    HW219521   1.518   5.606   4.276
 6208SOL     OW19522   3.791   2.488   5.649
 6208SOL    HW119523   3.843   2.562   5.691
 6208SOL    HW219524   3.699   2.521   5.627
 6209SOL     OW19525   3.776   4.096   1.178
 6209SOL    HW119526   3.858   4.129   1.225
 6209SOL    HW219527   3.729   4.030   1.236
 6210SOL     OW19528   4.717   2.685   3.317
 6210SOL    HW119529   4.769   2.602   3.296
 6210SOL    HW219530   4.627   2.679   3.275
 6211SOL     OW19531   4.686   5.543   5.086
 6211SOL    HW119532   4.757   5.572   5.021
 6211SOL    HW219533   4.724   5.539   5.178
 6212SOL     OW19534   3.714   5.270   6.161
 6212SOL    HW119535   3.734   5.210   6.083
 6212SOL    HW219536   3.761   5.357   6.150
 6213SOL     OW19537   4.520   6.065   0.844
 6213SOL    HW119538   4.454   6.119   0.897
 6213SOL    HW219539   4.473   5.986   0.803
 6214SOL     OW19540   6.175   6.278   5.273
 6214SOL    HW119541   6.186   6.212   5.348
 6214SOL    HW219542   6.176   6.370   5.311
 6215SOL     OW19543   5.244   2.315   6.219
 6215SOL    HW119544   5.332   2.278   6.250
 6215SOL    HW219545   5.199   2.249   6.159
 6216SOL     OW19546   4.958   2.934   3.188
 6216SOL    HW119547   4.936   2.891   3.276
 6216SOL    HW219548   4.896   2.900   3.118
 6217SOL     OW19549   0.922   4.352   2.605
 6217SOL    HW119550   0.950   4.400   2.688
 6217SOL    HW219551   0.824   4.335   2.607
 6218SOL     OW19552   4.710   6.650   0.629
 6218SOL    HW119553   4.626   6.677   0.583
 6218SOL    HW219554   4.754   6.731   0.668
 6219SOL     OW19555   1.426   1.123   5.214
 6219SOL    HW119556   1.378   1.077   5.288
 6219SOL    HW219557   1.430   1.063   5.134
 6220SOL     OW19558   3.962   1.122   0.962
 6220SOL    HW119559   3.977   1.066   1.043
 6220SOL    HW219560   3.973   1.065   0.880
 6221SOL     OW19561   6.477   5.985   6.560
 6221SOL    HW119562   6.382   5.957   6.570
 6221SOL    HW219563   6.498   6.057   6.626
 6222SOL     OW19564   6.214   1.232   2.298
 6222SOL    HW119565   6.224   1.203   2.393
 6222SOL    HW219566   6.124   1.205   2.264
 6223SOL     OW19567   0.269   5.254   3.917
 6223SOL    HW119568   0.339   5.320   3.888
 6223SOL    HW219569   0.286   5.227   4.012
 6224SOL     OW19570   4.615   1.892   6.332
 6224SOL    HW119571   4.560   1.887   6.248
 6224SOL    HW219572   4.616   1.986   6.366
 6225SOL     OW19573   3.764   6.755   6.468
 6225SOL    HW119574   3.804   6.674   6.512
 6225SOL    HW219575   3.682   6.782   6.517
 6226SOL     OW19576   1.096   1.313   3.788
 6226SOL    HW119577   1.147   1.354   3.713
 6226SOL    HW219578   1.074   1.382   3.857
 6227SOL     OW19579   2.850   3.783   5.601
 6227SOL    HW119580   2.837   3.882   5.598
 6227SOL    HW219581   2.796   3.745   5.676
 6228SOL     OW19582   2.107   2.767   3.983
 6228SOL    HW119583   2.020   2.796   3.945
 6228SOL    HW219584   2.092   2.699   4.054
 6229SOL     OW19585   0.190   3.586   4.596
 6229SOL    HW119586   0.092   3.577   4.581
 6229SOL    HW219587   0.237   3.507   4.555
 6230SOL     OW19588   0.364   1.181   1.999
 6230SOL    HW119589   0.320   1.148   1.916
 6230SOL    HW219590   0.315   1.261   2.033
 6231SOL     OW19591   6.350   4.657   7.010
 6231SOL    HW119592   6.321   4.562   6.997
 6231SOL    HW219593   6.298   4.697   0.059
 6232SOL     OW19594   5.528   1.230   6.998
 6232SOL    HW119595   5.457   1.183   0.025
 6232SOL    HW219596   5.492   1.257   6.909
 6233SOL     OW19597   0.102   3.172   1.215
 6233SOL    HW119598   0.116   3.224   1.130
 6233SOL    HW219599   0.017   3.201   1.257
 6234SOL     OW19600   6.754   0.001   4.678
 6234SOL    HW119601   6.838   7.026   4.624
 6234SOL    HW219602   6.719   6.934   4.689
 6235SOL     OW19603   6.488   0.899   2.252
 6235SOL    HW119604   6.412   0.863   2.306
 6235SOL    HW219605   6.549   0.824   2.226
 6236SOL     OW19606   0.571   4.158   0.886
 6236SOL    HW119607   0.558   4.137   0.983
 6236SOL    HW219608   0.483   4.152   0.838
 6237SOL     OW19609   3.848   0.706   1.504
 6237SOL    HW119610   3.936   0.716   1.459
 6237SOL    HW219611   3.808   0.797   1.518
 6238SOL     OW19612   2.462   6.496   4.626
 6238SOL    HW119613   2.410   6.509   4.541
 6238SOL    HW219614   2.550   6.454   4.605
 6239SOL     OW19615   4.936   0.579   2.805
 6239SOL    HW119616   4.958   0.676   2.818
 6239SOL    HW219617   4.855   0.571   2.747
 6240SOL     OW19618   3.877   3.029   4.836
 6240SOL    HW119619   3.802   2.965   4.822
 6240SOL    HW219620   3.944   2.989   4.899
 6241SOL     OW19621   2.551   6.692   3.734
 6241SOL    HW119622   2.558   6.669   3.637
 6241SOL    HW219623   2.537   6.791   3.744
 6242SOL     OW19624   2.845   1.825   3.443
 6242SOL    HW119625   2.764   1.788   3.397
 6242SOL    HW219626   2.917   1.841   3.375
 6243SOL     OW19627   5.572   1.375   5.922
 6243SOL    HW119628   5.548   1.310   5.851
 6243SOL    HW219629   5.663   1.353   5.959
 6244SOL     OW19630   4.388   4.877   2.303
 6244SOL    HW119631   4.413   4.964   2.260
 6244SOL    HW219632   4.330   4.824   2.240
 6245SOL     OW19633   0.587   4.621   2.368
 6245SOL    HW119634   0.523   4.633   2.292
 6245SOL    HW219635   0.549   4.665   2.450
 6246SOL     OW19636   0.822   6.552   4.007
 6246SOL    HW119637   0.842   6.609   4.087
 6246SOL    HW219638   0.882   6.578   3.931
 6247SOL     OW19639   6.886   5.779   3.557
 6247SOL    HW119640   6.935   5.829   3.486
 6247SOL    HW219641   6.928   5.799   3.646
 6248SOL     OW19642   3.483   3.130   6.966
 6248SOL    HW119643   3.460   3.224   6.990
 6248SOL    HW219644   3.439   3.067   0.005
 6249SOL     OW19645   6.696   2.704   1.043
 6249SOL    HW119646   6.713   2.609   1.068
 6249SOL    HW219647   6.607   2.711   0.999
 6250SOL     OW19648   0.544   0.515   0.899
 6250SOL    HW119649   0.558   0.457   0.819
 6250SOL    HW219650   0.469   0.579   0.880
 6251SOL     OW19651   3.088   6.947   4.614
 6251SOL    HW119652   3.102   6.882   4.689
 6251SOL    HW219653   3.171   6.953   4.559
 6252SOL     OW19654   2.873   5.319   0.053
 6252SOL    HW119655   2.840   5.378   7.005
 6252SOL    HW219656   2.972   5.332   0.064
 6253SOL     OW19657   3.342   5.163   4.882
 6253SOL    HW119658   3.252   5.172   4.840
 6253SOL    HW219659   3.333   5.165   4.981
 6254SOL     OW19660   0.220   6.228   1.018
 6254SOL    HW119661   0.189   6.211   1.112
 6254SOL    HW219662   0.317   6.205   1.012
 6255SOL     OW19663   0.254   1.916   1.088
 6255SOL    HW119664   0.201   1.889   1.168
 6255SOL    HW219665   0.284   2.011   1.098
 6256SOL     OW19666   4.879   5.151   2.696
 6256SOL    HW119667   4.803   5.108   2.648
 6256SOL    HW219668   4.864   5.148   2.794
 6257SOL     OW19669   4.046   3.885   1.178
 6257SOL    HW119670   4.045   3.984   1.193
 6257SOL    HW219671   3.953   3.854   1.161
 6258SOL     OW19672   4.504   6.569   6.394
 6258SOL    HW119673   4.587   6.525   6.430
 6258SOL    HW219674   4.437   6.498   6.370
 6259SOL     OW19675   1.811   6.957   5.315
 6259SOL    HW119676   1.864   0.001   5.363
 6259SOL    HW219677   1.854   6.936   5.227
 6260SOL     OW19678   2.475   1.232   0.401
 6260SOL    HW119679   2.480   1.330   0.422
 6260SOL    HW219680   2.406   1.216   0.330
 6261SOL     OW19681   3.821   6.253   1.638
 6261SOL    HW119682   3.882   6.320   1.597
 6261SOL    HW219683   3.823   6.169   1.583
 6262SOL     OW19684   6.504   6.531   2.157
 6262SOL    HW119685   6.419   6.556   2.203
 6262SOL    HW219686   6.484   6.505   2.063
 6263SOL     OW19687   6.879   5.805   4.835
 6263SOL    HW119688   6.901   5.789   4.738
 6263SOL    HW219689   6.878   5.717   4.883
 6264SOL     OW19690   1.017   0.299   1.198
 6264SOL    HW119691   1.024   0.360   1.119
 6264SOL    HW219692   1.004   0.354   1.281
 6265SOL     OW19693   4.603   1.938   0.277
 6265SOL    HW119694   4.668   1.862   0.274
 6265SOL    HW219695   4.545   1.934   0.196
 6266SOL     OW19696   3.047   5.548   3.388
 6266SOL    HW119697   2.949   5.530   3.379
 6266SOL    HW219698   3.080   5.513   3.475
 6267SOL     OW19699   1.121   0.122   5.047
 6267SOL    HW119700   1.065   0.175   4.983
 6267SOL    HW219701   1.153   0.038   5.003
 6268SOL     OW19702   2.741   0.360   1.956
 6268SOL    HW119703   2.676   0.295   1.997
 6268SOL    HW219704   2.769   0.427   2.025
 6269SOL     OW19705   5.811   5.748   1.518
 6269SOL    HW119706   5.812   5.664   1.464
 6269SOL    HW219707   5.776   5.823   1.462
 6270SOL     OW19708   1.550   6.090   0.564
 6270SOL    HW119709   1.503   6.136   0.488
 6270SOL    HW219710   1.523   6.133   0.651
 6271SOL     OW19711   6.321   3.025   6.746
 6271SOL    HW119712   6.367   3.088   6.683
 6271SOL    HW219713   6.239   3.069   6.783
 6272SOL     OW19714   6.173   0.085   0.161
 6272SOL    HW119715   6.087   0.128   0.132
 6272SOL    HW219716   6.171   0.071   0.260
 6273SOL     OW19717   6.934   0.209   1.779
 6273SOL    HW119718   6.859   0.259   1.735
 6273SOL    HW219719   6.939   0.117   1.740
 6274SOL     OW19720   3.398   5.874   5.133
 6274SOL    HW119721   3.404   5.800   5.201
 6274SOL    HW219722   3.431   5.959   5.174
 6275SOL     OW19723   1.757   5.531   0.288
 6275SOL    HW119724   1.819   5.514   0.364
 6275SOL    HW219725   1.664   5.542   0.322
 6276SOL     OW19726   2.006   5.767   2.959
 6276SOL    HW119727   2.084   5.769   3.021
 6276SOL    HW219728   1.926   5.803   3.005
 6277SOL     OW19729   5.506   2.974   1.313
 6277SOL    HW119730   5.430   2.912   1.293
 6277SOL    HW219731   5.592   2.928   1.294
 6278SOL     OW19732   2.843   6.753   5.872
 6278SOL    HW119733   2.782   6.774   5.795
 6278SOL    HW219734   2.927   6.807   5.864
 6279SOL     OW19735   2.626   6.659   1.911
 6279SOL    HW119736   2.598   6.755   1.903
 6279SOL    HW219737   2.559   6.600   1.866
 6280SOL     OW19738   6.857   1.783   6.610
 6280SOL    HW119739   6.875   1.826   6.699
 6280SOL    HW219740   6.795   1.840   6.557
 6281SOL     OW19741   6.189   4.100   5.358
 6281SOL    HW119742   6.116   4.169   5.354
 6281SOL    HW219743   6.165   4.023   5.299
 6282SOL     OW19744   0.836   3.734   6.061
 6282SOL    HW119745   0.798   3.824   6.080
 6282SOL    HW219746   0.868   3.692   6.146
 6283SOL     OW19747   1.116   6.177   5.819
 6283SOL    HW119748   1.111   6.080   5.842
 6283SOL    HW219749   1.076   6.192   5.728
 6284SOL     OW19750   2.224   4.451   6.745
 6284SOL    HW119751   2.186   4.363   6.719
 6284SOL    HW219752   2.150   4.513   6.771
 6285SOL     OW19753   1.201   3.272   3.333
 6285SOL    HW119754   1.227   3.331   3.256
 6285SOL    HW219755   1.284   3.238   3.377
 6286SOL     OW19756   0.761   3.339   4.775
 6286SOL    HW119757   0.767   3.307   4.681
 6286SOL    HW219758   0.705   3.275   4.829
 6287SOL     OW19759   4.315   4.897   5.169
 6287SOL    HW119760   4.397   4.938   5.209
 6287SOL    HW219761   4.256   4.969   5.133
 6288SOL     OW19762   3.665   3.042   6.685
 6288SOL    HW119763   3.621   2.959   6.718
 6288SOL    HW219764   3.685   3.033   6.587
 6289SOL     OW19765   2.308   5.058   6.543
 6289SOL    HW119766   2.260   5.041   6.457
 6289SOL    HW219767   2.340   4.971   6.582
 6290SOL     OW19768   5.340   5.564   5.192
 6290SOL    HW119769   5.387   5.501   5.254
 6290SOL    HW219770   5.271   5.615   5.243
 6291SOL     OW19771   3.358   3.256   2.717
 6291SOL    HW119772   3.410   3.239   2.801
 6291SOL    HW219773   3.355   3.173   2.661
 6292SOL     OW19774   2.167   3.276   4.790
 6292SOL    HW119775   2.118   3.277   4.877
 6292SOL    HW219776   2.224   3.194   4.784
 6293SOL     OW19777   4.905   1.214   6.849
 6293SOL    HW119778   4.863   1.303   6.866
 6293SOL    HW219779   4.835   1.143   6.854
 6294SOL     OW19780   2.602   1.601   3.533
 6294SOL    HW119781   2.664   1.646   3.597
 6294SOL    HW219782   2.583   1.662   3.456
 6295SOL     OW19783   5.758   4.450   5.643
 6295SOL    HW119784   5.826   4.473   5.713
 6295SOL    HW219785   5.670   4.430   5.687
 6296SOL     OW19786   0.148   2.588   6.558
 6296SOL    HW119787   0.049   2.594   6.567
 6296SOL    HW219788   0.190   2.602   6.648
 6297SOL     OW19789   5.797   0.321   4.155
 6297SOL    HW119790   5.873   0.299   4.216
 6297SOL    HW219791   5.811   0.277   4.067
 6298SOL     OW19792   6.001   4.527   0.233
 6298SOL    HW119793   6.033   4.471   0.156
 6298SOL    HW219794   6.033   4.621   0.220
 6299SOL     OW19795   4.903   1.984   2.800
 6299SOL    HW119796   4.868   1.903   2.753
 6299SOL    HW219797   4.856   2.065   2.765
 6300SOL     OW19798   3.030   0.017   5.410
 6300SOL    HW119799   3.027   0.117   5.420
 6300SOL    HW219800   3.105   7.007   5.466
 6301SOL     OW19801   3.401   6.629   0.829
 6301SOL    HW119802   3.335   6.685   0.879
 6301SOL    HW219803   3.389   6.533   0.855
 6302SOL     OW19804   2.924   1.357   5.798
 6302SOL    HW119805   2.952   1.287   5.733
 6302SOL    HW219806   2.960   1.446   5.770
 6303SOL     OW19807   1.330   5.961   5.954
 6303SOL    HW119808   1.404   5.980   6.018
 6303SOL    HW219809   1.242   5.969   6.000
 6304SOL     OW19810   3.946   0.814   3.148
 6304SOL    HW119811   3.866   0.757   3.128
 6304SOL    HW219812   3.939   0.900   3.098
 6305SOL     OW19813   0.502   5.770   6.069
 6305SOL    HW119814   0.490   5.708   5.991
 6305SOL    HW219815   0.453   5.856   6.050
 6306SOL     OW19816   6.816   4.591   3.706
 6306SOL    HW119817   6.834   4.556   3.798
 6306SOL    HW219818   6.904   4.604   3.659
 6307SOL     OW19819   4.064   3.697   3.523
 6307SOL    HW119820   4.116   3.661   3.445
 6307SOL    HW219821   4.049   3.795   3.511
 6308SOL     OW19822   0.120   2.804   0.449
 6308SOL    HW119823   0.172   2.721   0.429
 6308SOL    HW219824   0.060   2.825   0.372
 6309SOL     OW19825   1.543   6.164   4.365
 6309SOL    HW119826   1.543   6.251   4.317
 6309SOL    HW219827   1.449   6.139   4.389
 6310SOL     OW19828   2.258   6.584   3.184
 6310SOL    HW119829   2.273   6.645   3.262
 6310SOL    HW219830   2.211   6.633   3.112
 6311SOL     OW19831   5.320   1.206   6.001
 6311SOL    HW119832   5.237   1.256   6.028
 6311SOL    HW219833   5.401   1.257   6.030
 6312SOL     OW19834   3.045   6.652   6.679
 6312SOL    HW119835   3.013   6.727   6.621
 6312SOL    HW219836   2.970   6.590   6.700
 6313SOL     OW19837   5.805   6.326   3.125
 6313SOL    HW119838   5.853   6.399   3.174
 6313SOL    HW219839   5.863   6.292   3.051
 6314SOL     OW19840   2.331   0.325   1.584
 6314SOL    HW119841   2.315   0.412   1.538
 6314SOL    HW219842   2.399   0.338   1.656
 6315SOL     OW19843   2.467   2.604   3.628
 6315SOL    HW119844   2.436   2.595   3.723
 6315SOL    HW219845   2.555   2.558   3.618
 6316SOL     OW19846   5.700   1.547   4.544
 6316SOL    HW119847   5.739   1.476   4.486
 6316SOL    HW219848   5.632   1.599   4.492
 6317SOL     OW19849   5.032   4.366   1.876
 6317SOL    HW119850   5.011   4.358   1.779
 6317SOL    HW219851   5.074   4.455   1.894
 6318SOL     OW19852   6.526   0.262   5.761
 6318SOL    HW119853   6.454   0.193   5.764
 6318SOL    HW219854   6.491   0.348   5.800
 6319SOL     OW19855   5.655   1.995   4.288
 6319SOL    HW119856   5.693   1.983   4.196
 6319SOL    HW219857   5.720   2.045   4.345
 6320SOL     OW19858   6.854   1.252   4.454
 6320SOL    HW119859   6.796   1.222   4.378
 6320SOL    HW219860   6.944   1.209   4.447
 6321SOL     OW19861   5.675   2.224   0.654
 6321SOL    HW119862   5.639   2.140   0.614
 6321SOL    HW219863   5.701   2.207   0.750
 6322SOL     OW19864   1.805   0.939   1.316
 6322SOL    HW119865   1.757   1.026   1.307
 6322SOL    HW219866   1.744   0.872   1.359
 6323SOL     OW19867   2.808   2.967   1.278
 6323SOL    HW119868   2.727   3.020   1.254
 6323SOL    HW219869   2.828   2.979   1.376
 6324SOL     OW19870   4.548   1.348   0.828
 6324SOL    HW119871   4.630   1.396   0.860
 6324SOL    HW219872   4.567   1.304   0.740
 6325SOL     OW19873   1.741   2.594   3.354
 6325SOL    HW119874   1.756   2.563   3.260
 6325SOL    HW219875   1.696   2.683   3.353
 6326SOL     OW19876   5.379   4.830   6.117
 6326SOL    HW119877   5.406   4.915   6.163
 6326SOL    HW219878   5.419   4.752   6.165
 6327SOL     OW19879   0.175   0.561   3.098
 6327SOL    HW119880   0.219   0.481   3.140
 6327SOL    HW219881   0.078   0.541   3.082
 6328SOL     OW19882   4.065   3.251   5.964
 6328SOL    HW119883   4.043   3.303   5.881
 6328SOL    HW219884   4.107   3.313   6.031
 6329SOL     OW19885   1.509   2.772   5.814
 6329SOL    HW119886   1.454   2.783   5.897
 6329SOL    HW219887   1.606   2.774   5.838
 6330SOL     OW19888   5.431   0.551   3.461
 6330SOL    HW119889   5.413   0.453   3.467
 6330SOL    HW219890   5.482   0.570   3.376
 6331SOL     OW19891   6.877   3.313   2.764
 6331SOL    HW119892   6.891   3.409   2.741
 6331SOL    HW219893   6.957   3.260   2.737
 6332SOL     OW19894   2.445   1.763   0.957
 6332SOL    HW119895   2.421   1.692   1.024
 6332SOL    HW219896   2.484   1.720   0.876
 6333SOL     OW19897   5.043   1.176   0.858
 6333SOL    HW119898   5.140   1.199   0.864
 6333SOL    HW219899   4.994   1.249   0.812
 6334SOL     OW19900   2.107   1.593   2.146
 6334SOL    HW119901   2.074   1.687   2.152
 6334SOL    HW219902   2.195   1.585   2.191
 6335SOL     OW19903   6.074   1.348   0.495
 6335SOL    HW119904   6.058   1.444   0.474
 6335SOL    HW219905   6.154   1.339   0.553
 6336SOL     OW19906   0.684   3.494   6.197
 6336SOL    HW119907   0.710   3.403   6.164
 6336SOL    HW219908   0.698   3.561   6.124
 6337SOL     OW19909   4.648   5.756   5.469
 6337SOL    HW119910   4.619   5.831   5.409
 6337SOL    HW219911   4.587   5.750   5.547
 6338SOL     OW19912   3.077   1.932   4.094
 6338SOL    HW119913   3.077   1.881   4.009
 6338SOL    HW219914   3.152   1.900   4.152
 6339SOL     OW19915   1.199   4.443   3.540
 6339SOL    HW119916   1.192   4.344   3.535
 6339SOL    HW219917   1.120   4.485   3.496
 6340SOL     OW19918   2.214   4.325   1.465
 6340SOL    HW119919   2.205   4.285   1.374
 6340SOL    HW219920   2.217   4.252   1.533
 6341SOL     OW19921   1.181   4.729   3.706
 6341SOL    HW119922   1.277   4.758   3.699
 6341SOL    HW219923   1.160   4.707   3.801
 6342SOL     OW19924   1.768   1.570   2.151
 6342SOL    HW119925   1.838   1.578   2.222
 6342SOL    HW219926   1.697   1.640   2.166
 6343SOL     OW19927   2.614   5.903   0.893
 6343SOL    HW119928   2.650   5.982   0.941
 6343SOL    HW219929   2.558   5.849   0.956
 6344SOL     OW19930   0.103   1.232   3.447
 6344SOL    HW119931   0.098   1.260   3.542
 6344SOL    HW219932   0.119   1.312   3.389
 6345SOL     OW19933   5.851   3.868   1.338
 6345SOL    HW119934   5.948   3.866   1.311
 6345SOL    HW219935   5.810   3.955   1.311
 6346SOL     OW19936   0.017   4.482   5.103
 6346SOL    HW119937   6.973   4.521   5.162
 6346SOL    HW219938   7.012   4.487   5.008
 6347SOL     OW19939   2.490   1.985   2.605
 6347SOL    HW119940   2.455   2.077   2.623
 6347SOL    HW219941   2.435   1.942   2.533
 6348SOL     OW19942   0.302   2.273   5.463
 6348SOL    HW119943   0.275   2.299   5.371
 6348SOL    HW219944   0.287   2.175   5.476
 6349SOL     OW19945   0.209   0.663   0.053
 6349SOL    HW119946   0.268   0.736   0.018
 6349SOL    HW219947   0.122   0.701   0.084
 6350SOL     OW19948   1.366   4.516   1.611
 6350SOL    HW119949   1.371   4.516   1.511
 6350SOL    HW219950   1.334   4.606   1.643
 6351SOL     OW19951   5.701   3.511   2.188
 6351SOL    HW119952   5.789   3.558   2.174
 6351SOL    HW219953   5.691   3.439   2.120
 6352SOL     OW19954   2.213   0.577   4.951
 6352SOL    HW119955   2.210   0.488   4.904
 6352SOL    HW219956   2.176   0.647   4.890
 6353SOL     OW19957   3.087   6.032   6.494
 6353SOL    HW119958   3.015   6.071   6.437
 6353SOL    HW219959   3.141   6.105   6.535
 6354SOL     OW19960   4.787   4.799   2.401
 6354SOL    HW119961   4.796   4.700   2.387
 6354SOL    HW219962   4.758   4.816   2.495
 6355SOL     OW19963   2.822   4.882   0.833
 6355SOL    HW119964   2.864   4.853   0.919
 6355SOL    HW219965   2.885   4.863   0.757
 6356SOL     OW19966   5.649   3.984   6.445
 6356SOL    HW119967   5.555   3.953   6.455
 6356SOL    HW219968   5.692   3.992   6.535
 6357SOL     OW19969   5.389   1.411   1.366
 6357SOL    HW119970   5.424   1.504   1.380
 6357SOL    HW219971   5.338   1.383   1.447
 6358SOL     OW19972   1.235   2.682   6.656
 6358SOL    HW119973   1.164   2.621   6.694
 6358SOL    HW219974   1.208   2.777   6.670
 6359SOL     OW19975   5.866   5.998   0.124
 6359SOL    HW119976   5.890   6.035   0.213
 6359SOL    HW219977   5.787   5.937   0.134
 6360SOL     OW19978   0.765   2.423   2.658
 6360SOL    HW119979   0.769   2.333   2.702
 6360SOL    HW219980   0.670   2.444   2.633
 6361SOL     OW19981   0.507   0.610   0.077
 6361SOL    HW119982   0.588   0.555   0.062
 6361SOL    HW219983   0.426   0.552   0.073
 6362SOL     OW19984   0.957   5.413   0.013
 6362SOL    HW119985   0.980   5.505   0.045
 6362SOL    HW219986   0.860   5.395   0.031
 6363SOL     OW19987   3.180   5.346   3.862
 6363SOL    HW119988   3.276   5.358   3.885
 6363SOL    HW219989   3.135   5.289   3.931
 6364SOL     OW19990   2.599   2.500   4.659
 6364SOL    HW119991   2.509   2.490   4.616
 6364SOL    HW219992   2.622   2.597   4.665
 6365SOL     OW19993   5.727   4.825   3.605
 6365SOL    HW119994   5.640   4.798   3.647
 6365SOL    HW219995   5.765   4.747   3.556
 6366SOL     OW19996   5.596   6.559   4.721
 6366SOL    HW119997   5.600   6.658   4.736
 6366SOL    HW219998   5.672   6.531   4.662
 6367SOL     OW19999   2.908   1.874   2.840
 6367SOL    HW120000   2.981   1.941   2.845
 6367SOL    HW220001   2.820   1.921   2.836
 6368SOL     OW20002   4.902   3.154   4.793
 6368SOL    HW120003   4.841   3.093   4.742
 6368SOL    HW220004   4.996   3.120   4.788
 6369SOL     OW20005   3.177   6.255   6.226
 6369SOL    HW120006   3.151   6.239   6.131
 6369SOL    HW220007   3.097   6.245   6.285
 6370SOL     OW20008   5.601   3.521   3.873
 6370SOL    HW120009   5.509   3.526   3.835
 6370SOL    HW220010   5.621   3.428   3.902
 6371SOL     OW20011   5.414   4.142   1.909
 6371SOL    HW120012   5.446   4.079   1.839
 6371SOL    HW220013   5.384   4.227   1.865
 6372SOL     OW20014   6.914   0.572   2.680
 6372SOL    HW120015   6.863   0.646   2.726
 6372SOL    HW220016   7.003   0.607   2.649
 6373SOL     OW20017   5.442   3.677   1.344
 6373SOL    HW120018   5.481   3.609   1.407
 6373SOL    HW220019   5.351   3.704   1.376
 6374SOL     OW20020   4.701   3.021   0.573
 6374SOL    HW120021   4.633   3.058   0.510
 6374SOL    HW220022   4.661   2.947   0.626
 6375SOL     OW20023   6.358   2.679   2.078
 6375SOL    HW120024   6.350   2.731   1.993
 6375SOL    HW220025   6.360   2.742   2.156
 6376SOL     OW20026   3.640   0.677   6.439
 6376SOL    HW120027   3.740   0.674   6.439
 6376SOL    HW220028   3.605   0.618   6.512
 6377SOL     OW20029   0.115   0.550   0.633
 6377SOL    HW120030   0.023   0.581   0.657
 6377SOL    HW220031   0.125   0.549   0.533
 6378SOL     OW20032   5.505   5.489   3.185
 6378SOL    HW120033   5.520   5.449   3.095
 6378SOL    HW220034   5.591   5.527   3.220
 6379SOL     OW20035   2.749   6.055   0.076
 6379SOL    HW120036   2.751   5.956   0.064
 6379SOL    HW220037   2.832   6.096   0.039
 6380SOL     OW20038   1.357   3.081   5.472
 6380SOL    HW120039   1.326   3.016   5.542
 6380SOL    HW220040   1.363   3.035   5.384
 6381SOL     OW20041   4.599   2.845   0.217
 6381SOL    HW120042   4.575   2.938   0.246
 6381SOL    HW220043   4.533   2.813   0.149
 6382SOL     OW20044   1.858   1.852   1.104
 6382SOL    HW120045   1.813   1.780   1.051
 6382SOL    HW220046   1.935   1.888   1.052
 6383SOL     OW20047   1.736   2.052   2.462
 6383SOL    HW120048   1.715   2.149   2.467
 6383SOL    HW220049   1.693   2.013   2.380
 6384SOL     OW20050   6.259   2.511   1.812
 6384SOL    HW120051   6.332   2.508   1.881
 6384SOL    HW220052   6.289   2.463   1.730
 6385SOL     OW20053   6.980   2.990   1.032
 6385SOL    HW120054   0.019   3.045   1.085
 6385SOL    HW220055   6.898   2.973   1.087
 6386SOL     OW20056   2.007   3.392   0.126
 6386SOL    HW120057   2.050   3.302   0.129
 6386SOL    HW220058   2.075   3.461   0.102
 6387SOL     OW20059   6.382   0.238   6.871
 6387SOL    HW120060   6.346   0.290   6.948
 6387SOL    HW220061   6.459   0.182   6.901
 6388SOL     OW20062   6.415   5.650   2.416
 6388SOL    HW120063   6.327   5.660   2.462
 6388SOL    HW220064   6.400   5.637   2.318
 6389SOL     OW20065   1.540   0.713   6.428
 6389SOL    HW120066   1.473   0.779   6.394
 6389SOL    HW220067   1.570   0.654   6.353
 6390SOL     OW20068   6.700   1.377   6.660
 6390SOL    HW120069   6.719   1.279   6.672
 6390SOL    HW220070   6.739   1.428   6.736
 6391SOL     OW20071   1.423   1.582   4.916
 6391SOL    HW120072   1.476   1.594   5.001
 6391SOL    HW220073   1.423   1.486   4.891
 6392SOL     OW20074   4.105   6.276   3.845
 6392SOL    HW120075   4.153   6.272   3.933
 6392SOL    HW220076   4.069   6.368   3.831
 6393SOL     OW20077   6.414   5.754   1.492
 6393SOL    HW120078   6.366   5.799   1.567
 6393SOL    HW220079   6.451   5.667   1.523
 6394SOL     OW20080   1.125   5.364   1.098
 6394SOL    HW120081   1.198   5.397   1.158
 6394SOL    HW220082   1.065   5.303   1.150
 6395SOL     OW20083   1.802   4.336   3.506
 6395SOL    HW120084   1.851   4.345   3.592
 6395SOL    HW220085   1.850   4.270   3.447
 6396SOL     OW20086   0.238   3.660   0.524
 6396SOL    HW120087   0.316   3.602   0.548
 6396SOL    HW220088   0.166   3.604   0.483
 6397SOL     OW20089   5.988   2.121   3.687
 6397SOL    HW120090   5.946   2.212   3.688
 6397SOL    HW220091   6.069   2.122   3.747
 6398SOL     OW20092   1.369   7.012   1.164
 6398SOL    HW120093   1.440   6.965   1.217
 6398SOL    HW220094   1.327   6.947   1.100
 6399SOL     OW20095   2.592   0.759   6.200
 6399SOL    HW120096   2.572   0.825   6.128
 6399SOL    HW220097   2.602   0.806   6.288
 6400SOL     OW20098   1.523   5.502   3.040
 6400SOL    HW120099   1.545   5.583   2.985
 6400SOL    HW220100   1.556   5.515   3.133
 6401SOL     OW20101   3.953   5.799   3.338
 6401SOL    HW120102   3.879   5.797   3.271
 6401SOL    HW220103   3.921   5.840   3.423
 6402SOL     OW20104   2.287   4.680   5.183
 6402SOL    HW120105   2.213   4.651   5.244
 6402SOL    HW220106   2.264   4.769   5.143
 6403SOL     OW20107   5.007   6.109   5.114
 6403SOL    HW120108   5.057   6.123   5.200
 6403SOL    HW220109   5.070   6.078   5.043
 6404SOL     OW20110   3.840   0.499   2.654
 6404SOL    HW120111   3.825   0.401   2.649
 6404SOL    HW220112   3.907   0.519   2.725
 6405SOL     OW20113   5.333   1.402   2.308
 6405SOL    HW120114   5.363   1.388   2.402
 6405SOL    HW220115   5.277   1.324   2.278
 6406SOL     OW20116   1.193   2.580   2.554
 6406SOL    HW120117   1.128   2.630   2.612
 6406SOL    HW220118   1.285   2.613   2.573
 6407SOL     OW20119   2.082   6.123   3.082
 6407SOL    HW120120   2.072   6.184   3.003
 6407SOL    HW220121   2.171   6.077   3.076
 6408SOL     OW20122   6.434   0.772   0.393
 6408SOL    HW120123   6.425   0.710   0.471
 6408SOL    HW220124   6.461   0.863   0.427
 6409SOL     OW20125   6.703   4.803   3.903
 6409SOL    HW120126   6.782   4.862   3.925
 6409SOL    HW220127   6.718   4.760   3.814
 6410SOL     OW20128   3.178   1.886   5.761
 6410SOL    HW120129   3.162   1.943   5.680
 6410SOL    HW220130   3.151   1.936   5.843
 6411SOL     OW20131   0.308   2.205   2.646
 6411SOL    HW120132   0.235   2.171   2.586
 6411SOL    HW220133   0.348   2.128   2.697
 6412SOL     OW20134   3.009   0.736   6.989
 6412SOL    HW120135   2.991   0.640   6.967
 6412SOL    HW220136   2.930   0.774   0.011
 6413SOL     OW20137   4.447   5.033   3.818
 6413SOL    HW120138   4.422   5.087   3.899
 6413SOL    HW220139   4.449   5.092   3.738
 6414SOL     OW20140   1.266   6.797   0.208
 6414SOL    HW120141   1.355   6.809   0.253
 6414SOL    HW220142   1.280   6.773   0.112
 6415SOL     OW20143   1.137   2.518   3.315
 6415SOL    HW120144   1.124   2.580   3.392
 6415SOL    HW220145   1.051   2.512   3.263
 6416SOL     OW20146   2.765   0.741   6.764
 6416SOL    HW120147   2.789   0.701   6.853
 6416SOL    HW220148   2.794   0.837   6.762
 6417SOL     OW20149   4.471   1.556   0.627
 6417SOL    HW120150   4.411   1.577   0.704
 6417SOL    HW220151   4.557   1.606   0.638
 6418SOL     OW20152   4.348   5.236   1.497
 6418SOL    HW120153   4.384   5.144   1.482
 6418SOL    HW220154   4.285   5.235   1.575
 6419SOL     OW20155   0.496   6.659   6.780
 6419SOL    HW120156   0.506   6.752   6.746
 6419SOL    HW220157   0.586   6.622   6.805
 6420SOL     OW20158   2.185   3.365   4.139
 6420SOL    HW120159   2.210   3.298   4.209
 6420SOL    HW220160   2.190   3.457   4.177
 6421SOL     OW20161   4.959   6.696   1.789
 6421SOL    HW120162   4.922   6.789   1.792
 6421SOL    HW220163   5.019   6.687   1.709
 6422SOL     OW20164   6.340   2.464   4.880
 6422SOL    HW120165   6.339   2.535   4.951
 6422SOL    HW220166   6.417   2.480   4.818
 6423SOL     OW20167   2.485   4.515   4.390
 6423SOL    HW120168   2.465   4.484   4.297
 6423SOL    HW220169   2.578   4.552   4.394
 6424SOL     OW20170   6.910   4.511   4.836
 6424SOL    HW120171   6.972   4.582   4.802
 6424SOL    HW220172   6.821   4.552   4.856
 6425SOL     OW20173   0.291   5.986   2.780
 6425SOL    HW120174   0.228   6.000   2.857
 6425SOL    HW220175   0.336   5.897   2.791
 6426SOL     OW20176   4.489   4.563   4.814
 6426SOL    HW120177   4.412   4.593   4.869
 6426SOL    HW220178   4.553   4.512   4.871
 6427SOL     OW20179   2.997   3.540   3.545
 6427SOL    HW120180   2.952   3.472   3.488
 6427SOL    HW220181   3.088   3.561   3.507
 6428SOL     OW20182   5.032   2.736   0.261
 6428SOL    HW120183   5.004   2.822   0.218
 6428SOL    HW220184   5.095   2.756   0.336
 6429SOL     OW20185   2.367   0.733   5.942
 6429SOL    HW120186   2.440   0.687   5.892
 6429SOL    HW220187   2.299   0.665   5.970
 6430SOL     OW20188   6.849   0.496   4.854
 6430SOL    HW120189   6.877   0.439   4.931
 6430SOL    HW220190   6.755   0.472   4.827
 6431SOL     OW20191   4.028   4.803   1.740
 6431SOL    HW120192   4.060   4.836   1.829
 6431SOL    HW220193   3.928   4.806   1.737
 6432SOL     OW20194   4.311   4.487   5.961
 6432SOL    HW120195   4.236   4.424   5.979
 6432SOL    HW220196   4.307   4.563   6.026
 6433SOL     OW20197   2.297   5.829   6.552
 6433SOL    HW120198   2.322   5.925   6.569
 6433SOL    HW220199   2.301   5.778   6.638
 6434SOL     OW20200   3.424   5.695   5.775
 6434SOL    HW120201   3.498   5.753   5.740
 6434SOL    HW220202   3.388   5.734   5.859
 6435SOL     OW20203   5.349   1.150   0.967
 6435SOL    HW120204   5.394   1.239   0.955
 6435SOL    HW220205   5.416   1.077   0.954
 6436SOL     OW20206   0.139   3.708   4.001
 6436SOL    HW120207   0.099   3.798   3.985
 6436SOL    HW220208   0.221   3.718   4.057
 6437SOL     OW20209   0.485   1.261   5.682
 6437SOL    HW120210   0.393   1.230   5.706
 6437SOL    HW220211   0.483   1.359   5.662
 6438SOL     OW20212   0.517   5.640   0.453
 6438SOL    HW120213   0.482   5.727   0.488
 6438SOL    HW220214   0.467   5.616   0.369
 6439SOL     OW20215   5.404   0.026   3.306
 6439SOL    HW120216   5.434   0.069   3.221
 6439SOL    HW220217   5.308   0.047   3.322
 6440SOL     OW20218   2.348   1.420   6.184
 6440SOL    HW120219   2.343   1.320   6.172
 6440SOL    HW220220   2.401   1.459   6.109
 6441SOL     OW20221   0.350   0.944   2.606
 6441SOL    HW120222   0.366   1.040   2.627
 6441SOL    HW220223   0.437   0.899   2.587
 6442SOL     OW20224   3.089   2.855   5.479
 6442SOL    HW120225   3.084   2.925   5.408
 6442SOL    HW220226   3.148   2.887   5.553
 6443SOL     OW20227   4.674   2.428   1.219
 6443SOL    HW120228   4.622   2.487   1.157
 6443SOL    HW220229   4.757   2.397   1.173
 6444SOL     OW20230   0.026   3.198   4.957
 6444SOL    HW120231   0.046   3.292   4.985
 6444SOL    HW220232   0.104   3.159   4.908
 6445SOL     OW20233   3.050   3.887   3.473
 6445SOL    HW120234   2.955   3.913   3.453
 6445SOL    HW220235   3.088   3.952   3.540
 6446SOL     OW20236   2.369   1.929   6.595
 6446SOL    HW120237   2.373   1.842   6.645
 6446SOL    HW220238   2.431   1.925   6.517
 6447SOL     OW20239   6.769   4.120   1.107
 6447SOL    HW120240   6.696   4.132   1.039
 6447SOL    HW220241   6.814   4.208   1.123
 6448SOL     OW20242   4.865   5.218   1.817
 6448SOL    HW120243   4.916   5.197   1.734
 6448SOL    HW220244   4.769   5.195   1.804
 6449SOL     OW20245   2.228   5.941   1.475
 6449SOL    HW120246   2.283   5.911   1.553
 6449SOL    HW220247   2.156   5.874   1.458
 6450SOL     OW20248   0.181   3.770   0.864
 6450SOL    HW120249   0.184   3.794   0.767
 6450SOL    HW220250   0.258   3.710   0.886
 6451SOL     OW20251   3.236   2.269   1.340
 6451SOL    HW120252   3.160   2.224   1.388
 6451SOL    HW220253   3.284   2.202   1.285
 6452SOL     OW20254   5.366   2.616   2.975
 6452SOL    HW120255   5.311   2.681   3.028
 6452SOL    HW220256   5.321   2.527   2.975
 6453SOL     OW20257   3.639   6.930   1.036
 6453SOL    HW120258   3.630   6.871   1.116
 6453SOL    HW220259   3.612   6.880   0.954
 6454SOL     OW20260   5.995   2.858   2.796
 6454SOL    HW120261   5.937   2.907   2.860
 6454SOL    HW220262   6.031   2.921   2.727
 6455SOL     OW20263   6.631   3.668   3.577
 6455SOL    HW120264   6.670   3.596   3.520
 6455SOL    HW220265   6.535   3.646   3.596
 6456SOL     OW20266   6.334   1.529   2.948
 6456SOL    HW120267   6.394   1.609   2.939
 6456SOL    HW220268   6.239   1.560   2.959
 6457SOL     OW20269   4.766   0.241   2.052
 6457SOL    HW120270   4.770   0.321   1.992
 6457SOL    HW220271   4.740   0.161   1.999
 6458SOL     OW20272   0.875   4.929   3.733
 6458SOL    HW120273   0.787   4.883   3.742
 6458SOL    HW220274   0.903   4.929   3.637
 6459SOL     OW20275   6.378   3.053   2.749
 6459SOL    HW120276   6.336   3.143   2.735
 6459SOL    HW220277   6.408   3.017   2.661
 6460SOL     OW20278   6.926   5.586   6.623
 6460SOL    HW120279   7.013   5.572   6.671
 6460SOL    HW220280   6.934   5.663   6.561
 6461SOL     OW20281   2.985   4.753   1.407
 6461SOL    HW120282   2.923   4.700   1.349
 6461SOL    HW220283   2.945   4.844   1.422
 6462SOL     OW20284   1.295   3.897   5.163
 6462SOL    HW120285   1.376   3.906   5.106
 6462SOL    HW220286   1.322   3.888   5.259
 6463SOL     OW20287   4.297   1.411   1.581
 6463SOL    HW120288   4.357   1.479   1.540
 6463SOL    HW220289   4.242   1.453   1.653
 6464SOL     OW20290   0.929   5.708   4.190
 6464SOL    HW120291   0.898   5.634   4.130
 6464SOL    HW220292   0.902   5.796   4.150
 6465SOL     OW20293   4.688   1.913   3.364
 6465SOL    HW120294   4.697   1.968   3.281
 6465SOL    HW220295   4.682   1.973   3.444
 6466SOL     OW20296   0.631   3.117   6.906
 6466SOL    HW120297   0.636   3.111   6.807
 6466SOL    HW220298   0.677   3.200   6.937
 6467SOL     OW20299   3.335   1.168   0.972
 6467SOL    HW120300   3.349   1.241   1.039
 6467SOL    HW220301   3.376   1.195   0.885
 6468SOL     OW20302   3.025   0.342   0.222
 6468SOL    HW120303   2.933   0.315   0.251
 6468SOL    HW220304   3.033   0.442   0.225
 6469SOL     OW20305   3.517   1.670   2.891
 6469SOL    HW120306   3.536   1.761   2.856
 6469SOL    HW220307   3.488   1.676   2.987
 6470SOL     OW20308   6.591   2.228   6.987
 6470SOL    HW120309   6.515   2.293   6.979
 6470SOL    HW220310   6.557   2.135   6.973
 6471SOL     OW20311   0.174   6.116   5.188
 6471SOL    HW120312   0.253   6.078   5.237
 6471SOL    HW220313   0.106   6.044   5.175
 6472SOL     OW20314   6.868   5.521   2.634
 6472SOL    HW120315   6.809   5.446   2.606
 6472SOL    HW220316   6.836   5.559   2.720
 6473SOL     OW20317   2.612   0.858   4.397
 6473SOL    HW120318   2.653   0.948   4.416
 6473SOL    HW220319   2.644   0.792   4.465
 6474SOL     OW20320   3.896   5.932   4.988
 6474SOL    HW120321   3.994   5.927   4.971
 6474SOL    HW220322   3.856   5.841   4.980
 6475SOL     OW20323   5.565   5.022   2.853
 6475SOL    HW120324   5.602   5.098   2.907
 6475SOL    HW220325   5.635   4.989   2.790
 6476SOL     OW20326   4.052   1.476   6.313
 6476SOL    HW120327   4.045   1.567   6.274
 6476SOL    HW220328   4.140   1.435   6.288
 6477SOL     OW20329   6.632   6.171   1.526
 6477SOL    HW120330   6.641   6.139   1.620
 6477SOL    HW220331   6.715   6.219   1.499
 6478SOL     OW20332   3.507   5.624   1.762
 6478SOL    HW120333   3.567   5.693   1.802
 6478SOL    HW220334   3.466   5.660   1.679
 6479SOL     OW20335   3.410   6.510   4.165
 6479SOL    HW120336   3.380   6.423   4.205
 6479SOL    HW220337   3.504   6.529   4.196
 6480SOL     OW20338   3.644   1.084   0.130
 6480SOL    HW120339   3.583   1.066   0.207
 6480SOL    HW220340   3.618   1.171   0.087
 6481SOL     OW20341   3.285   2.820   1.752
 6481SOL    HW120342   3.222   2.886   1.792
 6481SOL    HW220343   3.247   2.728   1.760
 6482SOL     OW20344   6.649   3.385   5.115
 6482SOL    HW120345   6.635   3.316   5.044
 6482SOL    HW220346   6.616   3.474   5.083
 6483SOL     OW20347   0.980   5.463   5.424
 6483SOL    HW120348   1.019   5.434   5.336
 6483SOL    HW220349   1.053   5.481   5.489
 6484SOL     OW20350   2.862   0.710   4.285
 6484SOL    HW120351   2.882   0.664   4.372
 6484SOL    HW220352   2.914   0.668   4.212
 6485SOL     OW20353   2.236   6.933   4.519
 6485SOL    HW120354   2.243   6.908   4.616
 6485SOL    HW220355   2.251   0.005   4.509
 6486SOL     OW20356   1.722   5.307   2.971
 6486SOL    HW120357   1.639   5.348   3.009
 6486SOL    HW220358   1.737   5.342   2.878
 6487SOL     OW20359   0.274   4.487   4.070
 6487SOL    HW120360   0.328   4.564   4.104
 6487SOL    HW220361   0.236   4.509   3.981
 6488SOL     OW20362   4.402   5.287   4.608
 6488SOL    HW120363   4.379   5.207   4.662
 6488SOL    HW220364   4.355   5.283   4.520
 6489SOL     OW20365   4.234   3.025   6.095
 6489SOL    HW120366   4.317   2.995   6.047
 6489SOL    HW220367   4.196   3.104   6.047
 6490SOL     OW20368   1.861   2.235   6.432
 6490SOL    HW120369   1.843   2.308   6.497
 6490SOL    HW220370   1.958   2.213   6.430
 6491SOL     OW20371   1.570   0.527   0.107
 6491SOL    HW120372   1.486   0.542   0.159
 6491SOL    HW220373   1.551   0.467   0.029
 6492SOL     OW20374   3.638   3.960   5.018
 6492SOL    HW120375   3.661   3.914   5.104
 6492SOL    HW220376   3.669   3.903   4.941
 6493SOL     OW20377   1.103   4.565   5.997
 6493SOL    HW120378   1.078   4.477   6.039
 6493SOL    HW220379   1.063   4.570   5.906
 6494SOL     OW20380   6.236   6.772   2.195
 6494SOL    HW120381   6.140   6.796   2.210
 6494SOL    HW220382   6.244   6.714   2.114
 6495SOL     OW20383   0.259   0.052   3.373
 6495SOL    HW120384   0.232   0.023   3.465
 6495SOL    HW220385   0.258   0.152   3.367
 6496SOL     OW20386   5.065   0.657   2.079
 6496SOL    HW120387   5.052   0.558   2.076
 6496SOL    HW220388   5.163   0.678   2.071
 6497SOL     OW20389   0.017   1.764   0.320
 6497SOL    HW120390   7.010   1.830   0.252
 6497SOL    HW220391   0.111   1.788   0.346
 6498SOL     OW20392   1.094   4.107   3.720
 6498SOL    HW120393   1.114   4.100   3.623
 6498SOL    HW220394   1.063   4.019   3.755
 6499SOL     OW20395   5.635   3.715   3.652
 6499SOL    HW120396   5.646   3.801   3.703
 6499SOL    HW220397   5.607   3.642   3.715
 6500SOL     OW20398   1.563   4.013   2.869
 6500SOL    HW120399   1.532   3.926   2.910
 6500SOL    HW220400   1.659   4.029   2.893
 6501SOL     OW20401   6.079   2.094   1.114
 6501SOL    HW120402   6.033   2.158   1.052
 6501SOL    HW220403   6.107   2.013   1.063
 6502SOL     OW20404   6.181   3.838   1.553
 6502SOL    HW120405   6.144   3.811   1.464
 6502SOL    HW220406   6.133   3.788   1.625
 6503SOL     OW20407   6.690   3.293   5.374
 6503SOL    HW120408   6.676   3.319   5.279
 6503SOL    HW220409   6.635   3.211   5.394
 6504SOL     OW20410   4.568   6.276   6.516
 6504SOL    HW120411   4.535   6.363   6.553
 6504SOL    HW220412   4.664   6.264   6.539
 6505SOL     OW20413   5.750   5.613   6.710
 6505SOL    HW120414   5.676   5.614   6.642
 6505SOL    HW220415   5.761   5.705   6.748
 6506SOL     OW20416   0.256   3.082   2.472
 6506SOL    HW120417   0.172   3.062   2.421
 6506SOL    HW220418   0.294   3.168   2.439
 6507SOL     OW20419   3.893   4.757   6.716
 6507SOL    HW120420   3.822   4.691   6.743
 6507SOL    HW220421   3.910   4.748   6.618
 6508SOL     OW20422   1.177   6.367   1.804
 6508SOL    HW120423   1.168   6.329   1.712
 6508SOL    HW220424   1.160   6.465   1.801
 6509SOL     OW20425   3.601   1.638   5.746
 6509SOL    HW120426   3.526   1.658   5.810
 6509SOL    HW220427   3.564   1.627   5.654
 6510SOL     OW20428   4.467   6.041   5.822
 6510SOL    HW120429   4.539   5.994   5.873
 6510SOL    HW220430   4.500   6.063   5.730
 6511SOL     OW20431   3.289   0.839   0.325
 6511SOL    HW120432   3.261   0.882   0.239
 6511SOL    HW220433   3.386   0.814   0.319
 6512SOL     OW20434   3.169   0.884   1.217
 6512SOL    HW120435   3.236   0.933   1.273
 6512SOL    HW220436   3.084   0.873   1.268
 6513SOL     OW20437   2.860   5.538   4.154
 6513SOL    HW120438   2.811   5.586   4.227
 6513SOL    HW220439   2.883   5.603   4.081
 6514SOL     OW20440   5.760   0.281   5.676
 6514SOL    HW120441   5.681   0.288   5.615
 6514SOL    HW220442   5.749   0.344   5.752
 6515SOL     OW20443   2.330   5.127   2.473
 6515SOL    HW120444   2.337   5.122   2.373
 6515SOL    HW220445   2.315   5.035   2.509
 6516SOL     OW20446   6.626   3.377   0.985
 6516SOL    HW120447   6.591   3.450   0.928
 6516SOL    HW220448   6.636   3.294   0.931
 6517SOL     OW20449   6.810   2.857   6.790
 6517SOL    HW120450   6.783   2.834   6.697
 6517SOL    HW220451   6.879   2.930   6.788
 6518SOL     OW20452   1.244   1.633   2.775
 6518SOL    HW120453   1.233   1.688   2.858
 6518SOL    HW220454   1.161   1.581   2.758
 6519SOL     OW20455   1.223   1.706   3.046
 6519SOL    HW120456   1.249   1.609   3.048
 6519SOL    HW220457   1.297   1.761   3.086
 6520SOL     OW20458   0.331   5.598   0.220
 6520SOL    HW120459   0.398   5.657   0.175
 6520SOL    HW220460   0.241   5.642   0.215
 6521SOL     OW20461   1.230   3.150   4.290
 6521SOL    HW120462   1.227   3.085   4.365
 6521SOL    HW220463   1.151   3.212   4.296
 6522SOL     OW20464   2.559   3.912   5.354
 6522SOL    HW120465   2.495   3.959   5.293
 6522SOL    HW220466   2.645   3.895   5.305
 6523SOL     OW20467   6.055   0.603   0.344
 6523SOL    HW120468   5.960   0.623   0.324
 6523SOL    HW220469   6.074   0.507   0.324
 6524SOL     OW20470   2.187   2.280   1.513
 6524SOL    HW120471   2.106   2.248   1.464
 6524SOL    HW220472   2.166   2.287   1.611
 6525SOL     OW20473   1.099   4.755   3.452
 6525SOL    HW120474   1.111   4.744   3.550
 6525SOL    HW220475   1.082   4.666   3.410
 6526SOL     OW20476   6.906   0.315   0.893
 6526SOL    HW120477   6.949   0.277   0.811
 6526SOL    HW220478   6.971   0.313   0.969
 6527SOL     OW20479   0.766   2.585   0.421
 6527SOL    HW120480   0.714   2.517   0.368
 6527SOL    HW220481   0.738   2.677   0.393
 6528SOL     OW20482   5.979   0.974   5.596
 6528SOL    HW120483   6.021   0.962   5.506
 6528SOL    HW220484   6.034   0.928   5.665
 6529SOL     OW20485   6.787   1.135   2.483
 6529SOL    HW120486   6.859   1.165   2.546
 6529SOL    HW220487   6.791   1.189   2.399
 6530SOL     OW20488   0.597   2.500   2.374
 6530SOL    HW120489   0.561   2.523   2.284
 6530SOL    HW220490   0.692   2.530   2.381
 6531SOL     OW20491   3.673   3.248   5.630
 6531SOL    HW120492   3.608   3.301   5.685
 6531SOL    HW220493   3.643   3.247   5.535
 6532SOL     OW20494   1.404   0.752   0.751
 6532SOL    HW120495   1.425   0.702   0.835
 6532SOL    HW220496   1.384   0.848   0.774
 6533SOL     OW20497   4.214   3.626   6.900
 6533SOL    HW120498   4.207   3.705   6.960
 6533SOL    HW220499   4.225   3.543   6.954
 6534SOL     OW20500   6.180   4.739   2.330
 6534SOL    HW120501   6.227   4.658   2.363
 6534SOL    HW220502   6.151   4.795   2.407
 6535SOL     OW20503   6.264   3.406   5.193
 6535SOL    HW120504   6.165   3.411   5.209
 6535SOL    HW220505   6.313   3.440   5.274
 6536SOL     OW20506   0.526   3.686   5.136
 6536SOL    HW120507   0.615   3.644   5.123
 6536SOL    HW220508   0.465   3.623   5.184
 6537SOL     OW20509   6.065   4.810   4.163
 6537SOL    HW120510   6.122   4.732   4.136
 6537SOL    HW220511   5.975   4.800   4.121
 6538SOL     OW20512   2.392   3.517   5.329
 6538SOL    HW120513   2.438   3.558   5.409
 6538SOL    HW220514   2.389   3.418   5.340
 6539SOL     OW20515   6.396   0.418   6.117
 6539SOL    HW120516   6.386   0.319   6.121
 6539SOL    HW220517   6.347   0.460   6.193
 6540SOL     OW20518   4.749   2.851   6.037
 6540SOL    HW120519   4.770   2.753   6.041
 6540SOL    HW220520   4.700   2.871   5.952
 6541SOL     OW20521   5.636   1.097   4.560
 6541SOL    HW120522   5.682   1.101   4.472
 6541SOL    HW220523   5.592   1.008   4.571
 6542SOL     OW20524   1.469   3.539   4.808
 6542SOL    HW120525   1.380   3.577   4.784
 6542SOL    HW220526   1.473   3.444   4.777
 6543SOL     OW20527   4.041   2.291   5.313
 6543SOL    HW120528   3.998   2.278   5.402
 6543SOL    HW220529   4.047   2.389   5.292
 6544SOL     OW20530   1.057   6.483   2.091
 6544SOL    HW120531   1.029   6.555   2.155
 6544SOL    HW220532   1.116   6.522   2.020
 6545SOL     OW20533   4.508   0.173   1.330
 6545SOL    HW120534   4.450   0.188   1.250
 6545SOL    HW220535   4.593   0.129   1.303
 6546SOL     OW20536   5.028   3.852   6.105
 6546SOL    HW120537   5.091   3.813   6.038
 6546SOL    HW220538   4.994   3.940   6.072
 6547SOL     OW20539   5.681   5.801   0.137
 6547SOL    HW120540   5.591   5.772   0.170
 6547SOL    HW220541   5.731   5.721   0.103
 6548SOL     OW20542   0.613   2.399   5.715
 6548SOL    HW120543   0.666   2.338   5.655
 6548SOL    HW220544   0.672   2.437   5.785
 6549SOL     OW20545   5.147   6.632   1.967
 6549SOL    HW120546   5.182   6.553   1.917
 6549SOL    HW220547   5.058   6.658   1.930
 6550SOL     OW20548   6.686   6.735   3.104
 6550SOL    HW120549   6.599   6.695   3.075
 6550SOL    HW220550   6.758   6.708   3.039
 6551SOL     OW20551   3.141   3.316   1.673
 6551SOL    HW120552   3.114   3.412   1.677
 6551SOL    HW220553   3.175   3.295   1.581
 6552SOL     OW20554   1.988   0.185   0.202
 6552SOL    HW120555   1.911   0.246   0.223
 6552SOL    HW220556   2.048   0.179   0.282
 6553SOL     OW20557   0.299   0.745   2.951
 6553SOL    HW120558   0.242   0.826   2.934
 6553SOL    HW220559   0.251   0.684   3.013
 6554SOL     OW20560   3.256   1.049   4.928
 6554SOL    HW120561   3.164   1.043   4.890
 6554SOL    HW220562   3.323   1.021   4.859
 6555SOL     OW20563   6.460   2.099   4.557
 6555SOL    HW120564   6.413   2.185   4.577
 6555SOL    HW220565   6.407   2.023   4.593
 6556SOL     OW20566   5.359   2.930   3.820
 6556SOL    HW120567   5.311   2.976   3.895
 6556SOL    HW220568   5.328   2.968   3.733
 6557SOL     OW20569   1.542   6.712   2.274
 6557SOL    HW120570   1.496   6.647   2.214
 6557SOL    HW220571   1.509   6.699   2.368
 6558SOL     OW20572   5.547   4.858   0.461
 6558SOL    HW120573   5.635   4.906   0.455
 6558SOL    HW220574   5.477   4.912   0.413
 6559SOL     OW20575   6.178   2.908   6.210
 6559SOL    HW120576   6.160   2.854   6.128
 6559SOL    HW220577   6.275   2.901   6.234
 6560SOL     OW20578   5.120   4.807   0.481
 6560SOL    HW120579   5.169   4.748   0.417
 6560SOL    HW220580   5.132   4.773   0.574
 6561SOL     OW20581   3.647   4.865   0.530
 6561SOL    HW120582   3.662   4.960   0.504
 6561SOL    HW220583   3.552   4.839   0.512
 6562SOL     OW20584   6.122   2.751   0.906
 6562SOL    HW120585   6.189   2.710   0.845
 6562SOL    HW220586   6.115   2.849   0.888
 6563SOL     OW20587   5.154   6.483   4.727
 6563SOL    HW120588   5.225   6.530   4.673
 6563SOL    HW220589   5.078   6.546   4.742
 6564SOL     OW20590   6.872   4.105   2.521
 6564SOL    HW120591   6.933   4.167   2.570
 6564SOL    HW220592   6.859   4.022   2.574
 6565SOL     OW20593   5.836   0.356   2.491
 6565SOL    HW120594   5.854   0.420   2.566
 6565SOL    HW220595   5.738   0.337   2.486
 6566SOL     OW20596   3.915   6.186   2.448
 6566SOL    HW120597   3.830   6.134   2.464
 6566SOL    HW220598   3.895   6.267   2.393
 6567SOL     OW20599   4.431   0.574   1.270
 6567SOL    HW120600   4.447   0.522   1.187
 6567SOL    HW220601   4.479   0.532   1.347
 6568SOL     OW20602   3.718   0.805   1.847
 6568SOL    HW120603   3.800   0.854   1.817
 6568SOL    HW220604   3.645   0.817   1.780
 6569SOL     OW20605   0.982   3.547   5.887
 6569SOL    HW120606   1.079   3.570   5.881
 6569SOL    HW220607   0.936   3.613   5.946
 6570SOL     OW20608   3.650   6.602   1.896
 6570SOL    HW120609   3.555   6.590   1.866
 6570SOL    HW220610   3.695   6.668   1.836
 6571SOL     OW20611   2.620   5.005   3.480
 6571SOL    HW120612   2.623   5.059   3.396
 6571SOL    HW220613   2.561   4.926   3.466
 6572SOL     OW20614   0.433   6.046   4.020
 6572SOL    HW120615   0.366   5.973   4.006
 6572SOL    HW220616   0.518   6.007   4.056
 6573SOL     OW20617   2.219   1.464   2.854
 6573SOL    HW120618   2.233   1.391   2.788
 6573SOL    HW220619   2.245   1.432   2.945
 6574SOL     OW20620   2.054   5.932   2.175
 6574SOL    HW120621   2.015   5.956   2.263
 6574SOL    HW220622   2.004   5.854   2.136
 6575SOL     OW20623   6.998   0.270   2.362
 6575SOL    HW120624   6.962   0.346   2.308
 6575SOL    HW220625   0.072   0.275   2.364
 6576SOL     OW20626   3.555   5.862   0.696
 6576SOL    HW120627   3.568   5.795   0.769
 6576SOL    HW220628   3.530   5.950   0.736
 6577SOL     OW20629   2.118   1.984   3.966
 6577SOL    HW120630   2.079   1.903   3.922
 6577SOL    HW220631   2.188   1.956   4.031
 6578SOL     OW20632   1.813   5.500   1.716
 6578SOL    HW120633   1.858   5.433   1.775
 6578SOL    HW220634   1.793   5.458   1.628
 6579SOL     OW20635   0.210   1.087   3.807
 6579SOL    HW120636   0.161   1.169   3.777
 6579SOL    HW220637   0.181   1.063   3.900
 6580SOL     OW20638   1.033   0.365   6.869
 6580SOL    HW120639   1.053   0.461   6.850
 6580SOL    HW220640   1.032   0.351   6.968
 6581SOL     OW20641   1.795   1.846   6.559
 6581SOL    HW120642   1.883   1.874   6.598
 6581SOL    HW220643   1.759   1.768   6.611
 6582SOL     OW20644   6.418   0.630   2.850
 6582SOL    HW120645   6.410   0.543   2.801
 6582SOL    HW220646   6.363   0.627   2.934
 6583SOL     OW20647   4.331   6.268   6.818
 6583SOL    HW120648   4.412   6.209   6.804
 6583SOL    HW220649   4.255   6.232   6.764
 6584SOL     OW20650   3.437   2.309   0.997
 6584SOL    HW120651   3.360   2.370   0.979
 6584SOL    HW220652   3.406   2.226   1.043
 6585SOL     OW20653   5.876   0.212   0.891
 6585SOL    HW120654   5.888   0.308   0.865
 6585SOL    HW220655   5.916   0.153   0.821
 6586SOL     OW20656   6.288   2.523   5.873
 6586SOL    HW120657   6.263   2.504   5.968
 6586SOL    HW220658   6.250   2.451   5.814
 6587SOL     OW20659   1.371   4.105   5.647
 6587SOL    HW120660   1.316   4.089   5.729
 6587SOL    HW220661   1.460   4.142   5.673
 6588SOL     OW20662   0.590   3.189   0.304
 6588SOL    HW120663   0.495   3.182   0.335
 6588SOL    HW220664   0.649   3.213   0.382
 6589SOL     OW20665   6.858   0.929   1.724
 6589SOL    HW120666   6.925   0.930   1.650
 6589SOL    HW220667   6.766   0.924   1.686
 6590SOL     OW20668   0.888   0.592   4.445
 6590SOL    HW120669   0.974   0.558   4.483
 6590SOL    HW220670   0.813   0.531   4.472
 6591SOL     OW20671   5.246   4.884   4.177
 6591SOL    HW120672   5.161   4.885   4.124
 6591SOL    HW220673   5.291   4.973   4.171
 6592SOL     OW20674   5.031   6.558   3.181
 6592SOL    HW120675   4.973   6.582   3.258
 6592SOL    HW220676   5.109   6.504   3.213
 6593SOL     OW20677   2.617   2.417   2.403
 6593SOL    HW120678   2.587   2.454   2.315
 6593SOL    HW220679   2.619   2.490   2.471
 6594SOL     OW20680   3.993   1.781   6.167
 6594SOL    HW120681   4.008   1.838   6.249
 6594SOL    HW220682   4.077   1.777   6.114
 6595SOL     OW20683   1.802   2.056   4.833
 6595SOL    HW120684   1.767   1.962   4.832
 6595SOL    HW220685   1.788   2.098   4.743
 6596SOL     OW20686   5.725   5.858   2.658
 6596SOL    HW120687   5.744   5.950   2.690
 6596SOL    HW220688   5.652   5.817   2.713
 6597SOL     OW20689   1.264   4.882   2.507
 6597SOL    HW120690   1.338   4.896   2.441
 6597SOL    HW220691   1.300   4.892   2.600
 6598SOL     OW20692   1.856   4.882   4.183
 6598SOL    HW120693   1.768   4.845   4.155
 6598SOL    HW220694   1.930   4.831   4.139
 6599SOL     OW20695   6.209   6.333   6.022
 6599SOL    HW120696   6.203   6.421   5.976
 6599SOL    HW220697   6.291   6.331   6.080
 6600SOL     OW20698   4.792   6.944   5.451
 6600SOL    HW120699   4.873   6.960   5.395
 6600SOL    HW220700   4.735   0.001   5.452
 6601SOL     OW20701   1.291   3.084   2.403
 6601SOL    HW120702   1.204   3.117   2.442
 6601SOL    HW220703   1.354   3.161   2.394
 6602SOL     OW20704   2.303   0.233   1.329
 6602SOL    HW120705   2.398   0.234   1.300
 6602SOL    HW220706   2.298   0.251   1.427
 6603SOL     OW20707   0.731   2.573   3.329
 6603SOL    HW120708   0.791   2.531   3.261
 6603SOL    HW220709   0.707   2.665   3.299
 6604SOL     OW20710   2.085   6.655   1.837
 6604SOL    HW120711   2.124   6.727   1.779
 6604SOL    HW220712   1.995   6.683   1.870
 6605SOL     OW20713   6.314   5.429   1.768
 6605SOL    HW120714   6.340   5.391   1.679
 6605SOL    HW220715   6.223   5.396   1.793
 6606SOL     OW20716   1.960   3.354   3.884
 6606SOL    HW120717   1.920   3.283   3.826
 6606SOL    HW220718   2.023   3.314   3.950
 6607SOL     OW20719   5.612   3.767   3.374
 6607SOL    HW120720   5.619   3.765   3.473
 6607SOL    HW220721   5.704   3.766   3.334
 6608SOL     OW20722   6.882   6.916   6.332
 6608SOL    HW120723   6.935   6.972   6.396
 6608SOL    HW220724   6.870   6.965   6.246
 6609SOL     OW20725   4.815   2.100   5.758
 6609SOL    HW120726   4.815   2.006   5.723
 6609SOL    HW220727   4.800   2.164   5.682
 6610SOL     OW20728   3.173   5.446   1.086
 6610SOL    HW120729   3.233   5.385   1.035
 6610SOL    HW220730   3.163   5.412   1.180
 6611SOL     OW20731   4.940   2.239   3.962
 6611SOL    HW120732   4.926   2.165   3.897
 6611SOL    HW220733   4.871   2.232   4.035
 6612SOL     OW20734   5.868   2.090   6.532
 6612SOL    HW120735   5.894   1.994   6.517
 6612SOL    HW220736   5.932   2.132   6.596
 6613SOL     OW20737   4.996   0.608   6.893
 6613SOL    HW120738   5.014   0.569   6.983
 6613SOL    HW220739   5.074   0.589   6.833
 6614SOL     OW20740   4.506   6.013   2.157
 6614SOL    HW120741   4.409   6.029   2.175
 6614SOL    HW220742   4.553   5.994   2.243
 6615SOL     OW20743   2.938   5.992   0.848
 6615SOL    HW120744   2.916   5.922   0.779
 6615SOL    HW220745   2.858   6.050   0.863
 6616SOL     OW20746   4.660   0.761   6.599
 6616SOL    HW120747   4.718   0.693   6.644
 6616SOL    HW220748   4.586   0.789   6.660
 6617SOL     OW20749   4.031   0.704   3.741
 6617SOL    HW120750   4.046   0.605   3.739
 6617SOL    HW220751   4.118   0.751   3.756
 6618SOL     OW20752   0.504   1.976   3.320
 6618SOL    HW120753   0.589   1.963   3.372
 6618SOL    HW220754   0.437   2.025   3.375
 6619SOL     OW20755   4.775   6.213   4.295
 6619SOL    HW120756   4.814   6.266   4.219
 6619SOL    HW220757   4.743   6.277   4.365
 6620SOL     OW20758   0.536   3.473   3.661
 6620SOL    HW120759   0.517   3.515   3.572
 6620SOL    HW220760   0.606   3.402   3.649
 6621SOL     OW20761   4.069   3.396   5.218
 6621SOL    HW120762   4.161   3.358   5.210
 6621SOL    HW220763   4.029   3.405   5.126
 6622SOL     OW20764   6.927   5.960   0.899
 6622SOL    HW120765   6.925   6.003   0.990
 6622SOL    HW220766   6.945   6.029   0.830
 6623SOL     OW20767   3.222   4.631   5.650
 6623SOL    HW120768   3.285   4.563   5.611
 6623SOL    HW220769   3.164   4.587   5.719
 6624SOL     OW20770   0.656   2.310   4.519
 6624SOL    HW120771   0.726   2.355   4.464
 6624SOL    HW220772   0.639   2.218   4.483
 6625SOL     OW20773   6.010   2.741   5.639
 6625SOL    HW120774   6.103   2.775   5.647
 6625SOL    HW220775   5.945   2.814   5.660
 6626SOL     OW20776   2.836   6.680   4.791
 6626SOL    HW120777   2.917   6.690   4.733
 6626SOL    HW220778   2.865   6.673   4.887
 6627SOL     OW20779   1.114   5.920   4.635
 6627SOL    HW120780   1.170   5.839   4.653
 6627SOL    HW220781   1.035   5.893   4.579
 6628SOL     OW20782   4.805   5.620   4.036
 6628SOL    HW120783   4.887   5.564   4.028
 6628SOL    HW220784   4.724   5.562   4.021
 6629SOL     OW20785   5.353   6.227   6.974
 6629SOL    HW120786   5.299   6.209   0.030
 6629SOL    HW220787   5.451   6.224   6.997
 6630SOL     OW20788   2.345   1.791   1.340
 6630SOL    HW120789   2.253   1.796   1.300
 6630SOL    HW220790   2.339   1.807   1.439
 6631SOL     OW20791   2.006   4.627   6.030
 6631SOL    HW120792   1.926   4.608   6.088
 6631SOL    HW220793   1.979   4.685   5.954
 6632SOL     OW20794   1.263   0.304   0.433
 6632SOL    HW120795   1.315   0.231   0.476
 6632SOL    HW220796   1.175   0.314   0.479
 6633SOL     OW20797   3.238   5.663   6.525
 6633SOL    HW120798   3.220   5.738   6.589
 6633SOL    HW220799   3.209   5.576   6.566
 6634SOL     OW20800   5.072   1.743   5.216
 6634SOL    HW120801   5.012   1.711   5.290
 6634SOL    HW220802   5.166   1.711   5.234
 6635SOL     OW20803   5.338   4.627   2.122
 6635SOL    HW120804   5.420   4.591   2.077
 6635SOL    HW220805   5.353   4.722   2.149
 6636SOL     OW20806   3.660   0.064   1.797
 6636SOL    HW120807   3.725   0.127   1.756
 6636SOL    HW220808   3.675   6.998   1.759
 6637SOL     OW20809   1.620   0.778   0.549
 6637SOL    HW120810   1.551   0.780   0.621
 6637SOL    HW220811   1.596   0.845   0.478
 6638SOL     OW20812   3.275   4.053   3.875
 6638SOL    HW120813   3.260   3.955   3.860
 6638SOL    HW220814   3.370   4.076   3.858
 6639SOL     OW20815   4.574   2.688   1.166
 6639SOL    HW120816   4.481   2.716   1.141
 6639SOL    HW220817   4.583   2.690   1.266
 6640SOL     OW20818   0.945   2.634   5.178
 6640SOL    HW120819   0.887   2.676   5.247
 6640SOL    HW220820   1.033   2.681   5.175
 6641SOL     OW20821   3.761   1.755   1.037
 6641SOL    HW120822   3.694   1.681   1.045
 6641SOL    HW220823   3.784   1.790   1.128
 6642SOL     OW20824   1.515   5.629   0.429
 6642SOL    HW120825   1.415   5.636   0.423
 6642SOL    HW220826   1.555   5.720   0.437
 6643SOL     OW20827   5.112   6.532   0.457
 6643SOL    HW120828   5.090   6.600   0.526
 6643SOL    HW220829   5.191   6.478   0.487
 6644SOL     OW20830   1.773   6.375   2.969
 6644SOL    HW120831   1.713   6.384   2.890
 6644SOL    HW220832   1.757   6.451   3.032
 6645SOL     OW20833   6.335   2.925   0.227
 6645SOL    HW120834   6.370   2.958   0.140
 6645SOL    HW220835   6.396   2.855   0.264
 6646SOL     OW20836   3.992   0.164   0.016
 6646SOL    HW120837   3.969   0.141   0.110
 6646SOL    HW220838   3.943   0.247   7.015
 6647SOL     OW20839   4.537   5.063   1.210
 6647SOL    HW120840   4.558   4.975   1.251
 6647SOL    HW220841   4.488   5.120   1.276
 6648SOL     OW20842   3.055   6.346   5.005
 6648SOL    HW120843   2.981   6.348   5.072
 6648SOL    HW220844   3.036   6.277   4.936
 6649SOL     OW20845   5.896   2.525   6.725
 6649SOL    HW120846   5.949   2.500   6.644
 6649SOL    HW220847   5.836   2.450   6.750
 6650SOL     OW20848   3.155   1.118   5.249
 6650SOL    HW120849   3.176   1.022   5.231
 6650SOL    HW220850   3.229   1.175   5.213
 6651SOL     OW20851   0.690   1.587   6.909
 6651SOL    HW120852   0.700   1.523   6.832
 6651SOL    HW220853   0.680   1.680   6.874
 6652SOL     OW20854   1.200   4.783   0.166
 6652SOL    HW120855   1.223   4.765   0.262
 6652SOL    HW220856   1.119   4.730   0.141
 6653SOL     OW20857   5.501   2.736   0.506
 6653SOL    HW120858   5.559   2.779   0.437
 6653SOL    HW220859   5.557   2.680   0.567
 6654SOL     OW20860   0.510   4.523   3.117
 6654SOL    HW120861   0.580   4.590   3.090
 6654SOL    HW220862   0.546   4.464   3.189
 6655SOL     OW20863   6.773   5.360   1.641
 6655SOL    HW120864   6.802   5.453   1.620
 6655SOL    HW220865   6.781   5.343   1.740
 6656SOL     OW20866   4.050   1.326   2.563
 6656SOL    HW120867   4.088   1.285   2.481
 6656SOL    HW220868   3.991   1.403   2.538
 6657SOL     OW20869   5.758   2.610   4.798
 6657SOL    HW120870   5.781   2.614   4.701
 6657SOL    HW220871   5.659   2.608   4.808
 6658SOL     OW20872   6.015   6.559   4.839
 6658SOL    HW120873   6.111   6.570   4.863
 6658SOL    HW220874   5.958   6.606   4.906
 6659SOL     OW20875   1.289   4.834   2.021
 6659SOL    HW120876   1.332   4.744   2.032
 6659SOL    HW220877   1.205   4.837   2.075
 6660SOL     OW20878   0.514   5.430   2.862
 6660SOL    HW120879   0.487   5.431   2.766
 6660SOL    HW220880   0.433   5.413   2.919
 6661SOL     OW20881   3.160   6.640   4.126
 6661SOL    HW120882   3.251   6.617   4.161
 6661SOL    HW220883   3.156   6.620   4.028
 6662SOL     OW20884   2.572   6.957   1.870
 6662SOL    HW120885   2.636   6.994   1.802
 6662SOL    HW220886   2.479   6.979   1.842
 6663SOL     OW20887   1.449   5.054   5.965
 6663SOL    HW120888   1.414   5.144   5.992
 6663SOL    HW220889   1.527   5.066   5.903
 6664SOL     OW20890   2.517   0.833   1.517
 6664SOL    HW120891   2.565   0.798   1.436
 6664SOL    HW220892   2.505   0.932   1.508
 6665SOL     OW20893   2.793   0.470   5.892
 6665SOL    HW120894   2.851   0.391   5.876
 6665SOL    HW220895   2.770   0.476   5.990
 6666SOL     OW20896   6.042   5.785   4.733
 6666SOL    HW120897   6.139   5.799   4.713
 6666SOL    HW220898   6.032   5.749   4.826
 6667SOL     OW20899   6.347   6.296   5.758
 6667SOL    HW120900   6.282   6.278   5.832
 6667SOL    HW220901   6.382   6.210   5.722
 6668SOL     OW20902   6.899   6.625   1.595
 6668SOL    HW120903   6.822   6.621   1.659
 6668SOL    HW220904   6.875   6.578   1.510
 6669SOL     OW20905   1.830   1.527   1.897
 6669SOL    HW120906   1.873   1.437   1.894
 6669SOL    HW220907   1.795   1.543   1.990
 6670SOL     OW20908   3.332   1.866   6.890
 6670SOL    HW120909   3.301   1.808   6.965
 6670SOL    HW220910   3.396   1.814   6.833
 6671SOL     OW20911   5.116   6.505   0.144
 6671SOL    HW120912   5.123   6.520   0.243
 6671SOL    HW220913   5.040   6.557   0.107
 6672SOL     OW20914   1.310   2.455   0.253
 6672SOL    HW120915   1.323   2.540   0.303
 6672SOL    HW220916   1.394   2.432   0.204
 6673SOL     OW20917   5.235   3.454   4.412
 6673SOL    HW120918   5.135   3.453   4.411
 6673SOL    HW220919   5.269   3.401   4.334
 6674SOL     OW20920   0.417   2.954   6.501
 6674SOL    HW120921   0.352   3.029   6.496
 6674SOL    HW220922   0.380   2.874   6.453
 6675SOL     OW20923   4.442   2.849   6.975
 6675SOL    HW120924   4.355   2.800   6.975
 6675SOL    HW220925   4.439   2.923   6.908
 6676SOL     OW20926   1.008   3.846   3.765
 6676SOL    HW120927   1.040   3.815   3.854
 6676SOL    HW220928   0.938   3.783   3.731
 6677SOL     OW20929   0.619   1.006   0.321
 6677SOL    HW120930   0.631   0.909   0.302
 6677SOL    HW220931   0.530   1.036   0.287
 6678SOL     OW20932   1.699   4.728   0.658
 6678SOL    HW120933   1.742   4.801   0.605
 6678SOL    HW220934   1.711   4.745   0.756
 6679SOL     OW20935   2.420   0.946   3.537
 6679SOL    HW120936   2.479   1.022   3.509
 6679SOL    HW220937   2.326   0.964   3.505
 6680SOL     OW20938   5.403   6.622   0.677
 6680SOL    HW120939   5.457   6.606   0.759
 6680SOL    HW220940   5.378   6.534   0.636
 6681SOL     OW20941   4.672   5.579   1.568
 6681SOL    HW120942   4.686   5.485   1.539
 6681SOL    HW220943   4.631   5.580   1.660
 6682SOL     OW20944   3.021   5.750   0.190
 6682SOL    HW120945   3.072   5.666   0.209
 6682SOL    HW220946   3.022   5.768   0.092
 6683SOL     OW20947   5.997   3.693   6.718
 6683SOL    HW120948   6.041   3.731   6.637
 6683SOL    HW220949   5.898   3.688   6.704
 6684SOL     OW20950   2.969   6.878   1.617
 6684SOL    HW120951   2.994   6.917   1.528
 6684SOL    HW220952   2.993   6.781   1.619
 6685SOL     OW20953   3.950   3.486   6.541
 6685SOL    HW120954   4.026   3.548   6.559
 6685SOL    HW220955   3.911   3.454   6.627
 6686SOL     OW20956   5.824   5.359   3.977
 6686SOL    HW120957   5.758   5.410   4.032
 6686SOL    HW220958   5.867   5.422   3.911
 6687SOL     OW20959   6.534   2.396   1.811
 6687SOL    HW120960   6.553   2.477   1.756
 6687SOL    HW220961   6.548   2.314   1.755
 6688SOL     OW20962   3.763   5.075   1.202
 6688SOL    HW120963   3.668   5.104   1.209
 6688SOL    HW220964   3.811   5.135   1.137
 6689SOL     OW20965   2.937   4.951   6.096
 6689SOL    HW120966   2.975   5.010   6.025
 6689SOL    HW220967   3.008   4.888   6.129
 6690SOL     OW20968   0.908   0.354   6.249
 6690SOL    HW120969   0.946   0.419   6.315
 6690SOL    HW220970   0.872   0.404   6.170
 6691SOL     OW20971   1.772   1.624   2.602
 6691SOL    HW120972   1.818   1.607   2.689
 6691SOL    HW220973   1.720   1.709   2.608
 6692SOL     OW20974   4.279   4.784   1.623
 6692SOL    HW120975   4.193   4.796   1.673
 6692SOL    HW220976   4.319   4.696   1.647
 6693SOL     OW20977   4.700   1.552   5.103
 6693SOL    HW120978   4.791   1.528   5.068
 6693SOL    HW220979   4.637   1.563   5.026
 6694SOL     OW20980   3.741   6.127   1.073
 6694SOL    HW120981   3.810   6.055   1.087
 6694SOL    HW220982   3.765   6.181   0.993
 6695SOL     OW20983   3.167   2.009   0.151
 6695SOL    HW120984   3.188   2.100   0.185
 6695SOL    HW220985   3.097   2.015   0.080
 6696SOL     OW20986   3.855   3.841   4.266
 6696SOL    HW120987   3.859   3.889   4.354
 6696SOL    HW220988   3.947   3.818   4.236
 6697SOL     OW20989   4.848   1.997   2.342
 6697SOL    HW120990   4.771   2.042   2.298
 6697SOL    HW220991   4.886   1.928   2.280
 6698SOL     OW20992   3.670   4.307   1.743
 6698SOL    HW120993   3.669   4.284   1.840
 6698SOL    HW220994   3.594   4.261   1.697
 6699SOL     OW20995   1.246   4.887   5.912
 6699SOL    HW120996   1.324   4.950   5.917
 6699SOL    HW220997   1.280   4.793   5.911
 6700SOL     OW20998   5.979   0.428   0.751
 6700SOL    HW120999   5.937   0.514   0.779
 6700SOL    HW221000   5.941   0.400   0.663
 6701SOL     OW21001   5.949   6.591   1.700
 6701SOL    HW121002   6.025   6.626   1.645
 6701SOL    HW221003   5.972   6.596   1.797
 6702SOL     OW21004   2.553   2.010   1.020
 6702SOL    HW121005   2.548   2.022   1.119
 6702SOL    HW221006   2.495   1.933   0.992
 6703SOL     OW21007   1.585   1.904   5.814
 6703SOL    HW121008   1.638   1.974   5.767
 6703SOL    HW221009   1.493   1.900   5.774
 6704SOL     OW21010   3.710   1.760   4.920
 6704SOL    HW121011   3.649   1.775   4.843
 6704SOL    HW221012   3.734   1.847   4.962
 6705SOL     OW21013   6.475   3.729   1.199
 6705SOL    HW121014   6.483   3.828   1.214
 6705SOL    HW221015   6.396   3.694   1.250
 6706SOL     OW21016   0.741   6.345   1.152
 6706SOL    HW121017   0.741   6.257   1.199
 6706SOL    HW221018   0.816   6.401   1.189
 6707SOL     OW21019   6.234   0.520   2.430
 6707SOL    HW121020   6.329   0.492   2.443
 6707SOL    HW221021   6.181   0.442   2.396
 6708SOL     OW21022   6.681   4.354   1.416
 6708SOL    HW121023   6.608   4.286   1.412
 6708SOL    HW221024   6.717   4.370   1.324
 6709SOL     OW21025   1.553   4.624   2.149
 6709SOL    HW121026   1.492   4.562   2.100
 6709SOL    HW221027   1.594   4.688   2.083
 6710SOL     OW21028   4.086   1.108   2.073
 6710SOL    HW121029   4.076   1.023   2.125
 6710SOL    HW221030   3.997   1.152   2.063
 6711SOL     OW21031   4.577   6.039   6.811
 6711SOL    HW121032   4.531   5.997   6.732
 6711SOL    HW221033   4.672   6.007   6.814
 6712SOL     OW21034   5.956   3.838   0.376
 6712SOL    HW121035   5.983   3.742   0.370
 6712SOL    HW221036   6.025   3.895   0.331
 6713SOL     OW21037   1.616   0.478   4.107
 6713SOL    HW121038   1.534   0.439   4.150
 6713SOL    HW221039   1.659   0.542   4.170
 6714SOL     OW21040   5.844   1.258   0.352
 6714SOL    HW121041   5.935   1.296   0.367
 6714SOL    HW221042   5.808   1.224   0.439
 6715SOL     OW21043   1.317   1.219   1.119
 6715SOL    HW121044   1.366   1.235   1.205
 6715SOL    HW221045   1.339   1.128   1.084
 6716SOL     OW21046   6.695   5.313   2.597
 6716SOL    HW121047   6.679   5.234   2.538
 6716SOL    HW221048   6.608   5.357   2.619
 6717SOL     OW21049   3.187   2.848   6.872
 6717SOL    HW121050   3.232   2.760   6.889
 6717SOL    HW221051   3.099   2.850   6.919
 6718SOL     OW21052   3.512   1.083   1.954
 6718SOL    HW121053   3.462   0.999   1.975
 6718SOL    HW221054   3.499   1.106   1.858
 6719SOL     OW21055   1.836   7.007   0.047
 6719SOL    HW121056   1.742   7.025   0.016
 6719SOL    HW221057   1.860   0.046   0.119
 6720SOL     OW21058   2.488   0.977   6.049
 6720SOL    HW121059   2.486   1.066   6.003
 6720SOL    HW221060   2.429   0.913   6.000
 6721SOL     OW21061   0.293   1.156   0.480
 6721SOL    HW121062   0.311   1.073   0.427
 6721SOL    HW221063   0.369   1.172   0.543
 6722SOL     OW21064   6.466   2.989   0.003
 6722SOL    HW121065   6.561   2.957   0.009
 6722SOL    HW221066   6.429   2.966   6.939
 6723SOL     OW21067   1.558   1.865   6.070
 6723SOL    HW121068   1.550   1.766   6.075
 6723SOL    HW221069   1.564   1.894   5.975
 6724SOL     OW21070   2.204   3.075   6.050
 6724SOL    HW121071   2.136   3.002   6.053
 6724SOL    HW221072   2.158   3.164   6.052
 6725SOL     OW21073   5.946   3.041   3.231
 6725SOL    HW121074   5.917   3.050   3.327
 6725SOL    HW221075   6.035   2.996   3.228
 6726SOL     OW21076   0.135   1.300   5.479
 6726SOL    HW121077   0.219   1.279   5.429
 6726SOL    HW221078   0.117   1.227   5.546
 6727SOL     OW21079   1.079   4.831   5.708
 6727SOL    HW121080   1.135   4.852   5.788
 6727SOL    HW221081   1.136   4.832   5.626
 6728SOL     OW21082   4.243   1.943   3.439
 6728SOL    HW121083   4.275   1.917   3.530
 6728SOL    HW221084   4.217   2.040   3.439
 6729SOL     OW21085   5.647   2.015   1.136
 6729SOL    HW121086   5.695   2.101   1.156
 6729SOL    HW221087   5.707   1.938   1.158
 6730SOL     OW21088   1.589   1.074   0.831
 6730SOL    HW121089   1.534   1.026   0.899
 6730SOL    HW221090   1.531   1.137   0.779
 6731SOL     OW21091   2.377   6.608   1.085
 6731SOL    HW121092   2.431   6.544   1.139
 6731SOL    HW221093   2.283   6.574   1.076
 6732SOL     OW21094   5.908   4.147   4.343
 6732SOL    HW121095   6.002   4.183   4.343
 6732SOL    HW221096   5.851   4.203   4.283
 6733SOL     OW21097   3.279   6.188   0.002
 6733SOL    HW121098   3.335   6.269   7.011
 6733SOL    HW221099   3.288   6.161   0.098
 6734SOL     OW21100   5.174   1.724   4.959
 6734SOL    HW121101   5.126   1.737   5.046
 6734SOL    HW221102   5.122   1.766   4.885
 6735SOL     OW21103   5.889   3.169   4.065
 6735SOL    HW121104   5.942   3.239   4.113
 6735SOL    HW221105   5.858   3.100   4.130
 6736SOL     OW21106   3.372   4.354   1.060
 6736SOL    HW121107   3.385   4.338   0.963
 6736SOL    HW221108   3.353   4.451   1.076
 6737SOL     OW21109   0.629   2.733   1.366
 6737SOL    HW121110   0.688   2.798   1.414
 6737SOL    HW221111   0.681   2.650   1.345
 6738SOL     OW21112   1.587   5.564   3.304
 6738SOL    HW121113   1.655   5.634   3.324
 6738SOL    HW221114   1.542   5.535   3.388
 6739SOL     OW21115   6.951   6.994   3.752
 6739SOL    HW121116   6.894   6.973   3.673
 6739SOL    HW221117   6.997   6.910   3.783
 6740SOL     OW21118   6.479   6.867   4.468
 6740SOL    HW121119   6.573   6.831   4.469
 6740SOL    HW221120   6.422   6.809   4.410
 6741SOL     OW21121   4.907   1.819   5.729
 6741SOL    HW121122   4.838   1.761   5.771
 6741SOL    HW221123   4.983   1.831   5.792
 6742SOL     OW21124   5.456   4.773   3.447
 6742SOL    HW121125   5.542   4.735   3.479
 6742SOL    HW221126   5.431   4.729   3.360
 6743SOL     OW21127   3.723   4.520   6.694
 6743SOL    HW121128   3.645   4.518   6.757
 6743SOL    HW221129   3.691   4.509   6.600
 6744SOL     OW21130   6.574   5.568   6.117
 6744SOL    HW121131   6.649   5.605   6.171
 6744SOL    HW221132   6.604   5.557   6.022
 6745SOL     OW21133   0.276   6.271   4.027
 6745SOL    HW121134   0.349   6.203   4.021
 6745SOL    HW221135   0.212   6.246   4.100
 6746SOL     OW21136   1.646   1.404   2.508
 6746SOL    HW121137   1.716   1.472   2.530
 6746SOL    HW221138   1.560   1.430   2.551
 6747SOL     OW21139   0.177   6.838   6.493
 6747SOL    HW121140   0.179   6.820   6.394
 6747SOL    HW221141   0.186   6.752   6.543
 6748SOL     OW21142   3.232   1.607   4.199
 6748SOL    HW121143   3.280   1.691   4.224
 6748SOL    HW221144   3.215   1.553   4.282
 6749SOL     OW21145   3.402   4.029   0.620
 6749SOL    HW121146   3.489   4.063   0.656
 6749SOL    HW221147   3.376   4.085   0.541
 6750SOL     OW21148   2.862   1.077   4.531
 6750SOL    HW121149   2.902   1.042   4.446
 6750SOL    HW221150   2.935   1.099   4.595
 6751SOL     OW21151   4.410   0.305   3.449
 6751SOL    HW121152   4.424   0.296   3.547
 6751SOL    HW221153   4.394   0.401   3.426
 6752SOL     OW21154   1.578   6.686   2.608
 6752SOL    HW121155   1.559   6.784   2.606
 6752SOL    HW221156   1.504   6.639   2.657
 6753SOL     OW21157   3.874   2.253   5.545
 6753SOL    HW121158   3.862   2.345   5.584
 6753SOL    HW221159   3.785   2.208   5.539
 6754SOL     OW21160   6.307   0.701   1.016
 6754SOL    HW121161   6.291   0.614   0.971
 6754SOL    HW221162   6.225   0.757   1.011
 6755SOL     OW21163   3.199   4.836   1.238
 6755SOL    HW121164   3.138   4.820   1.316
 6755SOL    HW221165   3.181   4.926   1.199
 6756SOL     OW21166   2.639   1.384   5.802
 6756SOL    HW121167   2.617   1.416   5.709
 6756SOL    HW221168   2.727   1.337   5.800
 6757SOL     OW21169   3.414   1.346   1.145
 6757SOL    HW121170   3.432   1.445   1.142
 6757SOL    HW221171   3.465   1.305   1.221
 6758SOL     OW21172   5.044   2.684   1.133
 6758SOL    HW121173   5.010   2.707   1.225
 6758SOL    HW221174   5.065   2.769   1.084
 6759SOL     OW21175   6.782   3.246   3.030
 6759SOL    HW121176   6.785   3.146   3.031
 6759SOL    HW221177   6.795   3.278   2.936
 6760SOL     OW21178   5.946   3.250   2.669
 6760SOL    HW121179   5.931   3.253   2.768
 6760SOL    HW221180   5.858   3.252   2.622
 6761SOL     OW21181   4.985   2.325   4.591
 6761SOL    HW121182   4.920   2.333   4.515
 6761SOL    HW221183   5.045   2.247   4.575
 6762SOL     OW21184   0.374   5.151   4.131
 6762SOL    HW121185   0.456   5.126   4.182
 6762SOL    HW221186   0.294   5.111   4.176
 6763SOL     OW21187   5.234   5.933   5.229
 6763SOL    HW121188   5.223   5.903   5.134
 6763SOL    HW221189   5.203   5.860   5.291
 6764SOL     OW21190   1.438   5.552   2.146
 6764SOL    HW121191   1.422   5.602   2.061
 6764SOL    HW221192   1.534   5.559   2.171
 6765SOL     OW21193   6.467   4.413   3.888
 6765SOL    HW121194   6.429   4.505   3.879
 6765SOL    HW221195   6.502   4.383   3.799
 6766SOL     OW21196   4.249   6.459   6.990
 6766SOL    HW121197   4.290   6.396   6.924
 6766SOL    HW221198   4.312   6.473   0.040
 6767SOL     OW21199   3.255   0.724   0.588
 6767SOL    HW121200   3.326   0.771   0.640
 6767SOL    HW221201   3.241   0.770   0.500
 6768SOL     OW21202   1.895   0.787   6.015
 6768SOL    HW121203   1.853   0.862   5.965
 6768SOL    HW221204   1.993   0.805   6.026
 6769SOL     OW21205   3.221   2.354   0.031
 6769SOL    HW121206   3.307   2.321   0.068
 6769SOL    HW221207   3.210   2.320   6.963
 6770SOL     OW21208   6.800   0.816   2.043
 6770SOL    HW121209   6.824   0.759   1.965
 6770SOL    HW221210   6.813   0.912   2.020
 6771SOL     OW21211   4.768   2.420   3.021
 6771SOL    HW121212   4.683   2.385   3.061
 6771SOL    HW221213   4.846   2.372   3.059
 6772SOL     OW21214   3.167   1.339   2.822
 6772SOL    HW121215   3.075   1.307   2.800
 6772SOL    HW221216   3.234   1.270   2.792
 6773SOL     OW21217   6.584   4.575   1.737
 6773SOL    HW121218   6.571   4.619   1.648
 6773SOL    HW221219   6.666   4.517   1.734
 6774SOL     OW21220   6.931   2.725   6.209
 6774SOL    HW121221   6.945   2.629   6.233
 6774SOL    HW221222   6.986   2.783   6.269
 6775SOL     OW21223   2.724   3.345   1.016
 6775SOL    HW121224   2.789   3.398   1.070
 6775SOL    HW221225   2.756   3.339   0.922
 6776SOL     OW21226   4.186   4.669   6.931
 6776SOL    HW121227   4.259   4.723   6.973
 6776SOL    HW221228   4.223   4.617   6.854
 6777SOL     OW21229   3.725   4.463   6.423
 6777SOL    HW121230   3.703   4.381   6.475
 6777SOL    HW221231   3.824   4.467   6.408
 6778SOL     OW21232   0.478   4.266   2.123
 6778SOL    HW121233   0.522   4.351   2.091
 6778SOL    HW221234   0.424   4.228   2.048
 6779SOL     OW21235   6.468   4.431   6.403
 6779SOL    HW121236   6.551   4.441   6.457
 6779SOL    HW221237   6.491   4.414   6.307
 6780SOL     OW21238   0.900   2.154   2.558
 6780SOL    HW121239   0.821   2.131   2.614
 6780SOL    HW221240   0.889   2.115   2.466
 6781SOL     OW21241   5.535   6.700   5.065
 6781SOL    HW121242   5.490   6.632   5.122
 6781SOL    HW221243   5.481   6.716   4.983
 6782SOL     OW21244   0.270   0.448   2.847
 6782SOL    HW121245   0.205   0.374   2.865
 6782SOL    HW221246   0.266   0.514   2.921
 6783SOL     OW21247   0.027   0.044   6.574
 6783SOL    HW121248   0.073   6.983   6.557
 6783SOL    HW221249   0.059   0.083   6.660
 6784SOL     OW21250   3.587   4.238   0.276
 6784SOL    HW121251   3.637   4.157   0.246
 6784SOL    HW221252   3.651   4.306   0.313
 6785SOL     OW21253   5.143   4.803   2.397
 6785SOL    HW121254   5.101   4.821   2.308
 6785SOL    HW221255   5.100   4.724   2.439
 6786SOL     OW21256   1.335   1.681   6.547
 6786SOL    HW121257   1.275   1.613   6.590
 6786SOL    HW221258   1.359   1.650   6.455
 6787SOL     OW21259   1.744   3.578   0.996
 6787SOL    HW121260   1.756   3.479   0.986
 6787SOL    HW221261   1.803   3.611   1.070
 6788SOL     OW21262   2.628   3.936   1.675
 6788SOL    HW121263   2.727   3.926   1.691
 6788SOL    HW221264   2.590   3.847   1.650
 6789SOL     OW21265   0.422   6.819   2.305
 6789SOL    HW121266   0.395   6.731   2.344
 6789SOL    HW221267   0.443   6.884   2.379
 6790SOL     OW21268   0.987   4.144   0.585
 6790SOL    HW121269   0.996   4.047   0.611
 6790SOL    HW221270   0.919   4.187   0.645
 6791SOL     OW21271   3.658   2.231   0.850
 6791SOL    HW121272   3.589   2.261   0.917
 6791SOL    HW221273   3.624   2.151   0.801
 6792SOL     OW21274   6.795   6.190   5.756
 6792SOL    HW121275   6.788   6.176   5.657
 6792SOL    HW221276   6.731   6.129   5.803
 6793SOL     OW21277   0.938   2.434   0.836
 6793SOL    HW121278   0.908   2.517   0.885
 6793SOL    HW221279   0.900   2.435   0.743
 6794SOL     OW21280   5.008   1.071   4.715
 6794SOL    HW121281   4.991   1.122   4.630
 6794SOL    HW221282   5.102   1.036   4.714
 6795SOL     OW21283   2.482   5.890   0.667
 6795SOL    HW121284   2.538   5.893   0.751
 6795SOL    HW221285   2.397   5.939   0.683
 6796SOL     OW21286   6.094   0.803   2.677
 6796SOL    HW121287   6.042   0.880   2.641
 6796SOL    HW221288   6.192   0.825   2.675
 6797SOL     OW21289   4.887   3.371   1.798
 6797SOL    HW121290   4.904   3.405   1.891
 6797SOL    HW221291   4.850   3.279   1.802
 6798SOL     OW21292   5.780   6.009   3.119
 6798SOL    HW121293   5.809   5.992   3.213
 6798SOL    HW221294   5.850   5.974   3.056
 6799SOL     OW21295   5.808   5.822   6.860
 6799SOL    HW121296   5.810   5.876   6.775
 6799SOL    HW221297   5.896   5.830   6.907
 6800SOL     OW21298   2.212   4.573   1.183
 6800SOL    HW121299   2.193   4.638   1.109
 6800SOL    HW221300   2.220   4.481   1.144
 6801SOL     OW21301   1.642   1.033   2.148
 6801SOL    HW121302   1.738   1.006   2.143
 6801SOL    HW221303   1.630   1.099   2.222
 6802SOL     OW21304   2.829   5.733   0.754
 6802SOL    HW121305   2.757   5.778   0.807
 6802SOL    HW221306   2.892   5.685   0.816
 6803SOL     OW21307   4.500   2.427   6.461
 6803SOL    HW121308   4.456   2.516   6.470
 6803SOL    HW221309   4.556   2.409   6.542
 6804SOL     OW21310   2.504   5.350   3.730
 6804SOL    HW121311   2.523   5.340   3.828
 6804SOL    HW221312   2.405   5.357   3.716
 6805SOL     OW21313   5.984   6.016   4.601
 6805SOL    HW121314   5.991   5.932   4.654
 6805SOL    HW221315   5.900   6.064   4.626
 6806SOL     OW21316   5.753   1.272   3.710
 6806SOL    HW121317   5.766   1.282   3.809
 6806SOL    HW221318   5.676   1.329   3.681
 6807SOL     OW21319   2.273   3.692   0.580
 6807SOL    HW121320   2.247   3.778   0.537
 6807SOL    HW221321   2.361   3.662   0.543
 6808SOL     OW21322   0.692   2.936   5.246
 6808SOL    HW121323   0.643   2.866   5.193
 6808SOL    HW221324   0.757   2.891   5.307
 6809SOL     OW21325   1.741   3.853   0.240
 6809SOL    HW121326   1.713   3.762   0.271
 6809SOL    HW221327   1.698   3.923   0.297
 6810SOL     OW21328   1.498   0.301   1.707
 6810SOL    HW121329   1.488   0.399   1.693
 6810SOL    HW221330   1.557   0.263   1.636
 6811SOL     OW21331   4.409   4.215   0.345
 6811SOL    HW121332   4.452   4.299   0.376
 6811SOL    HW221333   4.335   4.237   0.281
 6812SOL     OW21334   3.809   3.117   3.335
 6812SOL    HW121335   3.819   3.060   3.417
 6812SOL    HW221336   3.716   3.154   3.331
 6813SOL     OW21337   4.465   1.627   1.814
 6813SOL    HW121338   4.417   1.699   1.765
 6813SOL    HW221339   4.527   1.580   1.750
 6814SOL     OW21340   3.156   3.071   0.566
 6814SOL    HW121341   3.200   3.161   0.563
 6814SOL    HW221342   3.137   3.047   0.661
 6815SOL     OW21343   2.957   0.094   1.420
 6815SOL    HW121344   2.859   0.097   1.437
 6815SOL    HW221345   2.989   0.183   1.390
 6816SOL     OW21346   6.959   5.706   6.926
 6816SOL    HW121347   6.868   5.675   6.898
 6816SOL    HW221348   7.025   5.686   6.853
 6817SOL     OW21349   6.675   1.880   5.378
 6817SOL    HW121350   6.611   1.818   5.334
 6817SOL    HW221351   6.755   1.892   5.318
 6818SOL     OW21352   2.537   5.877   2.246
 6818SOL    HW121353   2.497   5.813   2.311
 6818SOL    HW221354   2.623   5.912   2.282
 6819SOL     OW21355   4.103   1.115   4.174
 6819SOL    HW121356   4.176   1.087   4.112
 6819SOL    HW221357   4.080   1.211   4.158
 6820SOL     OW21358   1.360   5.177   3.202
 6820SOL    HW121359   1.305   5.225   3.133
 6820SOL    HW221360   1.440   5.137   3.158
 6821SOL     OW21361   3.334   1.832   5.300
 6821SOL    HW121362   3.361   1.886   5.220
 6821SOL    HW221363   3.247   1.787   5.282
 6822SOL     OW21364   5.678   1.896   5.987
 6822SOL    HW121365   5.664   1.798   6.000
 6822SOL    HW221366   5.756   1.910   5.925
 6823SOL     OW21367   3.899   3.104   4.009
 6823SOL    HW121368   3.836   3.071   4.080
 6823SOL    HW221369   3.855   3.096   3.920
 6824SOL     OW21370   0.832   3.066   6.402
 6824SOL    HW121371   0.842   2.981   6.349
 6824SOL    HW221372   0.847   3.144   6.341
 6825SOL     OW21373   5.573   6.771   2.503
 6825SOL    HW121374   5.633   6.825   2.444
 6825SOL    HW221375   5.589   6.794   2.599
 6826SOL     OW21376   2.237   4.092   2.902
 6826SOL    HW121377   2.331   4.109   2.929
 6826SOL    HW221378   2.198   4.174   2.860
 6827SOL     OW21379   4.974   6.044   0.591
 6827SOL    HW121380   4.906   6.076   0.658
 6827SOL    HW221381   4.953   5.949   0.566
 6828SOL     OW21382   2.095   1.807   1.270
 6828SOL    HW121383   2.101   1.859   1.185
 6828SOL    HW221384   1.999   1.792   1.294
 6829SOL     OW21385   4.539   6.750   4.046
 6829SOL    HW121386   4.493   6.711   4.127
 6829SOL    HW221387   4.541   6.681   3.974
 6830SOL     OW21388   5.964   1.214   3.302
 6830SOL    HW121389   5.964   1.166   3.389
 6830SOL    HW221390   5.944   1.150   3.228
 6831SOL     OW21391   1.048   6.832   6.359
 6831SOL    HW121392   1.116   6.762   6.341
 6831SOL    HW221393   0.957   6.790   6.367
 6832SOL     OW21394   2.483   4.345   1.468
 6832SOL    HW121395   2.385   4.360   1.472
 6832SOL    HW221396   2.519   4.381   1.382
 6833SOL     OW21397   4.384   5.013   6.873
 6833SOL    HW121398   4.385   4.914   6.883
 6833SOL    HW221399   4.362   5.055   6.961
 6834SOL     OW21400   4.448   6.885   1.741
 6834SOL    HW121401   4.518   6.814   1.730
 6834SOL    HW221402   4.436   6.904   1.839
 6835SOL     OW21403   4.393   6.562   5.104
 6835SOL    HW121404   4.321   6.516   5.156
 6835SOL    HW221405   4.446   6.493   5.054
 6836SOL     OW21406   3.130   6.354   0.656
 6836SOL    HW121407   3.044   6.317   0.620
 6836SOL    HW221408   3.122   6.368   0.755
 6837SOL     OW21409   1.132   3.001   2.122
 6837SOL    HW121410   1.167   3.093   2.141
 6837SOL    HW221411   1.176   2.935   2.181
 6838SOL     OW21412   1.839   0.442   0.802
 6838SOL    HW121413   1.908   0.381   0.841
 6838SOL    HW221414   1.821   0.516   0.867
 6839SOL     OW21415   5.383   1.467   0.657
 6839SOL    HW121416   5.432   1.381   0.647
 6839SOL    HW221417   5.323   1.462   0.737
 6840SOL     OW21418   2.197   1.962   5.004
 6840SOL    HW121419   2.190   2.040   5.065
 6840SOL    HW221420   2.192   1.877   5.056
 6841SOL     OW21421   5.377   3.618   6.046
 6841SOL    HW121422   5.299   3.565   6.080
 6841SOL    HW221423   5.345   3.702   6.003
 6842SOL     OW21424   2.747   4.654   1.271
 6842SOL    HW121425   2.705   4.586   1.211
 6842SOL    HW221426   2.675   4.703   1.321
 6843SOL     OW21427   5.505   6.873   6.934
 6843SOL    HW121428   5.432   6.857   7.000
 6843SOL    HW221429   5.466   6.908   6.849
 6844SOL     OW21430   5.741   1.076   4.310
 6844SOL    HW121431   5.841   1.070   4.308
 6844SOL    HW221432   5.702   0.989   4.282
 6845SOL     OW21433   6.173   3.117   2.973
 6845SOL    HW121434   6.077   3.092   2.964
 6845SOL    HW221435   6.226   3.069   2.903
 6846SOL     OW21436   3.116   4.196   6.685
 6846SOL    HW121437   3.018   4.219   6.682
 6846SOL    HW221438   3.170   4.279   6.670
 6847SOL     OW21439   6.522   3.562   4.733
 6847SOL    HW121440   6.470   3.601   4.810
 6847SOL    HW221441   6.593   3.627   4.705
 6848SOL     OW21442   5.430   3.902   4.111
 6848SOL    HW121443   5.382   3.989   4.097
 6848SOL    HW221444   5.453   3.892   4.207
 6849SOL     OW21445   3.396   4.430   5.585
 6849SOL    HW121446   3.468   4.404   5.650
 6849SOL    HW221447   3.373   4.351   5.528
 6850SOL     OW21448   4.313   2.304   2.825
 6850SOL    HW121449   4.231   2.250   2.845
 6850SOL    HW221450   4.315   2.386   2.883
 6851SOL     OW21451   1.683   2.833   2.714
 6851SOL    HW121452   1.765   2.797   2.757
 6851SOL    HW221453   1.663   2.924   2.750
 6852SOL     OW21454   2.559   5.471   1.349
 6852SOL    HW121455   2.586   5.484   1.254
 6852SOL    HW221456   2.479   5.411   1.353
 6853SOL     OW21457   5.353   3.281   5.672
 6853SOL    HW121458   5.369   3.380   5.661
 6853SOL    HW221459   5.276   3.267   5.734
 6854SOL     OW21460   5.574   6.556   5.630
 6854SOL    HW121461   5.502   6.618   5.660
 6854SOL    HW221462   5.542   6.504   5.551
 6855SOL     OW21463   4.676   5.717   3.725
 6855SOL    HW121464   4.669   5.692   3.629
 6855SOL    HW221465   4.769   5.701   3.757
 6856SOL     OW21466   0.453   2.409   5.979
 6856SOL    HW121467   0.427   2.336   5.914
 6856SOL    HW221468   0.535   2.455   5.946
 6857SOL     OW21469   0.990   3.638   6.269
 6857SOL    HW121470   0.975   3.569   6.340
 6857SOL    HW221471   1.085   3.670   6.273
 6858SOL     OW21472   3.384   4.413   1.675
 6858SOL    HW121473   3.286   4.430   1.687
 6858SOL    HW221474   3.436   4.490   1.711
 6859SOL     OW21475   0.820   1.484   1.824
 6859SOL    HW121476   0.823   1.451   1.730
 6859SOL    HW221477   0.725   1.496   1.853
 6860SOL     OW21478   6.870   4.812   2.488
 6860SOL    HW121479   6.823   4.774   2.409
 6860SOL    HW221480   6.965   4.832   2.464
 6861SOL     OW21481   4.880   3.449   6.220
 6861SOL    HW121482   4.954   3.411   6.277
 6861SOL    HW221483   4.803   3.386   6.221
 6862SOL     OW21484   0.816   5.127   5.947
 6862SOL    HW121485   0.799   5.080   6.034
 6862SOL    HW221486   0.908   5.105   5.915
 6863SOL     OW21487   0.241   5.800   5.021
 6863SOL    HW121488   0.327   5.779   4.974
 6863SOL    HW221489   0.252   5.786   5.119
 6864SOL     OW21490   1.667   4.368   5.945
 6864SOL    HW121491   1.569   4.366   5.962
 6864SOL    HW221492   1.695   4.460   5.919
 6865SOL     OW21493   2.297   0.735   5.577
 6865SOL    HW121494   2.226   0.676   5.616
 6865SOL    HW221495   2.378   0.733   5.635
 6866SOL     OW21496   6.015   4.321   2.256
 6866SOL    HW121497   6.103   4.361   2.284
 6866SOL    HW221498   5.964   4.291   2.337
 6867SOL     OW21499   2.034   4.502   1.417
 6867SOL    HW121500   2.067   4.593   1.444
 6867SOL    HW221501   2.095   4.432   1.454
 6868SOL     OW21502   2.134   5.633   4.932
 6868SOL    HW121503   2.131   5.581   5.017
 6868SOL    HW221504   2.060   5.602   4.871
 6869SOL     OW21505   3.933   0.190   5.861
 6869SOL    HW121506   3.920   0.221   5.956
 6869SOL    HW221507   3.849   0.145   5.829
 6870SOL     OW21508   1.075   3.547   0.266
 6870SOL    HW121509   1.086   3.578   0.171
 6870SOL    HW221510   1.042   3.452   0.265
 6871SOL     OW21511   0.310   3.605   2.171
 6871SOL    HW121512   0.292   3.617   2.073
 6871SOL    HW221513   0.246   3.539   2.210
 6872SOL     OW21514   1.208   2.549   2.244
 6872SOL    HW121515   1.181   2.643   2.265
 6872SOL    HW221516   1.138   2.486   2.277
 6873SOL     OW21517   1.204   4.085   4.078
 6873SOL    HW121518   1.118   4.135   4.082
 6873SOL    HW221519   1.197   4.012   4.010
 6874SOL     OW21520   6.176   5.571   3.423
 6874SOL    HW121521   6.122   5.551   3.341
 6874SOL    HW221522   6.241   5.645   3.403
 6875SOL     OW21523   1.828   2.448   1.592
 6875SOL    HW121524   1.861   2.499   1.672
 6875SOL    HW221525   1.769   2.506   1.537
 6876SOL     OW21526   3.360   0.411   3.348
 6876SOL    HW121527   3.285   0.455   3.299
 6876SOL    HW221528   3.438   0.473   3.354
 6877SOL     OW21529   2.811   4.434   1.431
 6877SOL    HW121530   2.766   4.453   1.343
 6877SOL    HW221531   2.828   4.520   1.479
 6878SOL     OW21532   2.442   1.578   3.851
 6878SOL    HW121533   2.421   1.520   3.772
 6878SOL    HW221534   2.430   1.525   3.935
 6879SOL     OW21535   2.024   2.691   0.363
 6879SOL    HW121536   1.986   2.628   0.430
 6879SOL    HW221537   1.975   2.681   0.276
 6880SOL     OW21538   1.277   6.174   6.487
 6880SOL    HW121539   1.350   6.115   6.452
 6880SOL    HW221540   1.243   6.138   6.574
 6881SOL     OW21541   1.850   3.745   1.188
 6881SOL    HW121542   1.939   3.781   1.218
 6881SOL    HW221543   1.803   3.813   1.132
 6882SOL     OW21544   2.965   1.540   0.287
 6882SOL    HW121545   2.952   1.599   0.207
 6882SOL    HW221546   2.889   1.475   0.292
 6883SOL     OW21547   5.360   0.533   6.436
 6883SOL    HW121548   5.425   0.458   6.451
 6883SOL    HW221549   5.409   0.615   6.408
 6884SOL     OW21550   2.059   4.423   3.252
 6884SOL    HW121551   2.090   4.453   3.162
 6884SOL    HW221552   1.967   4.385   3.246
 6885SOL     OW21553   4.859   4.871   4.443
 6885SOL    HW121554   4.841   4.895   4.347
 6885SOL    HW221555   4.909   4.784   4.446
 6886SOL     OW21556   6.250   1.433   4.791
 6886SOL    HW121557   6.350   1.445   4.786
 6886SOL    HW221558   6.228   1.337   4.805
 6887SOL     OW21559   4.852   5.634   0.291
 6887SOL    HW121560   4.927   5.688   0.254
 6887SOL    HW221561   4.844   5.549   0.240
 6888SOL     OW21562   5.558   4.329   6.117
 6888SOL    HW121563   5.592   4.247   6.163
 6888SOL    HW221564   5.536   4.399   6.185
 6889SOL     OW21565   1.443   2.537   5.674
 6889SOL    HW121566   1.486   2.627   5.687
 6889SOL    HW221567   1.485   2.471   5.735
 6890SOL     OW21568   3.757   5.744   2.853
 6890SOL    HW121569   3.696   5.749   2.773
 6890SOL    HW221570   3.835   5.685   2.832
 6891SOL     OW21571   2.566   2.623   1.249
 6891SOL    HW121572   2.635   2.687   1.284
 6891SOL    HW221573   2.540   2.559   1.321
 6892SOL     OW21574   3.412   1.641   3.917
 6892SOL    HW121575   3.323   1.677   3.891
 6892SOL    HW221576   3.401   1.552   3.961
 6893SOL     OW21577   6.221   3.401   6.783
 6893SOL    HW121578   6.151   3.334   6.809
 6893SOL    HW221579   6.262   3.439   6.866
 6894SOL     OW21580   5.489   3.855   1.110
 6894SOL    HW121581   5.534   3.935   1.150
 6894SOL    HW221582   5.469   3.788   1.181
 6895SOL     OW21583   1.277   5.767   1.116
 6895SOL    HW121584   1.331   5.730   1.040
 6895SOL    HW221585   1.194   5.810   1.080
 6896SOL     OW21586   3.621   1.710   4.101
 6896SOL    HW121587   3.702   1.666   4.064
 6896SOL    HW221588   3.545   1.701   4.036
 6897SOL     OW21589   4.889   3.894   4.623
 6897SOL    HW121590   4.856   3.815   4.675
 6897SOL    HW221591   4.944   3.953   4.682
 6898SOL     OW21592   3.040   1.251   1.668
 6898SOL    HW121593   2.953   1.205   1.650
 6898SOL    HW221594   3.050   1.329   1.606
 6899SOL     OW21595   5.468   6.164   2.806
 6899SOL    HW121596   5.557   6.196   2.837
 6899SOL    HW221597   5.401   6.237   2.815
 6900SOL     OW21598   6.502   4.849   6.076
 6900SOL    HW121599   6.417   4.902   6.072
 6900SOL    HW221600   6.519   4.821   6.170
 6901SOL     OW21601   4.431   5.055   6.602
 6901SOL    HW121602   4.410   5.014   6.691
 6901SOL    HW221603   4.433   4.984   6.532
 6902SOL     OW21604   6.699   5.855   5.613
 6902SOL    HW121605   6.680   5.912   5.693
 6902SOL    HW221606   6.614   5.827   5.570
 6903SOL     OW21607   3.011   4.915   5.465
 6903SOL    HW121608   2.981   4.851   5.536
 6903SOL    HW221609   2.976   4.886   5.376
 6904SOL     OW21610   0.460   6.376   5.429
 6904SOL    HW121611   0.522   6.437   5.478
 6904SOL    HW221612   0.506   6.339   5.348
 6905SOL     OW21613   5.367   5.346   0.057
 6905SOL    HW121614   5.401   5.401   0.134
 6905SOL    HW221615   5.421   5.366   7.002
 6906SOL     OW21616   3.476   1.922   3.550
 6906SOL    HW121617   3.500   2.003   3.604
 6906SOL    HW221618   3.511   1.840   3.595
 6907SOL     OW21619   6.223   2.007   1.505
 6907SOL    HW121620   6.241   1.910   1.520
 6907SOL    HW221621   6.132   2.018   1.464
 6908SOL     OW21622   2.551   4.376   6.865
 6908SOL    HW121623   2.604   4.346   6.786
 6908SOL    HW221624   2.510   4.466   6.847
 6909SOL     OW21625   5.088   4.766   2.121
 6909SOL    HW121626   5.009   4.801   2.071
 6909SOL    HW221627   5.138   4.701   2.064
 6910SOL     OW21628   1.577   3.089   3.114
 6910SOL    HW121629   1.596   2.994   3.088
 6910SOL    HW221630   1.658   3.128   3.157
 6911SOL     OW21631   3.627   0.254   5.330
 6911SOL    HW121632   3.702   0.195   5.300
 6911SOL    HW221633   3.658   0.310   5.407
 6912SOL     OW21634   2.565   3.068   5.990
 6912SOL    HW121635   2.581   3.103   5.897
 6912SOL    HW221636   2.652   3.065   6.039
 6913SOL     OW21637   5.684   6.132   5.111
 6913SOL    HW121638   5.749   6.163   5.181
 6913SOL    HW221639   5.698   6.184   5.027
 6914SOL     OW21640   6.146   3.829   1.943
 6914SOL    HW121641   6.214   3.802   2.012
 6914SOL    HW221642   6.103   3.914   1.971
 6915SOL     OW21643   0.953   2.893   1.941
 6915SOL    HW121644   0.999   2.856   1.860
 6915SOL    HW221645   1.021   2.914   2.011
 6916SOL     OW21646   5.391   0.996   5.818
 6916SOL    HW121647   5.317   0.931   5.801
 6916SOL    HW221648   5.358   1.068   5.878
 6917SOL     OW21649   5.037   5.689   1.755
 6917SOL    HW121650   5.052   5.776   1.802
 6917SOL    HW221651   5.099   5.620   1.793
 6918SOL     OW21652   0.418   2.840   2.480
 6918SOL    HW121653   0.365   2.773   2.427
 6918SOL    HW221654   0.383   2.932   2.463
 6919SOL     OW21655   6.357   6.556   2.786
 6919SOL    HW121656   6.279   6.619   2.783
 6919SOL    HW221657   6.326   6.464   2.760
 6920SOL     OW21658   4.767   0.048   5.732
 6920SOL    HW121659   4.706   0.014   5.804
 6920SOL    HW221660   4.828   7.001   5.703
 6921SOL     OW21661   4.144   0.112   4.296
 6921SOL    HW121662   4.198   0.184   4.255
 6921SOL    HW221663   4.064   0.152   4.342
 6922SOL     OW21664   1.727   6.166   4.803
 6922SOL    HW121665   1.762   6.076   4.779
 6922SOL    HW221666   1.644   6.185   4.751
 6923SOL     OW21667   6.000   6.107   2.419
 6923SOL    HW121668   6.062   6.117   2.341
 6923SOL    HW221669   5.911   6.076   2.386
 6924SOL     OW21670   3.003   5.726   1.318
 6924SOL    HW121671   2.973   5.656   1.382
 6924SOL    HW221672   2.972   5.816   1.350
 6925SOL     OW21673   4.741   5.932   6.513
 6925SOL    HW121674   4.811   5.893   6.454
 6925SOL    HW221675   4.655   5.939   6.463
 6926SOL     OW21676   2.320   1.586   0.107
 6926SOL    HW121677   2.235   1.597   0.055
 6926SOL    HW221678   2.312   1.635   0.194
 6927SOL     OW21679   3.801   0.986   0.380
 6927SOL    HW121680   3.839   0.999   0.289
 6927SOL    HW221681   3.841   0.903   0.420
 6928SOL     OW21682   4.980   5.538   1.002
 6928SOL    HW121683   4.960   5.629   0.965
 6928SOL    HW221684   4.894   5.487   1.012
 6929SOL     OW21685   5.732   5.266   1.304
 6929SOL    HW121686   5.828   5.293   1.304
 6929SOL    HW221687   5.679   5.331   1.358
 6930SOL     OW21688   0.673   1.370   0.710
 6930SOL    HW121689   0.685   1.424   0.793
 6930SOL    HW221690   0.695   1.426   0.630
 6931SOL     OW21691   2.221   1.761   0.813
 6931SOL    HW121692   2.190   1.666   0.816
 6931SOL    HW221693   2.297   1.775   0.875
 6932SOL     OW21694   4.759   4.984   0.807
 6932SOL    HW121695   4.838   5.046   0.811
 6932SOL    HW221696   4.726   4.977   0.713
 6933SOL     OW21697   3.847   6.320   6.081
 6933SOL    HW121698   3.882   6.281   6.166
 6933SOL    HW221699   3.922   6.363   6.031
 6934SOL     OW21700   4.840   3.556   6.688
 6934SOL    HW121701   4.844   3.532   6.784
 6934SOL    HW221702   4.922   3.609   6.663
 6935SOL     OW21703   4.675   5.518   2.645
 6935SOL    HW121704   4.631   5.443   2.695
 6935SOL    HW221705   4.624   5.602   2.659
 6936SOL     OW21706   0.207   2.039   4.610
 6936SOL    HW121707   0.180   1.964   4.670
 6936SOL    HW221708   0.140   2.046   4.535
 6937SOL     OW21709   5.927   6.125   0.368
 6937SOL    HW121710   5.983   6.205   0.389
 6937SOL    HW221711   5.899   6.080   0.453
 6938SOL     OW21712   0.491   1.111   4.844
 6938SOL    HW121713   0.467   1.113   4.747
 6938SOL    HW221714   0.558   1.039   4.860
 6939SOL     OW21715   6.208   5.159   3.338
 6939SOL    HW121716   6.143   5.194   3.270
 6939SOL    HW221717   6.248   5.236   3.388
 6940SOL     OW21718   5.016   6.957   0.505
 6940SOL    HW121719   4.963   6.938   0.588
 6940SOL    HW221720   4.959   6.937   0.425
 6941SOL     OW21721   3.030   3.828   2.095
 6941SOL    HW121722   2.979   3.802   2.177
 6941SOL    HW221723   3.058   3.745   2.046
 6942SOL     OW21724   6.267   6.640   1.953
 6942SOL    HW121725   6.332   6.566   1.937
 6942SOL    HW221726   6.276   6.709   1.881
 6943SOL     OW21727   4.168   4.822   0.202
 6943SOL    HW121728   4.087   4.796   0.253
 6943SOL    HW221729   4.142   4.877   0.122
 6944SOL     OW21730   1.074   4.833   6.384
 6944SOL    HW121731   1.101   4.926   6.406
 6944SOL    HW221732   1.113   4.806   6.295
 6945SOL     OW21733   6.395   2.585   0.791
 6945SOL    HW121734   6.453   2.504   0.791
 6945SOL    HW221735   6.408   2.635   0.876
 6946SOL     OW21736   3.760   6.075   1.860
 6946SOL    HW121737   3.793   6.134   1.786
 6946SOL    HW221738   3.724   6.132   1.934
 6947SOL     OW21739   4.081   5.247   5.906
 6947SOL    HW121740   4.121   5.295   5.985
 6947SOL    HW221741   4.139   5.171   5.880
 6948SOL     OW21742   0.138   6.557   1.228
 6948SOL    HW121743   0.155   6.606   1.314
 6948SOL    HW221744   0.220   6.560   1.171
 6949SOL     OW21745   2.594   2.533   3.063
 6949SOL    HW121746   2.612   2.505   3.158
 6949SOL    HW221747   2.672   2.585   3.029
 6950SOL     OW21748   1.199   0.320   3.965
 6950SOL    HW121749   1.245   0.375   4.035
 6950SOL    HW221750   1.151   0.381   3.901
 6951SOL     OW21751   6.056   5.702   6.351
 6951SOL    HW121752   6.155   5.689   6.359
 6951SOL    HW221753   6.014   5.686   6.440
 6952SOL     OW21754   2.942   4.790   3.390
 6952SOL    HW121755   2.911   4.701   3.357
 6952SOL    HW221756   2.905   4.805   3.482
 6953SOL     OW21757   5.311   6.982   0.708
 6953SOL    HW121758   5.266   0.038   0.670
 6953SOL    HW221759   5.381   6.951   0.644
 6954SOL     OW21760   6.981   3.467   1.076
 6954SOL    HW121761   6.969   3.447   0.978
 6954SOL    HW221762   6.985   3.566   1.089
 6955SOL     OW21763   5.250   0.373   2.555
 6955SOL    HW121764   5.176   0.440   2.555
 6955SOL    HW221765   5.260   0.336   2.648
 6956SOL     OW21766   6.149   5.688   2.544
 6956SOL    HW121767   6.132   5.778   2.583
 6956SOL    HW221768   6.153   5.620   2.617
 6957SOL     OW21769   5.103   5.568   6.562
 6957SOL    HW121770   5.035   5.495   6.557
 6957SOL    HW221771   5.096   5.614   6.650
 6958SOL     OW21772   3.571   3.456   4.202
 6958SOL    HW121773   3.553   3.382   4.136
 6958SOL    HW221774   3.668   3.477   4.204
 6959SOL     OW21775   1.658   3.745   3.134
 6959SOL    HW121776   1.755   3.769   3.146
 6959SOL    HW221777   1.601   3.824   3.155
 6960SOL     OW21778   1.586   4.817   1.059
 6960SOL    HW121779   1.636   4.864   0.986
 6960SOL    HW221780   1.488   4.819   1.038
 6961SOL     OW21781   4.715   1.139   4.495
 6961SOL    HW121782   4.669   1.085   4.566
 6961SOL    HW221783   4.814   1.134   4.508
 6962SOL     OW21784   3.518   6.631   0.442
 6962SOL    HW121785   3.490   6.664   0.352
 6962SOL    HW221786   3.436   6.608   0.495
 6963SOL     OW21787   5.397   5.721   6.744
 6963SOL    HW121788   5.360   5.684   6.829
 6963SOL    HW221789   5.328   5.712   6.672
 6964SOL     OW21790   2.988   0.287   5.440
 6964SOL    HW121791   3.006   0.306   5.344
 6964SOL    HW221792   2.889   0.292   5.457
 6965SOL     OW21793   1.143   2.301   6.861
 6965SOL    HW121794   1.066   2.335   6.914
 6965SOL    HW221795   1.109   2.257   6.778
 6966SOL     OW21796   1.602   0.869   1.753
 6966SOL    HW121797   1.571   0.810   1.828
 6966SOL    HW221798   1.645   0.814   1.682
 6967SOL     OW21799   3.807   1.309   5.675
 6967SOL    HW121800   3.877   1.292   5.745
 6967SOL    HW221801   3.718   1.281   5.710
 6968SOL     OW21802   3.012   0.360   3.211
 6968SOL    HW121803   2.957   0.443   3.203
 6968SOL    HW221804   2.990   0.315   3.298
 6969SOL     OW21805   3.070   1.997   1.119
 6969SOL    HW121806   3.040   1.972   1.212
 6969SOL    HW221807   2.993   2.038   1.070
 6970SOL     OW21808   3.255   4.913   6.212
 6970SOL    HW121809   3.321   4.847   6.175
 6970SOL    HW221810   3.272   5.003   6.171
 6971SOL     OW21811   5.538   4.441   1.393
 6971SOL    HW121812   5.519   4.344   1.406
 6971SOL    HW221813   5.454   4.494   1.405
 6972SOL     OW21814   5.103   3.666   2.959
 6972SOL    HW121815   5.038   3.655   3.034
 6972SOL    HW221816   5.153   3.580   2.945
 6973SOL     OW21817   0.999   2.037   2.817
 6973SOL    HW121818   0.969   2.097   2.743
 6973SOL    HW221819   1.091   2.064   2.846
 6974SOL     OW21820   3.090   3.984   2.363
 6974SOL    HW121821   3.015   3.943   2.313
 6974SOL    HW221822   3.078   3.968   2.461
 6975SOL     OW21823   2.830   5.632   4.444
 6975SOL    HW121824   2.770   5.553   4.453
 6975SOL    HW221825   2.795   5.708   4.498
 6976SOL     OW21826   5.117   4.278   5.230
 6976SOL    HW121827   5.059   4.260   5.309
 6976SOL    HW221828   5.141   4.191   5.185
 6977SOL     OW21829   4.068   4.098   1.623
 6977SOL    HW121830   4.092   4.003   1.604
 6977SOL    HW221831   3.970   4.111   1.610
 6978SOL     OW21832   5.612   3.226   0.925
 6978SOL    HW121833   5.699   3.197   0.886
 6978SOL    HW221834   5.613   3.211   1.024
 6979SOL     OW21835   1.223   3.191   1.415
 6979SOL    HW121836   1.203   3.184   1.513
 6979SOL    HW221837   1.311   3.237   1.401
 6980SOL     OW21838   1.542   0.908   3.273
 6980SOL    HW121839   1.614   0.841   3.288
 6980SOL    HW221840   1.461   0.882   3.325
 6981SOL     OW21841   3.541   3.346   6.493
 6981SOL    HW121842   3.590   3.431   6.478
 6981SOL    HW221843   3.572   3.277   6.428
 6982SOL     OW21844   1.059   1.128   3.514
 6982SOL    HW121845   0.966   1.111   3.547
 6982SOL    HW221846   1.123   1.127   3.591
 6983SOL     OW21847   4.689   1.320   5.295
 6983SOL    HW121848   4.697   1.402   5.239
 6983SOL    HW221849   4.712   1.240   5.241
 6984SOL     OW21850   1.685   2.441   2.825
 6984SOL    HW121851   1.681   2.344   2.800
 6984SOL    HW221852   1.753   2.488   2.768
 6985SOL     OW21853   6.429   4.509   0.240
 6985SOL    HW121854   6.354   4.537   0.181
 6985SOL    HW221855   6.509   4.566   0.220
 6986SOL     OW21856   3.907   6.194   6.312
 6986SOL    HW121857   3.915   6.095   6.323
 6986SOL    HW221858   3.997   6.233   6.294
 6987SOL     OW21859   0.088   1.743   5.562
 6987SOL    HW121860   0.079   1.701   5.653
 6987SOL    HW221861   0.122   1.674   5.497
 6988SOL     OW21862   2.709   0.514   6.178
 6988SOL    HW121863   2.726   0.492   6.274
 6988SOL    HW221864   2.657   0.600   6.172
 6989SOL     OW21865   6.602   4.410   1.997
 6989SOL    HW121866   6.562   4.405   1.906
 6989SOL    HW221867   6.530   4.405   2.066
 6990SOL     OW21868   3.938   2.981   1.886
 6990SOL    HW121869   3.930   2.904   1.822
 6990SOL    HW221870   4.013   2.964   1.949
 6991SOL     OW21871   4.825   4.637   3.622
 6991SOL    HW121872   4.824   4.644   3.522
 6991SOL    HW221873   4.809   4.542   3.650
 6992SOL     OW21874   0.288   6.839   0.452
 6992SOL    HW121875   0.197   6.825   0.412
 6992SOL    HW221876   0.297   6.781   0.533
 6993SOL     OW21877   6.079   0.594   1.758
 6993SOL    HW121878   6.133   0.571   1.677
 6993SOL    HW221879   6.026   0.677   1.739
 6994SOL     OW21880   1.449   6.984   3.668
 6994SOL    HW121881   1.492   0.047   3.684
 6994SOL    HW221882   1.458   6.927   3.749
 6995SOL     OW21883   0.722   3.836   0.249
 6995SOL    HW121884   0.656   3.859   0.320
 6995SOL    HW221885   0.720   3.905   0.177
 6996SOL     OW21886   1.421   0.566   6.739
 6996SOL    HW121887   1.466   0.620   6.668
 6996SOL    HW221888   1.323   0.558   6.718
 6997SOL     OW21889   0.042   4.757   5.429
 6997SOL    HW121890   0.141   4.755   5.443
 6997SOL    HW221891   7.022   4.749   5.517
 6998SOL     OW21892   0.386   1.481   1.645
 6998SOL    HW121893   0.444   1.419   1.697
 6998SOL    HW221894   0.290   1.467   1.671
 6999SOL     OW21895   0.606   2.477   6.553
 6999SOL    HW121896   0.601   2.476   6.453
 6999SOL    HW221897   0.612   2.572   6.585
 7000SOL     OW21898   6.035   0.426   2.721
 7000SOL    HW121899   6.094   0.347   2.702
 7000SOL    HW221900   6.053   0.498   2.653
 7001SOL     OW21901   0.894   1.462   4.382
 7001SOL    HW121902   0.879   1.560   4.363
 7001SOL    HW221903   0.815   1.426   4.432
 7002SOL     OW21904   0.917   5.382   3.818
 7002SOL    HW121905   0.996   5.439   3.839
 7002SOL    HW221906   0.911   5.308   3.886
 7003SOL     OW21907   5.925   4.552   1.059
 7003SOL    HW121908   5.974   4.510   0.982
 7003SOL    HW221909   5.860   4.486   1.096
 7004SOL     OW21910   1.651   5.849   0.448
 7004SOL    HW121911   1.735   5.806   0.480
 7004SOL    HW221912   1.636   5.934   0.498
 7005SOL     OW21913   0.839   0.268   6.654
 7005SOL    HW121914   0.904   0.291   6.727
 7005SOL    HW221915   0.875   0.192   6.600
 7006SOL     OW21916   6.745   6.324   3.502
 7006SOL    HW121917   6.813   6.279   3.561
 7006SOL    HW221918   6.671   6.260   3.483
 7007SOL     OW21919   4.344   0.267   5.697
 7007SOL    HW121920   4.363   0.290   5.601
 7007SOL    HW221921   4.377   0.340   5.756
 7008SOL     OW21922   6.647   4.219   3.717
 7008SOL    HW121923   6.654   4.201   3.815
 7008SOL    HW221924   6.736   4.205   3.674
 7009SOL     OW21925   4.102   6.633   2.052
 7009SOL    HW121926   4.008   6.609   2.075
 7009SOL    HW221927   4.126   6.593   1.963
 7010SOL     OW21928   5.866   4.068   2.698
 7010SOL    HW121929   5.767   4.054   2.689
 7010SOL    HW221930   5.900   4.017   2.777
 7011SOL     OW21931   3.840   6.939   0.776
 7011SOL    HW121932   3.758   6.884   0.790
 7011SOL    HW221933   3.921   6.885   0.797
 7012SOL     OW21934   1.542   3.181   0.912
 7012SOL    HW121935   1.573   3.272   0.939
 7012SOL    HW221936   1.473   3.190   0.840
 7013SOL     OW21937   2.474   1.199   6.526
 7013SOL    HW121938   2.401   1.131   6.538
 7013SOL    HW221939   2.456   1.277   6.585
 7014SOL     OW21940   6.148   3.851   1.263
 7014SOL    HW121941   6.176   3.873   1.170
 7014SOL    HW221942   6.166   3.754   1.282
 7015SOL     OW21943   5.676   4.607   2.245
 7015SOL    HW121944   5.726   4.544   2.305
 7015SOL    HW221945   5.731   4.626   2.163
 7016SOL     OW21946   3.478   4.857   1.206
 7016SOL    HW121947   3.492   4.955   1.190
 7016SOL    HW221948   3.400   4.844   1.267
 7017SOL     OW21949   3.644   4.963   3.217
 7017SOL    HW121950   3.559   4.942   3.266
 7017SOL    HW221951   3.720   4.916   3.263
 7018SOL     OW21952   5.041   2.878   4.270
 7018SOL    HW121953   4.997   2.906   4.185
 7018SOL    HW221954   5.004   2.930   4.346
 7019SOL     OW21955   4.877   5.205   2.361
 7019SOL    HW121956   4.944   5.206   2.287
 7019SOL    HW221957   4.890   5.286   2.419
 7020SOL     OW21958   0.583   3.593   6.701
 7020SOL    HW121959   0.512   3.536   6.742
 7020SOL    HW221960   0.673   3.565   6.735
 7021SOL     OW21961   0.693   2.835   4.850
 7021SOL    HW121962   0.671   2.931   4.870
 7021SOL    HW221963   0.659   2.811   4.760
 7022SOL     OW21964   3.957   0.404   0.438
 7022SOL    HW121965   3.898   0.474   0.397
 7022SOL    HW221966   3.903   0.323   0.460
 7023SOL     OW21967   0.430   1.971   1.842
 7023SOL    HW121968   0.466   1.898   1.783
 7023SOL    HW221969   0.398   2.047   1.785
 7024SOL     OW21970   3.511   2.909   3.946
 7024SOL    HW121971   3.431   2.952   3.989
 7024SOL    HW221972   3.578   2.886   4.016
 7025SOL     OW21973   3.511   0.148   6.885
 7025SOL    HW121974   3.588   0.204   6.854
 7025SOL    HW221975   3.506   0.149   6.985
 7026SOL     OW21976   3.393   1.394   1.622
 7026SOL    HW121977   3.409   1.297   1.643
 7026SOL    HW221978   3.392   1.446   1.708
 7027SOL     OW21979   2.365   6.085   3.593
 7027SOL    HW121980   2.351   6.095   3.494
 7027SOL    HW221981   2.323   6.000   3.624
 7028SOL     OW21982   2.426   0.440   3.558
 7028SOL    HW121983   2.379   0.362   3.518
 7028SOL    HW221984   2.372   0.476   3.634
 7029SOL     OW21985   3.008   3.633   5.870
 7029SOL    HW121986   3.029   3.572   5.794
 7029SOL    HW221987   3.092   3.681   5.897
 7030SOL     OW21988   0.660   2.106   4.854
 7030SOL    HW121989   0.631   2.076   4.763
 7030SOL    HW221990   0.714   2.190   4.845
 7031SOL     OW21991   4.382   6.154   0.202
 7031SOL    HW121992   4.424   6.134   0.291
 7031SOL    HW221993   4.287   6.124   0.203
 7032SOL     OW21994   4.069   0.701   4.571
 7032SOL    HW121995   4.117   0.767   4.628
 7032SOL    HW221996   4.038   0.747   4.487
 7033SOL     OW21997   1.211   2.713   4.582
 7033SOL    HW121998   1.254   2.731   4.494
 7033SOL    HW221999   1.270   2.655   4.638
 7034SOL     OW22000   6.349   2.448   3.397
 7034SOL    HW122001   6.313   2.470   3.307
 7034SOL    HW222002   6.446   2.425   3.389
 7035SOL     OW22003   1.615   0.089   1.830
 7035SOL    HW122004   1.539   0.149   1.802
 7035SOL    HW222005   1.684   0.143   1.878
 7036SOL     OW22006   0.369   1.637   1.969
 7036SOL    HW122007   0.311   1.692   1.909
 7036SOL    HW222008   0.380   1.683   2.057
 7037SOL     OW22009   0.162   0.269   5.611
 7037SOL    HW122010   0.064   0.250   5.601
 7037SOL    HW222011   0.183   0.358   5.571
 7038SOL     OW22012   2.895   4.344   5.610
 7038SOL    HW122013   2.883   4.419   5.545
 7038SOL    HW222014   2.805   4.312   5.640
 7039SOL     OW22015   0.714   5.168   3.650
 7039SOL    HW122016   0.649   5.128   3.713
 7039SOL    HW222017   0.807   5.148   3.680
 7040SOL     OW22018   4.573   2.194   4.948
 7040SOL    HW122019   4.505   2.235   4.887
 7040SOL    HW222020   4.539   2.106   4.981
 7041SOL     OW22021   1.197   1.529   3.340
 7041SOL    HW122022   1.248   1.599   3.389
 7041SOL    HW222023   1.229   1.526   3.245
 7042SOL     OW22024   4.411   5.894   5.098
 7042SOL    HW122025   4.463   5.899   5.183
 7042SOL    HW222026   4.473   5.878   5.022
 7043SOL     OW22027   2.413   4.344   3.901
 7043SOL    HW122028   2.375   4.259   3.865
 7043SOL    HW222029   2.445   4.402   3.826
 7044SOL     OW22030   4.908   6.612   4.774
 7044SOL    HW122031   4.829   6.551   4.760
 7044SOL    HW222032   4.901   6.690   4.711
 7045SOL     OW22033   6.033   5.344   2.573
 7045SOL    HW122034   5.946   5.295   2.571
 7045SOL    HW222035   6.035   5.406   2.652
 7046SOL     OW22036   3.274   2.166   4.462
 7046SOL    HW122037   3.197   2.227   4.444
 7046SOL    HW222038   3.320   2.193   4.546
 7047SOL     OW22039   0.381   0.815   1.738
 7047SOL    HW122040   0.419   0.799   1.647
 7047SOL    HW222041   0.455   0.811   1.806
 7048SOL     OW22042   6.451   6.345   5.086
 7048SOL    HW122043   6.545   6.372   5.065
 7048SOL    HW222044   6.420   6.278   5.019
 7049SOL     OW22045   3.907   1.436   2.139
 7049SOL    HW122046   3.999   1.471   2.119
 7049SOL    HW222047   3.850   1.446   2.058
 7050SOL     OW22048   3.647   4.903   0.942
 7050SOL    HW122049   3.726   4.964   0.953
 7050SOL    HW222050   3.674   4.823   0.890
 7051SOL     OW22051   0.189   0.176   1.726
 7051SOL    HW122052   0.090   0.182   1.743
 7051SOL    HW222053   0.238   0.175   1.813
 7052SOL     OW22054   5.272   6.736   3.375
 7052SOL    HW122055   5.227   6.816   3.335
 7052SOL    HW222056   5.215   6.699   3.449
 7053SOL     OW22057   1.483   3.274   3.993
 7053SOL    HW122058   1.571   3.321   4.001
 7053SOL    HW222059   1.459   3.233   4.081
 7054SOL     OW22060   0.094   0.295   1.044
 7054SOL    HW122061   0.107   0.333   1.135
 7054SOL    HW222062   0.160   0.335   0.981
 7055SOL     OW22063   1.953   0.136   6.510
 7055SOL    HW122064   1.878   0.169   6.567
 7055SOL    HW222065   2.038   0.179   6.539
 7056SOL     OW22066   6.632   5.811   1.122
 7056SOL    HW122067   6.536   5.796   1.144
 7056SOL    HW222068   6.647   5.908   1.103
 7057SOL     OW22069   3.211   5.196   4.374
 7057SOL    HW122070   3.192   5.099   4.357
 7057SOL    HW222071   3.135   5.252   4.342
 7058SOL     OW22072   5.151   1.945   6.866
 7058SOL    HW122073   5.248   1.961   6.881
 7058SOL    HW222074   5.116   2.010   6.799
 7059SOL     OW22075   2.268   1.606   4.467
 7059SOL    HW122076   2.246   1.659   4.385
 7059SOL    HW222077   2.212   1.639   4.543
 7060SOL     OW22078   3.128   6.691   2.777
 7060SOL    HW122079   3.060   6.737   2.720
 7060SOL    HW222080   3.217   6.737   2.766
 7061SOL     OW22081   1.341   1.911   2.507
 7061SOL    HW122082   1.280   1.985   2.536
 7061SOL    HW222083   1.333   1.900   2.408
 7062SOL     OW22084   4.407   1.979   3.985
 7062SOL    HW122085   4.365   1.888   3.981
 7062SOL    HW222086   4.387   2.021   4.074
 7063SOL     OW22087   0.613   6.573   2.556
 7063SOL    HW122088   0.672   6.519   2.616
 7063SOL    HW222089   0.518   6.545   2.570
 7064SOL     OW22090   5.139   1.509   5.486
 7064SOL    HW122091   5.164   1.493   5.581
 7064SOL    HW222092   5.097   1.600   5.477
 7065SOL     OW22093   3.461   4.611   5.365
 7065SOL    HW122094   3.426   4.549   5.435
 7065SOL    HW222095   3.561   4.613   5.369
 7066SOL     OW22096   4.728   0.352   6.939
 7066SOL    HW122097   4.794   0.425   6.955
 7066SOL    HW222098   4.644   0.390   6.902
 7067SOL     OW22099   1.595   3.380   6.810
 7067SOL    HW122100   1.635   3.466   6.840
 7067SOL    HW222101   1.621   3.362   6.715
 7068SOL     OW22102   5.740   4.252   4.117
 7068SOL    HW122103   5.772   4.184   4.052
 7068SOL    HW222104   5.789   4.338   4.102
 7069SOL     OW22105   6.212   1.381   5.731
 7069SOL    HW122106   6.155   1.361   5.811
 7069SOL    HW222107   6.153   1.410   5.655
 7070SOL     OW22108   0.084   6.598   4.864
 7070SOL    HW122109   0.143   6.583   4.943
 7070SOL    HW222110   0.018   6.670   4.884
 7071SOL     OW22111   5.273   6.310   6.577
 7071SOL    HW122112   5.303   6.299   6.482
 7071SOL    HW222113   5.308   6.397   6.612
 7072SOL     OW22114   1.019   4.296   6.878
 7072SOL    HW122115   1.092   4.311   6.811
 7072SOL    HW222116   0.930   4.312   6.835
 7073SOL     OW22117   4.140   0.478   3.304
 7073SOL    HW122118   4.204   0.513   3.373
 7073SOL    HW222119   4.177   0.495   3.213
 7074SOL     OW22120   6.730   3.111   3.713
 7074SOL    HW122121   6.700   3.071   3.627
 7074SOL    HW222122   6.655   3.162   3.754
 7075SOL     OW22123   2.898   4.807   5.241
 7075SOL    HW122124   2.892   4.715   5.202
 7075SOL    HW222125   2.833   4.867   5.194
 7076SOL     OW22126   5.848   3.346   1.909
 7076SOL    HW122127   5.923   3.404   1.941
 7076SOL    HW222128   5.811   3.294   1.987
 7077SOL     OW22129   2.995   4.873   2.547
 7077SOL    HW122130   3.031   4.949   2.602
 7077SOL    HW222131   3.066   4.842   2.483
 7078SOL     OW22132   5.459   6.830   0.505
 7078SOL    HW122133   5.430   6.742   0.542
 7078SOL    HW222134   5.544   6.858   0.549
 7079SOL     OW22135   1.102   0.017   3.704
 7079SOL    HW122136   1.087   6.944   3.693
 7079SOL    HW222137   1.024   0.057   3.753
 7080SOL     OW22138   4.030   1.911   4.959
 7080SOL    HW122139   4.022   1.813   4.979
 7080SOL    HW222140   3.944   1.945   4.922
 7081SOL     OW22141   1.406   0.999   6.994
 7081SOL    HW122142   1.368   0.913   0.004
 7081SOL    HW222143   1.475   0.979   6.925
 7082SOL     OW22144   6.763   3.647   1.723
 7082SOL    HW122145   6.741   3.635   1.820
 7082SOL    HW222146   6.834   3.718   1.714
 7083SOL     OW22147   6.773   2.250   2.190
 7083SOL    HW122148   6.728   2.337   2.172
 7083SOL    HW222149   6.822   2.219   2.109
 7084SOL     OW22150   0.290   5.407   6.673
 7084SOL    HW122151   0.317   5.499   6.643
 7084SOL    HW222152   0.218   5.372   6.612
 7085SOL     OW22153   6.976   2.536   2.402
 7085SOL    HW122154   0.013   2.566   2.473
 7085SOL    HW222155   6.927   2.615   2.365
 7086SOL     OW22156   5.895   0.722   6.946
 7086SOL    HW122157   5.852   0.727   6.856
 7086SOL    HW222158   5.973   0.785   6.950
 7087SOL     OW22159   5.140   3.132   2.709
 7087SOL    HW122160   5.072   3.201   2.687
 7087SOL    HW222161   5.224   3.149   2.657
 7088SOL     OW22162   5.908   1.328   4.978
 7088SOL    HW122163   5.863   1.277   4.905
 7088SOL    HW222164   5.840   1.382   5.028
 7089SOL     OW22165   4.343   5.716   2.338
 7089SOL    HW122166   4.301   5.784   2.278
 7089SOL    HW222167   4.443   5.724   2.334
 7090SOL     OW22168   3.647   1.434   0.757
 7090SOL    HW122169   3.743   1.423   0.735
 7090SOL    HW222170   3.637   1.465   0.851
 7091SOL     OW22171   0.874   0.222   0.287
 7091SOL    HW122172   0.791   0.180   0.325
 7091SOL    HW222173   0.909   0.290   0.352
 7092SOL     OW22174   4.193   2.264   6.713
 7092SOL    HW122175   4.102   2.222   6.720
 7092SOL    HW222176   4.188   2.341   6.649
 7093SOL     OW22177   3.534   3.772   1.068
 7093SOL    HW122178   3.520   3.845   1.135
 7093SOL    HW222179   3.471   3.785   0.991
 7094SOL     OW22180   2.136   6.757   5.744
 7094SOL    HW122181   2.046   6.800   5.741
 7094SOL    HW222182   2.176   6.769   5.834
 7095SOL     OW22183   3.274   4.859   5.375
 7095SOL    HW122184   3.196   4.897   5.426
 7095SOL    HW222185   3.254   4.765   5.349
 7096SOL     OW22186   7.022   0.729   1.188
 7096SOL    HW122187   0.007   0.675   1.104
 7096SOL    HW222188   7.025   0.827   1.165
 7097SOL     OW22189   5.437   6.882   1.587
 7097SOL    HW122190   5.518   6.848   1.538
 7097SOL    HW222191   5.355   6.853   1.538
 7098SOL     OW22192   1.794   0.079   4.477
 7098SOL    HW122193   1.695   0.088   4.487
 7098SOL    HW222194   1.835   0.057   4.566
 7099SOL     OW22195   3.467   2.131   4.242
 7099SOL    HW122196   3.423   2.117   4.153
 7099SOL    HW222197   3.401   2.167   4.307
 7100SOL     OW22198   0.699   3.258   0.522
 7100SOL    HW122199   0.666   3.207   0.600
 7100SOL    HW222200   0.702   3.356   0.544
 7101SOL     OW22201   1.933   6.313   5.454
 7101SOL    HW122202   1.944   6.249   5.378
 7101SOL    HW222203   1.885   6.394   5.422
 7102SOL     OW22204   4.960   1.479   1.017
 7102SOL    HW122205   5.047   1.467   1.063
 7102SOL    HW222206   4.887   1.488   1.085
 7103SOL     OW22207   5.050   5.147   2.154
 7103SOL    HW122208   5.110   5.173   2.229
 7103SOL    HW222209   5.002   5.063   2.178
 7104SOL     OW22210   5.514   2.981   2.956
 7104SOL    HW122211   5.561   3.024   3.033
 7104SOL    HW222212   5.580   2.927   2.903
 7105SOL     OW22213   3.224   4.060   4.124
 7105SOL    HW122214   3.246   4.154   4.151
 7105SOL    HW222215   3.232   4.050   4.025
 7106SOL     OW22216   3.610   2.748   1.428
 7106SOL    HW122217   3.632   2.703   1.514
 7106SOL    HW222218   3.594   2.846   1.445
 7107SOL     OW22219   4.562   6.990   6.970
 7107SOL    HW122220   4.479   0.005   7.008
 7107SOL    HW222221   4.570   6.896   7.001
 7108SOL     OW22222   3.046   6.335   2.965
 7108SOL    HW122223   3.126   6.297   3.012
 7108SOL    HW222224   3.038   6.432   2.987
 7109SOL     OW22225   1.298   0.644   6.149
 7109SOL    HW122226   1.245   0.579   6.093
 7109SOL    HW222227   1.392   0.611   6.157
 7110SOL     OW22228   3.168   6.655   4.556
 7110SOL    HW122229   3.264   6.657   4.527
 7110SOL    HW222230   3.164   6.646   4.656
 7111SOL     OW22231   1.394   0.891   4.028
 7111SOL    HW122232   1.349   0.832   3.961
 7111SOL    HW222233   1.358   0.984   4.020
 7112SOL     OW22234   2.028   4.420   4.352
 7112SOL    HW122235   2.006   4.507   4.395
 7112SOL    HW222236   2.110   4.381   4.394
 7113SOL     OW22237   2.625   4.778   5.150
 7113SOL    HW122238   2.716   4.746   5.122
 7113SOL    HW222239   2.568   4.699   5.172
 7114SOL     OW22240   4.814   5.199   1.201
 7114SOL    HW122241   4.724   5.162   1.225
 7114SOL    HW222242   4.880   5.124   1.196
 7115SOL     OW22243   5.735   4.438   6.600
 7115SOL    HW122244   5.756   4.386   6.683
 7115SOL    HW222245   5.821   4.466   6.556
 7116SOL     OW22246   6.443   3.786   4.110
 7116SOL    HW122247   6.385   3.867   4.098
 7116SOL    HW222248   6.539   3.813   4.106
 7117SOL     OW22249   6.137   6.863   3.538
 7117SOL    HW122250   6.104   6.769   3.544
 7117SOL    HW222251   6.120   6.899   3.446
 7118SOL     OW22252   4.090   4.578   5.395
 7118SOL    HW122253   4.107   4.638   5.473
 7118SOL    HW222254   4.041   4.496   5.427
 7119SOL     OW22255   5.105   0.161   4.864
 7119SOL    HW122256   5.057   0.155   4.952
 7119SOL    HW222257   5.142   0.253   4.853
 7120SOL     OW22258   5.056   1.447   1.297
 7120SOL    HW122259   5.003   1.427   1.379
 7120SOL    HW222260   5.106   1.365   1.269
 7121SOL     OW22261   0.970   6.459   3.568
 7121SOL    HW122262   1.051   6.404   3.549
 7121SOL    HW222263   0.981   6.505   3.656
 7122SOL     OW22264   2.693   6.851   5.683
 7122SOL    HW122265   2.742   6.841   5.596
 7122SOL    HW222266   2.595   6.848   5.667
 7123SOL     OW22267   6.187   4.877   4.979
 7123SOL    HW122268   6.225   4.969   4.978
 7123SOL    HW222269   6.259   4.810   4.961
 7124SOL     OW22270   1.064   2.769   1.725
 7124SOL    HW122271   1.020   2.698   1.669
 7124SOL    HW222272   1.136   2.814   1.672
 7125SOL     OW22273   0.749   0.195   1.900
 7125SOL    HW122274   0.829   0.157   1.854
 7125SOL    HW222275   0.777   0.244   1.982
 7126SOL     OW22276   4.042   6.378   1.498
 7126SOL    HW122277   4.021   6.298   1.442
 7126SOL    HW222278   4.066   6.348   1.591
 7127SOL     OW22279   3.298   6.153   5.400
 7127SOL    HW122280   3.275   6.071   5.452
 7127SOL    HW222281   3.215   6.206   5.381
 7128SOL     OW22282   3.379   4.595   6.416
 7128SOL    HW122283   3.297   4.538   6.408
 7128SOL    HW222284   3.398   4.637   6.327
 7129SOL     OW22285   0.509   1.548   1.206
 7129SOL    HW122286   0.603   1.539   1.238
 7129SOL    HW222287   0.459   1.608   1.268
 7130SOL     OW22288   2.640   0.055   4.467
 7130SOL    HW122289   2.737   0.037   4.453
 7130SOL    HW222290   2.586   7.004   4.433
 7131SOL     OW22291   3.669   0.621   2.819
 7131SOL    HW122292   3.730   0.600   2.743
 7131SOL    HW222293   3.600   0.549   2.828
 7132SOL     OW22294   5.499   3.702   6.524
 7132SOL    HW122295   5.463   3.778   6.470
 7132SOL    HW222296   5.491   3.617   6.472
 7133SOL     OW22297   3.217   6.060   3.592
 7133SOL    HW122298   3.237   6.066   3.689
 7133SOL    HW222299   3.201   5.965   3.566
 7134SOL     OW22300   5.899   5.426   1.716
 7134SOL    HW122301   5.895   5.524   1.736
 7134SOL    HW222302   5.990   5.391   1.739
 7135SOL     OW22303   1.993   3.307   2.011
 7135SOL    HW122304   1.924   3.312   1.939
 7135SOL    HW222305   2.063   3.377   1.994
 7136SOL     OW22306   2.888   1.747   1.964
 7136SOL    HW122307   2.802   1.755   1.913
 7136SOL    HW222308   2.954   1.812   1.928
 7137SOL     OW22309   2.876   2.002   1.686
 7137SOL    HW122310   2.902   2.023   1.592
 7137SOL    HW222311   2.931   2.057   1.749
 7138SOL     OW22312   1.898   1.629   0.594
 7138SOL    HW122313   1.818   1.684   0.569
 7138SOL    HW222314   1.875   1.532   0.587
 7139SOL     OW22315   5.598   5.772   2.172
 7139SOL    HW122316   5.638   5.813   2.090
 7139SOL    HW222317   5.624   5.826   2.252
 7140SOL     OW22318   6.447   3.518   0.776
 7140SOL    HW122319   6.536   3.537   0.735
 7140SOL    HW222320   6.397   3.604   0.789
 7141SOL     OW22321   4.045   6.935   1.012
 7141SOL    HW122322   3.973   7.004   1.004
 7141SOL    HW222323   4.132   6.979   1.033
 7142SOL     OW22324   3.378   1.011   4.489
 7142SOL    HW122325   3.468   1.052   4.506
 7142SOL    HW222326   3.384   0.948   4.412
 7143SOL     OW22327   2.741   5.014   6.513
 7143SOL    HW122328   2.651   4.999   6.472
 7143SOL    HW222329   2.808   5.026   6.440
 7144SOL     OW22330   6.668   0.919   4.384
 7144SOL    HW122331   6.643   0.962   4.297
 7144SOL    HW222332   6.651   0.983   4.459
 7145SOL     OW22333   4.990   2.127   0.456
 7145SOL    HW122334   5.054   2.198   0.426
 7145SOL    HW222335   4.897   2.154   0.430
 7146SOL     OW22336   2.215   1.185   5.333
 7146SOL    HW122337   2.236   1.088   5.340
 7146SOL    HW222338   2.292   1.232   5.288
 7147SOL     OW22339   5.498   4.695   2.534
 7147SOL    HW122340   5.420   4.691   2.597
 7147SOL    HW222341   5.508   4.606   2.489
 7148SOL     OW22342   6.298   5.941   1.688
 7148SOL    HW122343   6.336   5.970   1.776
 7148SOL    HW222344   6.213   5.890   1.704
 7149SOL     OW22345   6.868   4.872   4.484
 7149SOL    HW122346   6.771   4.883   4.464
 7149SOL    HW222347   6.890   4.775   4.491
 7150SOL     OW22348   3.880   3.417   0.032
 7150SOL    HW122349   3.821   3.369   0.097
 7150SOL    HW222350   3.833   3.498   7.024
 7151SOL     OW22351   3.978   0.316   1.406
 7151SOL    HW122352   3.885   0.344   1.383
 7151SOL    HW222353   4.042   0.391   1.388
 7152SOL     OW22354   0.088   0.916   6.824
 7152SOL    HW122355   0.012   0.959   6.871
 7152SOL    HW222356   0.059   0.885   6.733
 7153SOL     OW22357   4.312   6.155   1.256
 7153SOL    HW122358   4.314   6.114   1.347
 7153SOL    HW222359   4.297   6.253   1.263
 7154SOL     OW22360   4.172   1.203   2.366
 7154SOL    HW122361   4.202   1.134   2.432
 7154SOL    HW222362   4.247   1.222   2.302
 7155SOL     OW22363   3.378   1.896   2.574
 7155SOL    HW122364   3.450   1.934   2.516
 7155SOL    HW222365   3.337   1.817   2.529
 7156SOL     OW22366   5.954   3.636   1.075
 7156SOL    HW122367   5.950   3.613   1.172
 7156SOL    HW222368   5.908   3.565   1.022
 7157SOL     OW22369   6.242   4.268   6.344
 7157SOL    HW122370   6.304   4.203   6.302
 7157SOL    HW222371   6.294   4.343   6.385
 7158SOL     OW22372   5.393   6.888   4.096
 7158SOL    HW122373   5.339   6.952   4.041
 7158SOL    HW222374   5.362   6.795   4.079
 7159SOL     OW22375   0.296   5.577   4.034
 7159SOL    HW122376   0.248   5.542   4.115
 7159SOL    HW222377   0.376   5.629   4.063
 7160SOL     OW22378   5.276   0.008   2.988
 7160SOL    HW122379   5.349   0.063   3.028
 7160SOL    HW222380   5.232   6.980   3.060
 7161SOL     OW22381   4.030   3.294   3.540
 7161SOL    HW122382   4.008   3.196   3.542
 7161SOL    HW222383   3.946   3.347   3.551
 7162SOL     OW22384   0.228   5.342   2.153
 7162SOL    HW122385   0.224   5.369   2.249
 7162SOL    HW222386   0.141   5.363   2.109
 7163SOL     OW22387   1.237   1.735   2.213
 7163SOL    HW122388   1.208   1.660   2.153
 7163SOL    HW222389   1.224   1.822   2.166
 7164SOL     OW22390   1.469   1.091   6.181
 7164SOL    HW122391   1.553   1.088   6.235
 7164SOL    HW222392   1.440   1.186   6.169
 7165SOL     OW22393   5.966   0.204   0.016
 7165SOL    HW122394   5.899   0.196   0.090
 7165SOL    HW222395   5.923   0.245   6.962
 7166SOL     OW22396   5.217   6.848   6.210
 7166SOL    HW122397   5.278   6.908   6.262
 7166SOL    HW222398   5.166   6.789   6.272
 7167SOL     OW22399   5.811   1.948   5.020
 7167SOL    HW122400   5.785   2.044   5.005
 7167SOL    HW222401   5.860   1.940   5.107
 7168SOL     OW22402   2.456   0.865   2.084
 7168SOL    HW122403   2.476   0.767   2.093
 7168SOL    HW222404   2.530   0.909   2.033
 7169SOL     OW22405   1.617   4.168   5.736
 7169SOL    HW122406   1.650   4.260   5.753
 7169SOL    HW222407   1.688   4.102   5.760
 7170SOL     OW22408   4.327   0.715   1.569
 7170SOL    HW122409   4.401   0.647   1.577
 7170SOL    HW222410   4.320   0.767   1.654
 7171SOL     OW22411   5.731   5.000   0.657
 7171SOL    HW122412   5.693   4.908   0.669
 7171SOL    HW222413   5.781   5.026   0.740
 7172SOL     OW22414   1.756   1.030   4.329
 7172SOL    HW122415   1.763   1.057   4.233
 7172SOL    HW222416   1.671   0.978   4.343
 7173SOL     OW22417   5.566   5.667   6.488
 7173SOL    HW122418   5.538   5.748   6.436
 7173SOL    HW222419   5.521   5.667   6.577
 7174SOL     OW22420   6.056   4.421   0.829
 7174SOL    HW122421   6.144   4.379   0.852
 7174SOL    HW222422   6.015   4.371   0.753
 7175SOL     OW22423   5.923   3.860   5.274
 7175SOL    HW122424   5.859   3.932   5.246
 7175SOL    HW222425   6.014   3.880   5.237
 7176SOL     OW22426   0.285   1.519   4.223
 7176SOL    HW122427   0.211   1.585   4.210
 7176SOL    HW222428   0.280   1.482   4.316
 7177SOL     OW22429   1.955   5.183   5.161
 7177SOL    HW122430   1.939   5.092   5.198
 7177SOL    HW222431   1.925   5.252   5.227
 7178SOL     OW22432   0.422   0.850   5.177
 7178SOL    HW122433   0.477   0.840   5.260
 7178SOL    HW222434   0.331   0.813   5.193
 7179SOL     OW22435   3.194   5.772   6.799
 7179SOL    HW122436   3.101   5.758   6.833
 7179SOL    HW222437   3.224   5.865   6.820
 7180SOL     OW22438   1.090   5.105   1.568
 7180SOL    HW122439   1.129   5.095   1.660
 7180SOL    HW222440   1.161   5.139   1.506
 7181SOL     OW22441   2.252   1.687   5.949
 7181SOL    HW122442   2.242   1.599   5.904
 7181SOL    HW222443   2.248   1.760   5.882
 7182SOL     OW22444   0.867   3.344   4.059
 7182SOL    HW122445   0.966   3.346   4.052
 7182SOL    HW222446   0.839   3.361   4.153
 7183SOL     OW22447   1.286   6.302   1.526
 7183SOL    HW122448   1.213   6.238   1.503
 7183SOL    HW222449   1.367   6.252   1.555
 7184SOL     OW22450   6.748   0.232   3.647
 7184SOL    HW122451   6.655   0.270   3.647
 7184SOL    HW222452   6.747   0.141   3.606
 7185SOL     OW22453   4.593   0.408   4.784
 7185SOL    HW122454   4.640   0.483   4.831
 7185SOL    HW222455   4.547   0.444   4.702
 7186SOL     OW22456   0.157   0.222   0.131
 7186SOL    HW122457   0.074   0.267   0.163
 7186SOL    HW222458   0.163   0.131   0.172
 7187SOL     OW22459   3.526   3.068   5.112
 7187SOL    HW122460   3.592   3.116   5.054
 7187SOL    HW222461   3.518   2.973   5.080
 7188SOL     OW22462   4.317   5.178   0.062
 7188SOL    HW122463   4.235   5.161   0.117
 7188SOL    HW222464   4.392   5.204   0.122
 7189SOL     OW22465   6.507   2.188   5.369
 7189SOL    HW122466   6.442   2.119   5.337
 7189SOL    HW222467   6.578   2.202   5.299
 7190SOL     OW22468   5.689   5.622   1.287
 7190SOL    HW122469   5.652   5.549   1.345
 7190SOL    HW222470   5.618   5.651   1.222
 7191SOL     OW22471   0.566   4.049   3.230
 7191SOL    HW122472   0.551   3.967   3.286
 7191SOL    HW222473   0.646   4.035   3.171
 7192SOL     OW22474   1.833   5.026   6.833
 7192SOL    HW122475   1.752   5.035   6.775
 7192SOL    HW222476   1.808   5.043   6.928
 7193SOL     OW22477   2.627   2.418   2.800
 7193SOL    HW122478   2.598   2.426   2.895
 7193SOL    HW222479   2.673   2.331   2.787
 7194SOL     OW22480   2.684   2.831   6.603
 7194SOL    HW122481   2.613   2.808   6.669
 7194SOL    HW222482   2.754   2.888   6.647
 7195SOL     OW22483   0.369   3.464   6.807
 7195SOL    HW122484   0.371   3.366   6.826
 7195SOL    HW222485   0.274   3.495   6.806
 7196SOL     OW22486   3.329   4.102   2.291
 7196SOL    HW122487   3.245   4.055   2.320
 7196SOL    HW222488   3.306   4.189   2.248
 7197SOL     OW22489   1.570   3.698   5.557
 7197SOL    HW122490   1.669   3.694   5.570
 7197SOL    HW222491   1.528   3.613   5.589
 7198SOL     OW22492   6.793   0.817   0.619
 7198SOL    HW122493   6.795   0.717   0.619
 7198SOL    HW222494   6.776   0.851   0.712
 7199SOL     OW22495   0.965   1.090   2.393
 7199SOL    HW122496   0.865   1.092   2.392
 7199SOL    HW222497   0.999   1.180   2.422
 7200SOL     OW22498   2.265   2.677   0.588
 7200SOL    HW122499   2.240   2.580   0.593
 7200SOL    HW222500   2.273   2.704   0.492
 7201SOL     OW22501   5.748   5.469   4.235
 7201SOL    HW122502   5.801   5.540   4.188
 7201SOL    HW222503   5.652   5.476   4.208
 7202SOL     OW22504   5.134   7.019   5.972
 7202SOL    HW122505   5.197   0.066   5.948
 7202SOL    HW222506   5.184   6.945   6.018
 7203SOL     OW22507   0.025   1.661   2.084
 7203SOL    HW122508   0.066   1.613   2.162
 7203SOL    HW222509   0.002   1.595   2.013
 7204SOL     OW22510   0.034   1.728   0.966
 7204SOL    HW122511   0.079   1.788   1.031
 7204SOL    HW222512   7.011   1.656   1.015
 7205SOL     OW22513   2.185   2.192   5.126
 7205SOL    HW122514   2.100   2.187   5.073
 7205SOL    HW222515   2.246   2.259   5.084
 7206SOL     OW22516   1.741   2.173   0.933
 7206SOL    HW122517   1.841   2.172   0.936
 7206SOL    HW222518   1.704   2.185   1.025
 7207SOL     OW22519   2.135   2.429   3.818
 7207SOL    HW122520   2.164   2.506   3.875
 7207SOL    HW222521   2.061   2.458   3.757
 7208SOL     OW22522   3.931   1.042   4.637
 7208SOL    HW122523   3.955   1.114   4.571
 7208SOL    HW222524   4.013   0.992   4.662
 7209SOL     OW22525   2.320   2.634   2.358
 7209SOL    HW122526   2.354   2.633   2.452
 7209SOL    HW222527   2.352   2.552   2.310
 7210SOL     OW22528   2.605   1.764   2.739
 7210SOL    HW122529   2.630   1.704   2.663
 7210SOL    HW222530   2.563   1.847   2.703
 7211SOL     OW22531   3.044   5.836   5.290
 7211SOL    HW122532   3.132   5.875   5.316
 7211SOL    HW222533   3.014   5.876   5.203
 7212SOL     OW22534   5.960   5.255   5.823
 7212SOL    HW122535   5.930   5.301   5.907
 7212SOL    HW222536   6.059   5.267   5.813
 7213SOL     OW22537   3.915   0.600   0.682
 7213SOL    HW122538   3.979   0.530   0.651
 7213SOL    HW222539   3.821   0.564   0.678
 7214SOL     OW22540   0.629   0.734   6.270
 7214SOL    HW122541   0.576   0.741   6.185
 7214SOL    HW222542   0.568   0.709   6.345
 7215SOL     OW22543   0.283   2.890   3.024
 7215SOL    HW122544   0.361   2.947   3.051
 7215SOL    HW222545   0.307   2.837   2.943
 7216SOL     OW22546   3.293   6.218   3.061
 7216SOL    HW122547   3.362   6.187   3.127
 7216SOL    HW222548   3.323   6.304   3.019
 7217SOL     OW22549   1.602   4.491   3.852
 7217SOL    HW122550   1.679   4.546   3.822
 7217SOL    HW222551   1.596   4.408   3.797
 7218SOL     OW22552   6.668   3.159   4.451
 7218SOL    HW122553   6.598   3.223   4.481
 7218SOL    HW222554   6.673   3.083   4.515
 7219SOL     OW22555   2.836   6.668   1.739
 7219SOL    HW122556   2.736   6.674   1.750
 7219SOL    HW222557   2.878   6.654   1.828
 7220SOL     OW22558   6.716   4.213   4.595
 7220SOL    HW122559   6.740   4.238   4.689
 7220SOL    HW222560   6.646   4.142   4.596
 7221SOL     OW22561   3.255   6.006   4.923
 7221SOL    HW122562   3.308   5.970   5.000
 7221SOL    HW222563   3.157   5.996   4.943
 7222SOL     OW22564   6.447   6.478   3.349
 7222SOL    HW122565   6.431   6.438   3.439
 7222SOL    HW222566   6.371   6.453   3.288
 7223SOL     OW22567   2.512   1.869   0.486
 7223SOL    HW122568   2.597   1.853   0.436
 7223SOL    HW222569   2.518   1.824   0.575
 7224SOL     OW22570   4.459   2.297   3.479
 7224SOL    HW122571   4.409   2.302   3.566
 7224SOL    HW222572   4.549   2.257   3.495
 7225SOL     OW22573   1.906   6.945   0.713
 7225SOL    HW122574   1.949   6.860   0.683
 7225SOL    HW222575   1.854   6.985   0.637
 7226SOL     OW22576   5.847   0.984   0.303
 7226SOL    HW122577   5.874   1.080   0.318
 7226SOL    HW222578   5.773   0.981   0.236
 7227SOL     OW22579   2.360   0.487   2.194
 7227SOL    HW122580   2.418   0.496   2.275
 7227SOL    HW222581   2.412   0.515   2.113
 7228SOL     OW22582   0.587   1.932   2.345
 7228SOL    HW122583   0.503   1.907   2.394
 7228SOL    HW222584   0.576   1.911   2.248
 7229SOL     OW22585   6.511   0.136   4.672
 7229SOL    HW122586   6.474   0.118   4.580
 7229SOL    HW222587   6.589   0.075   4.689
 7230SOL     OW22588   3.034   5.190   4.045
 7230SOL    HW122589   2.987   5.102   4.034
 7230SOL    HW222590   2.995   5.240   4.122
 7231SOL     OW22591   3.885   1.275   6.834
 7231SOL    HW122592   3.900   1.329   6.916
 7231SOL    HW222593   3.816   1.319   6.776
 7232SOL     OW22594   5.232   6.851   2.767
 7232SOL    HW122595   5.151   6.880   2.716
 7232SOL    HW222596   5.250   6.917   2.840
 7233SOL     OW22597   5.937   2.169   6.050
 7233SOL    HW122598   5.917   2.075   6.022
 7233SOL    HW222599   5.924   2.177   6.149
 7234SOL     OW22600   4.844   3.793   3.367
 7234SOL    HW122601   4.748   3.777   3.392
 7234SOL    HW222602   4.892   3.835   3.443
 7235SOL     OW22603   6.344   5.701   1.838
 7235SOL    HW122604   6.321   5.717   1.934
 7235SOL    HW222605   6.300   5.616   1.807
 7236SOL     OW22606   1.843   2.879   3.077
 7236SOL    HW122607   1.864   2.840   3.167
 7236SOL    HW222608   1.878   2.820   3.005
 7237SOL     OW22609   5.198   0.362   6.883
 7237SOL    HW122610   5.143   0.279   6.881
 7237SOL    HW222611   5.256   0.367   6.802
 7238SOL     OW22612   4.931   2.819   6.657
 7238SOL    HW122613   4.997   2.777   6.719
 7238SOL    HW222614   4.956   2.799   6.562
 7239SOL     OW22615   0.536   3.528   2.299
 7239SOL    HW122616   0.457   3.557   2.245
 7239SOL    HW222617   0.547   3.429   2.293
 7240SOL     OW22618   6.881   1.484   5.976
 7240SOL    HW122619   6.819   1.459   5.901
 7240SOL    HW222620   6.847   1.565   6.022
 7241SOL     OW22621   2.068   0.917   0.775
 7241SOL    HW122622   2.070   0.996   0.837
 7241SOL    HW222623   2.139   0.928   0.705
 7242SOL     OW22624   0.291   5.996   4.768
 7242SOL    HW122625   0.373   5.965   4.816
 7242SOL    HW222626   0.229   6.041   4.833
 7243SOL     OW22627   0.075   3.593   6.059
 7243SOL    HW122628   0.122   3.662   6.113
 7243SOL    HW222629   0.087   3.613   5.962
 7244SOL     OW22630   0.234   6.567   0.028
 7244SOL    HW122631   0.157   6.525   0.075
 7244SOL    HW222632   0.289   6.619   0.093
 7245SOL     OW22633   1.632   2.226   6.768
 7245SOL    HW122634   1.697   2.278   6.711
 7245SOL    HW222635   1.671   2.137   6.790
 7246SOL     OW22636   3.078   0.696   4.755
 7246SOL    HW122637   3.159   0.638   4.763
 7246SOL    HW222638   3.101   0.779   4.705
 7247SOL     OW22639   3.041   2.338   5.615
 7247SOL    HW122640   3.135   2.359   5.589
 7247SOL    HW222641   2.978   2.388   5.555
 7248SOL     OW22642   3.012   0.548   4.070
 7248SOL    HW122643   3.076   0.609   4.024
 7248SOL    HW222644   3.061   0.469   4.106
 7249SOL     OW22645   4.261   4.697   2.133
 7249SOL    HW122646   4.331   4.633   2.164
 7249SOL    HW222647   4.173   4.651   2.131
 7250SOL     OW22648   5.185   4.594   6.061
 7250SOL    HW122649   5.165   4.668   5.997
 7250SOL    HW222650   5.280   4.601   6.091
 7251SOL     OW22651   0.976   6.550   6.135
 7251SOL    HW122652   0.881   6.579   6.122
 7251SOL    HW222653   0.991   6.463   6.088
 7252SOL     OW22654   3.043   4.063   1.959
 7252SOL    HW122655   3.025   3.967   1.981
 7252SOL    HW222656   3.005   4.121   2.032
 7253SOL     OW22657   1.529   6.706   6.027
 7253SOL    HW122658   1.561   6.722   6.120
 7253SOL    HW222659   1.435   6.671   6.029
 7254SOL     OW22660   5.631   4.587   3.695
 7254SOL    HW122661   5.593   4.576   3.787
 7254SOL    HW222662   5.711   4.529   3.685
 7255SOL     OW22663   5.252   3.279   6.661
 7255SOL    HW122664   5.169   3.242   6.619
 7255SOL    HW222665   5.228   3.330   6.744
 7256SOL     OW22666   3.806   6.563   5.359
 7256SOL    HW122667   3.850   6.474   5.351
 7256SOL    HW222668   3.714   6.559   5.320
 7257SOL     OW22669   6.991   1.841   5.057
 7257SOL    HW122670   6.966   1.823   4.962
 7257SOL    HW222671   6.944   1.923   5.090
 7258SOL     OW22672   5.709   2.596   1.697
 7258SOL    HW122673   5.805   2.590   1.722
 7258SOL    HW222674   5.667   2.673   1.746
 7259SOL     OW22675   1.302   3.447   3.161
 7259SOL    HW122676   1.388   3.432   3.112
 7259SOL    HW222677   1.226   3.447   3.096
 7260SOL     OW22678   5.277   2.527   1.153
 7260SOL    HW122679   5.191   2.578   1.149
 7260SOL    HW222680   5.276   2.466   1.233
 7261SOL     OW22681   0.087   3.965   1.028
 7261SOL    HW122682   0.139   3.914   0.959
 7261SOL    HW222683   0.150   4.017   1.085
 7262SOL     OW22684   5.450   1.334   6.272
 7262SOL    HW122685   5.490   1.411   6.322
 7262SOL    HW222686   5.520   1.264   6.256
 7263SOL     OW22687   0.454   7.017   0.293
 7263SOL    HW122688   0.405   6.964   0.362
 7263SOL    HW222689   0.499   0.070   0.337
 7264SOL     OW22690   5.983   1.121   1.130
 7264SOL    HW122691   5.889   1.091   1.146
 7264SOL    HW222692   5.984   1.193   1.060
 7265SOL     OW22693   5.848   5.355   4.481
 7265SOL    HW122694   5.784   5.397   4.417
 7265SOL    HW222695   5.861   5.259   4.458
 7266SOL     OW22696   0.000   0.370   3.404
 7266SOL    HW122697   0.017   0.318   3.489
 7266SOL    HW222698   0.025   0.466   3.419
 7267SOL     OW22699   6.451   6.493   4.767
 7267SOL    HW122700   6.550   6.486   4.755
 7267SOL    HW222701   6.412   6.401   4.775
 7268SOL     OW22702   6.966   5.523   4.236
 7268SOL    HW122703   6.959   5.498   4.139
 7268SOL    HW222704   6.889   5.582   4.260
 7269SOL     OW22705   1.767   6.450   6.067
 7269SOL    HW122706   1.699   6.381   6.044
 7269SOL    HW222707   1.795   6.499   5.985
 7270SOL     OW22708   0.019   1.974   4.095
 7270SOL    HW122709   0.037   2.033   4.016
 7270SOL    HW222710   6.946   1.959   4.103
 7271SOL     OW22711   1.896   5.091   3.896
 7271SOL    HW122712   1.912   5.135   3.808
 7271SOL    HW222713   1.840   5.009   3.883
 7272SOL     OW22714   6.391   6.063   1.926
 7272SOL    HW122715   6.398   6.043   2.024
 7272SOL    HW222716   6.483   6.076   1.888
 7273SOL     OW22717   5.249   3.505   6.366
 7273SOL    HW122718   5.343   3.473   6.366
 7273SOL    HW222719   5.191   3.440   6.317
 7274SOL     OW22720   0.290   4.219   6.698
 7274SOL    HW122721   0.269   4.129   6.737
 7274SOL    HW222722   0.209   4.277   6.705
 7275SOL     OW22723   0.252   6.607   2.682
 7275SOL    HW122724   0.271   6.510   2.695
 7275SOL    HW222725   0.154   6.623   2.686
 7276SOL     OW22726   5.369   7.004   3.774
 7276SOL    HW122727   5.415   0.044   3.833
 7276SOL    HW222728   5.415   6.915   3.781
 7277SOL     OW22729   5.022   0.274   5.595
 7277SOL    HW122730   5.069   0.276   5.507
 7277SOL    HW222731   5.062   0.204   5.653
 7278SOL     OW22732   3.168   3.865   1.705
 7278SOL    HW122733   3.234   3.930   1.743
 7278SOL    HW222734   3.076   3.905   1.709
 7279SOL     OW22735   4.066   6.265   0.098
 7279SOL    HW122736   4.124   6.217   0.164
 7279SOL    HW222737   4.106   6.354   0.076
 7280SOL     OW22738   5.821   6.930   5.065
 7280SOL    HW122739   5.915   6.924   5.032
 7280SOL    HW222740   5.777   6.840   5.055
 7281SOL     OW22741   2.983   1.645   0.034
 7281SOL    HW122742   3.072   1.633   7.015
 7281SOL    HW222743   2.930   1.713   7.010
 7282SOL     OW22744   6.269   4.998   2.693
 7282SOL    HW122745   6.172   5.006   2.717
 7282SOL    HW222746   6.313   4.934   2.756
 7283SOL     OW22747   3.021   1.294   3.613
 7283SOL    HW122748   3.056   1.319   3.522
 7283SOL    HW222749   2.954   1.363   3.642
 7284SOL     OW22750   0.348   3.507   5.325
 7284SOL    HW122751   0.391   3.484   5.412
 7284SOL    HW222752   0.255   3.539   5.342
 7285SOL     OW22753   5.276   3.876   2.325
 7285SOL    HW122754   5.274   3.776   2.313
 7285SOL    HW222755   5.363   3.903   2.366
 7286SOL     OW22756   3.209   1.778   0.997
 7286SOL    HW122757   3.160   1.711   0.941
 7286SOL    HW222758   3.150   1.857   1.014
 7287SOL     OW22759   0.747   2.269   6.718
 7287SOL    HW122760   0.832   2.226   6.684
 7287SOL    HW222761   0.717   2.338   6.652
 7288SOL     OW22762   3.824   0.427   6.440
 7288SOL    HW122763   3.839   0.462   6.533
 7288SOL    HW222764   3.845   0.498   6.374
 7289SOL     OW22765   6.420   1.606   3.269
 7289SOL    HW122766   6.405   1.611   3.368
 7289SOL    HW222767   6.373   1.526   3.232
 7290SOL     OW22768   2.635   6.000   5.282
 7290SOL    HW122769   2.552   5.950   5.302
 7290SOL    HW222770   2.674   6.036   5.367
 7291SOL     OW22771   1.860   0.078   1.391
 7291SOL    HW122772   1.912   0.151   1.435
 7291SOL    HW222773   1.763   0.090   1.408
 7292SOL     OW22774   2.323   0.755   4.501
 7292SOL    HW122775   2.366   0.788   4.417
 7292SOL    HW222776   2.337   0.821   4.575
 7293SOL     OW22777   1.551   1.360   5.014
 7293SOL    HW122778   1.646   1.376   4.987
 7293SOL    HW222779   1.520   1.272   4.979
 7294SOL     OW22780   2.810   5.398   0.871
 7294SOL    HW122781   2.840   5.305   0.893
 7294SOL    HW222782   2.886   5.462   0.885
 7295SOL     OW22783   1.024   2.846   0.580
 7295SOL    HW122784   1.059   2.805   0.496
 7295SOL    HW222785   1.008   2.943   0.566
 7296SOL     OW22786   2.922   4.797   1.074
 7296SOL    HW122787   3.010   4.806   1.120
 7296SOL    HW222788   2.866   4.730   1.123
 7297SOL     OW22789   3.804   5.811   1.124
 7297SOL    HW122790   3.735   5.796   1.054
 7297SOL    HW222791   3.783   5.754   1.204
 7298SOL     OW22792   4.891   4.206   5.760
 7298SOL    HW122793   4.941   4.179   5.841
 7298SOL    HW222794   4.927   4.293   5.725
 7299SOL     OW22795   0.232   1.814   0.032
 7299SOL    HW122796   0.254   1.829   0.129
 7299SOL    HW222797   0.295   1.747   7.019
 7300SOL     OW22798   5.955   5.355   2.226
 7300SOL    HW122799   5.894   5.340   2.149
 7300SOL    HW222800   5.978   5.452   2.232
 7301SOL     OW22801   6.267   0.876   4.699
 7301SOL    HW122802   6.199   0.807   4.724
 7301SOL    HW222803   6.260   0.896   4.602
 7302SOL     OW22804   0.539   1.360   6.408
 7302SOL    HW122805   0.582   1.409   6.332
 7302SOL    HW222806   0.477   1.290   6.371
 7303SOL     OW22807   5.074   0.667   6.550
 7303SOL    HW122808   4.996   0.625   6.594
 7303SOL    HW222809   5.148   0.600   6.542
 7304SOL     OW22810   3.672   4.537   0.103
 7304SOL    HW122811   3.721   4.483   0.034
 7304SOL    HW222812   3.712   4.628   0.108
 7305SOL     OW22813   4.822   1.883   0.612
 7305SOL    HW122814   4.901   1.934   0.646
 7305SOL    HW222815   4.740   1.940   0.616
 7306SOL     OW22816   5.160   3.304   1.283
 7306SOL    HW122817   5.219   3.272   1.209
 7306SOL    HW222818   5.210   3.297   1.370
 7307SOL     OW22819   2.853   0.326   1.714
 7307SOL    HW122820   2.842   0.327   1.813
 7307SOL    HW222821   2.935   0.378   1.689
 7308SOL     OW22822   6.912   4.098   5.348
 7308SOL    HW122823   6.889   4.097   5.250
 7308SOL    HW222824   6.946   4.189   5.373
 7309SOL     OW22825   5.376   6.083   0.653
 7309SOL    HW122826   5.314   6.109   0.727
 7309SOL    HW222827   5.324   6.074   0.568
 7310SOL     OW22828   1.997   3.815   1.587
 7310SOL    HW122829   2.067   3.792   1.519
 7310SOL    HW222830   2.037   3.870   1.660
 7311SOL     OW22831   3.492   1.998   2.055
 7311SOL    HW122832   3.568   2.061   2.042
 7311SOL    HW222833   3.407   2.042   2.027
 7312SOL     OW22834   0.360   3.185   5.799
 7312SOL    HW122835   0.327   3.263   5.746
 7312SOL    HW222836   0.376   3.108   5.737
 7313SOL     OW22837   4.342   2.254   6.268
 7313SOL    HW122838   4.375   2.304   6.348
 7313SOL    HW222839   4.266   2.304   6.226
 7314SOL     OW22840   6.772   3.562   5.446
 7314SOL    HW122841   6.765   3.469   5.410
 7314SOL    HW222842   6.782   3.558   5.546
 7315SOL     OW22843   6.792   0.140   2.703
 7315SOL    HW122844   6.783   0.138   2.603
 7315SOL    HW222845   6.887   0.160   2.728
 7316SOL     OW22846   3.104   3.392   6.336
 7316SOL    HW122847   3.093   3.407   6.434
 7316SOL    HW222848   3.025   3.429   6.287
 7317SOL     OW22849   4.410   0.828   2.292
 7317SOL    HW122850   4.400   0.909   2.349
 7317SOL    HW222851   4.380   0.747   2.342
 7318SOL     OW22852   1.003   1.787   0.713
 7318SOL    HW122853   1.024   1.705   0.661
 7318SOL    HW222854   1.025   1.868   0.658
 7319SOL     OW22855   6.291   3.799   6.163
 7319SOL    HW122856   6.230   3.752   6.227
 7319SOL    HW222857   6.256   3.787   6.069
 7320SOL     OW22858   6.418   3.658   1.606
 7320SOL    HW122859   6.513   3.681   1.625
 7320SOL    HW222860   6.375   3.732   1.554
 7321SOL     OW22861   3.076   6.316   5.383
 7321SOL    HW122862   3.009   6.306   5.310
 7321SOL    HW222863   3.030   6.317   5.472
 7322SOL     OW22864   0.323   2.574   2.809
 7322SOL    HW122865   0.342   2.671   2.791
 7322SOL    HW222866   0.408   2.522   2.803
 7323SOL     OW22867   2.147   2.367   1.773
 7323SOL    HW122868   2.072   2.432   1.777
 7323SOL    HW222869   2.233   2.416   1.755
 7324SOL     OW22870   5.237   6.509   2.677
 7324SOL    HW122871   5.267   6.603   2.663
 7324SOL    HW222872   5.234   6.461   2.590
 7325SOL     OW22873   3.999   6.936   6.576
 7325SOL    HW122874   4.087   6.891   6.560
 7325SOL    HW222875   3.929   6.894   6.518
 7326SOL     OW22876   2.243   6.538   5.430
 7326SOL    HW122877   2.166   6.599   5.413
 7326SOL    HW222878   2.329   6.585   5.411
 7327SOL     OW22879   6.600   3.041   5.342
 7327SOL    HW122880   6.624   3.034   5.245
 7327SOL    HW222881   6.615   2.953   5.387
 7328SOL     OW22882   3.383   0.354   6.399
 7328SOL    HW122883   3.349   0.265   6.431
 7328SOL    HW222884   3.444   0.340   6.321
 7329SOL     OW22885   4.604   3.726   1.699
 7329SOL    HW122886   4.601   3.825   1.700
 7329SOL    HW222887   4.690   3.695   1.742
 7330SOL     OW22888   3.146   2.038   6.761
 7330SOL    HW122889   3.101   1.975   6.697
 7330SOL    HW222890   3.217   1.989   6.811
 7331SOL     OW22891   5.328   0.101   1.662
 7331SOL    HW122892   5.380   0.138   1.585
 7331SOL    HW222893   5.338   0.002   1.664
 7332SOL     OW22894   2.096   5.933   0.377
 7332SOL    HW122895   2.034   5.972   0.309
 7332SOL    HW222896   2.100   5.833   0.365
 7333SOL     OW22897   0.264   3.146   3.698
 7333SOL    HW122898   0.198   3.071   3.695
 7333SOL    HW222899   0.270   3.181   3.791
 7334SOL     OW22900   3.932   6.102   6.967
 7334SOL    HW122901   3.987   6.176   7.006
 7334SOL    HW222902   3.918   6.031   0.010
 7335SOL     OW22903   1.947   2.857   2.592
 7335SOL    HW122904   1.882   2.788   2.559
 7335SOL    HW222905   1.977   2.914   2.516
 7336SOL     OW22906   1.660   6.131   3.076
 7336SOL    HW122907   1.699   6.219   3.052
 7336SOL    HW222908   1.625   6.086   2.994
 7337SOL     OW22909   0.299   2.664   2.320
 7337SOL    HW122910   0.247   2.591   2.275
 7337SOL    HW222911   0.381   2.684   2.266
 7338SOL     OW22912   6.444   2.681   1.333
 7338SOL    HW122913   6.542   2.693   1.346
 7338SOL    HW222914   6.394   2.750   1.386
 7339SOL     OW22915   5.095   6.287   3.802
 7339SOL    HW122916   5.095   6.272   3.703
 7339SOL    HW222917   5.023   6.232   3.845
 7340SOL     OW22918   1.494   0.897   0.289
 7340SOL    HW122919   1.403   0.884   0.249
 7340SOL    HW222920   1.558   0.834   0.244
 7341SOL     OW22921   6.995   2.638   6.909
 7341SOL    HW122922   6.913   2.595   6.946
 7341SOL    HW222923   6.970   2.698   6.833
 7342SOL     OW22924   6.588   0.994   1.652
 7342SOL    HW122925   6.560   0.999   1.748
 7342SOL    HW222926   6.553   1.075   1.603
 7343SOL     OW22927   4.195   2.747   6.949
 7343SOL    HW122928   4.203   2.655   6.987
 7343SOL    HW222929   4.121   2.796   6.994
 7344SOL     OW22930   0.957   6.775   5.860
 7344SOL    HW122931   1.015   6.708   5.906
 7344SOL    HW222932   0.930   6.739   5.770
 7345SOL     OW22933   3.443   3.409   5.696
 7345SOL    HW122934   3.489   3.487   5.739
 7345SOL    HW222935   3.369   3.442   5.637
 7346SOL     OW22936   4.134   6.723   2.620
 7346SOL    HW122937   4.150   6.631   2.583
 7346SOL    HW222938   4.070   6.717   2.697
 7347SOL     OW22939   0.500   1.710   0.320
 7347SOL    HW122940   0.597   1.736   0.315
 7347SOL    HW222941   0.489   1.618   0.283
 7348SOL     OW22942   1.185   3.429   4.101
 7348SOL    HW122943   1.238   3.453   4.019
 7348SOL    HW222944   1.247   3.412   4.177
 7349SOL     OW22945   3.920   6.932   1.939
 7349SOL    HW122946   4.017   6.909   1.951
 7349SOL    HW222947   3.899   7.015   1.990
 7350SOL     OW22948   2.606   1.750   5.575
 7350SOL    HW122949   2.607   1.704   5.663
 7350SOL    HW222950   2.544   1.701   5.513
 7351SOL     OW22951   5.322   5.316   3.301
 7351SOL    HW122952   5.382   5.383   3.257
 7351SOL    HW222953   5.309   5.237   3.240
 7352SOL     OW22954   1.270   1.967   2.851
 7352SOL    HW122955   1.254   1.906   2.928
 7352SOL    HW222956   1.289   1.913   2.769
 7353SOL     OW22957   0.366   0.492   6.730
 7353SOL    HW122958   0.452   0.489   6.779
 7353SOL    HW222959   0.369   0.428   6.653
 7354SOL     OW22960   1.754   0.758   4.648
 7354SOL    HW122961   1.761   0.803   4.737
 7354SOL    HW222962   1.826   0.791   4.587
 7355SOL     OW22963   0.381   2.022   6.675
 7355SOL    HW122964   0.307   2.088   6.665
 7355SOL    HW222965   0.464   2.059   6.632
 7356SOL     OW22966   3.789   4.180   6.223
 7356SOL    HW122967   3.725   4.245   6.262
 7356SOL    HW222968   3.809   4.206   6.128
 7357SOL     OW22969   3.319   6.076   2.186
 7357SOL    HW122970   3.247   6.090   2.119
 7357SOL    HW222971   3.406   6.060   2.139
 7358SOL     OW22972   6.247   3.227   2.325
 7358SOL    HW122973   6.323   3.226   2.389
 7358SOL    HW222974   6.236   3.137   2.284
 7359SOL     OW22975   4.409   2.678   5.990
 7359SOL    HW122976   4.473   2.661   5.915
 7359SOL    HW222977   4.458   2.716   6.068
 7360SOL     OW22978   2.100   3.685   5.475
 7360SOL    HW122979   2.082   3.598   5.429
 7360SOL    HW222980   2.161   3.740   5.419
 7361SOL     OW22981   5.407   0.881   2.659
 7361SOL    HW122982   5.390   0.795   2.611
 7361SOL    HW222983   5.422   0.862   2.756
 7362SOL     OW22984   3.185   5.815   6.303
 7362SOL    HW122985   3.217   5.722   6.316
 7362SOL    HW222986   3.153   5.852   6.390
 7363SOL     OW22987   4.477   0.850   1.361
 7363SOL    HW122988   4.572   0.824   1.342
 7363SOL    HW222989   4.419   0.769   1.359
 7364SOL     OW22990   4.682   0.121   1.762
 7364SOL    HW122991   4.590   0.090   1.785
 7364SOL    HW222992   4.681   0.218   1.739
 7365SOL     OW22993   0.246   5.930   2.514
 7365SOL    HW122994   0.168   5.869   2.521
 7365SOL    HW222995   0.271   5.962   2.605
 7366SOL     OW22996   1.900   6.893   5.007
 7366SOL    HW122997   1.889   6.814   4.946
 7366SOL    HW222998   1.998   6.908   5.024
 7367SOL     OW22999   3.992   2.297   0.425
 7367SOL    HW123000   4.042   2.210   0.421
 7367SOL    HW223001   3.950   2.307   0.515
 7368SOL     OW23002   3.702   2.928   2.817
 7368SOL    HW123003   3.690   2.958   2.912
 7368SOL    HW223004   3.615   2.931   2.769
 7369SOL     OW23005   3.684   2.705   1.014
 7369SOL    HW123006   3.684   2.788   1.070
 7369SOL    HW223007   3.687   2.625   1.073
 7370SOL     OW23008   2.617   2.060   5.470
 7370SOL    HW123009   2.669   2.144   5.455
 7370SOL    HW223010   2.667   2.000   5.532
 7371SOL     OW23011   3.177   6.884   3.872
 7371SOL    HW123012   3.208   6.977   3.896
 7371SOL    HW223013   3.077   6.880   3.876
 7372SOL     OW23014   4.301   6.591   4.721
 7372SOL    HW123015   4.354   6.580   4.805
 7372SOL    HW223016   4.363   6.599   4.643
 7373SOL     OW23017   5.416   1.996   4.878
 7373SOL    HW123018   5.474   1.978   4.799
 7373SOL    HW223019   5.431   1.926   4.947
 7374SOL     OW23020   1.495   1.992   4.685
 7374SOL    HW123021   1.444   1.914   4.722
 7374SOL    HW223022   1.586   1.994   4.726
 7375SOL     OW23023   2.422   2.739   1.788
 7375SOL    HW123024   2.367   2.723   1.869
 7375SOL    HW223025   2.408   2.833   1.756
 7376SOL     OW23026   1.136   2.932   1.326
 7376SOL    HW123027   1.184   3.019   1.335
 7376SOL    HW223028   1.062   2.928   1.394
 7377SOL     OW23029   3.903   5.227   1.031
 7377SOL    HW123030   3.869   5.321   1.030
 7377SOL    HW223031   4.003   5.227   1.040
 7378SOL     OW23032   1.448   6.741   4.324
 7378SOL    HW123033   1.469   6.810   4.254
 7378SOL    HW223034   1.407   6.661   4.281
 7379SOL     OW23035   2.549   0.194   2.073
 7379SOL    HW123036   2.453   0.214   2.092
 7379SOL    HW223037   2.555   0.132   1.994
 7380SOL     OW23038   6.367   4.177   3.660
 7380SOL    HW123039   6.350   4.256   3.602
 7380SOL    HW223040   6.466   4.164   3.670
 7381SOL     OW23041   4.033   2.782   0.836
 7381SOL    HW123042   3.948   2.793   0.784
 7381SOL    HW223043   4.016   2.800   0.933
 7382SOL     OW23044   6.695   1.935   6.200
 7382SOL    HW123045   6.776   1.978   6.160
 7382SOL    HW223046   6.615   1.957   6.144
 7383SOL     OW23047   2.338   5.659   1.867
 7383SOL    HW123048   2.280   5.591   1.823
 7383SOL    HW223049   2.381   5.716   1.797
 7384SOL     OW23050   6.655   0.044   1.312
 7384SOL    HW123051   6.671   0.025   1.216
 7384SOL    HW223052   6.623   6.987   1.358
 7385SOL     OW23053   3.139   5.070   2.716
 7385SOL    HW123054   3.100   5.025   2.796
 7385SOL    HW223055   3.130   5.169   2.725
 7386SOL     OW23056   6.652   3.087   6.373
 7386SOL    HW123057   6.669   3.186   6.378
 7386SOL    HW223058   6.645   3.050   6.465
 7387SOL     OW23059   6.529   5.356   5.814
 7387SOL    HW123060   6.554   5.450   5.836
 7387SOL    HW223061   6.549   5.337   5.718
 7388SOL     OW23062   1.278   5.338   2.960
 7388SOL    HW123063   1.198   5.396   2.945
 7388SOL    HW223064   1.357   5.395   2.983
 7389SOL     OW23065   0.041   3.503   0.370
 7389SOL    HW123066   6.981   3.548   0.346
 7389SOL    HW223067   0.059   3.429   0.305
 7390SOL     OW23068   2.532   1.947   2.114
 7390SOL    HW123069   2.483   1.920   2.197
 7390SOL    HW223070   2.559   1.865   2.064
 7391SOL     OW23071   4.123   3.565   2.819
 7391SOL    HW123072   4.142   3.548   2.915
 7391SOL    HW223073   4.094   3.660   2.807
 7392SOL     OW23074   3.342   6.508   6.754
 7392SOL    HW123075   3.246   6.485   6.739
 7392SOL    HW223076   3.384   6.531   6.666
 7393SOL     OW23077   6.652   4.520   3.302
 7393SOL    HW123078   6.618   4.443   3.248
 7393SOL    HW223079   6.670   4.490   3.396
 7394SOL     OW23080   2.206   2.954   6.596
 7394SOL    HW123081   2.114   2.915   6.598
 7394SOL    HW223082   2.239   2.957   6.501
 7395SOL     OW23083   2.036   3.280   1.639
 7395SOL    HW123084   2.084   3.230   1.710
 7395SOL    HW223085   1.993   3.361   1.678
 7396SOL     OW23086   2.400   6.181   1.734
 7396SOL    HW123087   2.316   6.221   1.699
 7396SOL    HW223088   2.383   6.143   1.825
 7397SOL     OW23089   4.932   3.312   4.508
 7397SOL    HW123090   4.924   3.407   4.480
 7397SOL    HW223091   4.928   3.306   4.608
 7398SOL     OW23092   1.110   4.841   3.141
 7398SOL    HW123093   1.088   4.933   3.109
 7398SOL    HW223094   1.091   4.834   3.239
 7399SOL     OW23095   6.629   2.775   4.325
 7399SOL    HW123096   6.651   2.835   4.402
 7399SOL    HW223097   6.531   2.757   4.323
 7400SOL     OW23098   4.707   2.339   5.197
 7400SOL    HW123099   4.653   2.288   5.131
 7400SOL    HW223100   4.664   2.429   5.212
 7401SOL     OW23101   1.833   2.900   3.384
 7401SOL    HW123102   1.835   2.997   3.358
 7401SOL    HW223103   1.739   2.866   3.378
 7402SOL     OW23104   2.443   5.058   5.650
 7402SOL    HW123105   2.430   4.972   5.600
 7402SOL    HW223106   2.398   5.052   5.739
 7403SOL     OW23107   1.867   3.148   2.937
 7403SOL    HW123108   1.949   3.149   2.879
 7403SOL    HW223109   1.873   3.072   3.002
 7404SOL     OW23110   3.478   4.167   1.591
 7404SOL    HW123111   3.433   4.249   1.624
 7404SOL    HW223112   3.468   4.094   1.659
 7405SOL     OW23113   3.005   5.170   5.090
 7405SOL    HW123114   3.006   5.166   4.990
 7405SOL    HW223115   2.946   5.097   5.126
 7406SOL     OW23116   0.786   1.545   5.166
 7406SOL    HW123117   0.798   1.637   5.129
 7406SOL    HW223118   0.865   1.489   5.141
 7407SOL     OW23119   0.864   6.278   6.769
 7407SOL    HW123120   0.868   6.204   6.702
 7407SOL    HW223121   0.811   6.248   6.849
 7408SOL     OW23122   3.132   4.366   5.447
 7408SOL    HW123123   3.097   4.371   5.541
 7408SOL    HW223124   3.210   4.304   5.444
 7409SOL     OW23125   5.405   4.226   0.034
 7409SOL    HW123126   5.450   4.139   0.054
 7409SOL    HW223127   5.343   4.215   6.982
 7410SOL     OW23128   0.516   0.539   0.422
 7410SOL    HW123129   0.548   0.624   0.465
 7410SOL    HW223130   0.486   0.559   0.329
 7411SOL     OW23131   1.670   1.441   5.869
 7411SOL    HW123132   1.767   1.468   5.876
 7411SOL    HW223133   1.663   1.357   5.815
 7412SOL     OW23134   4.673   6.600   0.309
 7412SOL    HW123135   4.721   6.514   0.325
 7412SOL    HW223136   4.721   6.675   0.354
 7413SOL     OW23137   4.872   4.694   3.367
 7413SOL    HW123138   4.840   4.667   3.276
 7413SOL    HW223139   4.968   4.722   3.361
 7414SOL     OW23140   2.303   2.223   4.304
 7414SOL    HW123141   2.322   2.167   4.384
 7414SOL    HW223142   2.251   2.304   4.331
 7415SOL     OW23143   3.170   6.561   6.447
 7415SOL    HW123144   3.123   6.583   6.533
 7415SOL    HW223145   3.269   6.571   6.460
 7416SOL     OW23146   1.214   1.004   2.524
 7416SOL    HW123147   1.191   1.049   2.610
 7416SOL    HW223148   1.147   1.028   2.455
 7417SOL     OW23149   1.415   2.555   2.884
 7417SOL    HW123150   1.398   2.650   2.860
 7417SOL    HW223151   1.513   2.536   2.878
 7418SOL     OW23152   1.601   4.957   6.616
 7418SOL    HW123153   1.604   4.861   6.645
 7418SOL    HW223154   1.630   4.964   6.521
 7419SOL     OW23155   6.200   3.427   3.676
 7419SOL    HW123156   6.112   3.434   3.628
 7419SOL    HW223157   6.243   3.340   3.652
 7420SOL     OW23158   6.659   6.043   1.803
 7420SOL    HW123159   6.710   6.044   1.889
 7420SOL    HW223160   6.691   5.967   1.746
 7421SOL     OW23161   4.461   3.776   1.308
 7421SOL    HW123162   4.432   3.831   1.230
 7421SOL    HW223163   4.381   3.754   1.365
 7422SOL     OW23164   6.265   3.453   2.133
 7422SOL    HW123165   6.350   3.493   2.169
 7422SOL    HW223166   6.237   3.377   2.191
 7423SOL     OW23167   5.612   1.999   5.491
 7423SOL    HW123168   5.612   2.001   5.591
 7423SOL    HW223169   5.639   2.089   5.456
 7424SOL     OW23170   6.334   1.182   5.179
 7424SOL    HW123171   6.280   1.097   5.180
 7424SOL    HW223172   6.431   1.160   5.183
 7425SOL     OW23173   5.227   6.994   0.350
 7425SOL    HW123174   5.302   6.933   0.376
 7425SOL    HW223175   5.149   6.979   0.411
 7426SOL     OW23176   3.209   2.327   5.845
 7426SOL    HW123177   3.144   2.327   5.769
 7426SOL    HW223178   3.177   2.266   5.917
 7427SOL     OW23179   3.779   1.548   3.562
 7427SOL    HW123180   3.717   1.613   3.605
 7427SOL    HW223181   3.784   1.464   3.617
 7428SOL     OW23182   4.048   6.461   5.957
 7428SOL    HW123183   4.006   6.552   5.952
 7428SOL    HW223184   4.041   6.416   5.868
 7429SOL     OW23185   1.285   6.435   3.500
 7429SOL    HW123186   1.381   6.408   3.490
 7429SOL    HW223187   1.275   6.531   3.474
 7430SOL     OW23188   6.858   4.235   2.017
 7430SOL    HW123189   6.878   4.221   2.114
 7430SOL    HW223190   6.769   4.280   2.008
 7431SOL     OW23191   2.252   2.816   4.368
 7431SOL    HW123192   2.180   2.762   4.325
 7431SOL    HW223193   2.336   2.762   4.373
 7432SOL     OW23194   1.969   0.848   3.924
 7432SOL    HW123195   2.064   0.867   3.949
 7432SOL    HW223196   1.928   0.788   3.993
 7433SOL     OW23197   2.792   0.013   6.662
 7433SOL    HW123198   2.759   0.065   6.741
 7433SOL    HW223199   2.717   0.002   6.596
 7434SOL     OW23200   4.876   5.908   6.149
 7434SOL    HW123201   4.893   5.825   6.202
 7434SOL    HW223202   4.887   5.988   6.207
 7435SOL     OW23203   4.697   6.300   1.986
 7435SOL    HW123204   4.600   6.301   1.961
 7435SOL    HW223205   4.712   6.229   2.056
 7436SOL     OW23206   4.580   4.492   6.276
 7436SOL    HW123207   4.570   4.401   6.235
 7436SOL    HW223208   4.541   4.561   6.216
 7437SOL     OW23209   2.827   5.437   1.499
 7437SOL    HW123210   2.759   5.418   1.428
 7437SOL    HW223211   2.867   5.351   1.530
 7438SOL     OW23212   1.874   0.808   0.583
 7438SOL    HW123213   1.880   0.876   0.657
 7438SOL    HW223214   1.780   0.776   0.575
 7439SOL     OW23215   1.675   5.148   5.433
 7439SOL    HW123216   1.710   5.232   5.391
 7439SOL    HW223217   1.724   5.069   5.396
 7440SOL     OW23218   5.217   3.037   4.037
 7440SOL    HW123219   5.238   3.124   4.081
 7440SOL    HW223220   5.121   3.014   4.055
 7441SOL     OW23221   6.084   6.599   3.054
 7441SOL    HW123222   5.990   6.622   3.078
 7441SOL    HW223223   6.111   6.650   2.972
 7442SOL     OW23224   5.954   0.807   6.146
 7442SOL    HW123225   6.009   0.888   6.129
 7442SOL    HW223226   5.890   0.824   6.221
 7443SOL     OW23227   6.998   5.492   2.032
 7443SOL    HW123228   6.959   5.582   2.011
 7443SOL    HW223229   6.928   5.435   2.075
 7444SOL     OW23230   6.630   0.598   6.081
 7444SOL    HW123231   6.554   0.538   6.102
 7444SOL    HW223232   6.612   0.690   6.117
 7445SOL     OW23233   3.892   0.001   1.518
 7445SOL    HW123234   3.852   0.070   1.578
 7445SOL    HW223235   3.845   0.001   1.430
 7446SOL     OW23236   5.315   2.642   0.767
 7446SOL    HW123237   5.368   2.584   0.830
 7446SOL    HW223238   5.330   2.611   0.673
 7447SOL     OW23239   0.006   4.575   0.225
 7447SOL    HW123240   7.018   4.585   0.127
 7447SOL    HW223241   6.968   4.634   0.275
 7448SOL     OW23242   5.583   6.273   6.057
 7448SOL    HW123243   5.679   6.290   6.038
 7448SOL    HW223244   5.527   6.348   6.020
 7449SOL     OW23245   0.553   5.290   0.182
 7449SOL    HW123246   0.460   5.278   0.217
 7449SOL    HW223247   0.552   5.286   0.083
 7450SOL     OW23248   5.484   1.784   5.799
 7450SOL    HW123249   5.515   1.879   5.791
 7450SOL    HW223250   5.556   1.727   5.838
 7451SOL     OW23251   5.672   5.592   2.488
 7451SOL    HW123252   5.575   5.614   2.498
 7451SOL    HW223253   5.726   5.653   2.545
 7452SOL     OW23254   6.359   6.234   4.757
 7452SOL    HW123255   6.336   6.191   4.670
 7452SOL    HW223256   6.284   6.220   4.822
 7453SOL     OW23257   4.991   5.528   6.206
 7453SOL    HW123258   4.926   5.515   6.281
 7453SOL    HW223259   5.050   5.606   6.227
 7454SOL     OW23260   3.401   1.644   0.288
 7454SOL    HW123261   3.460   1.718   0.257
 7454SOL    HW223262   3.428   1.617   0.381
 7455SOL     OW23263   6.021   2.996   2.544
 7455SOL    HW123264   5.966   2.969   2.465
 7455SOL    HW223265   5.996   3.089   2.571
 7456SOL     OW23266   2.652   2.340   4.900
 7456SOL    HW123267   2.660   2.415   4.835
 7456SOL    HW223268   2.675   2.373   4.992
 7457SOL     OW23269   2.386   0.084   4.218
 7457SOL    HW123270   2.461   0.117   4.276
 7457SOL    HW223271   2.299   0.114   4.257
 7458SOL     OW23272   1.227   6.884   4.994
 7458SOL    HW123273   1.277   6.849   4.915
 7458SOL    HW223274   1.292   6.902   5.068
 7459SOL     OW23275   6.500   1.229   2.512
 7459SOL    HW123276   6.565   1.154   2.495
 7459SOL    HW223277   6.414   1.211   2.463
 7460SOL     OW23278   1.748   6.754   0.130
 7460SOL    HW123279   1.821   6.691   0.105
 7460SOL    HW223280   1.781   6.848   0.120
 7461SOL     OW23281   0.146   6.308   5.398
 7461SOL    HW123282   0.139   6.283   5.302
 7461SOL    HW223283   0.230   6.269   5.437
 7462SOL     OW23284   0.805   5.775   1.085
 7462SOL    HW123285   0.834   5.687   1.049
 7462SOL    HW223286   0.807   5.773   1.185
 7463SOL     OW23287   3.561   4.339   0.766
 7463SOL    HW123288   3.551   4.412   0.699
 7463SOL    HW223289   3.479   4.282   0.766
 7464SOL     OW23290   0.358   5.753   4.657
 7464SOL    HW123291   0.445   5.787   4.621
 7464SOL    HW223292   0.294   5.830   4.667
 7465SOL     OW23293   2.576   5.182   0.329
 7465SOL    HW123294   2.649   5.131   0.284
 7465SOL    HW223295   2.546   5.258   0.270
 7466SOL     OW23296   0.294   0.547   5.770
 7466SOL    HW123297   0.272   0.462   5.721
 7466SOL    HW223298   0.376   0.587   5.729
 7467SOL     OW23299   0.309   2.727   6.364
 7467SOL    HW123300   0.250   2.659   6.408
 7467SOL    HW223301   0.295   2.723   6.265
 7468SOL     OW23302   5.890   3.123   4.814
 7468SOL    HW123303   5.799   3.133   4.854
 7468SOL    HW223304   5.911   3.027   4.801
 7469SOL     OW23305   6.735   2.273   0.186
 7469SOL    HW123306   6.686   2.222   0.115
 7469SOL    HW223307   6.748   2.367   0.156
 7470SOL     OW23308   5.868   3.766   3.268
 7470SOL    HW123309   5.832   3.799   3.180
 7470SOL    HW223310   5.967   3.778   3.270
 7471SOL     OW23311   5.396   5.631   6.144
 7471SOL    HW123312   5.324   5.623   6.213
 7471SOL    HW223313   5.358   5.616   6.053
 7472SOL     OW23314   6.724   0.610   5.536
 7472SOL    HW123315   6.817   0.631   5.505
 7472SOL    HW223316   6.696   0.678   5.604
 7473SOL     OW23317   4.415   6.986   4.022
 7473SOL    HW123318   4.456   6.895   4.020
 7473SOL    HW223319   4.340   6.990   3.956
 7474SOL     OW23320   6.089   2.166   6.885
 7474SOL    HW123321   6.081   2.211   6.796
 7474SOL    HW223322   5.999   2.140   6.918
 7475SOL     OW23323   4.611   2.109   2.307
 7475SOL    HW123324   4.588   2.136   2.400
 7475SOL    HW223325   4.528   2.078   2.259
 7476SOL     OW23326   2.218   2.323   2.666
 7476SOL    HW123327   2.248   2.406   2.714
 7476SOL    HW223328   2.296   2.282   2.619
 7477SOL     OW23329   0.299   3.402   4.891
 7477SOL    HW123330   0.214   3.449   4.917
 7477SOL    HW223331   0.354   3.463   4.835
 7478SOL     OW23332   5.672   2.915   5.123
 7478SOL    HW123333   5.613   2.835   5.109
 7478SOL    HW223334   5.685   2.929   5.221
 7479SOL     OW23335   5.208   2.906   6.779
 7479SOL    HW123336   5.253   2.981   6.828
 7479SOL    HW223337   5.275   2.837   6.752
 7480SOL     OW23338   2.704   5.503   3.059
 7480SOL    HW123339   2.706   5.552   2.972
 7480SOL    HW223340   2.708   5.569   3.135
 7481SOL     OW23341   5.976   4.497   6.452
 7481SOL    HW123342   6.071   4.514   6.480
 7481SOL    HW223343   5.976   4.435   6.373
 7482SOL     OW23344   4.127   2.221   2.548
 7482SOL    HW123345   4.084   2.202   2.636
 7482SOL    HW223346   4.127   2.138   2.492
 7483SOL     OW23347   4.906   1.752   4.378
 7483SOL    HW123348   4.872   1.843   4.403
 7483SOL    HW223349   4.940   1.754   4.284
 7484SOL     OW23350   1.687   5.923   4.665
 7484SOL    HW123351   1.744   5.865   4.608
 7484SOL    HW223352   1.658   5.872   4.746
 7485SOL     OW23353   2.480   0.238   3.991
 7485SOL    HW123354   2.412   0.190   4.047
 7485SOL    HW223355   2.559   0.262   4.048
 7486SOL     OW23356   0.545   6.087   0.290
 7486SOL    HW123357   0.504   6.042   0.369
 7486SOL    HW223358   0.476   6.141   0.243
 7487SOL     OW23359   4.597   0.699   3.586
 7487SOL    HW123360   4.659   0.776   3.571
 7487SOL    HW223361   4.650   0.615   3.598
 7488SOL     OW23362   1.340   5.961   4.179
 7488SOL    HW123363   1.405   5.886   4.168
 7488SOL    HW223364   1.343   5.995   4.273
 7489SOL     OW23365   6.197   3.855   0.046
 7489SOL    HW123366   6.214   3.791   0.121
 7489SOL    HW223367   6.117   3.825   7.021
 7490SOL     OW23368   1.565   2.180   2.793
 7490SOL    HW123369   1.578   2.083   2.816
 7490SOL    HW223370   1.542   2.188   2.696
 7491SOL     OW23371   4.595   3.091   0.874
 7491SOL    HW123372   4.604   3.104   0.775
 7491SOL    HW223373   4.554   3.172   0.915
 7492SOL     OW23374   1.662   0.847   4.037
 7492SOL    HW123375   1.646   0.768   3.977
 7492SOL    HW223376   1.576   0.892   4.057
 7493SOL     OW23377   6.720   3.825   5.429
 7493SOL    HW123378   6.807   3.872   5.413
 7493SOL    HW223379   6.733   3.727   5.416
 7494SOL     OW23380   5.903   0.819   3.261
 7494SOL    HW123381   5.848   0.738   3.239
 7494SOL    HW223382   5.891   0.842   3.357
 7495SOL     OW23383   2.216   2.988   4.803
 7495SOL    HW123384   2.294   2.946   4.850
 7495SOL    HW223385   2.135   2.929   4.813
 7496SOL     OW23386   6.322   3.185   3.582
 7496SOL    HW123387   6.347   3.090   3.602
 7496SOL    HW223388   6.245   3.186   3.518
 7497SOL     OW23389   1.555   6.632   1.118
 7497SOL    HW123390   1.489   6.651   1.046
 7497SOL    HW223391   1.644   6.610   1.078
 7498SOL     OW23392   3.024   0.767   3.665
 7498SOL    HW123393   3.053   0.809   3.751
 7498SOL    HW223394   3.002   0.839   3.599
 7499SOL     OW23395   4.121   2.116   3.731
 7499SOL    HW123396   4.022   2.105   3.725
 7499SOL    HW223397   4.144   2.166   3.815
 7500SOL     OW23398   3.723   0.015   3.662
 7500SOL    HW123399   3.744   0.034   3.566
 7500SOL    HW223400   3.710   0.102   3.710
 7501SOL     OW23401   5.636   2.811   3.729
 7501SOL    HW123402   5.645   2.822   3.630
 7501SOL    HW223403   5.591   2.892   3.767
 7502SOL     OW23404   3.739   0.443   4.584
 7502SOL    HW123405   3.739   0.511   4.510
 7502SOL    HW223406   3.744   0.490   4.672
 7503SOL     OW23407   1.688   5.630   0.787
 7503SOL    HW123408   1.775   5.651   0.833
 7503SOL    HW223409   1.690   5.667   0.694
 7504SOL     OW23410   0.507   5.955   2.424
 7504SOL    HW123411   0.540   5.867   2.389
 7504SOL    HW223412   0.410   5.947   2.446
 7505SOL     OW23413   0.416   1.687   5.114
 7505SOL    HW123414   0.478   1.763   5.132
 7505SOL    HW223415   0.466   1.601   5.116
 7506SOL     OW23416   3.166   2.014   3.193
 7506SOL    HW123417   3.175   1.917   3.168
 7506SOL    HW223418   3.203   2.071   3.120
 7507SOL     OW23419   6.341   3.684   4.404
 7507SOL    HW123420   6.318   3.676   4.307
 7507SOL    HW223421   6.436   3.656   4.417
 7508SOL     OW23422   1.845   5.728   0.117
 7508SOL    HW123423   1.808   5.676   0.194
 7508SOL    HW223424   1.790   5.711   0.036
 7509SOL     OW23425   5.176   4.374   0.127
 7509SOL    HW123426   5.257   4.335   0.084
 7509SOL    HW223427   5.180   4.359   0.226
 7510SOL     OW23428   4.058   3.292   4.143
 7510SOL    HW123429   3.989   3.230   4.107
 7510SOL    HW223430   4.127   3.309   4.073
 7511SOL     OW23431   3.268   5.452   2.703
 7511SOL    HW123432   3.345   5.426   2.762
 7511SOL    HW223433   3.280   5.412   2.612
 7512SOL     OW23434   2.876   0.647   6.529
 7512SOL    HW123435   2.820   0.569   6.503
 7512SOL    HW223436   2.855   0.673   6.623
 7513SOL     OW23437   2.005   2.571   3.561
 7513SOL    HW123438   1.980   2.629   3.484
 7513SOL    HW223439   1.941   2.494   3.566
 7514SOL     OW23440   1.949   4.336   3.746
 7514SOL    HW123441   1.891   4.296   3.818
 7514SOL    HW223442   2.045   4.318   3.767
 7515SOL     OW23443   6.579   4.253   5.316
 7515SOL    HW123444   6.664   4.200   5.312
 7515SOL    HW223445   6.512   4.203   5.371
 7516SOL     OW23446   1.335   5.313   6.065
 7516SOL    HW123447   1.267   5.243   6.086
 7516SOL    HW223448   1.296   5.404   6.083
 7517SOL     OW23449   1.267   2.532   6.982
 7517SOL    HW123450   1.295   2.450   0.005
 7517SOL    HW223451   1.219   2.506   6.898
 7518SOL     OW23452   4.900   3.025   4.056
 7518SOL    HW123453   4.883   3.081   3.975
 7518SOL    HW223454   4.826   2.960   4.068
 7519SOL     OW23455   4.974   0.132   4.637
 7519SOL    HW123456   5.017   0.140   4.727
 7519SOL    HW223457   4.900   0.065   4.641
 7520SOL     OW23458   1.601   1.337   2.130
 7520SOL    HW123459   1.634   1.272   2.061
 7520SOL    HW223460   1.679   1.385   2.171
 7521SOL     OW23461   5.406   1.664   4.794
 7521SOL    HW123462   5.344   1.668   4.872
 7521SOL    HW223463   5.497   1.693   4.822
 7522SOL     OW23464   1.165   6.416   4.035
 7522SOL    HW123465   1.077   6.370   4.035
 7522SOL    HW223466   1.214   6.395   3.950
 7523SOL     OW23467   5.429   0.674   6.086
 7523SOL    HW123468   5.334   0.667   6.116
 7523SOL    HW223469   5.443   0.614   6.007
 7524SOL     OW23470   6.909   2.695   4.358
 7524SOL    HW123471   6.822   2.733   4.328
 7524SOL    HW223472   6.984   2.746   4.317
 7525SOL     OW23473   4.575   6.752   0.044
 7525SOL    HW123474   4.520   6.679   0.003
 7525SOL    HW223475   4.595   6.729   0.139
 7526SOL     OW23476   2.182   3.169   1.826
 7526SOL    HW123477   2.229   3.253   1.852
 7526SOL    HW223478   2.160   3.116   1.908
 7527SOL     OW23479   4.108   5.986   4.045
 7527SOL    HW123480   4.131   5.910   4.106
 7527SOL    HW223481   4.033   5.959   3.985
 7528SOL     OW23482   5.495   2.142   0.290
 7528SOL    HW123483   5.535   2.185   0.209
 7528SOL    HW223484   5.425   2.076   0.261
 7529SOL     OW23485   6.185   1.744   3.443
 7529SOL    HW123486   6.170   1.759   3.345
 7529SOL    HW223487   6.157   1.651   3.466
 7530SOL     OW23488   6.868   1.541   2.396
 7530SOL    HW123489   6.959   1.581   2.387
 7530SOL    HW223490   6.802   1.614   2.413
 7531SOL     OW23491   4.776   2.413   3.312
 7531SOL    HW123492   4.771   2.351   3.390
 7531SOL    HW223493   4.845   2.380   3.248
 7532SOL     OW23494   4.847   6.212   6.572
 7532SOL    HW123495   4.888   6.123   6.596
 7532SOL    HW223496   4.920   6.281   6.565
 7533SOL     OW23497   4.515   2.843   1.719
 7533SOL    HW123498   4.496   2.763   1.776
 7533SOL    HW223499   4.558   2.914   1.775
 7534SOL     OW23500   4.946   6.298   4.720
 7534SOL    HW123501   5.037   6.339   4.716
 7534SOL    HW223502   4.907   6.313   4.811
 7535SOL     OW23503   1.270   6.543   4.638
 7535SOL    HW123504   1.349   6.522   4.581
 7535SOL    HW223505   1.193   6.484   4.611
 7536SOL     OW23506   5.304   5.649   4.292
 7536SOL    HW123507   5.301   5.749   4.296
 7536SOL    HW223508   5.218   5.614   4.255
 7537SOL     OW23509   2.397   5.393   2.316
 7537SOL    HW123510   2.423   5.470   2.258
 7537SOL    HW223511   2.472   5.373   2.380
 7538SOL     OW23512   0.918   3.305   1.814
 7538SOL    HW123513   0.936   3.258   1.900
 7538SOL    HW223514   0.819   3.307   1.797
 7539SOL     OW23515   1.447   5.544   3.532
 7539SOL    HW123516   1.416   5.469   3.591
 7539SOL    HW223517   1.438   5.631   3.581
 7540SOL     OW23518   4.783   5.975   4.467
 7540SOL    HW123519   4.874   5.961   4.430
 7540SOL    HW223520   4.747   6.063   4.435
 7541SOL     OW23521   0.746   3.963   6.531
 7541SOL    HW123522   0.717   3.921   6.445
 7541SOL    HW223523   0.672   3.956   6.598
 7542SOL     OW23524   6.193   6.087   5.482
 7542SOL    HW123525   6.280   6.111   5.524
 7542SOL    HW223526   6.187   5.988   5.472
 7543SOL     OW23527   2.728   0.414   5.243
 7543SOL    HW123528   2.714   0.480   5.168
 7543SOL    HW223529   2.728   0.463   5.330
 7544SOL     OW23530   0.049   2.089   4.379
 7544SOL    HW123531   0.070   2.072   4.283
 7544SOL    HW223532   6.975   2.087   4.392
 7545SOL     OW23533   0.156   5.640   6.786
 7545SOL    HW123534   0.211   5.719   6.812
 7545SOL    HW223535   0.212   5.558   6.790
 7546SOL     OW23536   3.948   2.769   1.655
 7546SOL    HW123537   3.972   2.833   1.583
 7546SOL    HW223538   3.849   2.770   1.669
 7547SOL     OW23539   4.449   0.496   1.769
 7547SOL    HW123540   4.521   0.432   1.744
 7547SOL    HW223541   4.443   0.502   1.869
 7548SOL     OW23542   4.583   2.243   6.876
 7548SOL    HW123543   4.585   2.328   6.929
 7548SOL    HW223544   4.490   2.207   6.873
 7549SOL     OW23545   3.947   2.753   5.851
 7549SOL    HW123546   3.855   2.723   5.877
 7549SOL    HW223547   3.954   2.852   5.863
 7550SOL     OW23548   1.920   3.952   4.114
 7550SOL    HW123549   2.014   3.926   4.136
 7550SOL    HW223550   1.868   3.871   4.088
 7551SOL     OW23551   4.983   2.037   5.478
 7551SOL    HW123552   4.983   2.028   5.379
 7551SOL    HW223553   5.004   1.949   5.521
 7552SOL     OW23554   1.928   5.835   4.009
 7552SOL    HW123555   2.008   5.880   3.970
 7552SOL    HW223556   1.869   5.904   4.053
 7553SOL     OW23557   5.697   5.976   5.712
 7553SOL    HW123558   5.613   5.946   5.757
 7553SOL    HW223559   5.759   5.899   5.702
 7554SOL     OW23560   5.765   1.354   0.099
 7554SOL    HW123561   5.770   1.328   0.195
 7554SOL    HW223562   5.677   1.325   0.061
 7555SOL     OW23563   2.877   6.624   6.397
 7555SOL    HW123564   2.827   6.625   6.310
 7555SOL    HW223565   2.951   6.556   6.392
 7556SOL     OW23566   1.514   1.342   0.215
 7556SOL    HW123567   1.546   1.436   0.225
 7556SOL    HW223568   1.565   1.283   0.277
 7557SOL     OW23569   5.076   0.310   0.223
 7557SOL    HW123570   5.153   0.260   0.263
 7557SOL    HW223571   5.039   0.374   0.290
 7558SOL     OW23572   1.270   2.561   3.931
 7558SOL    HW123573   1.303   2.529   3.842
 7558SOL    HW223574   1.300   2.656   3.945
 7559SOL     OW23575   3.631   2.263   5.369
 7559SOL    HW123576   3.556   2.235   5.309
 7559SOL    HW223577   3.605   2.247   5.465
 7560SOL     OW23578   6.358   0.133   6.582
 7560SOL    HW123579   6.270   0.099   6.615
 7560SOL    HW223580   6.404   0.182   6.655
 7561SOL     OW23581   5.319   2.289   5.741
 7561SOL    HW123582   5.265   2.302   5.658
 7561SOL    HW223583   5.274   2.333   5.818
 7562SOL     OW23584   0.959   5.037   4.833
 7562SOL    HW123585   1.055   5.065   4.842
 7562SOL    HW223586   0.937   4.971   4.904
 7563SOL     OW23587   3.356   6.463   2.955
 7563SOL    HW123588   3.455   6.470   2.955
 7563SOL    HW223589   3.321   6.485   2.864
 7564SOL     OW23590   4.411   0.355   4.990
 7564SOL    HW123591   4.475   0.369   4.914
 7564SOL    HW223592   4.317   0.358   4.956
 7565SOL     OW23593   5.728   3.754   5.852
 7565SOL    HW123594   5.706   3.829   5.914
 7565SOL    HW223595   5.653   3.687   5.853
 7566SOL     OW23596   5.409   4.858   2.294
 7566SOL    HW123597   5.469   4.823   2.366
 7566SOL    HW223598   5.314   4.856   2.327
 7567SOL     OW23599   0.681   1.302   4.444
 7567SOL    HW123600   0.605   1.249   4.480
 7567SOL    HW223601   0.695   1.279   4.347
 7568SOL     OW23602   5.924   5.637   2.358
 7568SOL    HW123603   6.002   5.622   2.419
 7568SOL    HW223604   5.842   5.596   2.398
 7569SOL     OW23605   3.893   5.038   6.782
 7569SOL    HW123606   3.948   5.082   6.711
 7569SOL    HW223607   3.873   4.944   6.755
 7570SOL     OW23608   6.930   2.988   3.296
 7570SOL    HW123609   7.000   2.928   3.257
 7570SOL    HW223610   6.964   3.026   3.382
 7571SOL     OW23611   5.428   3.322   2.807
 7571SOL    HW123612   5.513   3.302   2.856
 7571SOL    HW223613   5.424   3.267   2.724
 7572SOL     OW23614   4.758   6.218   2.795
 7572SOL    HW123615   4.799   6.234   2.885
 7572SOL    HW223616   4.767   6.300   2.739
 7573SOL     OW23617   6.132   0.385   5.753
 7573SOL    HW123618   6.096   0.299   5.717
 7573SOL    HW223619   6.133   0.454   5.681
 7574SOL     OW23620   6.267   1.068   4.004
 7574SOL    HW123621   6.288   0.970   4.009
 7574SOL    HW223622   6.190   1.083   3.942
 7575SOL     OW23623   6.182   6.329   0.878
 7575SOL    HW123624   6.089   6.365   0.881
 7575SOL    HW223625   6.226   6.342   0.967
 7576SOL     OW23626   5.319   2.820   1.198
 7576SOL    HW123627   5.295   2.724   1.182
 7576SOL    HW223628   5.256   2.879   1.147
 7577SOL     OW23629   6.957   0.349   0.171
 7577SOL    HW123630   6.929   0.275   0.111
 7577SOL    HW223631   6.883   0.417   0.178
 7578SOL     OW23632   0.730   5.314   2.763
 7578SOL    HW123633   0.657   5.348   2.822
 7578SOL    HW223634   0.811   5.295   2.818
 7579SOL     OW23635   6.472   2.180   1.602
 7579SOL    HW123636   6.451   2.088   1.570
 7579SOL    HW223637   6.442   2.247   1.534
 7580SOL     OW23638   1.818   4.287   3.170
 7580SOL    HW123639   1.803   4.197   3.211
 7580SOL    HW223640   1.759   4.296   3.089
 7581SOL     OW23641   0.937   1.752   1.269
 7581SOL    HW123642   1.025   1.800   1.270
 7581SOL    HW223643   0.885   1.780   1.188
 7582SOL     OW23644   4.253   1.740   4.025
 7582SOL    HW123645   4.179   1.741   3.957
 7582SOL    HW223646   4.214   1.736   4.117
 7583SOL     OW23647   5.371   3.544   3.685
 7583SOL    HW123648   5.308   3.609   3.728
 7583SOL    HW223649   5.359   3.546   3.586
 7584SOL     OW23650   1.224   0.377   2.876
 7584SOL    HW123651   1.131   0.392   2.908
 7584SOL    HW223652   1.234   0.282   2.845
 7585SOL     OW23653   1.128   1.932   6.562
 7585SOL    HW123654   1.192   1.882   6.504
 7585SOL    HW223655   1.146   1.910   6.658
 7586SOL     OW23656   1.284   0.727   2.294
 7586SOL    HW123657   1.206   0.787   2.278
 7586SOL    HW223658   1.362   0.758   2.241
 7587SOL     OW23659   3.425   0.830   0.765
 7587SOL    HW123660   3.519   0.808   0.790
 7587SOL    HW223661   3.389   0.901   0.827
 7588SOL     OW23662   0.908   3.061   4.655
 7588SOL    HW123663   0.976   3.100   4.717
 7588SOL    HW223664   0.947   2.983   4.608
 7589SOL     OW23665   0.678   0.839   2.958
 7589SOL    HW123666   0.655   0.793   2.873
 7589SOL    HW223667   0.608   0.907   2.980
 7590SOL     OW23668   0.203   1.436   0.103
 7590SOL    HW123669   0.186   1.388   0.189
 7590SOL    HW223670   0.299   1.460   0.097
 7591SOL     OW23671   4.646   2.710   6.649
 7591SOL    HW123672   4.610   2.624   6.685
 7591SOL    HW223673   4.738   2.725   6.685
 7592SOL     OW23674   5.944   4.804   4.866
 7592SOL    HW123675   5.883   4.814   4.945
 7592SOL    HW223676   6.038   4.824   4.895
 7593SOL     OW23677   6.666   1.932   5.831
 7593SOL    HW123678   6.628   1.883   5.752
 7593SOL    HW223679   6.613   1.910   5.912
 7594SOL     OW23680   0.274   4.286   1.003
 7594SOL    HW123681   0.278   4.224   0.925
 7594SOL    HW223682   0.274   4.381   0.971
 7595SOL     OW23683   6.668   2.871   5.900
 7595SOL    HW123684   6.710   2.957   5.873
 7595SOL    HW223685   6.663   2.866   6.000
 7596SOL     OW23686   3.141   0.121   5.073
 7596SOL    HW123687   3.164   0.049   5.007
 7596SOL    HW223688   3.042   0.129   5.080
 7597SOL     OW23689   2.429   6.269   2.824
 7597SOL    HW123690   2.495   6.251   2.751
 7597SOL    HW223691   2.447   6.359   2.864
 7598SOL     OW23692   5.992   0.623   2.507
 7598SOL    HW123693   6.077   0.580   2.475
 7598SOL    HW223694   6.014   0.705   2.560
 7599SOL     OW23695   4.128   3.308   0.673
 7599SOL    HW123696   4.049   3.307   0.734
 7599SOL    HW223697   4.174   3.219   0.676
 7600SOL     OW23698   1.421   1.149   3.458
 7600SOL    HW123699   1.492   1.177   3.394
 7600SOL    HW223700   1.351   1.097   3.409
 7601SOL     OW23701   3.816   5.434   1.844
 7601SOL    HW123702   3.835   5.530   1.823
 7601SOL    HW223703   3.820   5.420   1.943
 7602SOL     OW23704   0.545   2.409   0.279
 7602SOL    HW123705   0.525   2.311   0.286
 7602SOL    HW223706   0.578   2.430   0.187
 7603SOL     OW23707   2.503   0.332   6.166
 7603SOL    HW123708   2.540   0.243   6.138
 7603SOL    HW223709   2.552   0.405   6.119
 7604SOL     OW23710   1.531   2.190   5.037
 7604SOL    HW123711   1.537   2.233   5.128
 7604SOL    HW223712   1.598   2.116   5.031
 7605SOL     OW23713   1.742   0.520   6.747
 7605SOL    HW123714   1.768   0.512   6.651
 7605SOL    HW223715   1.684   0.600   6.760
 7606SOL     OW23716   6.069   1.762   4.289
 7606SOL    HW123717   6.106   1.792   4.201
 7606SOL    HW223718   6.106   1.821   4.362
 7607SOL     OW23719   3.024   6.678   0.261
 7607SOL    HW123720   3.064   6.587   0.276
 7607SOL    HW223721   2.924   6.671   0.261
 7608SOL     OW23722   5.491   2.224   6.347
 7608SOL    HW123723   5.459   2.288   6.417
 7608SOL    HW223724   5.590   2.232   6.337
 7609SOL     OW23725   0.130   2.910   3.645
 7609SOL    HW123726   0.152   2.836   3.582
 7609SOL    HW223727   0.159   2.885   3.738
 7610SOL     OW23728   3.538   5.738   6.666
 7610SOL    HW123729   3.603   5.680   6.618
 7610SOL    HW223730   3.511   5.694   6.752
 7611SOL     OW23731   4.509   3.322   0.992
 7611SOL    HW123732   4.596   3.326   1.041
 7611SOL    HW223733   4.450   3.398   1.021
 7612SOL     OW23734   3.580   2.088   3.163
 7612SOL    HW123735   3.600   2.026   3.239
 7612SOL    HW223736   3.659   2.145   3.144
 7613SOL     OW23737   1.501   2.035   2.203
 7613SOL    HW123738   1.544   2.095   2.136
 7613SOL    HW223739   1.432   2.086   2.254
 7614SOL     OW23740   4.700   3.312   0.510
 7614SOL    HW123741   4.632   3.335   0.580
 7614SOL    HW223742   4.750   3.230   0.537
 7615SOL     OW23743   5.513   3.888   5.469
 7615SOL    HW123744   5.454   3.967   5.448
 7615SOL    HW223745   5.590   3.887   5.405
 7616SOL     OW23746   5.838   6.904   3.216
 7616SOL    HW123747   5.749   6.884   3.258
 7616SOL    HW223748   5.867   6.996   3.241
 7617SOL     OW23749   4.827   4.730   3.070
 7617SOL    HW123750   4.746   4.774   3.029
 7617SOL    HW223751   4.814   4.631   3.071
 7618SOL     OW23752   2.492   2.077   0.144
 7618SOL    HW123753   2.591   2.074   0.126
 7618SOL    HW223754   2.477   2.096   0.241
 7619SOL     OW23755   0.497   2.500   4.636
 7619SOL    HW123756   0.550   2.430   4.587
 7619SOL    HW223757   0.420   2.456   4.682
 7620SOL     OW23758   3.700   4.085   0.693
 7620SOL    HW123759   3.673   4.177   0.721
 7620SOL    HW223760   3.756   4.091   0.611
 7621SOL     OW23761   0.089   5.698   0.707
 7621SOL    HW123762   0.186   5.695   0.733
 7621SOL    HW223763   0.032   5.692   0.789
 7622SOL     OW23764   4.228   4.404   0.486
 7622SOL    HW123765   4.321   4.413   0.450
 7622SOL    HW223766   4.220   4.318   0.536
 7623SOL     OW23767   4.035   4.524   1.328
 7623SOL    HW123768   4.035   4.484   1.419
 7623SOL    HW223769   4.098   4.602   1.326
 7624SOL     OW23770   0.233   2.192   2.265
 7624SOL    HW123771   0.194   2.150   2.347
 7624SOL    HW223772   0.331   2.202   2.277
 7625SOL     OW23773   5.397   1.781   0.453
 7625SOL    HW123774   5.419   1.831   0.537
 7625SOL    HW223775   5.313   1.729   0.466
 7626SOL     OW23776   6.164   0.838   5.723
 7626SOL    HW123777   6.121   0.750   5.703
 7626SOL    HW223778   6.257   0.839   5.687
 7627SOL     OW23779   3.528   1.857   0.181
 7627SOL    HW123780   3.583   1.903   0.111
 7627SOL    HW223781   3.491   1.926   0.244
 7628SOL     OW23782   3.417   2.570   0.723
 7628SOL    HW123783   3.368   2.483   0.718
 7628SOL    HW223784   3.485   2.566   0.797
 7629SOL     OW23785   5.828   3.234   3.681
 7629SOL    HW123786   5.821   3.333   3.668
 7629SOL    HW223787   5.912   3.213   3.731
 7630SOL     OW23788   1.334   0.245   5.148
 7630SOL    HW123789   1.248   0.226   5.100
 7630SOL    HW223790   1.321   0.324   5.208
 7631SOL     OW23791   1.850   6.586   4.991
 7631SOL    HW123792   1.883   6.505   4.943
 7631SOL    HW223793   1.855   6.571   5.090
 7632SOL     OW23794   4.630   5.328   1.444
 7632SOL    HW123795   4.627   5.378   1.357
 7632SOL    HW223796   4.540   5.286   1.461
 7633SOL     OW23797   5.635   0.049   1.294
 7633SOL    HW123798   5.649   6.984   1.333
 7633SOL    HW223799   5.637   0.044   1.195
 7634SOL     OW23800   1.603   1.720   0.666
 7634SOL    HW123801   1.631   1.791   0.732
 7634SOL    HW223802   1.574   1.764   0.581
 7635SOL     OW23803   2.801   5.100   4.350
 7635SOL    HW123804   2.724   5.041   4.325
 7635SOL    HW223805   2.874   5.043   4.389
 7636SOL     OW23806   0.645   4.477   4.274
 7636SOL    HW123807   0.736   4.479   4.233
 7636SOL    HW223808   0.581   4.529   4.217
 7637SOL     OW23809   0.635   6.243   4.073
 7637SOL    HW123810   0.716   6.203   4.029
 7637SOL    HW223811   0.552   6.210   4.028
 7638SOL     OW23812   0.878   5.435   2.273
 7638SOL    HW123813   0.838   5.402   2.358
 7638SOL    HW223814   0.942   5.367   2.237
 7639SOL     OW23815   0.313   1.175   0.075
 7639SOL    HW123816   0.325   1.271   0.100
 7639SOL    HW223817   0.224   1.144   0.109
 7640SOL     OW23818   3.428   1.263   7.020
 7640SOL    HW123819   3.453   1.345   6.970
 7640SOL    HW223820   3.362   1.286   0.065
 7641SOL     OW23821   6.859   3.902   2.700
 7641SOL    HW123822   6.856   3.905   2.800
 7641SOL    HW223823   6.938   3.849   2.670
 7642SOL     OW23824   5.711   1.550   3.064
 7642SOL    HW123825   5.725   1.515   3.157
 7642SOL    HW223826   5.727   1.649   3.064
 7643SOL     OW23827   5.366   1.956   2.812
 7643SOL    HW123828   5.450   1.980   2.764
 7643SOL    HW223829   5.317   2.039   2.838
 7644SOL     OW23830   4.884   3.302   2.088
 7644SOL    HW123831   4.823   3.355   2.147
 7644SOL    HW223832   4.849   3.209   2.079
 7645SOL     OW23833   3.406   4.055   6.035
 7645SOL    HW123834   3.325   4.010   5.997
 7645SOL    HW223835   3.422   4.141   5.986
 7646SOL     OW23836   1.329   2.800   2.845
 7646SOL    HW123837   1.298   2.873   2.905
 7646SOL    HW223838   1.319   2.827   2.749
 7647SOL     OW23839   0.194   2.923   4.443
 7647SOL    HW123840   0.121   2.980   4.482
 7647SOL    HW223841   0.154   2.855   4.382
 7648SOL     OW23842   2.148   2.229   3.102
 7648SOL    HW123843   2.058   2.212   3.061
 7648SOL    HW223844   2.146   2.315   3.152
 7649SOL     OW23845   0.118   1.114   4.778
 7649SOL    HW123846   0.121   1.078   4.871
 7649SOL    HW223847   0.092   1.211   4.780
 7650SOL     OW23848   4.358   1.195   1.425
 7650SOL    HW123849   4.341   1.099   1.449
 7650SOL    HW223850   4.347   1.252   1.507
 7651SOL     OW23851   2.452   5.113   4.530
 7651SOL    HW123852   2.391   5.173   4.480
 7651SOL    HW223853   2.514   5.066   4.466
 7652SOL     OW23854   5.777   2.175   4.555
 7652SOL    HW123855   5.735   2.242   4.616
 7652SOL    HW223856   5.772   2.084   4.596
 7653SOL     OW23857   0.955   1.587   6.784
 7653SOL    HW123858   0.902   1.671   6.794
 7653SOL    HW223859   0.905   1.522   6.727
 7654SOL     OW23860   5.917   3.493   5.172
 7654SOL    HW123861   5.972   3.552   5.231
 7654SOL    HW223862   5.917   3.400   5.209
 7655SOL     OW23863   3.176   0.549   3.585
 7655SOL    HW123864   3.110   0.618   3.615
 7655SOL    HW223865   3.184   0.551   3.486
 7656SOL     OW23866   6.422   4.036   6.230
 7656SOL    HW123867   6.349   3.970   6.247
 7656SOL    HW223868   6.428   4.057   6.133
 7657SOL     OW23869   1.395   3.945   4.644
 7657SOL    HW123870   1.303   3.906   4.634
 7657SOL    HW223871   1.436   3.912   4.728
 7658SOL     OW23872   2.707   0.934   0.289
 7658SOL    HW123873   2.607   0.941   0.296
 7658SOL    HW223874   2.745   0.923   0.381
 7659SOL     OW23875   4.674   4.142   5.594
 7659SOL    HW123876   4.597   4.203   5.611
 7659SOL    HW223877   4.740   4.150   5.669
 7660SOL     OW23878   6.560   5.190   4.860
 7660SOL    HW123879   6.562   5.112   4.923
 7660SOL    HW223880   6.511   5.163   4.777
 7661SOL     OW23881   4.682   2.071   6.018
 7661SOL    HW123882   4.733   2.053   5.934
 7661SOL    HW223883   4.631   1.989   6.044
 7662SOL     OW23884   1.177   2.101   2.571
 7662SOL    HW123885   1.194   2.190   2.614
 7662SOL    HW223886   1.081   2.094   2.545
 7663SOL     OW23887   5.599   5.783   5.437
 7663SOL    HW123888   5.560   5.866   5.396
 7663SOL    HW223889   5.568   5.774   5.531
 7664SOL     OW23890   4.363   0.895   3.020
 7664SOL    HW123891   4.395   0.801   3.004
 7664SOL    HW223892   4.271   0.905   2.980
 7665SOL     OW23893   5.073   2.543   3.499
 7665SOL    HW123894   5.044   2.472   3.564
 7665SOL    HW223895   5.024   2.530   3.413
 7666SOL     OW23896   5.967   5.542   3.821
 7666SOL    HW123897   5.872   5.557   3.795
 7666SOL    HW223898   6.025   5.611   3.777
 7667SOL     OW23899   4.735   6.680   2.629
 7667SOL    HW123900   4.759   6.767   2.671
 7667SOL    HW223901   4.680   6.695   2.547
 7668SOL     OW23902   2.497   4.919   1.117
 7668SOL    HW123903   2.493   5.016   1.141
 7668SOL    HW223904   2.515   4.865   1.199
 7669SOL     OW23905   3.671   6.942   6.263
 7669SOL    HW123906   3.736   6.885   6.314
 7669SOL    HW223907   3.711   6.971   6.177
 7670SOL     OW23908   0.699   6.747   0.456
 7670SOL    HW123909   0.791   6.747   0.416
 7670SOL    HW223910   0.701   6.702   0.545
 7671SOL     OW23911   5.285   6.878   2.025
 7671SOL    HW123912   5.357   6.870   1.956
 7671SOL    HW223913   5.243   6.788   2.039
 7672SOL     OW23914   6.134   4.654   3.093
 7672SOL    HW123915   6.087   4.734   3.056
 7672SOL    HW223916   6.196   4.683   3.166
 7673SOL     OW23917   1.190   5.645   3.084
 7673SOL    HW123918   1.200   5.579   3.158
 7673SOL    HW223919   1.280   5.665   3.045
 7674SOL     OW23920   4.160   0.928   4.716
 7674SOL    HW123921   4.164   0.935   4.815
 7674SOL    HW223922   4.250   0.949   4.677
 7675SOL     OW23923   3.477   6.984   3.773
 7675SOL    HW123924   3.413   6.982   3.697
 7675SOL    HW223925   3.569   7.001   3.739
 7676SOL     OW23926   3.161   2.959   6.094
 7676SOL    HW123927   3.079   2.903   6.109
 7676SOL    HW223928   3.151   3.045   6.145
 7677SOL     OW23929   6.602   4.763   1.186
 7677SOL    HW123930   6.690   4.764   1.233
 7677SOL    HW223931   6.530   4.794   1.248
 7678SOL     OW23932   1.309   2.251   5.304
 7678SOL    HW123933   1.279   2.233   5.398
 7678SOL    HW223934   1.282   2.175   5.245
 7679SOL     OW23935   2.004   4.931   5.340
 7679SOL    HW123936   2.094   4.946   5.300
 7679SOL    HW223937   2.011   4.931   5.440
 7680SOL     OW23938   1.281   0.490   5.242
 7680SOL    HW123939   1.315   0.529   5.327
 7680SOL    HW223940   1.193   0.530   5.219
 7681SOL     OW23941   3.064   2.523   6.369
 7681SOL    HW123942   3.153   2.557   6.339
 7681SOL    HW223943   3.015   2.596   6.418
 7682SOL     OW23944   2.998   1.662   2.696
 7682SOL    HW123945   2.937   1.718   2.753
 7682SOL    HW223946   3.062   1.721   2.647
 7683SOL     OW23947   0.120   0.988   4.530
 7683SOL    HW123948   0.139   1.010   4.626
 7683SOL    HW223949   0.040   0.929   4.524
 7684SOL     OW23950   3.980   2.060   1.871
 7684SOL    HW123951   3.889   2.057   1.829
 7684SOL    HW223952   3.971   2.071   1.970
 7685SOL     OW23953   4.012   1.049   7.003
 7685SOL    HW123954   3.995   1.132   6.950
 7685SOL    HW223955   3.992   1.066   0.073
 7686SOL     OW23956   4.397   0.194   4.561
 7686SOL    HW123957   4.379   0.099   4.587
 7686SOL    HW223958   4.478   0.228   4.609
 7687SOL     OW23959   5.042   5.496   4.852
 7687SOL    HW123960   5.137   5.478   4.879
 7687SOL    HW223961   5.040   5.544   4.765
 7688SOL     OW23962   0.334   5.197   6.330
 7688SOL    HW123963   0.310   5.100   6.323
 7688SOL    HW223964   0.257   5.247   6.368
 7689SOL     OW23965   4.864   0.412   1.868
 7689SOL    HW123966   4.895   0.506   1.859
 7689SOL    HW223967   4.939   0.349   1.848
 7690SOL     OW23968   5.503   4.599   0.574
 7690SOL    HW123969   5.546   4.689   0.570
 7690SOL    HW223970   5.494   4.563   0.481
 7691SOL     OW23971   4.485   4.891   2.778
 7691SOL    HW123972   4.417   4.847   2.720
 7691SOL    HW223973   4.577   4.868   2.744
 7692SOL     OW23974   0.894   6.411   1.487
 7692SOL    HW123975   0.951   6.330   1.488
 7692SOL    HW223976   0.946   6.489   1.522
 7693SOL     OW23977   3.070   0.902   0.718
 7693SOL    HW123978   3.124   0.831   0.671
 7693SOL    HW223979   3.121   0.935   0.797
 7694SOL     OW23980   5.914   2.856   4.750
 7694SOL    HW123981   5.846   2.797   4.794
 7694SOL    HW223982   6.005   2.819   4.763
 7695SOL     OW23983   6.556   6.970   2.998
 7695SOL    HW123984   6.458   6.962   2.977
 7695SOL    HW223985   6.585   6.890   3.050
 7696SOL     OW23986   0.528   2.185   6.451
 7696SOL    HW123987   0.580   2.270   6.460
 7696SOL    HW223988   0.430   2.206   6.452
 7697SOL     OW23989   3.600   6.965   2.962
 7697SOL    HW123990   3.578   6.876   3.001
 7697SOL    HW223991   3.590   0.010   3.032
 7698SOL     OW23992   6.074   2.610   6.967
 7698SOL    HW123993   6.144   2.672   6.933
 7698SOL    HW223994   6.011   2.587   6.892
 7699SOL     OW23995   2.711   5.438   0.243
 7699SOL    HW123996   2.764   5.401   0.167
 7699SOL    HW223997   2.769   5.447   0.324
 7700SOL     OW23998   4.840   5.565   2.861
 7700SOL    HW123999   4.805   5.580   2.953
 7700SOL    HW224000   4.772   5.593   2.794
 7701SOL     OW24001   0.227   2.443   6.187
 7701SOL    HW124002   0.274   2.505   6.125
 7701SOL    HW224003   0.128   2.457   6.180
 7702SOL     OW24004   4.514   0.137   6.026
 7702SOL    HW124005   4.431   0.103   5.981
 7702SOL    HW224006   4.537   0.227   5.990
 7703SOL     OW24007   6.554   0.230   4.976
 7703SOL    HW124008   6.597   0.143   4.950
 7703SOL    HW224009   6.521   0.276   4.894
 7704SOL     OW24010   6.948   1.434   4.203
 7704SOL    HW124011   6.890   1.516   4.205
 7704SOL    HW224012   6.935   1.382   4.287
 7705SOL     OW24013   2.509   4.858   0.467
 7705SOL    HW124014   2.548   4.772   0.501
 7705SOL    HW224015   2.489   4.849   0.369
 7706SOL     OW24016   3.673   3.003   3.079
 7706SOL    HW124017   3.602   2.950   3.125
 7706SOL    HW224018   3.740   3.034   3.147
 7707SOL     OW24019   6.612   5.853   0.008
 7707SOL    HW124020   6.548   5.869   6.960
 7707SOL    HW224021   6.639   5.757   0.008
 7708SOL     OW24022   2.010   6.948   4.353
 7708SOL    HW124023   2.103   6.937   4.386
 7708SOL    HW224024   1.960   7.009   4.415
 7709SOL     OW24025   6.495   4.939   0.786
 7709SOL    HW124026   6.555   4.957   0.864
 7709SOL    HW224027   6.531   4.986   0.705
 7710SOL     OW24028   1.627   2.855   0.604
 7710SOL    HW124029   1.570   2.801   0.666
 7710SOL    HW224030   1.707   2.889   0.653
 7711SOL     OW24031   6.548   4.778   5.613
 7711SOL    HW124032   6.504   4.699   5.655
 7711SOL    HW224033   6.541   4.857   5.675
 7712SOL     OW24034   6.996   4.480   6.360
 7712SOL    HW124035   0.038   4.447   6.294
 7712SOL    HW224036   6.924   4.529   6.312
 7713SOL     OW24037   1.575   4.474   0.945
 7713SOL    HW124038   1.541   4.567   0.960
 7713SOL    HW224039   1.591   4.429   1.033
 7714SOL     OW24040   6.680   0.232   4.262
 7714SOL    HW124041   6.625   0.276   4.191
 7714SOL    HW224042   6.628   0.158   4.305
 7715SOL     OW24043   1.962   2.811   6.634
 7715SOL    HW124044   1.889   2.807   6.566
 7715SOL    HW224045   1.923   2.811   6.726
 7716SOL     OW24046   0.683   5.603   6.954
 7716SOL    HW124047   0.652   5.509   6.969
 7716SOL    HW224048   0.632   5.643   6.877
 7717SOL     OW24049   1.229   2.280   6.006
 7717SOL    HW124050   1.327   2.281   6.029
 7717SOL    HW224051   1.178   2.238   6.081
 7718SOL     OW24052   1.416   4.079   2.658
 7718SOL    HW124053   1.461   4.062   2.746
 7718SOL    HW224054   1.458   4.159   2.614
 7719SOL     OW24055   1.452   4.210   4.838
 7719SOL    HW124056   1.531   4.270   4.849
 7719SOL    HW224057   1.482   4.115   4.836
 7720SOL     OW24058   6.318   2.005   6.268
 7720SOL    HW124059   6.262   1.924   6.284
 7720SOL    HW224060   6.267   2.070   6.211
 7721SOL     OW24061   1.540   0.395   2.558
 7721SOL    HW124062   1.573   0.320   2.615
 7721SOL    HW224063   1.605   0.471   2.564
 7722SOL     OW24064   2.325   4.945   3.975
 7722SOL    HW124065   2.310   5.025   4.033
 7722SOL    HW224066   2.339   4.974   3.881
 7723SOL     OW24067   4.739   2.971   6.841
 7723SOL    HW124068   4.785   2.940   6.757
 7723SOL    HW224069   4.641   2.979   6.823
 7724SOL     OW24070   3.188   4.089   1.292
 7724SOL    HW124071   3.130   4.150   1.346
 7724SOL    HW224072   3.138   4.006   1.269
 7725SOL     OW24073   5.423   2.364   2.682
 7725SOL    HW124074   5.419   2.306   2.601
 7725SOL    HW224075   5.511   2.351   2.728
 7726SOL     OW24076   0.558   3.287   5.979
 7726SOL    HW124077   0.496   3.255   5.907
 7726SOL    HW224078   0.561   3.220   6.054
 7727SOL     OW24079   5.040   2.518   2.303
 7727SOL    HW124080   4.996   2.560   2.223
 7727SOL    HW224081   5.000   2.428   2.319
 7728SOL     OW24082   2.280   2.893   5.285
 7728SOL    HW124083   2.347   2.950   5.238
 7728SOL    HW224084   2.259   2.813   5.229
 7729SOL     OW24085   6.149   1.722   2.401
 7729SOL    HW124086   6.144   1.721   2.501
 7729SOL    HW224087   6.227   1.779   2.373
 7730SOL     OW24088   5.874   4.773   5.602
 7730SOL    HW124089   5.793   4.798   5.655
 7730SOL    HW224090   5.846   4.732   5.515
 7731SOL     OW24091   6.118   0.258   0.571
 7731SOL    HW124092   6.063   0.264   0.655
 7731SOL    HW224093   6.173   0.341   0.562
 7732SOL     OW24094   4.615   0.369   6.561
 7732SOL    HW124095   4.653   0.278   6.543
 7732SOL    HW224096   4.545   0.364   6.632
 7733SOL     OW24097   6.837   5.648   2.872
 7733SOL    HW124098   6.826   5.746   2.888
 7733SOL    HW224099   6.920   5.616   2.918
 7734SOL     OW24100   2.405   4.833   5.472
 7734SOL    HW124101   2.370   4.881   5.392
 7734SOL    HW224102   2.446   4.746   5.444
 7735SOL     OW24103   6.379   6.101   0.304
 7735SOL    HW124104   6.470   6.061   0.293
 7735SOL    HW224105   6.335   6.109   0.214
 7736SOL     OW24106   2.814   2.941   0.849
 7736SOL    HW124107   2.790   2.865   0.789
 7736SOL    HW224108   2.730   2.988   0.878
 7737SOL     OW24109   4.156   5.303   1.300
 7737SOL    HW124110   4.085   5.272   1.364
 7737SOL    HW224111   4.246   5.292   1.343
 7738SOL     OW24112   2.689   6.147   6.725
 7738SOL    HW124113   2.725   6.061   6.689
 7738SOL    HW224114   2.612   6.129   6.785
 7739SOL     OW24115   1.435   2.823   2.071
 7739SOL    HW124116   1.420   2.900   2.008
 7739SOL    HW224117   1.465   2.743   2.019
 7740SOL     OW24118   1.713   0.795   2.985
 7740SOL    HW124119   1.641   0.821   2.922
 7740SOL    HW224120   1.672   0.761   3.070
 7741SOL     OW24121   1.960   4.780   5.831
 7741SOL    HW124122   1.991   4.779   5.736
 7741SOL    HW224123   1.934   4.873   5.857
 7742SOL     OW24124   3.955   1.818   3.817
 7742SOL    HW124125   3.935   1.913   3.796
 7742SOL    HW224126   3.991   1.772   3.735
 7743SOL     OW24127   5.413   1.197   6.696
 7743SOL    HW124128   5.351   1.175   6.621
 7743SOL    HW224129   5.398   1.291   6.726
 7744SOL     OW24130   0.755   5.778   5.141
 7744SOL    HW124131   0.760   5.817   5.233
 7744SOL    HW224132   0.836   5.805   5.089
 7745SOL     OW24133   2.163   6.132   6.791
 7745SOL    HW124134   2.183   6.220   6.834
 7745SOL    HW224135   2.142   6.064   6.861
 7746SOL     OW24136   0.569   6.304   0.732
 7746SOL    HW124137   0.633   6.280   0.805
 7746SOL    HW224138   0.564   6.229   0.666
 7747SOL     OW24139   6.821   6.507   0.798
 7747SOL    HW124140   6.909   6.485   0.841
 7747SOL    HW224141   6.789   6.427   0.746
 7748SOL     OW24142   3.875   2.877   5.525
 7748SOL    HW124143   3.798   2.916   5.576
 7748SOL    HW224144   3.841   2.825   5.447
 7749SOL     OW24145   3.840   3.474   3.587
 7749SOL    HW124146   3.909   3.547   3.588
 7749SOL    HW224147   3.780   3.484   3.667
 7750SOL     OW24148   5.595   5.107   6.006
 7750SOL    HW124149   5.639   5.108   5.917
 7750SOL    HW224150   5.514   5.165   6.005
 7751SOL     OW24151   0.113   1.640   3.692
 7751SOL    HW124152   0.182   1.604   3.629
 7751SOL    HW224153   0.135   1.611   3.785
 7752SOL     OW24154   5.433   5.252   5.115
 7752SOL    HW124155   5.495   5.319   5.074
 7752SOL    HW224156   5.377   5.210   5.044
 7753SOL     OW24157   2.650   0.330   4.902
 7753SOL    HW124158   2.710   0.265   4.950
 7753SOL    HW224159   2.556   0.297   4.907
 7754SOL     OW24160   5.863   0.803   0.987
 7754SOL    HW124161   5.857   0.830   0.891
 7754SOL    HW224162   5.945   0.845   1.027
 7755SOL     OW24163   0.543   6.228   5.877
 7755SOL    HW124164   0.541   6.317   5.922
 7755SOL    HW224165   0.632   6.215   5.833
 7756SOL     OW24166   2.768   5.425   2.245
 7756SOL    HW124167   2.693   5.438   2.180
 7756SOL    HW224168   2.777   5.507   2.302
 7757SOL     OW24169   4.973   6.165   5.514
 7757SOL    HW124170   4.950   6.100   5.587
 7757SOL    HW224171   4.913   6.244   5.519
 7758SOL     OW24172   1.677   2.676   6.217
 7758SOL    HW124173   1.770   2.685   6.252
 7758SOL    HW224174   1.647   2.581   6.225
 7759SOL     OW24175   1.954   0.506   4.726
 7759SOL    HW124176   1.871   0.478   4.677
 7759SOL    HW224177   1.980   0.598   4.696
 7760SOL     OW24178   5.459   3.086   1.951
 7760SOL    HW124179   5.428   3.001   1.910
 7760SOL    HW224180   5.534   3.124   1.896
 7761SOL     OW24181   3.160   6.834   6.036
 7761SOL    HW124182   3.160   6.893   6.117
 7761SOL    HW224183   3.173   6.739   6.064
 7762SOL     OW24184   4.028   0.985   6.725
 7762SOL    HW124185   4.030   0.945   6.817
 7762SOL    HW224186   4.041   1.084   6.731
 7763SOL     OW24187   1.335   1.988   0.742
 7763SOL    HW124188   1.425   2.030   0.751
 7763SOL    HW224189   1.265   2.057   0.757
 7764SOL     OW24190   3.888   3.352   2.504
 7764SOL    HW124191   3.793   3.382   2.497
 7764SOL    HW224192   3.895   3.277   2.570
 7765SOL     OW24193   6.499   3.230   3.810
 7765SOL    HW124194   6.449   3.287   3.875
 7765SOL    HW224195   6.450   3.226   3.723
 7766SOL     OW24196   5.825   1.831   0.097
 7766SOL    HW124197   5.758   1.765   0.131
 7766SOL    HW224198   5.917   1.796   0.113
 7767SOL     OW24199   3.943   6.339   3.444
 7767SOL    HW124200   3.996   6.348   3.360
 7767SOL    HW224201   3.868   6.274   3.429
 7768SOL     OW24202   3.407   4.925   2.666
 7768SOL    HW124203   3.436   4.966   2.752
 7768SOL    HW224204   3.332   4.979   2.627
 7769SOL     OW24205   4.264   2.253   1.578
 7769SOL    HW124206   4.303   2.162   1.596
 7769SOL    HW224207   4.247   2.299   1.665
 7770SOL     OW24208   2.755   4.870   1.853
 7770SOL    HW124209   2.798   4.806   1.917
 7770SOL    HW224210   2.680   4.824   1.806
 7771SOL     OW24211   2.742   2.058   4.565
 7771SOL    HW124212   2.665   1.997   4.544
 7771SOL    HW224213   2.725   2.148   4.523
 7772SOL     OW24214   5.324   1.549   3.682
 7772SOL    HW124215   5.415   1.509   3.671
 7772SOL    HW224216   5.276   1.549   3.594
 7773SOL     OW24217   3.959   4.547   6.075
 7773SOL    HW124218   4.038   4.522   6.131
 7773SOL    HW224219   3.925   4.465   6.028
 7774SOL     OW24220   5.583   1.196   5.692
 7774SOL    HW124221   5.520   1.232   5.624
 7774SOL    HW224222   5.577   1.096   5.694
 7775SOL     OW24223   3.337   6.641   3.754
 7775SOL    HW124224   3.269   6.694   3.804
 7775SOL    HW224225   3.366   6.563   3.811
 7776SOL     OW24226   3.330   3.517   6.186
 7776SOL    HW124227   3.422   3.480   6.199
 7776SOL    HW224228   3.264   3.461   6.237
 7777SOL     OW24229   2.188   1.462   5.817
 7777SOL    HW124230   2.228   1.432   5.730
 7777SOL    HW224231   2.129   1.389   5.852
 7778SOL     OW24232   5.803   0.350   0.556
 7778SOL    HW124233   5.804   0.353   0.456
 7778SOL    HW224234   5.731   0.288   0.586
 7779SOL     OW24235   3.584   2.807   0.402
 7779SOL    HW124236   3.565   2.905   0.400
 7779SOL    HW224237   3.518   2.762   0.463
 7780SOL     OW24238   0.917   6.144   4.317
 7780SOL    HW124239   0.921   6.208   4.393
 7780SOL    HW224240   0.932   6.051   4.351
 7781SOL     OW24241   1.518   4.075   6.119
 7781SOL    HW124242   1.474   4.142   6.059
 7781SOL    HW224243   1.602   4.043   6.076
 7782SOL     OW24244   1.842   4.199   6.068
 7782SOL    HW124245   1.789   4.272   6.025
 7782SOL    HW224246   1.796   4.111   6.053
 7783SOL     OW24247   2.300   6.805   6.299
 7783SOL    HW124248   2.205   6.774   6.297
 7783SOL    HW224249   2.329   6.820   6.393
 7784SOL     OW24250   1.019   3.209   6.913
 7784SOL    HW124251   0.996   3.190   6.818
 7784SOL    HW224252   1.098   3.271   6.916
 7785SOL     OW24253   2.411   6.586   4.122
 7785SOL    HW124254   2.501   6.544   4.138
 7785SOL    HW224255   2.422   6.685   4.111
 7786SOL     OW24256   3.154   4.619   5.313
 7786SOL    HW124257   3.184   4.538   5.363
 7786SOL    HW224258   3.073   4.597   5.258
 7787SOL     OW24259   2.357   2.423   5.021
 7787SOL    HW124260   2.330   2.514   5.051
 7787SOL    HW224261   2.456   2.421   5.007
 7788SOL     OW24262   1.482   1.841   1.861
 7788SOL    HW124263   1.495   1.782   1.940
 7788SOL    HW224264   1.462   1.934   1.892
 7789SOL     OW24265   2.412   0.096   1.021
 7789SOL    HW124266   2.483   0.153   1.062
 7789SOL    HW224267   2.432   0.082   0.924
 7790SOL     OW24268   6.441   4.091   3.352
 7790SOL    HW124269   6.374   4.159   3.379
 7790SOL    HW224270   6.452   4.024   3.426
 7791SOL     OW24271   2.787   5.954   4.558
 7791SOL    HW124272   2.808   6.023   4.490
 7791SOL    HW224273   2.834   5.976   4.644
 7792SOL     OW24274   1.643   5.173   6.206
 7792SOL    HW124275   1.614   5.085   6.169
 7792SOL    HW224276   1.732   5.163   6.250
 7793SOL     OW24277   1.982   1.197   5.194
 7793SOL    HW124278   2.066   1.220   5.244
 7793SOL    HW224279   2.006   1.148   5.111
 7794SOL     OW24280   5.324   4.895   4.704
 7794SOL    HW124281   5.228   4.914   4.728
 7794SOL    HW224282   5.358   4.822   4.763
 7795SOL     OW24283   1.963   4.215   5.273
 7795SOL    HW124284   1.943   4.129   5.320
 7795SOL    HW224285   1.988   4.195   5.178
 7796SOL     OW24286   3.765   3.775   3.711
 7796SOL    HW124287   3.776   3.790   3.613
 7796SOL    HW224288   3.818   3.843   3.762
 7797SOL     OW24289   0.282   5.734   3.348
 7797SOL    HW124290   0.308   5.752   3.443
 7797SOL    HW224291   0.358   5.689   3.301
 7798SOL     OW24292   2.795   5.065   0.157
 7798SOL    HW124293   2.844   4.985   0.193
 7798SOL    HW224294   2.860   5.140   0.142
 7799SOL     OW24295   6.608   5.692   1.780
 7799SOL    HW124296   6.586   5.616   1.720
 7799SOL    HW224297   6.527   5.749   1.792
 7800SOL     OW24298   0.630   4.275   1.712
 7800SOL    HW124299   0.538   4.314   1.718
 7800SOL    HW224300   0.698   4.347   1.720
 7801SOL     OW24301   2.428   1.290   0.852
 7801SOL    HW124302   2.479   1.259   0.772
 7801SOL    HW224303   2.384   1.377   0.832
 7802SOL     OW24304   5.923   3.036   1.428
 7802SOL    HW124305   5.859   3.089   1.372
 7802SOL    HW224306   6.016   3.071   1.414
 7803SOL     OW24307   4.473   3.333   5.732
 7803SOL    HW124308   4.552   3.347   5.671
 7803SOL    HW224309   4.428   3.247   5.708
 7804SOL     OW24310   6.327   1.112   4.280
 7804SOL    HW124311   6.321   1.085   4.184
 7804SOL    HW224312   6.363   1.205   4.287
 7805SOL     OW24313   5.777   2.256   1.176
 7805SOL    HW124314   5.836   2.337   1.182
 7805SOL    HW224315   5.709   2.260   1.249
 7806SOL     OW24316   5.581   3.105   5.700
 7806SOL    HW124317   5.498   3.161   5.701
 7806SOL    HW224318   5.607   3.082   5.793
 7807SOL     OW24319   0.038   4.763   6.504
 7807SOL    HW124320   6.996   4.825   6.465
 7807SOL    HW224321   0.058   4.689   6.438
 7808SOL     OW24322   0.803   2.320   4.826
 7808SOL    HW124323   0.735   2.392   4.839
 7808SOL    HW224324   0.870   2.348   4.758
 7809SOL     OW24325   2.183   5.323   4.779
 7809SOL    HW124326   2.139   5.306   4.690
 7809SOL    HW224327   2.253   5.393   4.768
 7810SOL     OW24328   3.002   0.965   5.865
 7810SOL    HW124329   2.996   0.865   5.865
 7810SOL    HW224330   2.926   1.002   5.918
 7811SOL     OW24331   6.362   4.562   4.340
 7811SOL    HW124332   6.408   4.478   4.369
 7811SOL    HW224333   6.307   4.598   4.415
 7812SOL     OW24334   1.261   1.982   3.971
 7812SOL    HW124335   1.211   1.895   3.979
 7812SOL    HW224336   1.350   1.973   4.015
 7813SOL     OW24337   5.056   2.777   6.368
 7813SOL    HW124338   5.132   2.724   6.329
 7813SOL    HW224339   4.970   2.730   6.351
 7814SOL     OW24340   0.140   2.510   3.279
 7814SOL    HW124341   0.076   2.439   3.310
 7814SOL    HW224342   0.218   2.466   3.233
 7815SOL     OW24343   5.470   1.450   6.815
 7815SOL    HW124344   5.540   1.512   6.850
 7815SOL    HW224345   5.389   1.454   6.874
 7816SOL     OW24346   0.955   3.279   5.951
 7816SOL    HW124347   0.981   3.365   5.908
 7816SOL    HW224348   0.922   3.216   5.881
 7817SOL     OW24349   5.986   3.612   4.262
 7817SOL    HW124350   5.945   3.702   4.278
 7817SOL    HW224351   6.085   3.620   4.259
 7818SOL     OW24352   5.706   0.182   1.871
 7818SOL    HW124353   5.626   0.241   1.858
 7818SOL    HW224354   5.763   0.219   1.945
 7819SOL     OW24355   0.143   3.024   1.618
 7819SOL    HW124356   0.222   2.982   1.574
 7819SOL    HW224357   0.097   2.957   1.676
 7820SOL     OW24358   1.704   2.419   4.911
 7820SOL    HW124359   1.639   2.346   4.931
 7820SOL    HW224360   1.674   2.470   4.831
 7821SOL     OW24361   4.369   6.028   1.482
 7821SOL    HW124362   4.460   5.992   1.461
 7821SOL    HW224363   4.368   6.064   1.575
 7822SOL     OW24364   0.461   6.966   5.394
 7822SOL    HW124365   0.504   7.009   5.474
 7822SOL    HW224366   0.431   6.874   5.418
 7823SOL     OW24367   2.267   4.371   4.466
 7823SOL    HW124368   2.282   4.321   4.552
 7823SOL    HW224369   2.343   4.434   4.451
 7824SOL     OW24370   6.829   2.576   4.966
 7824SOL    HW124371   6.792   2.496   5.014
 7824SOL    HW224372   6.863   2.642   5.033
 7825SOL     OW24373   2.503   3.382   6.973
 7825SOL    HW124374   2.459   3.334   6.898
 7825SOL    HW224375   2.601   3.361   6.974
 7826SOL     OW24376   6.884   1.519   0.331
 7826SOL    HW124377   6.935   1.444   0.372
 7826SOL    HW224378   6.943   1.599   0.321
 7827SOL     OW24379   0.429   5.752   2.750
 7827SOL    HW124380   0.427   5.699   2.665
 7827SOL    HW224381   0.518   5.795   2.760
 7828SOL     OW24382   6.926   4.168   6.792
 7828SOL    HW124383   6.991   4.147   6.719
 7828SOL    HW224384   6.898   4.264   6.786
 7829SOL     OW24385   3.421   3.102   1.327
 7829SOL    HW124386   3.458   3.052   1.249
 7829SOL    HW224387   3.400   3.039   1.401
 7830SOL     OW24388   3.361   5.463   5.260
 7830SOL    HW124389   3.402   5.398   5.323
 7830SOL    HW224390   3.275   5.425   5.225
 7831SOL     OW24391   1.750   1.520   1.185
 7831SOL    HW124392   1.766   1.567   1.099
 7831SOL    HW224393   1.721   1.426   1.167
 7832SOL     OW24394   4.939   0.452   4.364
 7832SOL    HW124395   4.919   0.455   4.462
 7832SOL    HW224396   4.996   0.530   4.340
 7833SOL     OW24397   1.237   0.576   4.089
 7833SOL    HW124398   1.274   0.571   4.182
 7833SOL    HW224399   1.293   0.638   4.034
 7834SOL     OW24400   6.627   1.789   4.016
 7834SOL    HW124401   6.680   1.773   3.933
 7834SOL    HW224402   6.688   1.787   4.096
 7835SOL     OW24403   4.211   1.784   5.418
 7835SOL    HW124404   4.282   1.733   5.370
 7835SOL    HW224405   4.135   1.723   5.440
 7836SOL     OW24406   3.979   4.113   5.137
 7836SOL    HW124407   4.067   4.143   5.175
 7836SOL    HW224408   3.947   4.032   5.186
 7837SOL     OW24409   5.576   6.382   0.460
 7837SOL    HW124410   5.668   6.410   0.487
 7837SOL    HW224411   5.539   6.446   0.394
 7838SOL     OW24412   5.009   4.997   1.192
 7838SOL    HW124413   4.980   4.943   1.272
 7838SOL    HW224414   5.079   5.062   1.221
 7839SOL     OW24415   6.021   4.195   4.896
 7839SOL    HW124416   5.975   4.106   4.897
 7839SOL    HW224417   5.954   4.268   4.912
 7840SOL     OW24418   0.740   4.273   3.941
 7840SOL    HW124419   0.740   4.241   4.036
 7840SOL    HW224420   0.647   4.303   3.916
 7841SOL     OW24421   5.033   1.952   6.339
 7841SOL    HW124422   4.996   1.860   6.335
 7841SOL    HW224423   4.958   2.018   6.350
 7842SOL     OW24424   2.420   2.239   2.486
 7842SOL    HW124425   2.380   2.214   2.398
 7842SOL    HW224426   2.504   2.291   2.472
 7843SOL     OW24427   6.958   6.883   4.046
 7843SOL    HW124428   6.949   6.913   4.141
 7843SOL    HW224429   6.870   6.891   4.000
 7844SOL     OW24430   3.228   0.711   2.468
 7844SOL    HW124431   3.325   0.687   2.470
 7844SOL    HW224432   3.216   0.796   2.416
 7845SOL     OW24433   5.386   2.060   1.574
 7845SOL    HW124434   5.288   2.052   1.554
 7845SOL    HW224435   5.399   2.114   1.657
 7846SOL     OW24436   1.489   2.743   0.405
 7846SOL    HW124437   1.553   2.682   0.360
 7846SOL    HW224438   1.533   2.787   0.483
 7847SOL     OW24439   6.218   2.001   3.510
 7847SOL    HW124440   6.136   2.057   3.514
 7847SOL    HW224441   6.193   1.906   3.491
 7848SOL     OW24442   3.274   4.623   1.046
 7848SOL    HW124443   3.257   4.651   0.952
 7848SOL    HW224444   3.225   4.685   1.108
 7849SOL     OW24445   5.684   3.478   5.594
 7849SOL    HW124446   5.736   3.399   5.561
 7849SOL    HW224447   5.695   3.485   5.693
 7850SOL     OW24448   6.749   1.479   3.393
 7850SOL    HW124449   6.781   1.481   3.298
 7850SOL    HW224450   6.804   1.541   3.448
 7851SOL     OW24451   0.797   3.671   1.872
 7851SOL    HW124452   0.892   3.640   1.869
 7851SOL    HW224453   0.739   3.597   1.907
 7852SOL     OW24454   3.114   1.239   0.505
 7852SOL    HW124455   3.165   1.309   0.555
 7852SOL    HW224456   3.157   1.150   0.518
 7853SOL     OW24457   4.278   3.276   1.585
 7853SOL    HW124458   4.375   3.260   1.569
 7853SOL    HW224459   4.231   3.189   1.599
 7854SOL     OW24460   4.564   2.310   6.073
 7854SOL    HW124461   4.493   2.276   6.134
 7854SOL    HW224462   4.624   2.235   6.046
 7855SOL     OW24463   5.146   6.290   4.467
 7855SOL    HW124464   5.183   6.311   4.558
 7855SOL    HW224465   5.097   6.203   4.470
 7856SOL     OW24466   1.650   4.383   4.899
 7856SOL    HW124467   1.714   4.378   4.822
 7856SOL    HW224468   1.608   4.473   4.901
 7857SOL     OW24469   5.030   4.005   0.281
 7857SOL    HW124470   5.012   3.975   0.375
 7857SOL    HW224471   4.949   4.050   0.245
 7858SOL     OW24472   0.127   5.777   5.276
 7858SOL    HW124473   0.082   5.699   5.234
 7858SOL    HW224474   0.066   5.818   5.344
 7859SOL     OW24475   5.073   3.246   6.297
 7859SOL    HW124476   5.039   3.172   6.240
 7859SOL    HW224477   5.097   3.210   6.387
 7860SOL     OW24478   3.615   1.341   4.383
 7860SOL    HW124479   3.629   1.271   4.453
 7860SOL    HW224480   3.520   1.340   4.352
 7861SOL     OW24481   2.693   5.735   1.822
 7861SOL    HW124482   2.660   5.825   1.851
 7861SOL    HW224483   2.645   5.708   1.738
 7862SOL     OW24484   3.018   5.432   1.889
 7862SOL    HW124485   3.002   5.520   1.844
 7862SOL    HW224486   2.930   5.390   1.911
 7863SOL     OW24487   0.084   4.064   3.505
 7863SOL    HW124488   0.104   3.973   3.469
 7863SOL    HW224489   0.161   4.096   3.559
 7864SOL     OW24490   2.013   6.225   6.594
 7864SOL    HW124491   1.960   6.301   6.632
 7864SOL    HW224492   2.050   6.170   6.668
 7865SOL     OW24493   6.060   6.182   3.546
 7865SOL    HW124494   5.977   6.128   3.532
 7865SOL    HW224495   6.055   6.227   3.636
 7866SOL     OW24496   1.888   0.542   5.613
 7866SOL    HW124497   1.840   0.630   5.616
 7866SOL    HW224498   1.984   0.556   5.639
 7867SOL     OW24499   5.646   6.974   4.151
 7867SOL    HW124500   5.551   6.953   4.130
 7867SOL    HW224501   5.680   6.910   4.220
 7868SOL     OW24502   4.072   5.994   0.582
 7868SOL    HW124503   4.024   6.034   0.505
 7868SOL    HW224504   4.122   6.065   0.631
 7869SOL     OW24505   5.184   4.888   5.553
 7869SOL    HW124506   5.174   4.932   5.464
 7869SOL    HW224507   5.280   4.868   5.569
 7870SOL     OW24508   5.053   6.924   5.311
 7870SOL    HW124509   5.063   6.825   5.320
 7870SOL    HW224510   5.143   6.967   5.310
 7871SOL     OW24511   5.186   0.984   2.183
 7871SOL    HW124512   5.208   0.918   2.111
 7871SOL    HW224513   5.157   1.070   2.143
 7872SOL     OW24514   1.890   5.162   2.672
 7872SOL    HW124515   1.855   5.235   2.613
 7872SOL    HW224516   1.814   5.107   2.705
 7873SOL     OW24517   6.933   1.119   0.835
 7873SOL    HW124518   6.978   1.055   0.898
 7873SOL    HW224519   6.896   1.196   0.887
 7874SOL     OW24520   5.540   2.700   1.013
 7874SOL    HW124521   5.612   2.756   1.054
 7874SOL    HW224522   5.459   2.701   1.073
 7875SOL     OW24523   3.763   3.630   6.887
 7875SOL    HW124524   3.785   3.693   6.961
 7875SOL    HW224525   3.731   3.683   6.807
 7876SOL     OW24526   1.285   0.505   2.592
 7876SOL    HW124527   1.366   0.464   2.551
 7876SOL    HW224528   1.261   0.455   2.676
 7877SOL     OW24529   5.828   1.449   2.537
 7877SOL    HW124530   5.892   1.471   2.610
 7877SOL    HW224531   5.788   1.359   2.554
 7878SOL     OW24532   4.838   3.762   3.792
 7878SOL    HW124533   4.894   3.827   3.741
 7878SOL    HW224534   4.865   3.669   3.768
 7879SOL     OW24535   3.285   5.187   3.563
 7879SOL    HW124536   3.331   5.233   3.487
 7879SOL    HW224537   3.196   5.229   3.578
 7880SOL     OW24538   2.344   3.871   1.505
 7880SOL    HW124539   2.317   3.847   1.411
 7880SOL    HW224540   2.387   3.791   1.548
 7881SOL     OW24541   5.129   4.232   4.435
 7881SOL    HW124542   5.211   4.257   4.487
 7881SOL    HW224543   5.071   4.312   4.426
 7882SOL     OW24544   2.795   3.987   1.256
 7882SOL    HW124545   2.783   4.053   1.182
 7882SOL    HW224546   2.727   4.005   1.327
 7883SOL     OW24547   0.735   0.999   5.082
 7883SOL    HW124548   0.801   1.027   5.012
 7883SOL    HW224549   0.662   0.947   5.039
 7884SOL     OW24550   0.127   2.990   4.036
 7884SOL    HW124551   0.167   2.936   3.962
 7884SOL    HW224552   0.199   3.023   4.096
 7885SOL     OW24553   6.352   5.581   0.951
 7885SOL    HW124554   6.403   5.525   0.886
 7885SOL    HW224555   6.367   5.678   0.931
 7886SOL     OW24556   4.390   5.527   0.706
 7886SOL    HW124557   4.293   5.519   0.685
 7886SOL    HW224558   4.407   5.490   0.797
 7887SOL     OW24559   3.992   1.798   6.797
 7887SOL    HW124560   4.080   1.775   6.756
 7887SOL    HW224561   3.918   1.757   6.743
 7888SOL     OW24562   5.073   0.327   3.922
 7888SOL    HW124563   4.986   0.356   3.961
 7888SOL    HW224564   5.083   0.364   3.830
 7889SOL     OW24565   0.621   6.002   2.078
 7889SOL    HW124566   0.668   5.914   2.077
 7889SOL    HW224567   0.525   5.989   2.103
 7890SOL     OW24568   2.213   4.116   2.307
 7890SOL    HW124569   2.214   4.086   2.212
 7890SOL    HW224570   2.210   4.037   2.367
 7891SOL     OW24571   2.829   4.741   2.216
 7891SOL    HW124572   2.827   4.689   2.131
 7891SOL    HW224573   2.922   4.773   2.234
 7892SOL     OW24574   1.921   2.855   5.601
 7892SOL    HW124575   1.826   2.856   5.570
 7892SOL    HW224576   1.932   2.787   5.674
 7893SOL     OW24577   5.933   6.882   1.091
 7893SOL    HW124578   5.844   6.885   1.044
 7893SOL    HW224579   5.974   6.973   1.090
 7894SOL     OW24580   2.071   6.373   2.411
 7894SOL    HW124581   2.004   6.400   2.480
 7894SOL    HW224582   2.133   6.305   2.450
 7895SOL     OW24583   6.185   1.179   4.894
 7895SOL    HW124584   6.106   1.118   4.896
 7895SOL    HW224585   6.175   1.249   4.964
 7896SOL     OW24586   4.817   3.755   5.704
 7896SOL    HW124587   4.768   3.796   5.781
 7896SOL    HW224588   4.760   3.685   5.661
 7897SOL     OW24589   2.456   4.071   6.594
 7897SOL    HW124590   2.475   4.161   6.553
 7897SOL    HW224591   2.541   4.030   6.625
 7898SOL     OW24592   4.658   2.302   3.823
 7898SOL    HW124593   4.601   2.384   3.829
 7898SOL    HW224594   4.755   2.329   3.824
 7899SOL     OW24595   5.994   2.449   1.939
 7899SOL    HW124596   6.077   2.480   1.893
 7899SOL    HW224597   5.948   2.527   1.982
 7900SOL     OW24598   1.328   5.218   1.443
 7900SOL    HW124599   1.347   5.306   1.487
 7900SOL    HW224600   1.391   5.205   1.366
 7901SOL     OW24601   5.952   6.797   6.113
 7901SOL    HW124602   5.864   6.845   6.118
 7901SOL    HW224603   5.945   6.722   6.046
 7902SOL     OW24604   4.258   4.671   1.372
 7902SOL    HW124605   4.329   4.600   1.369
 7902SOL    HW224606   4.253   4.708   1.464
 7903SOL     OW24607   6.580   1.825   0.276
 7903SOL    HW124608   6.525   1.746   0.303
 7903SOL    HW224609   6.664   1.828   0.331
 7904SOL     OW24610   0.123   0.809   2.620
 7904SOL    HW124611   0.066   0.829   2.539
 7904SOL    HW224612   0.204   0.867   2.619
 7905SOL     OW24613   4.038   1.474   1.330
 7905SOL    HW124614   3.987   1.560   1.342
 7905SOL    HW224615   3.981   1.408   1.282
 7906SOL     OW24616   6.033   5.726   6.630
 7906SOL    HW124617   5.948   5.778   6.638
 7906SOL    HW224618   6.043   5.666   6.710
 7907SOL     OW24619   6.488   2.256   4.222
 7907SOL    HW124620   6.469   2.160   4.242
 7907SOL    HW224621   6.538   2.263   4.136
 7908SOL     OW24622   0.830   1.186   3.138
 7908SOL    HW124623   0.832   1.258   3.207
 7908SOL    HW224624   0.883   1.107   3.172
 7909SOL     OW24625   4.730   4.078   4.451
 7909SOL    HW124626   4.642   4.031   4.441
 7909SOL    HW224627   4.783   4.035   4.524
 7910SOL     OW24628   4.279   3.234   6.347
 7910SOL    HW124629   4.244   3.191   6.264
 7910SOL    HW224630   4.315   3.325   6.325
 7911SOL     OW24631   6.647   4.798   0.488
 7911SOL    HW124632   6.632   4.719   0.547
 7911SOL    HW224633   6.628   4.773   0.393
 7912SOL     OW24634   6.069   5.124   6.347
 7912SOL    HW124635   6.103   5.172   6.266
 7912SOL    HW224636   5.996   5.060   6.320
 7913SOL     OW24637   6.995   5.137   6.744
 7913SOL    HW124638   6.969   5.233   6.751
 7913SOL    HW224639   6.928   5.081   6.792
 7914SOL     OW24640   6.158   4.905   0.991
 7914SOL    HW124641   6.107   4.963   0.928
 7914SOL    HW224642   6.216   4.843   0.939
 7915SOL     OW24643   4.934   2.012   3.054
 7915SOL    HW124644   4.912   1.998   2.957
 7915SOL    HW224645   5.003   1.946   3.082
 7916SOL     OW24646   5.293   3.217   5.425
 7916SOL    HW124647   5.318   3.237   5.520
 7916SOL    HW224648   5.354   3.146   5.389
 7917SOL     OW24649   4.071   3.875   4.580
 7917SOL    HW124650   4.106   3.810   4.513
 7917SOL    HW224651   4.004   3.935   4.536
 7918SOL     OW24652   6.264   1.279   1.598
 7918SOL    HW124653   6.218   1.367   1.613
 7918SOL    HW224654   6.198   1.204   1.610
 7919SOL     OW24655   5.597   4.352   2.431
 7919SOL    HW124656   5.544   4.407   2.366
 7919SOL    HW224657   5.578   4.255   2.415
 7920SOL     OW24658   0.431   4.832   1.711
 7920SOL    HW124659   0.435   4.756   1.775
 7920SOL    HW224660   0.448   4.798   1.618
 7921SOL     OW24661   2.442   6.409   1.276
 7921SOL    HW124662   2.407   6.476   1.343
 7921SOL    HW224663   2.443   6.319   1.318
 7922SOL     OW24664   0.078   5.282   7.000
 7922SOL    HW124665   0.092   5.191   0.014
 7922SOL    HW224666   7.011   5.288   6.963
 7923SOL     OW24667   1.564   1.451   2.957
 7923SOL    HW124668   1.555   1.365   2.906
 7923SOL    HW224669   1.590   1.524   2.894
 7924SOL     OW24670   3.018   6.914   3.599
 7924SOL    HW124671   2.956   6.946   3.528
 7924SOL    HW224672   2.967   6.900   3.684
 7925SOL     OW24673   6.164   1.665   6.075
 7925SOL    HW124674   6.258   1.670   6.041
 7925SOL    HW224675   6.152   1.581   6.127
 7926SOL     OW24676   3.234   1.160   3.426
 7926SOL    HW124677   3.197   1.240   3.379
 7926SOL    HW224678   3.243   1.085   3.360
 7927SOL     OW24679   4.036   5.344   5.267
 7927SOL    HW124680   4.021   5.260   5.214
 7927SOL    HW224681   3.954   5.365   5.320
 7928SOL     OW24682   2.036   4.977   3.062
 7928SOL    HW124683   2.131   5.006   3.075
 7928SOL    HW224684   2.030   4.917   2.982
 7929SOL     OW24685   3.768   3.849   4.807
 7929SOL    HW124686   3.800   3.821   4.716
 7929SOL    HW224687   3.839   3.902   4.852
 7930SOL     OW24688   4.439   5.100   3.320
 7930SOL    HW124689   4.378   5.164   3.273
 7930SOL    HW224690   4.531   5.108   3.281
 7931SOL     OW24691   2.131   2.681   6.993
 7931SOL    HW124692   2.194   2.758   6.996
 7931SOL    HW224693   2.180   2.599   6.964
 7932SOL     OW24694   2.548   0.264   6.958
 7932SOL    HW124695   2.537   0.172   6.920
 7932SOL    HW224696   2.645   0.279   6.980
 7933SOL     OW24697   0.197   6.748   6.845
 7933SOL    HW124698   0.223   6.683   6.916
 7933SOL    HW224699   0.278   6.800   6.817
 7934SOL     OW24700   2.526   3.881   0.325
 7934SOL    HW124701   2.558   3.840   0.240
 7934SOL    HW224702   2.595   3.869   0.396
 7935SOL     OW24703   4.786   5.963   0.998
 7935SOL    HW124704   4.830   5.884   0.955
 7935SOL    HW224705   4.774   6.036   0.931
 7936SOL     OW24706   3.895   6.349   3.147
 7936SOL    HW124707   3.795   6.349   3.138
 7936SOL    HW224708   3.934   6.413   3.081
 7937SOL     OW24709   5.994   6.309   5.537
 7937SOL    HW124710   6.041   6.394   5.561
 7937SOL    HW224711   6.062   6.237   5.522
 7938SOL     OW24712   3.876   5.143   4.656
 7938SOL    HW124713   3.935   5.222   4.642
 7938SOL    HW224714   3.796   5.150   4.598
 7939SOL     OW24715   1.190   1.340   5.443
 7939SOL    HW124716   1.187   1.430   5.399
 7939SOL    HW224717   1.097   1.310   5.463
 7940SOL     OW24718   2.113   5.360   1.417
 7940SOL    HW124719   2.077   5.298   1.487
 7940SOL    HW224720   2.161   5.435   1.462
 7941SOL     OW24721   0.488   1.150   0.663
 7941SOL    HW124722   0.576   1.196   0.676
 7941SOL    HW224723   0.485   1.068   0.720
 7942SOL     OW24724   0.239   6.476   2.002
 7942SOL    HW124725   0.171   6.512   2.065
 7942SOL    HW224726   0.331   6.498   2.036
 7943SOL     OW24727   5.391   2.041   1.268
 7943SOL    HW124728   5.414   2.030   1.365
 7943SOL    HW224729   5.468   2.011   1.212
 7944SOL     OW24730   6.917   3.139   1.542
 7944SOL    HW124731   6.912   3.184   1.453
 7944SOL    HW224732   7.006   3.097   1.553
 7945SOL     OW24733   5.063   6.853   3.105
 7945SOL    HW124734   5.018   6.855   3.015
 7945SOL    HW224735   5.054   6.762   3.145
 7946SOL     OW24736   1.413   2.544   6.081
 7946SOL    HW124737   1.488   2.524   6.144
 7946SOL    HW224738   1.433   2.503   5.992
 7947SOL     OW24739   3.635   2.891   6.435
 7947SOL    HW124740   3.710   2.946   6.398
 7947SOL    HW224741   3.579   2.857   6.361
 7948SOL     OW24742   0.069   0.053   0.586
 7948SOL    HW124743   0.048   7.014   0.513
 7948SOL    HW224744   0.130   0.010   0.652
 7949SOL     OW24745   5.229   4.753   3.810
 7949SOL    HW124746   5.214   4.654   3.820
 7949SOL    HW224747   5.325   4.774   3.831
 7950SOL     OW24748   3.871   4.861   3.322
 7950SOL    HW124749   3.857   4.845   3.419
 7950SOL    HW224750   3.963   4.830   3.296
 7951SOL     OW24751   3.067   3.695   0.864
 7951SOL    HW124752   3.020   3.761   0.921
 7951SOL    HW224753   3.039   3.602   0.889
 7952SOL     OW24754   6.752   2.732   6.493
 7952SOL    HW124755   6.779   2.768   6.404
 7952SOL    HW224756   6.807   2.651   6.514
 7953SOL     OW24757   2.085   3.106   2.773
 7953SOL    HW124758   2.105   3.033   2.708
 7953SOL    HW224759   2.146   3.098   2.852
 7954SOL     OW24760   4.186   5.118   5.046
 7954SOL    HW124761   4.095   5.131   5.083
 7954SOL    HW224762   4.224   5.207   5.019
 7955SOL     OW24763   6.958   6.688   6.935
 7955SOL    HW124764   0.013   6.662   6.883
 7955SOL    HW224765   6.961   6.786   6.955
 7956SOL     OW24766   0.098   6.167   3.471
 7956SOL    HW124767   0.163   6.182   3.546
 7956SOL    HW224768   0.141   6.194   3.385
 7957SOL     OW24769   1.164   1.987   0.308
 7957SOL    HW124770   1.145   2.045   0.229
 7957SOL    HW224771   1.239   2.026   0.361
 7958SOL     OW24772   3.733   5.828   4.183
 7958SOL    HW124773   3.803   5.820   4.112
 7958SOL    HW224774   3.722   5.740   4.229
 7959SOL     OW24775   5.491   4.457   0.308
 7959SOL    HW124776   5.588   4.448   0.288
 7959SOL    HW224777   5.461   4.378   0.363
 7960SOL     OW24778   3.140   1.437   1.091
 7960SOL    HW124779   3.229   1.415   1.130
 7960SOL    HW224780   3.152   1.500   1.014
 7961SOL     OW24781   1.320   6.333   6.067
 7961SOL    HW124782   1.345   6.422   6.107
 7961SOL    HW224783   1.221   6.321   6.072
 7962SOL     OW24784   2.159   1.381   1.109
 7962SOL    HW124785   2.255   1.353   1.118
 7962SOL    HW224786   2.129   1.424   1.194
 7963SOL     OW24787   0.352   0.945   5.542
 7963SOL    HW124788   0.411   1.021   5.571
 7963SOL    HW224789   0.260   0.980   5.526
 7964SOL     OW24790   5.385   4.665   3.207
 7964SOL    HW124791   5.411   4.699   3.116
 7964SOL    HW224792   5.285   4.672   3.218
 7965SOL     OW24793   4.373   2.325   0.409
 7965SOL    HW124794   4.468   2.328   0.441
 7965SOL    HW224795   4.315   2.380   0.469
 7966SOL     OW24796   1.143   4.532   4.509
 7966SOL    HW124797   1.120   4.623   4.542
 7966SOL    HW224798   1.195   4.483   4.580
 7967SOL     OW24799   3.118   5.654   2.819
 7967SOL    HW124800   3.122   5.619   2.913
 7967SOL    HW224801   3.154   5.585   2.757
 7968SOL     OW24802   2.624   2.075   3.763
 7968SOL    HW124803   2.559   2.150   3.747
 7968SOL    HW224804   2.671   2.091   3.850
 7969SOL     OW24805   4.061   0.374   2.923
 7969SOL    HW124806   4.045   0.458   2.975
 7969SOL    HW224807   3.990   0.307   2.945
 7970SOL     OW24808   6.740   3.658   2.893
 7970SOL    HW124809   6.647   3.691   2.877
 7970SOL    HW224810   6.747   3.623   2.986
 7971SOL     OW24811   2.545   0.620   2.037
 7971SOL    HW124812   2.567   0.650   1.944
 7971SOL    HW224813   2.625   0.577   2.078
 7972SOL     OW24814   0.305   4.410   1.432
 7972SOL    HW124815   0.291   4.341   1.503
 7972SOL    HW224816   0.227   4.410   1.370
 7973SOL     OW24817   5.210   3.293   3.814
 7973SOL    HW124818   5.260   3.370   3.775
 7973SOL    HW224819   5.183   3.230   3.741
 7974SOL     OW24820   5.379   0.504   4.102
 7974SOL    HW124821   5.308   0.552   4.051
 7974SOL    HW224822   5.346   0.412   4.126
 7975SOL     OW24823   4.045   0.420   4.622
 7975SOL    HW124824   3.947   0.441   4.624
 7975SOL    HW224825   4.096   0.497   4.585
 7976SOL     OW24826   0.967   6.785   5.038
 7976SOL    HW124827   1.054   6.831   5.018
 7976SOL    HW224828   0.915   6.841   5.103
 7977SOL     OW24829   5.174   5.848   2.763
 7977SOL    HW124830   5.272   5.861   2.743
 7977SOL    HW224831   5.160   5.757   2.802
 7978SOL     OW24832   4.551   3.459   6.320
 7978SOL    HW124833   4.610   3.431   6.395
 7978SOL    HW224834   4.553   3.389   6.248
 7979SOL     OW24835   3.260   0.503   4.757
 7979SOL    HW124836   3.351   0.470   4.783
 7979SOL    HW224837   3.220   0.441   4.690
 7980SOL     OW24838   3.426   6.234   0.214
 7980SOL    HW124839   3.489   6.172   0.262
 7980SOL    HW224840   3.472   6.272   0.134
 7981SOL     OW24841   0.875   4.963   2.434
 7981SOL    HW124842   0.855   4.873   2.395
 7981SOL    HW224843   0.833   5.034   2.377
 7982SOL     OW24844   6.445   2.809   0.570
 7982SOL    HW124845   6.365   2.869   0.562
 7982SOL    HW224846   6.426   2.738   0.638
 7983SOL     OW24847   5.219   1.586   2.771
 7983SOL    HW124848   5.128   1.548   2.755
 7983SOL    HW224849   5.221   1.681   2.742
 7984SOL     OW24850   1.190   2.279   1.892
 7984SOL    HW124851   1.101   2.263   1.935
 7984SOL    HW224852   1.235   2.355   1.938
 7985SOL     OW24853   0.957   0.574   2.454
 7985SOL    HW124854   0.913   0.644   2.510
 7985SOL    HW224855   1.031   0.615   2.402
 7986SOL     OW24856   4.140   1.503   6.577
 7986SOL    HW124857   4.057   1.523   6.525
 7986SOL    HW224858   4.129   1.536   6.671
 7987SOL     OW24859   0.350   2.882   5.692
 7987SOL    HW124860   0.420   2.819   5.727
 7987SOL    HW224861   0.386   2.934   5.615
 7988SOL     OW24862   3.001   2.210   4.434
 7988SOL    HW124863   2.950   2.263   4.502
 7988SOL    HW224864   2.969   2.115   4.435
 7989SOL     OW24865   3.649   2.531   5.334
 7989SOL    HW124866   3.555   2.562   5.346
 7989SOL    HW224867   3.652   2.431   5.340
 7990SOL     OW24868   0.694   3.116   4.271
 7990SOL    HW124869   0.688   3.145   4.366
 7990SOL    HW224870   0.772   3.054   4.260
 7991SOL     OW24871   0.284   2.719   6.055
 7991SOL    HW124872   0.278   2.817   6.034
 7991SOL    HW224873   0.201   2.673   6.022
 7992SOL     OW24874   1.811   0.128   0.855
 7992SOL    HW124875   1.855   0.055   0.804
 7992SOL    HW224876   1.827   0.115   0.953
 7993SOL     OW24877   2.014   5.698   6.788
 7993SOL    HW124878   1.926   5.662   6.820
 7993SOL    HW224879   2.014   5.703   6.688
 7994SOL     OW24880   4.711   0.915   3.852
 7994SOL    HW124881   4.617   0.890   3.831
 7994SOL    HW224882   4.731   0.895   3.948
 7995SOL     OW24883   3.821   5.470   3.764
 7995SOL    HW124884   3.752   5.452   3.694
 7995SOL    HW224885   3.876   5.550   3.738
 7996SOL     OW24886   3.430   6.646   4.451
 7996SOL    HW124887   3.448   6.693   4.364
 7996SOL    HW224888   3.394   6.555   4.432
 7997SOL     OW24889   6.321   1.692   1.448
 7997SOL    HW124890   6.362   1.602   1.459
 7997SOL    HW224891   6.289   1.704   1.354
 7998SOL     OW24892   5.286   4.658   0.303
 7998SOL    HW124893   5.350   4.583   0.286
 7998SOL    HW224894   5.330   4.745   0.282
 7999SOL     OW24895   1.248   0.002   5.458
 7999SOL    HW124896   1.295   7.004   5.373
 7999SOL    HW224897   1.224   0.099   5.457
 8000SOL     OW24898   6.198   0.251   6.264
 8000SOL    HW124899   6.149   0.292   6.341
 8000SOL    HW224900   6.263   0.183   6.299
 8001SOL     OW24901   1.734   6.517   1.696
 8001SOL    HW124902   1.643   6.486   1.725
 8001SOL    HW224903   1.790   6.437   1.675
 8002SOL     OW24904   0.068   3.517   4.977
 8002SOL    HW124905   0.024   3.514   5.066
 8002SOL    HW224906   0.068   3.612   4.944
 8003SOL     OW24907   2.993   5.012   2.956
 8003SOL    HW124908   2.949   5.101   2.944
 8003SOL    HW224909   2.955   4.967   3.037
 8004SOL     OW24910   2.313   4.234   3.140
 8004SOL    HW124911   2.224   4.276   3.160
 8004SOL    HW224912   2.386   4.293   3.172
 8005SOL     OW24913   2.833   0.841   1.996
 8005SOL    HW124914   2.776   0.862   1.917
 8005SOL    HW224915   2.858   0.926   2.042
 8006SOL     OW24916   2.571   5.765   0.146
 8006SOL    HW124917   2.513   5.689   0.174
 8006SOL    HW224918   2.596   5.755   0.050
 8007SOL     OW24919   0.829   7.014   3.901
 8007SOL    HW124920   0.836   6.985   3.805
 8007SOL    HW224921   0.816   0.087   3.905
 8008SOL     OW24922   5.809   6.156   6.518
 8008SOL    HW124923   5.719   6.165   6.477
 8008SOL    HW224924   5.842   6.246   6.546
 8009SOL     OW24925   7.016   0.433   2.886
 8009SOL    HW124926   6.918   0.449   2.896
 8009SOL    HW224927   0.023   0.477   2.802
 8010SOL     OW24928   2.354   2.171   6.745
 8010SOL    HW124929   2.370   2.088   6.691
 8010SOL    HW224930   2.262   2.168   6.784
 8011SOL     OW24931   2.842   2.067   0.959
 8011SOL    HW124932   2.871   2.002   0.888
 8011SOL    HW224933   2.744   2.056   0.976
 8012SOL     OW24934   1.558   6.848   1.273
 8012SOL    HW124935   1.559   6.795   1.189
 8012SOL    HW224936   1.585   6.790   1.350
 8013SOL     OW24937   6.238   4.584   4.106
 8013SOL    HW124938   6.272   4.579   4.200
 8013SOL    HW224939   6.308   4.624   4.047
 8014SOL     OW24940   1.875   5.788   6.523
 8014SOL    HW124941   1.778   5.764   6.537
 8014SOL    HW224942   1.888   5.886   6.537
 8015SOL     OW24943   3.088   2.678   0.832
 8015SOL    HW124944   3.177   2.717   0.805
 8015SOL    HW224945   3.015   2.736   0.796
 8016SOL     OW24946   4.639   0.490   0.739
 8016SOL    HW124947   4.620   0.539   0.654
 8016SOL    HW224948   4.738   0.481   0.751
 8017SOL     OW24949   0.306   4.141   5.461
 8017SOL    HW124950   0.264   4.170   5.375
 8017SOL    HW224951   0.333   4.045   5.455
 8018SOL     OW24952   4.884   1.676   5.474
 8018SOL    HW124953   4.854   1.715   5.562
 8018SOL    HW224954   4.871   1.577   5.476
 8019SOL     OW24955   1.737   4.926   0.862
 8019SOL    HW124956   1.731   5.007   0.804
 8019SOL    HW224957   1.812   4.936   0.927
 8020SOL     OW24958   6.052   6.104   6.404
 8020SOL    HW124959   6.091   6.196   6.402
 8020SOL    HW224960   5.962   6.108   6.449
 8021SOL     OW24961   0.761   1.720   1.604
 8021SOL    HW124962   0.841   1.780   1.599
 8021SOL    HW224963   0.781   1.634   1.558
 8022SOL     OW24964   4.485   0.228   3.021
 8022SOL    HW124965   4.572   0.264   3.054
 8022SOL    HW224966   4.438   0.180   3.096
 8023SOL     OW24967   6.588   5.915   2.762
 8023SOL    HW124968   6.509   5.863   2.797
 8023SOL    HW224969   6.671   5.884   2.808
 8024SOL     OW24970   4.383   5.771   6.183
 8024SOL    HW124971   4.382   5.715   6.100
 8024SOL    HW224972   4.356   5.865   6.159
 8025SOL     OW24973   3.655   6.329   6.434
 8025SOL    HW124974   3.590   6.310   6.361
 8025SOL    HW224975   3.748   6.311   6.400
 8026SOL     OW24976   0.828   3.464   6.786
 8026SOL    HW124977   0.919   3.506   6.785
 8026SOL    HW224978   0.817   3.411   6.869
 8027SOL     OW24979   4.612   1.932   5.074
 8027SOL    HW124980   4.616   1.915   4.976
 8027SOL    HW224981   4.618   1.846   5.124
 8028SOL     OW24982   4.520   5.181   6.015
 8028SOL    HW124983   4.614   5.193   6.048
 8028SOL    HW224984   4.505   5.240   5.936
 8029SOL     OW24985   4.611   4.111   6.561
 8029SOL    HW124986   4.522   4.141   6.597
 8029SOL    HW224987   4.658   4.055   6.630
 8030SOL     OW24988   5.458   4.812   5.582
 8030SOL    HW124989   5.482   4.766   5.668
 8030SOL    HW224990   5.533   4.872   5.555
 8031SOL     OW24991   5.103   5.548   2.165
 8031SOL    HW124992   5.199   5.526   2.182
 8031SOL    HW224993   5.062   5.475   2.109
 8032SOL     OW24994   6.160   3.719   4.960
 8032SOL    HW124995   6.202   3.637   4.921
 8032SOL    HW224996   6.060   3.712   4.952
 8033SOL     OW24997   5.418   2.511   6.946
 8033SOL    HW124998   5.370   2.424   6.939
 8033SOL    HW224999   5.419   2.541   0.015
 8034SOL     OW25000   5.645   6.754   5.370
 8034SOL    HW125001   5.600   6.788   5.288
 8034SOL    HW225002   5.578   6.705   5.426
 8035SOL     OW25003   5.945   5.845   5.699
 8035SOL    HW125004   5.935   5.820   5.603
 8035SOL    HW225005   5.965   5.763   5.753
 8036SOL     OW25006   2.198   3.560   1.665
 8036SOL    HW125007   2.249   3.478   1.693
 8036SOL    HW225008   2.167   3.609   1.746
 8037SOL     OW25009   2.264   2.927   1.153
 8037SOL    HW125010   2.350   2.976   1.166
 8037SOL    HW225011   2.190   2.978   1.196
 8038SOL     OW25012   6.469   1.876   3.162
 8038SOL    HW125013   6.550   1.927   3.190
 8038SOL    HW225014   6.461   1.793   3.217
 8039SOL     OW25015   2.394   0.155   2.845
 8039SOL    HW125016   2.485   0.122   2.872
 8039SOL    HW225017   2.396   0.181   2.748
 8040SOL     OW25018   0.383   5.602   1.100
 8040SOL    HW125019   0.363   5.610   1.003
 8040SOL    HW225020   0.397   5.505   1.123
 8041SOL     OW25021   3.560   1.144   1.407
 8041SOL    HW125022   3.610   1.195   1.477
 8041SOL    HW225023   3.621   1.078   1.364
 8042SOL     OW25024   3.765   2.938   2.107
 8042SOL    HW125025   3.832   2.993   2.057
 8042SOL    HW225026   3.767   2.963   2.204
 8043SOL     OW25027   2.607   0.793   0.632
 8043SOL    HW125028   2.619   0.701   0.596
 8043SOL    HW225029   2.574   0.853   0.559
 8044SOL     OW25030   3.253   2.819   1.407
 8044SOL    HW125031   3.346   2.817   1.372
 8044SOL    HW225032   3.251   2.780   1.499
 8045SOL     OW25033   6.042   1.462   2.716
 8045SOL    HW125034   6.086   1.545   2.682
 8045SOL    HW225035   6.107   1.386   2.715
 8046SOL     OW25036   5.476   4.439   5.031
 8046SOL    HW125037   5.411   4.515   5.027
 8046SOL    HW225038   5.455   4.381   5.109
 8047SOL     OW25039   3.119   5.830   4.580
 8047SOL    HW125040   3.175   5.765   4.631
 8047SOL    HW225041   3.142   5.824   4.482
 8048SOL     OW25042   6.097   0.581   5.582
 8048SOL    HW125043   6.016   0.551   5.530
 8048SOL    HW225044   6.167   0.613   5.519
 8049SOL     OW25045   0.739   7.022   1.120
 8049SOL    HW125046   0.649   0.019   1.082
 8049SOL    HW225047   0.743   0.026   1.215
 8050SOL     OW25048   1.475   3.326   1.358
 8050SOL    HW125049   1.454   3.360   1.267
 8050SOL    HW225050   1.551   3.261   1.354
 8051SOL     OW25051   4.511   0.602   3.004
 8051SOL    HW125052   4.444   0.542   2.960
 8051SOL    HW225053   4.503   0.593   3.103
 8052SOL     OW25054   3.312   1.565   2.340
 8052SOL    HW125055   3.233   1.625   2.346
 8052SOL    HW225056   3.311   1.516   2.252
 8053SOL     OW25057   3.720   4.004   3.095
 8053SOL    HW125058   3.723   3.913   3.054
 8053SOL    HW225059   3.806   4.051   3.076
 8054SOL     OW25060   4.604   6.532   4.759
 8054SOL    HW125061   4.602   6.432   4.765
 8054SOL    HW225062   4.613   6.571   4.850
 8055SOL     OW25063   0.799   0.142   6.075
 8055SOL    HW125064   0.725   0.086   6.111
 8055SOL    HW225065   0.820   0.216   6.139
 8056SOL     OW25066   4.763   1.579   2.964
 8056SOL    HW125067   4.740   1.486   2.994
 8056SOL    HW225068   4.847   1.608   3.008
 8057SOL     OW25069   2.705   0.650   3.040
 8057SOL    HW125070   2.721   0.606   2.952
 8057SOL    HW225071   2.704   0.749   3.029
 8058SOL     OW25072   2.576   0.254   2.506
 8058SOL    HW125073   2.565   0.348   2.475
 8058SOL    HW225074   2.577   0.192   2.428
 8059SOL     OW25075   3.646   2.094   4.638
 8059SOL    HW125076   3.643   2.128   4.544
 8059SOL    HW225077   3.553   2.087   4.673
 8060SOL     OW25078   0.108   1.180   4.107
 8060SOL    HW125079   0.107   1.205   4.203
 8060SOL    HW225080   0.090   1.261   4.051
 8061SOL     OW25081   6.648   5.530   3.011
 8061SOL    HW125082   6.589   5.600   3.051
 8061SOL    HW225083   6.721   5.574   2.959
 8062SOL     OW25084   1.454   4.191   4.534
 8062SOL    HW125085   1.504   4.171   4.449
 8062SOL    HW225086   1.396   4.113   4.558
 8063SOL     OW25087   2.807   3.653   6.794
 8063SOL    HW125088   2.746   3.667   6.871
 8063SOL    HW225089   2.766   3.589   6.729
 8064SOL     OW25090   0.247   4.163   0.138
 8064SOL    HW125091   0.206   4.144   0.049
 8064SOL    HW225092   0.345   4.144   0.134
 8065SOL     OW25093   4.975   6.785   4.533
 8065SOL    HW125094   5.046   6.850   4.560
 8065SOL    HW225095   4.898   6.834   4.493
 8066SOL     OW25096   1.812   1.268   0.288
 8066SOL    HW125097   1.884   1.322   0.330
 8066SOL    HW225098   1.853   1.194   0.234
 8067SOL     OW25099   4.191   2.910   1.735
 8067SOL    HW125100   4.289   2.926   1.729
 8067SOL    HW225101   4.169   2.819   1.701
 8068SOL     OW25102   0.089   4.920   4.894
 8068SOL    HW125103   0.096   4.916   4.994
 8068SOL    HW225104   0.144   4.996   4.860
 8069SOL     OW25105   1.818   6.078   1.458
 8069SOL    HW125106   1.873   6.151   1.418
 8069SOL    HW225107   1.784   6.018   1.385
 8070SOL     OW25108   3.415   5.999   1.637
 8070SOL    HW125109   3.376   5.947   1.714
 8070SOL    HW225110   3.453   6.085   1.672
 8071SOL     OW25111   4.159   6.475   5.289
 8071SOL    HW125112   4.070   6.438   5.316
 8071SOL    HW225113   4.197   6.529   5.364
 8072SOL     OW25114   4.602   1.322   0.554
 8072SOL    HW125115   4.580   1.287   0.463
 8072SOL    HW225116   4.555   1.409   0.568
 8073SOL     OW25117   4.673   6.954   5.960
 8073SOL    HW125118   4.584   6.994   5.981
 8073SOL    HW225119   4.742   6.994   6.021
 8074SOL     OW25120   3.216   3.368   0.555
 8074SOL    HW125121   3.251   3.428   0.627
 8074SOL    HW225122   3.118   3.383   0.543
 8075SOL     OW25123   6.659   1.076   2.106
 8075SOL    HW125124   6.599   1.031   2.171
 8075SOL    HW225125   6.733   1.123   2.156
 8076SOL     OW25126   5.470   2.615   5.423
 8076SOL    HW125127   5.433   2.691   5.476
 8076SOL    HW225128   5.457   2.632   5.325
 8077SOL     OW25129   1.296   0.021   1.458
 8077SOL    HW125130   1.311   0.106   1.408
 8077SOL    HW225131   1.381   7.018   1.502
 8078SOL     OW25132   6.776   2.257   0.561
 8078SOL    HW125133   6.840   2.258   0.638
 8078SOL    HW225134   6.692   2.304   0.588
 8079SOL     OW25135   6.440   2.237   3.017
 8079SOL    HW125136   6.372   2.268   3.083
 8079SOL    HW225137   6.432   2.291   2.933
 8080SOL     OW25138   2.267   3.978   0.485
 8080SOL    HW125139   2.176   4.018   0.497
 8080SOL    HW225140   2.328   4.045   0.442
 8081SOL     OW25141   5.582   0.858   5.243
 8081SOL    HW125142   5.539   0.906   5.320
 8081SOL    HW225143   5.677   0.886   5.236
 8082SOL     OW25144   6.258   2.486   3.127
 8082SOL    HW125145   6.202   2.569   3.126
 8082SOL    HW225146   6.231   2.426   3.052
 8083SOL     OW25147   4.828   3.048   2.893
 8083SOL    HW125148   4.800   2.971   2.951
 8083SOL    HW225149   4.920   3.031   2.859
 8084SOL     OW25150   6.429   6.035   1.411
 8084SOL    HW125151   6.396   5.975   1.483
 8084SOL    HW225152   6.517   6.074   1.438
 8085SOL     OW25153   5.252   0.311   1.164
 8085SOL    HW125154   5.235   0.268   1.252
 8085SOL    HW225155   5.214   0.403   1.163
 8086SOL     OW25156   4.362   0.298   4.302
 8086SOL    HW125157   4.337   0.285   4.398
 8086SOL    HW225158   4.460   0.316   4.295
 8087SOL     OW25159   2.930   2.306   0.749
 8087SOL    HW125160   2.842   2.329   0.790
 8087SOL    HW225161   2.945   2.362   0.668
 8088SOL     OW25162   5.875   0.870   2.285
 8088SOL    HW125163   5.896   0.882   2.188
 8088SOL    HW225164   5.782   0.834   2.294
 8089SOL     OW25165   5.116   2.811   0.723
 8089SOL    HW125166   5.197   2.759   0.753
 8089SOL    HW225167   5.050   2.749   0.682
 8090SOL     OW25168   5.277   1.766   6.656
 8090SOL    HW125169   5.306   1.859   6.637
 8090SOL    HW225170   5.343   1.723   6.719
 8091SOL     OW25171   3.095   4.555   6.687
 8091SOL    HW125172   3.093   4.652   6.665
 8091SOL    HW225173   3.189   4.522   6.688
 8092SOL     OW25174   1.164   1.671   4.989
 8092SOL    HW125175   1.119   1.608   5.053
 8092SOL    HW225176   1.262   1.653   4.988
 8093SOL     OW25177   5.472   5.420   1.683
 8093SOL    HW125178   5.473   5.512   1.720
 8093SOL    HW225179   5.537   5.363   1.733
 8094SOL     OW25180   1.085   4.467   6.615
 8094SOL    HW125181   1.022   4.544   6.630
 8094SOL    HW225182   1.164   4.477   6.675
 8095SOL     OW25183   5.436   3.312   4.175
 8095SOL    HW125184   5.342   3.320   4.144
 8095SOL    HW225185   5.486   3.251   4.113
 8096SOL     OW25186   3.165   5.627   2.102
 8096SOL    HW125187   3.128   5.570   2.028
 8096SOL    HW225188   3.210   5.569   2.169
 8097SOL     OW25189   5.313   0.372   3.205
 8097SOL    HW125190   5.291   0.426   3.123
 8097SOL    HW225191   5.294   0.427   3.287
 8098SOL     OW25192   2.648   6.104   4.090
 8098SOL    HW125193   2.684   6.017   4.056
 8098SOL    HW225194   2.588   6.087   4.169
 8099SOL     OW25195   5.403   6.752   4.851
 8099SOL    HW125196   5.325   6.810   4.831
 8099SOL    HW225197   5.475   6.768   4.783
 8100SOL     OW25198   0.021   6.832   0.429
 8100SOL    HW125199   7.003   6.766   0.490
 8100SOL    HW225200   6.983   6.855   0.355
 8101SOL     OW25201   1.499   0.306   4.568
 8101SOL    HW125202   1.418   0.256   4.538
 8101SOL    HW225203   1.520   0.282   4.662
 8102SOL     OW25204   0.313   5.071   6.013
 8102SOL    HW125205   0.301   5.015   6.095
 8102SOL    HW225206   0.410   5.077   5.991
 8103SOL     OW25207   3.885   1.193   2.296
 8103SOL    HW125208   3.984   1.189   2.305
 8103SOL    HW225209   3.859   1.272   2.241
 8104SOL     OW25210   3.013   6.604   5.542
 8104SOL    HW125211   3.112   6.591   5.551
 8104SOL    HW225212   2.989   6.695   5.573
 8105SOL     OW25213   2.678   2.414   3.622
 8105SOL    HW125214   2.664   2.321   3.587
 8105SOL    HW225215   2.746   2.461   3.567
 8106SOL     OW25216   1.475   4.126   3.501
 8106SOL    HW125217   1.534   4.045   3.507
 8106SOL    HW225218   1.390   4.102   3.453
 8107SOL     OW25219   1.865   6.570   5.857
 8107SOL    HW125220   1.927   6.521   5.796
 8107SOL    HW225221   1.791   6.610   5.805
 8108SOL     OW25222   6.903   3.844   4.423
 8108SOL    HW125223   6.906   3.747   4.402
 8108SOL    HW225224   6.912   3.857   4.522
 8109SOL     OW25225   1.847   4.468   5.221
 8109SOL    HW125226   1.899   4.384   5.240
 8109SOL    HW225227   1.751   4.453   5.242
 8110SOL     OW25228   2.158   7.008   0.481
 8110SOL    HW125229   2.255   7.007   0.461
 8110SOL    HW225230   2.126   0.076   0.486
 8111SOL     OW25231   2.592   6.068   4.880
 8111SOL    HW125232   2.644   6.113   4.807
 8111SOL    HW225233   2.647   5.996   4.921
 8112SOL     OW25234   3.052   0.499   5.658
 8112SOL    HW125235   3.049   0.415   5.604
 8112SOL    HW225236   3.076   0.476   5.753
 8113SOL     OW25237   3.503   2.329   0.162
 8113SOL    HW125238   3.564   2.264   0.117
 8113SOL    HW225239   3.523   2.331   0.260
 8114SOL     OW25240   2.061   3.086   2.333
 8114SOL    HW125241   2.122   3.033   2.391
 8114SOL    HW225242   2.098   3.090   2.240
 8115SOL     OW25243   3.200   1.335   1.441
 8115SOL    HW125244   3.181   1.414   1.381
 8115SOL    HW225245   3.281   1.354   1.496
 8116SOL     OW25246   6.088   6.749   5.404
 8116SOL    HW125247   6.158   6.761   5.334
 8116SOL    HW225248   6.043   6.836   5.422
 8117SOL     OW25249   1.311   1.918   4.307
 8117SOL    HW125250   1.295   1.830   4.352
 8117SOL    HW225251   1.289   1.992   4.370
 8118SOL     OW25252   1.136   4.456   5.405
 8118SOL    HW125253   1.220   4.447   5.459
 8118SOL    HW225254   1.116   4.552   5.390
 8119SOL     OW25255   0.456   5.550   3.585
 8119SOL    HW125256   0.387   5.479   3.598
 8119SOL    HW225257   0.534   5.533   3.645
 8120SOL     OW25258   4.403   4.752   0.591
 8120SOL    HW125259   4.461   4.674   0.616
 8120SOL    HW225260   4.350   4.781   0.671
 8121SOL     OW25261   0.208   6.960   2.690
 8121SOL    HW125262   0.179   7.014   2.769
 8121SOL    HW225263   0.245   6.872   2.722
 8122SOL     OW25264   0.413   6.022   1.674
 8122SOL    HW125265   0.393   5.948   1.738
 8122SOL    HW225266   0.461   6.096   1.722
 8123SOL     OW25267   0.780   6.756   6.363
 8123SOL    HW125268   0.751   6.696   6.438
 8123SOL    HW225269   0.754   6.715   6.276
 8124SOL     OW25270   1.468   5.484   1.487
 8124SOL    HW125271   1.465   5.481   1.587
 8124SOL    HW225272   1.554   5.446   1.455
 8125SOL     OW25273   6.263   4.595   2.787
 8125SOL    HW125274   6.225   4.503   2.787
 8125SOL    HW225275   6.244   4.640   2.874
 8126SOL     OW25276   6.059   4.407   2.810
 8126SOL    HW125277   5.993   4.482   2.805
 8126SOL    HW225278   6.036   4.348   2.888
 8127SOL     OW25279   2.298   5.048   0.583
 8127SOL    HW125280   2.348   4.966   0.554
 8127SOL    HW225281   2.229   5.071   0.514
 8128SOL     OW25282   3.300   2.594   6.248
 8128SOL    HW125283   3.267   2.569   6.157
 8128SOL    HW225284   3.272   2.688   6.269
 8129SOL     OW25285   5.436   0.773   6.692
 8129SOL    HW125286   5.430   0.786   6.593
 8129SOL    HW225287   5.499   0.840   6.730
 8130SOL     OW25288   0.964   5.318   6.710
 8130SOL    HW125289   0.900   5.256   6.665
 8130SOL    HW225290   0.949   5.411   6.677
 8131SOL     OW25291   3.434   0.192   0.108
 8131SOL    HW125292   3.425   0.291   0.111
 8131SOL    HW225293   3.392   0.151   0.189
 8132SOL     OW25294   6.033   5.028   4.354
 8132SOL    HW125295   6.029   5.056   4.258
 8132SOL    HW225296   6.052   4.930   4.359
 8133SOL     OW25297   2.979   5.208   3.244
 8133SOL    HW125298   3.022   5.141   3.305
 8133SOL    HW225299   3.049   5.258   3.194
 8134SOL     OW25300   2.344   2.475   4.090
 8134SOL    HW125301   2.439   2.471   4.059
 8134SOL    HW225302   2.309   2.382   4.101
 8135SOL     OW25303   3.820   5.384   2.114
 8135SOL    HW125304   3.859   5.418   2.199
 8135SOL    HW225305   3.759   5.307   2.133
 8136SOL     OW25306   3.986   5.788   2.335
 8136SOL    HW125307   4.065   5.798   2.274
 8136SOL    HW225308   4.018   5.788   2.430
 8137SOL     OW25309   1.848   3.631   5.123
 8137SOL    HW125310   1.933   3.684   5.117
 8137SOL    HW225311   1.793   3.646   5.041
 8138SOL     OW25312   5.463   1.743   1.994
 8138SOL    HW125313   5.557   1.709   1.989
 8138SOL    HW225314   5.460   1.836   1.958
 8139SOL     OW25315   1.092   3.012   3.266
 8139SOL    HW125316   0.993   3.008   3.257
 8139SOL    HW225317   1.123   3.107   3.259
 8140SOL     OW25318   4.824   0.180   0.396
 8140SOL    HW125319   4.847   0.248   0.326
 8140SOL    HW225320   4.727   0.156   0.389
 8141SOL     OW25321   4.991   1.083   6.177
 8141SOL    HW125322   4.905   1.085   6.228
 8141SOL    HW225323   5.059   1.138   6.225
 8142SOL     OW25324   1.941   5.972   0.165
 8142SOL    HW125325   1.882   5.893   0.148
 8142SOL    HW225326   2.001   5.986   0.086
 8143SOL     OW25327   5.035   4.207   0.742
 8143SOL    HW125328   5.134   4.218   0.734
 8143SOL    HW225329   4.991   4.296   0.735
 8144SOL     OW25330   0.534   5.204   5.923
 8144SOL    HW125331   0.625   5.170   5.899
 8144SOL    HW225332   0.536   5.304   5.928
 8145SOL     OW25333   5.833   5.567   0.103
 8145SOL    HW125334   5.918   5.599   0.145
 8145SOL    HW225335   5.844   5.473   0.071
 8146SOL     OW25336   6.108   0.012   4.366
 8146SOL    HW125337   6.120   6.998   4.457
 8146SOL    HW225338   6.095   0.111   4.374
 8147SOL     OW25339   1.055   0.757   5.984
 8147SOL    HW125340   1.076   0.731   5.890
 8147SOL    HW225341   1.125   0.720   6.046
 8148SOL     OW25342   3.990   4.483   6.471
 8148SOL    HW125343   4.041   4.401   6.497
 8148SOL    HW225344   3.935   4.515   6.549
 8149SOL     OW25345   1.353   0.087   4.468
 8149SOL    HW125346   1.281   0.025   4.439
 8149SOL    HW225347   1.411   0.042   4.536
 8150SOL     OW25348   0.952   3.360   0.917
 8150SOL    HW125349   1.045   3.375   0.952
 8150SOL    HW225350   0.939   3.262   0.901
 8151SOL     OW25351   6.072   4.409   3.852
 8151SOL    HW125352   6.147   4.392   3.915
 8151SOL    HW225353   6.103   4.470   3.779
 8152SOL     OW25354   4.468   1.778   3.353
 8152SOL    HW125355   4.390   1.839   3.338
 8152SOL    HW225356   4.549   1.833   3.374
 8153SOL     OW25357   0.483   1.338   3.595
 8153SOL    HW125358   0.577   1.335   3.562
 8153SOL    HW225359   0.482   1.339   3.695
 8154SOL     OW25360   2.294   2.026   3.667
 8154SOL    HW125361   2.279   1.938   3.712
 8154SOL    HW225362   2.212   2.053   3.617
 8155SOL     OW25363   1.731   4.393   2.127
 8155SOL    HW125364   1.681   4.479   2.138
 8155SOL    HW225365   1.674   4.328   2.076
 8156SOL     OW25366   6.351   5.179   1.243
 8156SOL    HW125367   6.400   5.104   1.288
 8156SOL    HW225368   6.255   5.154   1.230
 8157SOL     OW25369   6.413   2.885   6.302
 8157SOL    HW125370   6.495   2.873   6.246
 8157SOL    HW225371   6.419   2.971   6.353
 8158SOL     OW25372   6.000   4.732   5.840
 8158SOL    HW125373   5.940   4.737   5.760
 8158SOL    HW225374   6.092   4.706   5.812
 8159SOL     OW25375   3.550   6.003   5.978
 8159SOL    HW125376   3.495   5.999   6.061
 8159SOL    HW225377   3.645   5.979   6.000
 8160SOL     OW25378   5.407   1.790   3.163
 8160SOL    HW125379   5.442   1.735   3.239
 8160SOL    HW225380   5.475   1.859   3.137
 8161SOL     OW25381   5.784   3.258   0.279
 8161SOL    HW125382   5.736   3.292   0.359
 8161SOL    HW225383   5.732   3.281   0.196
 8162SOL     OW25384   0.375   5.127   6.730
 8162SOL    HW125385   0.286   5.081   6.738
 8162SOL    HW225386   0.362   5.221   6.701
 8163SOL     OW25387   4.393   4.655   5.406
 8163SOL    HW125388   4.482   4.611   5.403
 8163SOL    HW225389   4.386   4.710   5.489
 8164SOL     OW25390   5.590   0.808   0.171
 8164SOL    HW125391   5.637   0.851   0.095
 8164SOL    HW225392   5.510   0.759   0.138
 8165SOL     OW25393   6.683   2.215   6.161
 8165SOL    HW125394   6.667   2.217   6.260
 8165SOL    HW225395   6.628   2.285   6.116
 8166SOL     OW25396   1.735   2.162   4.568
 8166SOL    HW125397   1.756   2.152   4.471
 8166SOL    HW225398   1.645   2.122   4.586
 8167SOL     OW25399   6.655   1.419   4.005
 8167SOL    HW125400   6.575   1.378   3.960
 8167SOL    HW225401   6.706   1.474   3.939
 8168SOL     OW25402   2.500   0.661   1.262
 8168SOL    HW125403   2.479   0.747   1.216
 8168SOL    HW225404   2.452   0.585   1.216
 8169SOL     OW25405   5.289   2.352   0.692
 8169SOL    HW125406   5.303   2.381   0.786
 8169SOL    HW225407   5.311   2.255   0.683
 8170SOL     OW25408   6.457   4.080   2.159
 8170SOL    HW125409   6.524   4.046   2.225
 8170SOL    HW225410   6.433   4.007   2.095
 8171SOL     OW25411   1.589   1.539   6.974
 8171SOL    HW125412   1.646   1.473   7.024
 8171SOL    HW225413   1.528   1.489   6.912
 8172SOL     OW25414   0.826   2.447   1.852
 8172SOL    HW125415   0.864   2.430   1.943
 8172SOL    HW225416   0.778   2.365   1.820
 8173SOL     OW25417   5.594   2.035   2.188
 8173SOL    HW125418   5.535   1.969   2.232
 8173SOL    HW225419   5.668   1.988   2.140
 8174SOL     OW25420   1.578   6.035   2.838
 8174SOL    HW125421   1.652   5.998   2.782
 8174SOL    HW225422   1.521   6.096   2.783
 8175SOL     OW25423   0.813   2.826   4.375
 8175SOL    HW125424   0.843   2.802   4.467
 8175SOL    HW225425   0.717   2.799   4.362
 8176SOL     OW25426   1.654   4.595   1.448
 8176SOL    HW125427   1.662   4.507   1.496
 8176SOL    HW225428   1.568   4.597   1.397
 8177SOL     OW25429   3.687   1.275   2.599
 8177SOL    HW125430   3.763   1.210   2.607
 8177SOL    HW225431   3.685   1.334   2.680
 8178SOL     OW25432   2.532   6.811   0.613
 8178SOL    HW125433   2.455   6.763   0.654
 8178SOL    HW225434   2.617   6.762   0.635
 8179SOL     OW25435   5.291   1.044   3.833
 8179SOL    HW125436   5.216   1.038   3.767
 8179SOL    HW225437   5.278   1.126   3.890
 8180SOL     OW25438   5.888   6.492   6.869
 8180SOL    HW125439   5.944   6.573   6.855
 8180SOL    HW225440   5.942   6.410   6.847
 8181SOL     OW25441   1.012   1.043   1.297
 8181SOL    HW125442   1.061   1.119   1.340
 8181SOL    HW225443   1.020   0.961   1.355
 8182SOL     OW25444   3.129   3.810   5.088
 8182SOL    HW125445   3.051   3.865   5.058
 8182SOL    HW225446   3.211   3.840   5.040
 8183SOL     OW25447   6.550   0.580   4.952
 8183SOL    HW125448   6.563   0.538   4.863
 8183SOL    HW225449   6.569   0.513   5.024
 8184SOL     OW25450   0.744   6.527   6.810
 8184SOL    HW125451   0.785   6.437   6.790
 8184SOL    HW225452   0.813   6.586   6.852
 8185SOL     OW25453   1.003   0.343   0.545
 8185SOL    HW125454   0.931   0.284   0.582
 8185SOL    HW225455   0.991   0.436   0.579
 8186SOL     OW25456   1.632   5.418   6.676
 8186SOL    HW125457   1.593   5.429   6.585
 8186SOL    HW225458   1.590   5.339   6.721
 8187SOL     OW25459   1.801   1.405   4.957
 8187SOL    HW125460   1.821   1.325   4.901
 8187SOL    HW225461   1.883   1.433   5.006
 8188SOL     OW25462   3.839   2.048   3.722
 8188SOL    HW125463   3.823   2.126   3.661
 8188SOL    HW225464   3.756   2.029   3.773
 8189SOL     OW25465   4.545   4.598   3.824
 8189SOL    HW125466   4.544   4.696   3.842
 8189SOL    HW225467   4.527   4.582   3.727
 8190SOL     OW25468   5.204   3.404   2.950
 8190SOL    HW125469   5.285   3.365   2.906
 8190SOL    HW225470   5.130   3.337   2.949
 8191SOL     OW25471   4.400   4.966   1.786
 8191SOL    HW125472   4.451   4.927   1.863
 8191SOL    HW225473   4.348   4.894   1.740
 8192SOL     OW25474   1.751   5.150   3.402
 8192SOL    HW125475   1.788   5.124   3.313
 8192SOL    HW225476   1.658   5.116   3.410
 8193SOL     OW25477   6.994   5.193   5.010
 8193SOL    HW125478   6.910   5.215   4.959
 8193SOL    HW225479   0.046   5.238   4.966
 8194SOL     OW25480   4.332   6.891   1.472
 8194SOL    HW125481   4.272   6.966   1.500
 8194SOL    HW225482   4.394   6.869   1.547
 8195SOL     OW25483   6.131   6.583   3.511
 8195SOL    HW125484   6.096   6.515   3.447
 8195SOL    HW225485   6.230   6.573   3.519
 8196SOL     OW25486   5.052   1.077   0.409
 8196SOL    HW125487   5.120   1.140   0.373
 8196SOL    HW225488   4.977   1.130   0.451
 8197SOL     OW25489   4.506   1.641   1.256
 8197SOL    HW125490   4.467   1.551   1.231
 8197SOL    HW225491   4.497   1.703   1.178
 8198SOL     OW25492   2.499   0.358   1.791
 8198SOL    HW125493   2.599   0.360   1.799
 8198SOL    HW225494   2.459   0.413   1.864
 8199SOL     OW25495   5.159   2.708   5.998
 8199SOL    HW125496   5.117   2.798   6.001
 8199SOL    HW225497   5.089   2.639   5.980
 8200SOL     OW25498   5.687   4.078   1.146
 8200SOL    HW125499   5.713   4.003   1.084
 8200SOL    HW225500   5.686   4.164   1.095
 8201SOL     OW25501   0.187   0.494   5.462
 8201SOL    HW125502   0.258   0.561   5.482
 8201SOL    HW225503   0.098   0.538   5.464
 8202SOL     OW25504   0.061   6.056   1.991
 8202SOL    HW125505   0.070   6.146   1.950
 8202SOL    HW225506   0.148   6.028   2.031
 8203SOL     OW25507   1.800   2.914   0.393
 8203SOL    HW125508   1.720   2.898   0.450
 8203SOL    HW225509   1.845   2.827   0.373
 8204SOL     OW25510   4.440   3.618   0.875
 8204SOL    HW125511   4.523   3.570   0.846
 8204SOL    HW225512   4.437   3.622   0.975
 8205SOL     OW25513   0.628   2.838   0.479
 8205SOL    HW125514   0.689   2.901   0.431
 8205SOL    HW225515   0.542   2.885   0.501
 8206SOL     OW25516   4.303   1.455   0.179
 8206SOL    HW125517   4.244   1.386   0.220
 8206SOL    HW225518   4.368   1.489   0.247
 8207SOL     OW25519   3.629   2.995   4.439
 8207SOL    HW125520   3.601   3.091   4.446
 8207SOL    HW225521   3.712   2.981   4.492
 8208SOL     OW25522   1.101   1.016   0.217
 8208SOL    HW125523   1.155   1.100   0.220
 8208SOL    HW225524   1.014   1.035   0.170
 8209SOL     OW25525   0.162   0.737   5.200
 8209SOL    HW125526   0.151   0.749   5.298
 8209SOL    HW225527   0.072   0.738   5.156
 8210SOL     OW25528   1.960   3.001   6.923
 8210SOL    HW125529   1.909   3.073   6.876
 8210SOL    HW225530   1.906   2.916   6.920
 8211SOL     OW25531   3.453   3.891   1.290
 8211SOL    HW125532   3.438   3.989   1.294
 8211SOL    HW225533   3.392   3.845   1.355
 8212SOL     OW25534   1.769   2.466   3.121
 8212SOL    HW125535   1.803   2.395   3.059
 8212SOL    HW225536   1.672   2.448   3.141
 8213SOL     OW25537   0.460   5.203   1.977
 8213SOL    HW125538   0.374   5.247   2.001
 8213SOL    HW225539   0.467   5.116   2.024
 8214SOL     OW25540   5.654   4.786   3.045
 8214SOL    HW125541   5.598   4.830   2.975
 8214SOL    HW225542   5.625   4.818   3.136
 8215SOL     OW25543   3.419   5.256   4.551
 8215SOL    HW125544   3.396   5.199   4.629
 8215SOL    HW225545   3.373   5.221   4.469
 8216SOL     OW25546   4.862   4.973   4.160
 8216SOL    HW125547   4.774   4.983   4.113
 8216SOL    HW225548   4.932   4.947   4.094
 8217SOL     OW25549   1.974   5.003   0.969
 8217SOL    HW125550   2.051   5.046   1.016
 8217SOL    HW225551   1.935   5.067   0.902
 8218SOL     OW25552   0.730   2.049   0.009
 8218SOL    HW125553   0.677   2.132   7.014
 8218SOL    HW225554   0.746   2.044   0.108
 8219SOL     OW25555   4.648   2.505   0.882
 8219SOL    HW125556   4.560   2.541   0.852
 8219SOL    HW225557   4.689   2.451   0.807
 8220SOL     OW25558   3.824   3.274   2.916
 8220SOL    HW125559   3.869   3.284   2.827
 8220SOL    HW225560   3.890   3.242   2.983
 8221SOL     OW25561   4.502   6.122   4.391
 8221SOL    HW125562   4.456   6.049   4.341
 8221SOL    HW225563   4.582   6.152   4.340
 8222SOL     OW25564   5.094   1.486   1.996
 8222SOL    HW125565   5.128   1.503   2.089
 8222SOL    HW225566   5.117   1.564   1.938
 8223SOL     OW25567   0.314   4.707   5.862
 8223SOL    HW125568   0.331   4.805   5.852
 8223SOL    HW225569   0.331   4.661   5.775
 8224SOL     OW25570   1.417   2.687   3.507
 8224SOL    HW125571   1.411   2.649   3.414
 8224SOL    HW225572   1.345   2.755   3.520
 8225SOL     OW25573   4.902   0.964   0.181
 8225SOL    HW125574   4.975   1.018   0.224
 8225SOL    HW225575   4.911   0.971   0.081
 8226SOL     OW25576   5.137   0.273   1.745
 8226SOL    HW125577   5.206   0.212   1.707
 8226SOL    HW225578   5.159   0.295   1.840
 8227SOL     OW25579   0.147   2.459   3.940
 8227SOL    HW125580   0.194   2.372   3.958
 8227SOL    HW225581   0.105   2.492   4.024
 8228SOL     OW25582   0.336   2.610   5.414
 8228SOL    HW125583   0.262   2.677   5.421
 8228SOL    HW225584   0.352   2.569   5.504
 8229SOL     OW25585   3.177   5.543   0.359
 8229SOL    HW125586   3.245   5.594   0.411
 8229SOL    HW225587   3.094   5.532   0.414
 8230SOL     OW25588   5.338   0.003   5.655
 8230SOL    HW125589   5.358   0.084   5.600
 8230SOL    HW225590   5.239   7.022   5.669
 8231SOL     OW25591   4.679   6.045   1.619
 8231SOL    HW125592   4.758   6.097   1.651
 8231SOL    HW225593   4.671   5.960   1.671
 8232SOL     OW25594   4.428   1.618   0.377
 8232SOL    HW125595   4.367   1.697   0.374
 8232SOL    HW225596   4.425   1.577   0.468
 8233SOL     OW25597   0.745   5.493   6.267
 8233SOL    HW125598   0.786   5.484   6.176
 8233SOL    HW225599   0.812   5.535   6.329
 8234SOL     OW25600   2.689   2.635   7.010
 8234SOL    HW125601   2.648   2.602   0.069
 8234SOL    HW225602   2.616   2.666   6.948
 8235SOL     OW25603   2.615   3.137   0.649
 8235SOL    HW125604   2.526   3.162   0.612
 8235SOL    HW225605   2.606   3.109   0.744
 8236SOL     OW25606   6.988   3.814   6.748
 8236SOL    HW125607   6.890   3.811   6.768
 8236SOL    HW225608   7.008   3.895   6.693
 8237SOL     OW25609   4.797   5.925   5.091
 8237SOL    HW125610   4.843   5.841   5.062
 8237SOL    HW225611   4.866   5.993   5.117
 8238SOL     OW25612   1.611   4.064   0.399
 8238SOL    HW125613   1.569   4.004   0.466
 8238SOL    HW225614   1.545   4.086   0.327
 8239SOL     OW25615   6.272   2.096   5.805
 8239SOL    HW125616   6.258   2.094   5.904
 8239SOL    HW225617   6.265   2.004   5.768
 8240SOL     OW25618   3.764   3.615   2.555
 8240SOL    HW125619   3.854   3.582   2.525
 8240SOL    HW225620   3.772   3.653   2.647
 8241SOL     OW25621   3.023   6.754   0.586
 8241SOL    HW125622   3.106   6.699   0.576
 8241SOL    HW225623   3.018   6.822   0.513
 8242SOL     OW25624   0.891   4.491   5.620
 8242SOL    HW125625   0.970   4.501   5.560
 8242SOL    HW225626   0.808   4.483   5.566
 8243SOL     OW25627   0.806   3.211   6.156
 8243SOL    HW125628   0.862   3.214   6.074
 8243SOL    HW225629   0.740   3.136   6.149
 8244SOL     OW25630   0.926   6.682   3.767
 8244SOL    HW125631   1.016   6.699   3.808
 8244SOL    HW225632   0.925   6.719   3.674
 8245SOL     OW25633   4.277   1.512   2.229
 8245SOL    HW125634   4.322   1.538   2.314
 8245SOL    HW225635   4.292   1.415   2.211
 8246SOL     OW25636   6.777   4.344   5.653
 8246SOL    HW125637   6.831   4.376   5.731
 8246SOL    HW225638   6.736   4.256   5.675
 8247SOL     OW25639   1.200   1.626   1.126
 8247SOL    HW125640   1.298   1.625   1.107
 8247SOL    HW225641   1.155   1.552   1.075
 8248SOL     OW25642   6.217   4.646   3.759
 8248SOL    HW125643   6.166   4.719   3.714
 8248SOL    HW225644   6.264   4.683   3.839
 8249SOL     OW25645   1.962   4.070   4.766
 8249SOL    HW125646   1.879   4.053   4.714
 8249SOL    HW225647   2.019   3.987   4.767
 8250SOL     OW25648   3.401   3.929   2.801
 8250SOL    HW125649   3.466   3.999   2.772
 8250SOL    HW225650   3.309   3.953   2.771
 8251SOL     OW25651   5.560   2.416   5.056
 8251SOL    HW125652   5.494   2.342   5.045
 8251SOL    HW225653   5.652   2.381   5.038
 8252SOL     OW25654   3.142   3.406   6.614
 8252SOL    HW125655   3.162   3.504   6.604
 8252SOL    HW225656   3.088   3.392   6.696
 8253SOL     OW25657   3.666   3.120   5.347
 8253SOL    HW125658   3.616   3.091   5.265
 8253SOL    HW225659   3.743   3.178   5.321
 8254SOL     OW25660   4.276   4.737   4.461
 8254SOL    HW125661   4.315   4.809   4.518
 8254SOL    HW225662   4.334   4.655   4.466
 8255SOL     OW25663   3.523   6.230   4.556
 8255SOL    HW125664   3.611   6.279   4.556
 8255SOL    HW225665   3.538   6.134   4.579
 8256SOL     OW25666   6.400   0.076   3.233
 8256SOL    HW125667   6.335   0.012   3.191
 8256SOL    HW225668   6.485   0.075   3.182
 8257SOL     OW25669   6.267   4.762   3.293
 8257SOL    HW125670   6.339   4.798   3.234
 8257SOL    HW225671   6.307   4.716   3.372
 8258SOL     OW25672   4.653   1.676   0.785
 8258SOL    HW125673   4.737   1.689   0.733
 8258SOL    HW225674   4.662   1.721   0.874
 8259SOL     OW25675   4.193   1.669   3.705
 8259SOL    HW125676   4.267   1.641   3.644
 8259SOL    HW225677   4.230   1.726   3.778
 8260SOL     OW25678   2.706   0.174   1.409
 8260SOL    HW125679   2.639   0.163   1.482
 8260SOL    HW225680   2.697   0.264   1.367
 8261SOL     OW25681   5.651   1.175   1.559
 8261SOL    HW125682   5.669   1.109   1.631
 8261SOL    HW225683   5.719   1.248   1.562
 8262SOL     OW25684   0.495   2.232   0.931
 8262SOL    HW125685   0.556   2.311   0.937
 8262SOL    HW225686   0.549   2.150   0.912
 8263SOL     OW25687   0.502   2.456   0.578
 8263SOL    HW125688   0.423   2.396   0.585
 8263SOL    HW225689   0.530   2.463   0.482
 8264SOL     OW25690   1.169   5.743   2.187
 8264SOL    HW125691   1.171   5.782   2.279
 8264SOL    HW225692   1.223   5.659   2.185
 8265SOL     OW25693   1.513   6.949   1.552
 8265SOL    HW125694   1.544   6.856   1.536
 8265SOL    HW225695   1.571   6.992   1.621
 8266SOL     OW25696   2.195   0.258   3.043
 8266SOL    HW125697   2.282   0.221   3.011
 8266SOL    HW225698   2.204   0.356   3.056
 8267SOL     OW25699   2.196   3.407   1.235
 8267SOL    HW125700   2.194   3.385   1.138
 8267SOL    HW225701   2.202   3.323   1.288
 8268SOL     OW25702   2.206   6.440   6.501
 8268SOL    HW125703   2.183   6.364   6.563
 8268SOL    HW225704   2.195   6.410   6.406
 8269SOL     OW25705   5.849   1.623   1.342
 8269SOL    HW125706   5.924   1.579   1.293
 8269SOL    HW225707   5.838   1.717   1.310
 8270SOL     OW25708   2.493   0.008   4.713
 8270SOL    HW125709   2.527   6.942   4.736
 8270SOL    HW225710   2.537   0.040   4.629
 8271SOL     OW25711   6.915   0.671   2.259
 8271SOL    HW125712   6.987   0.613   2.221
 8271SOL    HW225713   6.880   0.732   2.187
 8272SOL     OW25714   5.160   0.675   1.458
 8272SOL    HW125715   5.113   0.689   1.546
 8272SOL    HW225716   5.247   0.724   1.459
 8273SOL     OW25717   1.620   6.148   1.014
 8273SOL    HW125718   1.710   6.116   0.985
 8273SOL    HW225719   1.600   6.114   1.106
 8274SOL     OW25720   4.724   4.906   3.617
 8274SOL    HW125721   4.627   4.899   3.596
 8274SOL    HW225722   4.762   4.814   3.625
 8275SOL     OW25723   4.358   1.687   6.217
 8275SOL    HW125724   4.298   1.729   6.285
 8275SOL    HW225725   4.337   1.589   6.210
 8276SOL     OW25726   1.191   2.220   4.076
 8276SOL    HW125727   1.225   2.131   4.047
 8276SOL    HW225728   1.267   2.286   4.078
 8277SOL     OW25729   0.681   0.543   6.797
 8277SOL    HW125730   0.684   0.488   6.880
 8277SOL    HW225731   0.639   0.631   6.817
 8278SOL     OW25732   2.495   2.419   6.688
 8278SOL    HW125733   2.554   2.403   6.767
 8278SOL    HW225734   2.451   2.334   6.661
 8279SOL     OW25735   1.029   0.138   4.353
 8279SOL    HW125736   1.028   0.061   4.290
 8279SOL    HW225737   0.980   0.215   4.313
 8280SOL     OW25738   2.798   3.376   0.386
 8280SOL    HW125739   2.850   3.300   0.423
 8280SOL    HW225740   2.702   3.349   0.375
 8281SOL     OW25741   1.167   5.702   1.689
 8281SOL    HW125742   1.108   5.767   1.736
 8281SOL    HW225743   1.232   5.752   1.632
 8282SOL     OW25744   5.774   3.513   6.278
 8282SOL    HW125745   5.838   3.547   6.348
 8282SOL    HW225746   5.724   3.590   6.238
 8283SOL     OW25747   0.927   4.698   6.614
 8283SOL    HW125748   0.967   4.761   6.548
 8283SOL    HW225749   0.837   4.669   6.581
 8284SOL     OW25750   0.787   3.627   1.587
 8284SOL    HW125751   0.738   3.695   1.533
 8284SOL    HW225752   0.776   3.648   1.684
 8285SOL     OW25753   3.892   3.280   5.393
 8285SOL    HW125754   3.919   3.223   5.471
 8285SOL    HW225755   3.971   3.296   5.334
 8286SOL     OW25756   5.619   3.144   6.343
 8286SOL    HW125757   5.691   3.128   6.411
 8286SOL    HW225758   5.661   3.157   6.253
 8287SOL     OW25759   1.503   5.354   4.536
 8287SOL    HW125760   1.572   5.283   4.553
 8287SOL    HW225761   1.512   5.386   4.441
 8288SOL     OW25762   3.011   2.206   2.573
 8288SOL    HW125763   3.001   2.268   2.495
 8288SOL    HW225764   3.107   2.183   2.585
 8289SOL     OW25765   0.480   0.156   1.476
 8289SOL    HW125766   0.474   0.184   1.572
 8289SOL    HW225767   0.392   0.119   1.447
 8290SOL     OW25768   6.264   1.341   6.739
 8290SOL    HW125769   6.312   1.322   6.824
 8290SOL    HW225770   6.327   1.380   6.672
 8291SOL     OW25771   5.258   6.815   0.060
 8291SOL    HW125772   5.291   6.861   0.143
 8291SOL    HW225773   5.212   6.730   0.085
 8292SOL     OW25774   2.467   6.674   0.069
 8292SOL    HW125775   2.523   6.597   0.039
 8292SOL    HW225776   2.525   6.752   0.091
 8293SOL     OW25777   3.586   6.963   0.166
 8293SOL    HW125778   3.538   0.025   0.158
 8293SOL    HW225779   3.520   6.889   0.173
 8294SOL     OW25780   5.725   4.075   5.214
 8294SOL    HW125781   5.734   4.151   5.279
 8294SOL    HW225782   5.666   4.103   5.139
 8295SOL     OW25783   5.223   5.225   1.919
 8295SOL    HW125784   5.150   5.203   1.985
 8295SOL    HW225785   5.307   5.178   1.947
 8296SOL     OW25786   1.773   6.876   6.034
 8296SOL    HW125787   1.790   6.806   6.103
 8296SOL    HW225788   1.720   6.836   5.959
 8297SOL     OW25789   6.217   2.568   2.759
 8297SOL    HW125790   6.177   2.521   2.680
 8297SOL    HW225791   6.290   2.512   2.798
 8298SOL     OW25792   5.741   1.724   1.656
 8298SOL    HW125793   5.677   1.760   1.724
 8298SOL    HW225794   5.689   1.683   1.581
 8299SOL     OW25795   6.892   2.797   2.337
 8299SOL    HW125796   6.948   2.879   2.327
 8299SOL    HW225797   6.799   2.823   2.364
 8300SOL     OW25798   0.986   5.633   6.056
 8300SOL    HW125799   0.915   5.582   6.009
 8300SOL    HW225800   1.072   5.583   6.052
 8301SOL     OW25801   3.865   1.291   1.150
 8301SOL    HW125802   3.827   1.218   1.207
 8301SOL    HW225803   3.924   1.251   1.080
 8302SOL     OW25804   6.232   5.779   5.588
 8302SOL    HW125805   6.273   5.709   5.646
 8302SOL    HW225806   6.161   5.738   5.531
 8303SOL     OW25807   6.561   0.275   3.895
 8303SOL    HW125808   6.527   0.332   3.969
 8303SOL    HW225809   6.660   0.263   3.903
 8304SOL     OW25810   1.369   3.652   6.745
 8304SOL    HW125811   1.413   3.609   6.666
 8304SOL    HW225812   1.392   3.749   6.748
 8305SOL     OW25813   3.201   4.923   4.378
 8305SOL    HW125814   3.284   4.894   4.426
 8305SOL    HW225815   3.206   4.893   4.282
 8306SOL     OW25816   0.422   2.911   4.962
 8306SOL    HW125817   0.413   2.819   4.924
 8306SOL    HW225818   0.374   2.916   5.049
 8307SOL     OW25819   4.372   5.324   1.780
 8307SOL    HW125820   4.389   5.400   1.842
 8307SOL    HW225821   4.459   5.280   1.757
 8308SOL     OW25822   4.591   6.198   1.223
 8308SOL    HW125823   4.576   6.288   1.263
 8308SOL    HW225824   4.503   6.159   1.195
 8309SOL     OW25825   5.852   5.429   3.482
 8309SOL    HW125826   5.922   5.362   3.455
 8309SOL    HW225827   5.861   5.449   3.580
 8310SOL     OW25828   1.282   4.527   1.045
 8310SOL    HW125829   1.280   4.440   0.995
 8310SOL    HW225830   1.263   4.602   0.983
 8311SOL     OW25831   0.346   1.281   5.332
 8311SOL    HW125832   0.373   1.209   5.268
 8311SOL    HW225833   0.397   1.365   5.312
 8312SOL     OW25834   4.423   6.191   1.705
 8312SOL    HW125835   4.430   6.272   1.763
 8312SOL    HW225836   4.509   6.176   1.656
 8313SOL     OW25837   3.873   1.095   2.579
 8313SOL    HW125838   3.952   1.142   2.617
 8313SOL    HW225839   3.888   1.075   2.482
 8314SOL     OW25840   5.019   6.488   0.728
 8314SOL    HW125841   5.072   6.572   0.719
 8314SOL    HW225842   4.922   6.511   0.737
 8315SOL     OW25843   3.901   3.095   0.603
 8315SOL    HW125844   3.956   3.012   0.609
 8315SOL    HW225845   3.886   3.132   0.695
 8316SOL     OW25846   0.461   2.580   1.540
 8316SOL    HW125847   0.526   2.633   1.487
 8316SOL    HW225848   0.456   2.617   1.633
 8317SOL     OW25849   2.051   3.034   2.062
 8317SOL    HW125850   2.004   2.982   1.992
 8317SOL    HW225851   2.033   3.132   2.050
 8318SOL     OW25852   4.624   1.526   4.450
 8318SOL    HW125853   4.706   1.490   4.405
 8318SOL    HW225854   4.617   1.625   4.433
 8319SOL     OW25855   2.743   1.893   5.931
 8319SOL    HW125856   2.732   1.971   5.994
 8319SOL    HW225857   2.768   1.927   5.840
 8320SOL     OW25858   3.695   4.773   1.466
 8320SOL    HW125859   3.650   4.685   1.484
 8320SOL    HW225860   3.686   4.795   1.369
 8321SOL     OW25861   0.419   1.011   6.400
 8321SOL    HW125862   0.435   1.077   6.327
 8321SOL    HW225863   0.498   1.008   6.460
 8322SOL     OW25864   0.546   0.261   0.317
 8322SOL    HW125865   0.509   0.352   0.335
 8322SOL    HW225866   0.526   0.234   0.223
 8323SOL     OW25867   0.046   6.846   2.490
 8323SOL    HW125868   0.098   6.896   2.559
 8323SOL    HW225869   0.072   6.877   2.399
 8324SOL     OW25870   6.608   0.424   2.238
 8324SOL    HW125871   6.528   0.475   2.206
 8324SOL    HW225872   6.661   0.481   2.300
 8325SOL     OW25873   3.606   3.283   4.531
 8325SOL    HW125874   3.687   3.325   4.572
 8325SOL    HW225875   3.561   3.349   4.471
 8326SOL     OW25876   4.488   3.260   5.345
 8326SOL    HW125877   4.473   3.357   5.364
 8326SOL    HW225878   4.400   3.211   5.345
 8327SOL     OW25879   5.104   2.067   6.098
 8327SOL    HW125880   5.032   2.045   6.164
 8327SOL    HW225881   5.180   2.003   6.110
 8328SOL     OW25882   2.291   4.229   6.031
 8328SOL    HW125883   2.277   4.328   6.030
 8328SOL    HW225884   2.216   4.184   5.983
 8329SOL     OW25885   0.468   3.680   5.984
 8329SOL    HW125886   0.487   3.655   6.078
 8329SOL    HW225887   0.435   3.774   5.980
 8330SOL     OW25888   1.621   0.213   0.134
 8330SOL    HW125889   1.627   0.232   0.036
 8330SOL    HW225890   1.699   0.254   0.181
 8331SOL     OW25891   3.089   0.186   0.679
 8331SOL    HW125892   3.054   0.279   0.687
 8331SOL    HW225893   3.186   0.184   0.703
 8332SOL     OW25894   4.752   4.825   2.672
 8332SOL    HW125895   4.840   4.867   2.691
 8332SOL    HW225896   4.753   4.729   2.702
 8333SOL     OW25897   0.253   6.127   0.193
 8333SOL    HW125898   0.227   6.031   0.209
 8333SOL    HW225899   0.234   6.181   0.275
 8334SOL     OW25900   6.122   1.475   3.486
 8334SOL    HW125901   6.033   1.509   3.517
 8334SOL    HW225902   6.166   1.422   3.559
 8335SOL     OW25903   6.524   5.303   5.542
 8335SOL    HW125904   6.543   5.398   5.515
 8335SOL    HW225905   6.476   5.257   5.468
 8336SOL     OW25906   0.223   1.029   1.818
 8336SOL    HW125907   0.159   1.069   1.751
 8336SOL    HW225908   0.288   0.970   1.771
 8337SOL     OW25909   1.298   6.715   3.495
 8337SOL    HW125910   1.330   6.698   3.589
 8337SOL    HW225911   1.298   6.814   3.478
 8338SOL     OW25912   2.100   4.408   2.000
 8338SOL    HW125913   2.184   4.356   1.986
 8338SOL    HW225914   2.042   4.400   1.919
 8339SOL     OW25915   5.844   1.367   1.506
 8339SOL    HW125916   5.878   1.412   1.588
 8339SOL    HW225917   5.843   1.431   1.430
 8340SOL     OW25918   5.066   3.943   1.162
 8340SOL    HW125919   5.106   4.033   1.178
 8340SOL    HW225920   4.968   3.952   1.148
 8341SOL     OW25921   2.370   6.001   0.357
 8341SOL    HW125922   2.276   5.969   0.370
 8341SOL    HW225923   2.395   6.061   0.434
 8342SOL     OW25924   3.293   6.873   1.530
 8342SOL    HW125925   3.360   6.940   1.499
 8342SOL    HW225926   3.266   6.893   1.624
 8343SOL     OW25927   1.673   4.888   6.179
 8343SOL    HW125928   1.692   4.861   6.274
 8343SOL    HW225929   1.637   4.810   6.128
 8344SOL     OW25930   4.896   6.746   5.605
 8344SOL    HW125931   4.857   6.806   5.535
 8344SOL    HW225932   4.828   6.680   5.634
 8345SOL     OW25933   5.268   2.037   3.356
 8345SOL    HW125934   5.184   2.082   3.385
 8345SOL    HW225935   5.347   2.086   3.395
 8346SOL     OW25936   2.682   4.701   0.150
 8346SOL    HW125937   2.704   4.726   0.056
 8346SOL    HW225938   2.669   4.602   0.156
 8347SOL     OW25939   2.917   6.651   5.067
 8347SOL    HW125940   3.000   6.676   5.117
 8347SOL    HW225941   2.845   6.625   5.132
 8348SOL     OW25942   1.604   0.195   1.477
 8348SOL    HW125943   1.562   0.272   1.428
 8348SOL    HW225944   1.556   0.110   1.453
 8349SOL     OW25945   5.841   4.820   1.172
 8349SOL    HW125946   5.857   4.723   1.155
 8349SOL    HW225947   5.776   4.830   1.248
 8350SOL     OW25948   4.940   0.824   4.591
 8350SOL    HW125949   4.995   0.894   4.636
 8350SOL    HW225950   4.922   0.748   4.653
 8351SOL     OW25951   3.912   4.938   4.860
 8351SOL    HW125952   3.883   4.842   4.854
 8351SOL    HW225953   3.920   4.976   4.768
 8352SOL     OW25954   6.716   0.238   2.036
 8352SOL    HW125955   6.794   0.285   1.994
 8352SOL    HW225956   6.668   0.300   2.097
 8353SOL     OW25957   5.693   3.915   2.224
 8353SOL    HW125958   5.718   3.928   2.128
 8353SOL    HW225959   5.674   3.818   2.241
 8354SOL     OW25960   3.646   0.905   6.953
 8354SOL    HW125961   3.636   0.953   0.014
 8354SOL    HW225962   3.645   0.971   6.878
 8355SOL     OW25963   3.149   0.694   6.584
 8355SOL    HW125964   3.057   0.654   6.575
 8355SOL    HW225965   3.212   0.643   6.526
 8356SOL     OW25966   1.327   6.520   0.567
 8356SOL    HW125967   1.386   6.601   0.577
 8356SOL    HW225968   1.240   6.537   0.613
 8357SOL     OW25969   3.827   5.989   5.928
 8357SOL    HW125970   3.912   5.937   5.935
 8357SOL    HW225971   3.843   6.084   5.955
 8358SOL     OW25972   1.990   2.812   5.226
 8358SOL    HW125973   1.909   2.818   5.167
 8358SOL    HW225974   1.980   2.736   5.289
 8359SOL     OW25975   3.661   6.364   4.225
 8359SOL    HW125976   3.625   6.275   4.198
 8359SOL    HW225977   3.677   6.365   4.324
 8360SOL     OW25978   3.429   6.816   2.414
 8360SOL    HW125979   3.448   6.728   2.460
 8360SOL    HW225980   3.353   6.861   2.461
 8361SOL     OW25981   1.394   1.185   1.904
 8361SOL    HW125982   1.402   1.250   1.828
 8361SOL    HW225983   1.485   1.166   1.941
 8362SOL     OW25984   2.879   2.268   0.460
 8362SOL    HW125985   2.810   2.269   0.531
 8362SOL    HW225986   2.835   2.277   0.370
 8363SOL     OW25987   0.874   2.576   0.169
 8363SOL    HW125988   0.881   2.524   0.253
 8363SOL    HW225989   0.850   2.671   0.190
 8364SOL     OW25990   0.144   3.576   3.386
 8364SOL    HW125991   0.133   3.630   3.303
 8364SOL    HW225992   0.160   3.637   3.464
 8365SOL     OW25993   1.517   4.197   1.434
 8365SOL    HW125994   1.562   4.108   1.434
 8365SOL    HW225995   1.448   4.200   1.362
 8366SOL     OW25996   4.122   6.025   2.507
 8366SOL    HW125997   4.058   6.100   2.492
 8366SOL    HW225998   4.188   6.021   2.432
 8367SOL     OW25999   3.973   6.052   4.499
 8367SOL    HW126000   3.918   6.062   4.416
 8367SOL    HW226001   3.956   5.962   4.539
 8368SOL     OW26002   3.371   6.422   5.995
 8368SOL    HW126003   3.330   6.399   5.907
 8368SOL    HW226004   3.458   6.373   6.005
 8369SOL     OW26005   1.607   1.446   6.539
 8369SOL    HW126006   1.521   1.398   6.554
 8369SOL    HW226007   1.600   1.502   6.457
 8370SOL     OW26008   3.066   2.251   6.069
 8370SOL    HW126009   3.091   2.247   6.166
 8370SOL    HW226010   2.967   2.255   6.060
 8371SOL     OW26011   1.599   4.127   1.028
 8371SOL    HW126012   1.546   4.140   0.944
 8371SOL    HW226013   1.603   4.029   1.049
 8372SOL     OW26014   1.192   6.289   2.583
 8372SOL    HW126015   1.106   6.270   2.629
 8372SOL    HW226016   1.174   6.316   2.488
 8373SOL     OW26017   0.745   0.256   5.001
 8373SOL    HW126018   0.745   0.321   5.077
 8373SOL    HW226019   0.658   0.206   4.999
 8374SOL     OW26020   6.884   0.641   6.754
 8374SOL    HW126021   6.937   0.670   6.674
 8374SOL    HW226022   6.940   0.579   6.810
 8375SOL     OW26023   3.311   5.761   6.039
 8375SOL    HW126024   3.317   5.707   6.123
 8375SOL    HW226025   3.227   5.738   5.990
 8376SOL     OW26026   2.367   0.474   4.595
 8376SOL    HW126027   2.464   0.458   4.577
 8376SOL    HW226028   2.345   0.570   4.577
 8377SOL     OW26029   5.783   5.542   2.000
 8377SOL    HW126030   5.786   5.602   2.080
 8377SOL    HW226031   5.803   5.595   1.917
 8378SOL     OW26032   4.468   4.519   3.262
 8378SOL    HW126033   4.532   4.459   3.213
 8378SOL    HW226034   4.501   4.533   3.356
 8379SOL     OW26035   6.488   3.077   1.218
 8379SOL    HW126036   6.528   3.167   1.237
 8379SOL    HW226037   6.438   3.045   1.298
 8380SOL     OW26038   6.207   0.860   1.997
 8380SOL    HW126039   6.229   0.922   2.073
 8380SOL    HW226040   6.226   0.766   2.024
 8381SOL     OW26041   0.546   4.695   4.728
 8381SOL    HW126042   0.527   4.640   4.809
 8381SOL    HW226043   0.569   4.635   4.652
 8382SOL     OW26044   1.263   1.504   2.071
 8382SOL    HW126045   1.345   1.503   2.014
 8382SOL    HW226046   1.273   1.438   2.145
 8383SOL     OW26047   2.546   1.903   6.349
 8383SOL    HW126048   2.506   1.860   6.268
 8383SOL    HW226049   2.529   2.001   6.346
 8384SOL     OW26050   0.408   6.988   0.928
 8384SOL    HW126051   0.480   6.933   0.885
 8384SOL    HW226052   0.440   0.055   0.942
 8385SOL     OW26053   5.945   2.944   1.836
 8385SOL    HW126054   5.995   2.863   1.806
 8385SOL    HW226055   5.946   2.948   1.936
 8386SOL     OW26056   0.723   4.062   2.549
 8386SOL    HW126057   0.727   4.147   2.496
 8386SOL    HW226058   0.801   4.004   2.526
 8387SOL     OW26059   1.346   1.500   1.447
 8387SOL    HW126060   1.404   1.419   1.447
 8387SOL    HW226061   1.394   1.576   1.402
 8388SOL     OW26062   2.119   6.201   1.828
 8388SOL    HW126063   2.086   6.295   1.830
 8388SOL    HW226064   2.079   6.150   1.904
 8389SOL     OW26065   5.291   3.602   2.261
 8389SOL    HW126066   5.225   3.590   2.187
 8389SOL    HW226067   5.322   3.513   2.293
 8390SOL     OW26068   3.696   1.534   6.249
 8390SOL    HW126069   3.740   1.492   6.169
 8390SOL    HW226070   3.620   1.592   6.218
 8391SOL     OW26071   5.853   6.552   0.803
 8391SOL    HW126072   5.888   6.562   0.896
 8391SOL    HW226073   5.789   6.475   0.800
 8392SOL     OW26074   6.360   3.657   3.733
 8392SOL    HW126075   6.293   3.589   3.702
 8392SOL    HW226076   6.312   3.742   3.757
 8393SOL     OW26077   5.526   0.536   2.526
 8393SOL    HW126078   5.450   0.601   2.523
 8393SOL    HW226079   5.609   0.582   2.558
 8394SOL     OW26080   5.955   3.585   1.662
 8394SOL    HW126081   5.972   3.498   1.616
 8394SOL    HW226082   6.026   3.600   1.731
 8395SOL     OW26083   2.590   0.141   5.797
 8395SOL    HW126084   2.665   0.077   5.780
 8395SOL    HW226085   2.568   0.141   5.894
 8396SOL     OW26086   4.229   4.694   3.563
 8396SOL    HW126087   4.255   4.729   3.653
 8396SOL    HW226088   4.134   4.721   3.543
 8397SOL     OW26089   0.757   1.436   3.595
 8397SOL    HW126090   0.817   1.409   3.520
 8397SOL    HW226091   0.773   1.532   3.618
 8398SOL     OW26092   5.009   1.672   6.847
 8398SOL    HW126093   5.089   1.732   6.851
 8398SOL    HW226094   4.974   1.671   6.753
 8399SOL     OW26095   6.659   6.396   6.836
 8399SOL    HW126096   6.565   6.392   6.871
 8399SOL    HW226097   6.711   6.463   6.888
 8400SOL     OW26098   1.577   2.375   4.274
 8400SOL    HW126099   1.495   2.360   4.328
 8400SOL    HW226100   1.635   2.442   4.320
 8401SOL     OW26101   1.997   0.979   5.439
 8401SOL    HW126102   2.038   1.054   5.386
 8401SOL    HW226103   2.055   0.898   5.431
 8402SOL     OW26104   5.198   1.122   6.528
 8402SOL    HW126105   5.184   1.182   6.449
 8402SOL    HW226106   5.185   1.027   6.500
 8403SOL     OW26107   0.156   4.134   4.107
 8403SOL    HW126108   0.179   4.080   4.188
 8403SOL    HW226109   0.068   4.179   4.121
 8404SOL     OW26110   3.358   1.026   5.892
 8404SOL    HW126111   3.338   0.928   5.898
 8404SOL    HW226112   3.302   1.067   5.820
 8405SOL     OW26113   4.207   1.793   5.989
 8405SOL    HW126114   4.290   1.774   6.041
 8405SOL    HW226115   4.221   1.770   5.893
 8406SOL     OW26116   4.978   0.385   0.717
 8406SOL    HW126117   4.992   0.484   0.709
 8406SOL    HW226118   5.023   0.352   0.800
 8407SOL     OW26119   4.645   6.268   3.957
 8407SOL    HW126120   4.639   6.362   3.990
 8407SOL    HW226121   4.622   6.265   3.860
 8408SOL     OW26122   5.271   6.016   0.418
 8408SOL    HW126123   5.312   6.059   0.338
 8408SOL    HW226124   5.171   6.019   0.409
 8409SOL     OW26125   4.538   2.573   1.854
 8409SOL    HW126126   4.554   2.580   1.952
 8409SOL    HW226127   4.590   2.497   1.817
 8410SOL     OW26128   6.218   1.556   1.670
 8410SOL    HW126129   6.259   1.588   1.755
 8410SOL    HW226130   6.161   1.629   1.631
 8411SOL     OW26131   0.110   6.266   1.268
 8411SOL    HW126132   0.162   6.239   1.350
 8411SOL    HW226133   0.110   6.366   1.260
 8412SOL     OW26134   4.019   2.859   1.070
 8412SOL    HW126135   3.970   2.825   1.151
 8412SOL    HW226136   4.019   2.959   1.071
 8413SOL     OW26137   4.124   6.029   6.513
 8413SOL    HW126138   4.076   5.943   6.493
 8413SOL    HW226139   4.211   6.009   6.558
 8414SOL     OW26140   2.219   1.603   2.488
 8414SOL    HW126141   2.246   1.544   2.411
 8414SOL    HW226142   2.232   1.554   2.574
 8415SOL     OW26143   2.890   6.881   3.866
 8415SOL    HW126144   2.825   6.813   3.901
 8415SOL    HW226145   2.862   6.972   3.896
 8416SOL     OW26146   5.874   1.680   5.016
 8416SOL    HW126147   5.947   1.681   4.947
 8416SOL    HW226148   5.835   1.772   5.024
 8417SOL     OW26149   2.111   3.303   5.592
 8417SOL    HW126150   2.032   3.258   5.551
 8417SOL    HW226151   2.195   3.261   5.558
 8418SOL     OW26152   0.977   5.683   2.532
 8418SOL    HW126153   0.939   5.609   2.586
 8418SOL    HW226154   1.071   5.700   2.560
 8419SOL     OW26155   6.222   1.308   3.269
 8419SOL    HW126156   6.135   1.265   3.244
 8419SOL    HW226157   6.209   1.366   3.350
 8420SOL     OW26158   3.186   6.834   2.034
 8420SOL    HW126159   3.133   6.824   2.119
 8420SOL    HW226160   3.282   6.815   2.053
 8421SOL     OW26161   2.850   6.378   6.706
 8421SOL    HW126162   2.790   6.298   6.717
 8421SOL    HW226163   2.842   6.437   6.787
 8422SOL     OW26164   4.545   2.371   2.185
 8422SOL    HW126165   4.454   2.329   2.177
 8422SOL    HW226166   4.614   2.299   2.198
 8423SOL     OW26167   4.582   4.442   5.946
 8423SOL    HW126168   4.484   4.454   5.937
 8423SOL    HW226169   4.603   4.346   5.962
 8424SOL     OW26170   2.122   1.437   3.706
 8424SOL    HW126171   2.113   1.484   3.618
 8424SOL    HW226172   2.154   1.344   3.691
 8425SOL     OW26173   3.300   3.784   4.243
 8425SOL    HW126174   3.334   3.799   4.336
 8425SOL    HW226175   3.218   3.839   4.228
 8426SOL     OW26176   3.623   3.280   2.549
 8426SOL    HW126177   3.583   3.327   2.627
 8426SOL    HW226178   3.676   3.201   2.581
 8427SOL     OW26179   3.019   3.702   3.156
 8427SOL    HW126180   3.067   3.770   3.211
 8427SOL    HW226181   3.047   3.710   3.060
 8428SOL     OW26182   0.436   0.476   1.293
 8428SOL    HW126183   0.413   0.396   1.348
 8428SOL    HW226184   0.533   0.475   1.270
 8429SOL     OW26185   1.970   5.863   5.978
 8429SOL    HW126186   2.051   5.921   5.986
 8429SOL    HW226187   1.922   5.862   6.066
 8430SOL     OW26188   3.684   4.913   4.586
 8430SOL    HW126189   3.761   4.852   4.567
 8430SOL    HW226190   3.687   4.942   4.682
 8431SOL     OW26191   2.992   3.863   6.404
 8431SOL    HW126192   2.928   3.939   6.400
 8431SOL    HW226193   2.941   3.777   6.411
 8432SOL     OW26194   0.070   5.279   6.247
 8432SOL    HW126195   0.020   5.211   6.192
 8432SOL    HW226196   0.071   5.366   6.199
 8433SOL     OW26197   4.303   2.783   0.865
 8433SOL    HW126198   4.319   2.824   0.954
 8433SOL    HW226199   4.204   2.769   0.852
 8434SOL     OW26200   2.174   5.496   5.176
 8434SOL    HW126201   2.123   5.441   5.243
 8434SOL    HW226202   2.266   5.457   5.165
 8435SOL     OW26203   5.189   0.786   3.086
 8435SOL    HW126204   5.219   0.851   3.157
 8435SOL    HW226205   5.099   0.813   3.052
 8436SOL     OW26206   2.502   6.420   3.877
 8436SOL    HW126207   2.598   6.405   3.852
 8436SOL    HW226208   2.481   6.517   3.868
 8437SOL     OW26209   1.830   2.940   2.305
 8437SOL    HW126210   1.771   2.982   2.236
 8437SOL    HW226211   1.923   2.977   2.297
 8438SOL     OW26212   2.148   3.850   2.795
 8438SOL    HW126213   2.188   3.937   2.824
 8438SOL    HW226214   2.182   3.827   2.704
 8439SOL     OW26215   6.385   5.445   3.782
 8439SOL    HW126216   6.458   5.408   3.839
 8439SOL    HW226217   6.391   5.405   3.690
 8440SOL     OW26218   2.634   1.750   3.771
 8440SOL    HW126219   2.583   1.836   3.765
 8440SOL    HW226220   2.573   1.677   3.801
 8441SOL     OW26221   5.325   5.457   4.937
 8441SOL    HW126222   5.405   5.443   4.879
 8441SOL    HW226223   5.348   5.519   5.012
 8442SOL     OW26224   3.359   0.555   5.292
 8442SOL    HW126225   3.436   0.593   5.344
 8442SOL    HW226226   3.282   0.619   5.296
 8443SOL     OW26227   2.018   5.128   4.138
 8443SOL    HW126228   1.989   5.044   4.185
 8443SOL    HW226229   1.995   5.121   4.041
 8444SOL     OW26230   3.855   6.640   3.457
 8444SOL    HW126231   3.876   6.550   3.495
 8444SOL    HW226232   3.856   6.709   3.529
 8445SOL     OW26233   2.177   0.550   0.134
 8445SOL    HW126234   2.145   0.575   0.042
 8445SOL    HW226235   2.261   0.496   0.126
 8446SOL     OW26236   0.387   6.372   4.879
 8446SOL    HW126237   0.335   6.287   4.882
 8446SOL    HW226238   0.483   6.352   4.859
 8447SOL     OW26239   3.871   1.478   2.434
 8447SOL    HW126240   3.886   1.507   2.339
 8447SOL    HW226241   3.785   1.429   2.441
 8448SOL     OW26242   4.897   6.180   3.971
 8448SOL    HW126243   4.806   6.218   3.959
 8448SOL    HW226244   4.893   6.080   3.966
 8449SOL     OW26245   1.052   3.278   3.749
 8449SOL    HW126246   1.055   3.201   3.813
 8449SOL    HW226247   1.129   3.340   3.769
 8450SOL     OW26248   0.329   0.933   0.304
 8450SOL    HW126249   0.290   0.862   0.363
 8450SOL    HW226250   0.347   0.896   0.213
 8451SOL     OW26251   3.676   0.721   1.210
 8451SOL    HW126252   3.680   0.621   1.221
 8451SOL    HW226253   3.666   0.743   1.113
 8452SOL     OW26254   5.141   2.296   4.232
 8452SOL    HW126255   5.192   2.380   4.247
 8452SOL    HW226256   5.085   2.275   4.312
 8453SOL     OW26257   0.610   5.355   6.933
 8453SOL    HW126258   0.513   5.336   6.922
 8453SOL    HW226259   0.661   5.311   6.859
 8454SOL     OW26260   0.448   4.500   0.438
 8454SOL    HW126261   0.417   4.580   0.386
 8454SOL    HW226262   0.510   4.529   0.511
 8455SOL     OW26263   0.502   0.693   2.735
 8455SOL    HW126264   0.506   0.593   2.740
 8455SOL    HW226265   0.431   0.726   2.798
 8456SOL     OW26266   5.165   0.677   3.381
 8456SOL    HW126267   5.264   0.662   3.388
 8456SOL    HW226268   5.145   0.773   3.400
 8457SOL     OW26269   6.672   6.770   4.747
 8457SOL    HW126270   6.685   6.741   4.652
 8457SOL    HW226271   6.574   6.773   4.768
 8458SOL     OW26272   0.811   0.492   0.374
 8458SOL    HW126273   0.854   0.534   0.453
 8458SOL    HW226274   0.713   0.506   0.377
 8459SOL     OW26275   1.763   5.851   3.078
 8459SOL    HW126276   1.736   5.946   3.062
 8459SOL    HW226277   1.740   5.825   3.172
 8460SOL     OW26278   4.395   4.110   5.351
 8460SOL    HW126279   4.430   4.020   5.327
 8460SOL    HW226280   4.455   4.181   5.313
 8461SOL     OW26281   0.118   2.444   5.010
 8461SOL    HW126282   0.177   2.427   5.089
 8461SOL    HW226283   0.095   2.541   5.006
 8462SOL     OW26284   3.268   1.698   1.497
 8462SOL    HW126285   3.183   1.686   1.548
 8462SOL    HW226286   3.336   1.744   1.554
 8463SOL     OW26287   6.104   6.975   1.907
 8463SOL    HW126288   6.063   6.942   1.992
 8463SOL    HW226289   6.163   0.027   1.927
 8464SOL     OW26290   5.887   3.470   4.484
 8464SOL    HW126291   5.929   3.512   4.404
 8464SOL    HW226292   5.929   3.507   4.567
 8465SOL     OW26293   1.498   2.014   0.258
 8465SOL    HW126294   1.452   2.090   0.304
 8465SOL    HW226295   1.476   2.017   0.160
 8466SOL     OW26296   1.161   5.495   3.898
 8466SOL    HW126297   1.138   5.583   3.940
 8466SOL    HW226298   1.224   5.445   3.958
 8467SOL     OW26299   2.583   5.893   1.304
 8467SOL    HW126300   2.618   5.986   1.305
 8467SOL    HW226301   2.496   5.891   1.254
 8468SOL     OW26302   3.659   2.240   0.420
 8468SOL    HW126303   3.710   2.262   0.337
 8468SOL    HW226304   3.705   2.281   0.499
 8469SOL     OW26305   3.161   3.251   6.993
 8469SOL    HW126306   3.124   3.278   0.056
 8469SOL    HW226307   3.255   3.285   6.985
 8470SOL     OW26308   2.093   2.492   1.283
 8470SOL    HW126309   2.026   2.537   1.225
 8470SOL    HW226310   2.051   2.413   1.328
 8471SOL     OW26311   2.803   0.673   3.945
 8471SOL    HW126312   2.851   0.600   3.994
 8471SOL    HW226313   2.715   0.638   3.912
 8472SOL     OW26314   0.688   6.882   4.300
 8472SOL    HW126315   0.648   6.811   4.358
 8472SOL    HW226316   0.631   6.893   4.218
 8473SOL     OW26317   0.182   5.824   0.326
 8473SOL    HW126318   0.124   5.853   0.402
 8473SOL    HW226319   0.138   5.849   0.240
 8474SOL     OW26320   3.051   2.971   1.890
 8474SOL    HW126321   3.110   2.930   1.960
 8474SOL    HW226322   2.999   2.899   1.844
 8475SOL     OW26323   5.486   1.781   2.384
 8475SOL    HW126324   5.504   1.719   2.307
 8475SOL    HW226325   5.565   1.783   2.444
 8476SOL     OW26326   5.972   6.922   2.181
 8476SOL    HW126327   6.047   6.963   2.232
 8476SOL    HW226328   5.885   6.946   2.224
 8477SOL     OW26329   2.718   6.913   1.162
 8477SOL    HW126330   2.695   6.851   1.086
 8477SOL    HW226331   2.643   6.913   1.228
 8478SOL     OW26332   1.850   0.850   5.622
 8478SOL    HW126333   1.827   0.907   5.701
 8478SOL    HW226334   1.907   0.903   5.559
 8479SOL     OW26335   5.977   1.009   7.005
 8479SOL    HW126336   6.038   0.947   0.029
 8479SOL    HW226337   6.015   1.101   7.007
 8480SOL     OW26338   3.363   0.509   0.755
 8480SOL    HW126339   3.309   0.536   0.835
 8480SOL    HW226340   3.430   0.581   0.735
 8481SOL     OW26341   4.290   1.569   4.734
 8481SOL    HW126342   4.213   1.527   4.782
 8481SOL    HW226343   4.351   1.498   4.700
 8482SOL     OW26344   1.763   0.247   2.213
 8482SOL    HW126345   1.763   0.341   2.178
 8482SOL    HW226346   1.792   0.185   2.141
 8483SOL     OW26347   3.397   5.730   2.432
 8483SOL    HW126348   3.353   5.820   2.435
 8483SOL    HW226349   3.362   5.673   2.506
 8484SOL     OW26350   0.264   4.663   3.349
 8484SOL    HW126351   0.178   4.714   3.356
 8484SOL    HW226352   0.341   4.726   3.358
 8485SOL     OW26353   1.787   3.889   0.650
 8485SOL    HW126354   1.693   3.923   0.643
 8485SOL    HW226355   1.849   3.966   0.660
 8486SOL     OW26356   5.398   1.024   2.350
 8486SOL    HW126357   5.304   1.009   2.320
 8486SOL    HW226358   5.400   1.037   2.450
 8487SOL     OW26359   5.261   6.927   1.145
 8487SOL    HW126360   5.179   6.985   1.147
 8487SOL    HW226361   5.341   6.985   1.128
 8488SOL     OW26362   5.394   4.655   4.248
 8488SOL    HW126363   5.490   4.660   4.222
 8488SOL    HW226364   5.350   4.744   4.235
 8489SOL     OW26365   5.657   4.994   1.302
 8489SOL    HW126366   5.577   4.947   1.266
 8489SOL    HW226367   5.643   5.093   1.297
 8490SOL     OW26368   4.616   5.267   2.990
 8490SOL    HW126369   4.572   5.192   3.039
 8490SOL    HW226370   4.715   5.252   2.987
 8491SOL     OW26371   2.083   0.564   2.209
 8491SOL    HW126372   2.072   0.507   2.291
 8491SOL    HW226373   2.178   0.560   2.178
 8492SOL     OW26374   5.025   3.593   5.502
 8492SOL    HW126375   5.111   3.568   5.456
 8492SOL    HW226376   4.948   3.569   5.442
 8493SOL     OW26377   3.871   1.724   0.021
 8493SOL    HW126378   3.925   1.767   6.974
 8493SOL    HW226379   3.922   1.727   0.107
 8494SOL     OW26380   2.528   5.734   6.682
 8494SOL    HW126381   2.454   5.726   6.749
 8494SOL    HW226382   2.515   5.666   6.610
 8495SOL     OW26383   6.510   3.221   0.498
 8495SOL    HW126384   6.414   3.246   0.513
 8495SOL    HW226385   6.557   3.298   0.454
 8496SOL     OW26386   0.367   2.026   3.850
 8496SOL    HW126387   0.430   2.096   3.816
 8496SOL    HW226388   0.321   1.983   3.772
 8497SOL     OW26389   5.273   5.469   4.613
 8497SOL    HW126390   5.372   5.476   4.632
 8497SOL    HW226391   5.258   5.407   4.536
 8498SOL     OW26392   0.275   0.420   1.564
 8498SOL    HW126393   0.205   0.491   1.568
 8498SOL    HW226394   0.237   0.333   1.596
 8499SOL     OW26395   3.207   5.222   6.629
 8499SOL    HW126396   3.229   5.135   6.583
 8499SOL    HW226397   3.169   5.286   6.563
 8500SOL     OW26398   2.378   0.090   5.625
 8500SOL    HW126399   2.411   7.022   5.613
 8500SOL    HW226400   2.441   0.139   5.684
 8501SOL     OW26401   1.865   3.216   6.803
 8501SOL    HW126402   1.868   3.239   6.705
 8501SOL    HW226403   1.868   3.299   6.857
 8502SOL     OW26404   0.409   6.005   1.372
 8502SOL    HW126405   0.413   6.013   1.471
 8502SOL    HW226406   0.314   5.992   1.343
 8503SOL     OW26407   1.482   5.080   3.453
 8503SOL    HW126408   1.423   5.119   3.524
 8503SOL    HW226409   1.468   5.129   3.367
 8504SOL     OW26410   2.103   6.213   3.850
 8504SOL    HW126411   2.176   6.275   3.879
 8504SOL    HW226412   2.103   6.207   3.750
 8505SOL     OW26413   5.535   4.132   3.258
 8505SOL    HW126414   5.439   4.158   3.269
 8505SOL    HW226415   5.574   4.106   3.346
 8506SOL     OW26416   1.008   6.320   0.359
 8506SOL    HW126417   0.917   6.292   0.389
 8506SOL    HW226418   1.002   6.407   0.311
 8507SOL     OW26419   2.460   1.212   5.944
 8507SOL    HW126420   2.372   1.258   5.953
 8507SOL    HW226421   2.524   1.270   5.894
 8508SOL     OW26422   6.487   2.573   5.285
 8508SOL    HW126423   6.451   2.650   5.234
 8508SOL    HW226424   6.541   2.515   5.224
 8509SOL     OW26425   6.306   0.870   4.427
 8509SOL    HW126426   6.338   0.818   4.347
 8509SOL    HW226427   6.310   0.968   4.407
 8510SOL     OW26428   6.307   5.785   3.104
 8510SOL    HW126429   6.244   5.844   3.153
 8510SOL    HW226430   6.397   5.789   3.147
 8511SOL     OW26431   6.262   4.279   0.919
 8511SOL    HW126432   6.201   4.233   0.984
 8511SOL    HW226433   6.320   4.212   0.873
 8512SOL     OW26434   4.214   2.241   0.176
 8512SOL    HW126435   4.123   2.283   0.176
 8512SOL    HW226436   4.256   2.253   0.266
 8513SOL     OW26437   4.915   4.067   0.527
 8513SOL    HW126438   4.969   4.089   0.608
 8513SOL    HW226439   4.830   4.022   0.555
 8514SOL     OW26440   2.860   1.814   3.913
 8514SOL    HW126441   2.867   1.906   3.951
 8514SOL    HW226442   2.771   1.802   3.870
 8515SOL     OW26443   0.332   1.375   6.867
 8515SOL    HW126444   0.278   1.412   6.943
 8515SOL    HW226445   0.369   1.286   6.893
 8516SOL     OW26446   5.909   2.464   2.576
 8516SOL    HW126447   5.903   2.518   2.660
 8516SOL    HW226448   5.996   2.415   2.573
 8517SOL     OW26449   1.984   2.896   6.134
 8517SOL    HW126450   1.899   2.858   6.099
 8517SOL    HW226451   2.033   2.826   6.187
 8518SOL     OW26452   4.845   4.086   6.086
 8518SOL    HW126453   4.834   4.094   6.185
 8518SOL    HW226454   4.905   4.159   6.053
 8519SOL     OW26455   1.196   4.537   0.663
 8519SOL    HW126456   1.170   4.612   0.723
 8519SOL    HW226457   1.182   4.450   0.710
 8520SOL     OW26458   3.673   3.786   5.220
 8520SOL    HW126459   3.709   3.697   5.248
 8520SOL    HW226460   3.622   3.827   5.295
 8521SOL     OW26461   2.110   6.449   5.705
 8521SOL    HW126462   2.148   6.540   5.725
 8521SOL    HW226463   2.143   6.418   5.616
 8522SOL     OW26464   1.423   0.639   1.004
 8522SOL    HW126465   1.341   0.591   1.036
 8522SOL    HW226466   1.497   0.573   0.991
 8523SOL     OW26467   2.673   6.921   6.279
 8523SOL    HW126468   2.639   6.828   6.281
 8523SOL    HW226469   2.638   6.972   6.358
 8524SOL     OW26470   0.972   4.664   4.832
 8524SOL    HW126471   0.909   4.721   4.885
 8524SOL    HW226472   0.920   4.599   4.777
 8525SOL     OW26473   5.908   4.601   0.689
 8525SOL    HW126474   5.825   4.646   0.721
 8525SOL    HW226475   5.935   4.529   0.753
 8526SOL     OW26476   2.956   6.861   1.301
 8526SOL    HW126477   2.879   6.863   1.237
 8526SOL    HW226478   2.996   6.953   1.306
 8527SOL     OW26479   3.268   0.465   6.881
 8527SOL    HW126480   3.327   0.412   6.821
 8527SOL    HW226481   3.322   0.531   6.932
 8528SOL     OW26482   4.775   1.793   1.007
 8528SOL    HW126483   4.798   1.885   1.040
 8528SOL    HW226484   4.852   1.731   1.025
 8529SOL     OW26485   1.258   6.261   0.105
 8529SOL    HW126486   1.276   6.322   0.028
 8529SOL    HW226487   1.199   6.308   0.171
 8530SOL     OW26488   2.903   3.397   4.062
 8530SOL    HW126489   2.996   3.414   4.094
 8530SOL    HW226490   2.897   3.423   3.965
 8531SOL     OW26491   6.864   5.307   3.485
 8531SOL    HW126492   6.840   5.220   3.530
 8531SOL    HW226493   6.959   5.330   3.506
 8532SOL     OW26494   3.535   6.847   4.273
 8532SOL    HW126495   3.620   6.794   4.280
 8532SOL    HW226496   3.495   6.832   4.183
 8533SOL     OW26497   1.003   5.900   6.946
 8533SOL    HW126498   0.973   5.818   6.994
 8533SOL    HW226499   0.924   5.957   6.925
 8534SOL     OW26500   4.618   2.620   3.610
 8534SOL    HW126501   4.683   2.679   3.658
 8534SOL    HW226502   4.622   2.640   3.512
 8535SOL     OW26503   6.002   0.933   4.464
 8535SOL    HW126504   5.992   1.032   4.478
 8535SOL    HW226505   6.058   0.916   4.384
 8536SOL     OW26506   1.264   2.070   5.111
 8536SOL    HW126507   1.194   2.035   5.048
 8536SOL    HW226508   1.347   2.093   5.060
 8537SOL     OW26509   6.503   1.442   3.540
 8537SOL    HW126510   6.552   1.477   3.460
 8537SOL    HW226511   6.552   1.362   3.576
 8538SOL     OW26512   1.877   1.732   0.176
 8538SOL    HW126513   1.885   1.722   0.077
 8538SOL    HW226514   1.868   1.829   0.199
 8539SOL     OW26515   6.233   2.229   2.309
 8539SOL    HW126516   6.179   2.313   2.304
 8539SOL    HW226517   6.298   2.226   2.234
 8540SOL     OW26518   5.231   6.915   6.783
 8540SOL    HW126519   5.190   7.006   6.791
 8540SOL    HW226520   5.252   6.880   6.874
 8541SOL     OW26521   2.799   2.158   3.947
 8541SOL    HW126522   2.892   2.194   3.954
 8541SOL    HW226523   2.764   2.138   4.038
 8542SOL     OW26524   3.327   5.321   6.387
 8542SOL    HW126525   3.353   5.306   6.292
 8542SOL    HW226526   3.398   5.285   6.447
 8543SOL     OW26527   2.014   1.973   0.528
 8543SOL    HW126528   2.052   1.886   0.558
 8543SOL    HW226529   2.061   2.003   0.444
 8544SOL     OW26530   5.348   2.903   4.599
 8544SOL    HW126531   5.309   2.875   4.511
 8544SOL    HW226532   5.408   2.982   4.585
 8545SOL     OW26533   5.027   6.383   6.615
 8545SOL    HW126534   5.119   6.352   6.593
 8545SOL    HW226535   5.016   6.391   6.714
 8546SOL     OW26536   6.246   2.036   3.176
 8546SOL    HW126537   6.221   1.948   3.217
 8546SOL    HW226538   6.341   2.034   3.147
 8547SOL     OW26539   1.324   5.586   6.090
 8547SOL    HW126540   1.416   5.598   6.051
 8547SOL    HW226541   1.322   5.628   6.181
 8548SOL     OW26542   5.883   2.179   5.678
 8548SOL    HW126543   5.917   2.206   5.588
 8548SOL    HW226544   5.821   2.249   5.713
 8549SOL     OW26545   6.916   4.299   4.150
 8549SOL    HW126546   6.880   4.210   4.179
 8549SOL    HW226547   6.841   4.366   4.148
 8550SOL     OW26548   1.623   4.585   6.946
 8550SOL    HW126549   1.565   4.525   7.002
 8550SOL    HW226550   1.718   4.575   6.974
 8551SOL     OW26551   3.338   4.374   6.617
 8551SOL    HW126552   3.380   4.436   6.550
 8551SOL    HW226553   3.410   4.327   6.668
 8552SOL     OW26554   3.277   5.539   3.190
 8552SOL    HW126555   3.273   5.473   3.265
 8552SOL    HW226556   3.241   5.497   3.106
 8553SOL     OW26557   5.187   6.202   0.157
 8553SOL    HW126558   5.105   6.165   0.199
 8553SOL    HW226559   5.187   6.302   0.166
 8554SOL     OW26560   0.389   4.088   0.404
 8554SOL    HW126561   0.364   4.083   0.307
 8554SOL    HW226562   0.333   4.157   0.448
 8555SOL     OW26563   1.510   0.471   2.919
 8555SOL    HW126564   1.427   0.416   2.928
 8555SOL    HW226565   1.519   0.503   2.825
 8556SOL     OW26566   0.686   0.301   3.161
 8556SOL    HW126567   0.726   0.278   3.073
 8556SOL    HW226568   0.690   0.221   3.222
 8557SOL     OW26569   6.290   0.082   2.096
 8557SOL    HW126570   6.360   0.011   2.086
 8557SOL    HW226571   6.264   0.089   2.193
 8558SOL     OW26572   2.055   5.747   2.597
 8558SOL    HW126573   1.982   5.776   2.535
 8558SOL    HW226574   2.143   5.774   2.558
 8559SOL     OW26575   1.176   1.004   1.931
 8559SOL    HW126576   1.249   1.062   1.896
 8559SOL    HW226577   1.108   0.989   1.859
 8560SOL     OW26578   0.163   0.931   0.586
 8560SOL    HW126579   0.115   0.922   0.673
 8560SOL    HW226580   0.207   1.020   0.580
 8561SOL     OW26581   4.326   6.264   2.484
 8561SOL    HW126582   4.288   6.188   2.537
 8561SOL    HW226583   4.425   6.270   2.499
 8562SOL     OW26584   4.636   6.248   4.710
 8562SOL    HW126585   4.719   6.218   4.758
 8562SOL    HW226586   4.570   6.173   4.710
 8563SOL     OW26587   3.068   3.118   6.610
 8563SOL    HW126588   3.049   3.212   6.583
 8563SOL    HW226589   3.161   3.112   6.648
 8564SOL     OW26590   1.553   0.508   3.328
 8564SOL    HW126591   1.517   0.416   3.341
 8564SOL    HW226592   1.479   0.569   3.299
 8565SOL     OW26593   4.162   0.072   1.526
 8565SOL    HW126594   4.152   0.161   1.482
 8565SOL    HW226595   4.075   0.023   1.524
 8566SOL     OW26596   1.476   2.319   3.027
 8566SOL    HW126597   1.512   2.267   2.950
 8566SOL    HW226598   1.412   2.389   2.993
 8567SOL     OW26599   6.002   1.145   1.411
 8567SOL    HW126600   6.029   1.147   1.315
 8567SOL    HW226601   5.945   1.225   1.431
 8568SOL     OW26602   5.075   1.548   0.190
 8568SOL    HW126603   4.994   1.508   0.148
 8568SOL    HW226604   5.055   1.641   0.220
 8569SOL     OW26605   4.803   0.853   5.125
 8569SOL    HW126606   4.708   0.835   5.151
 8569SOL    HW226607   4.806   0.882   5.029
 8570SOL     OW26608   1.563   4.649   6.080
 8570SOL    HW126609   1.635   4.637   6.149
 8570SOL    HW226610   1.475   4.622   6.118
 8571SOL     OW26611   6.876   4.660   5.231
 8571SOL    HW126612   6.935   4.687   5.308
 8571SOL    HW226613   6.788   4.629   5.267
 8572SOL     OW26614   1.981   5.435   5.442
 8572SOL    HW126615   2.007   5.367   5.510
 8572SOL    HW226616   2.021   5.523   5.465
 8573SOL     OW26617   4.174   5.969   6.875
 8573SOL    HW126618   4.098   6.029   6.902
 8573SOL    HW226619   4.255   5.991   6.930
 8574SOL     OW26620   1.318   4.644   6.188
 8574SOL    HW126621   1.304   4.641   6.287
 8574SOL    HW226622   1.237   4.608   6.142
 8575SOL     OW26623   3.295   2.537   6.603
 8575SOL    HW126624   3.378   2.500   6.563
 8575SOL    HW226625   3.292   2.515   6.700
 8576SOL     OW26626   0.649   6.924   1.847
 8576SOL    HW126627   0.718   6.993   1.867
 8576SOL    HW226628   0.560   6.957   1.878
 8577SOL     OW26629   6.290   5.172   3.663
 8577SOL    HW126630   6.318   5.233   3.589
 8577SOL    HW226631   6.362   5.169   3.733
 8578SOL     OW26632   4.743   6.873   4.379
 8578SOL    HW126633   4.796   6.883   4.296
 8578SOL    HW226634   4.707   6.963   4.407
 8579SOL     OW26635   0.942   4.972   3.457
 8579SOL    HW126636   0.976   4.884   3.426
 8579SOL    HW226637   0.994   5.045   3.415
 8580SOL     OW26638   1.759   6.684   1.991
 8580SOL    HW126639   1.759   6.608   1.925
 8580SOL    HW226640   1.773   6.648   2.083
 8581SOL     OW26641   3.813   1.876   0.773
 8581SOL    HW126642   3.793   1.844   0.865
 8581SOL    HW226643   3.730   1.915   0.733
 8582SOL     OW26644   4.716   4.660   2.063
 8582SOL    HW126645   4.745   4.627   2.153
 8582SOL    HW226646   4.729   4.588   1.995
 8583SOL     OW26647   6.238   0.586   6.313
 8583SOL    HW126648   6.286   0.573   6.400
 8583SOL    HW226649   6.279   0.663   6.264
 8584SOL     OW26650   6.963   4.142   0.793
 8584SOL    HW126651   7.004   4.089   0.719
 8584SOL    HW226652   6.983   4.097   0.881
 8585SOL     OW26653   0.752   0.707   0.843
 8585SOL    HW126654   0.698   0.630   0.878
 8585SOL    HW226655   0.693   0.788   0.837
 8586SOL     OW26656   3.348   5.797   2.736
 8586SOL    HW126657   3.338   5.880   2.791
 8586SOL    HW226658   3.270   5.737   2.753
 8587SOL     OW26659   0.537   1.754   2.916
 8587SOL    HW126660   0.498   1.768   3.007
 8587SOL    HW226661   0.629   1.793   2.912
 8588SOL     OW26662   3.406   1.886   0.818
 8588SOL    HW126663   3.366   1.833   0.742
 8588SOL    HW226664   3.368   1.854   0.904
 8589SOL     OW26665   3.820   1.334   5.013
 8589SOL    HW126666   3.888   1.351   5.085
 8589SOL    HW226667   3.841   1.246   4.969
 8590SOL     OW26668   6.560   5.483   4.736
 8590SOL    HW126669   6.545   5.564   4.793
 8590SOL    HW226670   6.523   5.403   4.784
 8591SOL     OW26671   0.545   4.427   6.589
 8591SOL    HW126672   0.592   4.347   6.553
 8591SOL    HW226673   0.459   4.440   6.539
 8592SOL     OW26674   0.001   4.173   0.275
 8592SOL    HW126675   6.971   4.114   0.217
 8592SOL    HW226676   0.092   4.182   0.234
 8593SOL     OW26677   1.353   6.911   2.419
 8593SOL    HW126678   1.380   6.971   2.344
 8593SOL    HW226679   1.297   6.836   2.383
 8594SOL     OW26680   2.953   3.739   4.265
 8594SOL    HW126681   2.980   3.830   4.297
 8594SOL    HW226682   2.908   3.690   4.339
 8595SOL     OW26683   1.905   2.234   2.699
 8595SOL    HW126684   1.981   2.298   2.682
 8595SOL    HW226685   1.908   2.160   2.632
 8596SOL     OW26686   5.860   5.148   1.935
 8596SOL    HW126687   5.785   5.211   1.917
 8596SOL    HW226688   5.824   5.055   1.947
 8597SOL     OW26689   3.380   1.673   1.209
 8597SOL    HW126690   3.331   1.688   1.295
 8597SOL    HW226691   3.341   1.732   1.138
 8598SOL     OW26692   6.706   4.976   0.991
 8598SOL    HW126693   6.666   4.938   1.075
 8598SOL    HW226694   6.779   5.040   1.015
 8599SOL     OW26695   0.943   2.558   4.038
 8599SOL    HW126696   0.996   2.474   4.025
 8599SOL    HW226697   0.953   2.617   3.957
 8600SOL     OW26698   6.493   4.799   6.538
 8600SOL    HW126699   6.549   4.789   6.456
 8600SOL    HW226700   6.402   4.762   6.520
 8601SOL     OW26701   0.096   1.597   4.606
 8601SOL    HW126702   0.006   1.641   4.608
 8601SOL    HW226703   0.163   1.657   4.649
 8602SOL     OW26704   2.997   6.308   2.707
 8602SOL    HW126705   2.957   6.394   2.676
 8602SOL    HW226706   3.011   6.311   2.806
 8603SOL     OW26707   3.709   4.018   0.144
 8603SOL    HW126708   3.617   3.985   0.166
 8603SOL    HW226709   3.773   3.989   0.216
 8604SOL     OW26710   6.023   3.102   3.830
 8604SOL    HW126711   5.995   3.158   3.908
 8604SOL    HW226712   6.116   3.068   3.845
 8605SOL     OW26713   3.640   5.583   3.971
 8605SOL    HW126714   3.693   5.640   4.034
 8605SOL    HW226715   3.702   5.544   3.902
 8606SOL     OW26716   2.549   4.093   5.959
 8606SOL    HW126717   2.561   3.996   5.938
 8606SOL    HW226718   2.453   4.117   5.955
 8607SOL     OW26719   3.290   5.689   1.288
 8607SOL    HW126720   3.196   5.722   1.291
 8607SOL    HW226721   3.303   5.620   1.359
 8608SOL     OW26722   4.316   4.953   2.555
 8608SOL    HW126723   4.314   5.051   2.574
 8608SOL    HW226724   4.368   4.936   2.471
 8609SOL     OW26725   3.783   0.550   4.824
 8609SOL    HW126726   3.880   0.569   4.806
 8609SOL    HW226727   3.774   0.504   4.913
 8610SOL     OW26728   1.303   6.972   3.432
 8610SOL    HW126729   1.341   6.994   3.522
 8610SOL    HW226730   1.218   7.023   3.419
 8611SOL     OW26731   1.069   2.076   4.658
 8611SOL    HW126732   1.031   2.166   4.679
 8611SOL    HW226733   1.156   2.087   4.610
 8612SOL     OW26734   2.851   3.624   6.483
 8612SOL    HW126735   2.780   3.605   6.551
 8612SOL    HW226736   2.842   3.561   6.406
 8613SOL     OW26737   1.824   1.622   0.925
 8613SOL    HW126738   1.900   1.573   0.882
 8613SOL    HW226739   1.780   1.681   0.857
 8614SOL     OW26740   0.850   4.027   2.818
 8614SOL    HW126741   0.922   3.974   2.773
 8614SOL    HW226742   0.777   4.047   2.751
 8615SOL     OW26743   4.403   1.625   5.334
 8615SOL    HW126744   4.415   1.557   5.406
 8615SOL    HW226745   4.489   1.675   5.321
 8616SOL     OW26746   0.773   4.891   0.629
 8616SOL    HW126747   0.782   4.924   0.535
 8616SOL    HW226748   0.681   4.853   0.642
 8617SOL     OW26749   6.581   2.011   0.696
 8617SOL    HW126750   6.652   1.972   0.638
 8617SOL    HW226751   6.576   1.962   0.782
 8618SOL     OW26752   4.542   6.723   2.412
 8618SOL    HW126753   4.504   6.649   2.356
 8618SOL    HW226754   4.581   6.793   2.352
 8619SOL     OW26755   4.185   5.253   6.850
 8619SOL    HW126756   4.223   5.177   6.904
 8619SOL    HW226757   4.135   5.314   6.910
 8620SOL     OW26758   6.119   6.700   2.779
 8620SOL    HW126759   6.143   6.797   2.786
 8620SOL    HW226760   6.057   6.687   2.702
 8621SOL     OW26761   6.679   1.237   4.231
 8621SOL    HW126762   6.644   1.162   4.175
 8621SOL    HW226763   6.707   1.312   4.172
 8622SOL     OW26764   4.395   4.420   0.080
 8622SOL    HW126765   4.478   4.446   0.130
 8622SOL    HW226766   4.315   4.461   0.124
 8623SOL     OW26767   0.361   4.312   2.986
 8623SOL    HW126768   0.440   4.280   2.933
 8623SOL    HW226769   0.385   4.396   3.033
 8624SOL     OW26770   1.576   4.290   3.665
 8624SOL    HW126771   1.652   4.307   3.602
 8624SOL    HW226772   1.512   4.225   3.623
 8625SOL     OW26773   4.401   1.020   4.508
 8625SOL    HW126774   4.361   1.101   4.550
 8625SOL    HW226775   4.440   1.044   4.419
 8626SOL     OW26776   3.279   3.503   3.926
 8626SOL    HW126777   3.201   3.491   3.864
 8626SOL    HW226778   3.357   3.451   3.891
 8627SOL     OW26779   1.159   1.252   1.380
 8627SOL    HW126780   1.186   1.341   1.343
 8627SOL    HW226781   1.229   1.220   1.445
 8628SOL     OW26782   6.676   0.409   0.314
 8628SOL    HW126783   6.589   0.454   0.297
 8628SOL    HW226784   6.710   0.433   0.405
 8629SOL     OW26785   0.890   5.221   4.065
 8629SOL    HW126786   0.880   5.198   4.162
 8629SOL    HW226787   0.956   5.160   4.023
 8630SOL     OW26788   5.851   3.666   4.007
 8630SOL    HW126789   5.796   3.614   3.943
 8630SOL    HW226790   5.840   3.628   4.099
 8631SOL     OW26791   3.776   5.589   5.744
 8631SOL    HW126792   3.716   5.528   5.796
 8631SOL    HW226793   3.871   5.563   5.759
 8632SOL     OW26794   3.619   0.228   3.836
 8632SOL    HW126795   3.559   0.234   3.755
 8632SOL    HW226796   3.570   0.262   3.916
 8633SOL     OW26797   5.773   1.252   4.005
 8633SOL    HW126798   5.679   1.270   4.034
 8633SOL    HW226799   5.835   1.318   4.047
 8634SOL     OW26800   6.267   4.021   1.735
 8634SOL    HW126801   6.270   3.946   1.669
 8634SOL    HW226802   6.172   4.037   1.762
 8635SOL     OW26803   6.258   3.751   5.878
 8635SOL    HW126804   6.175   3.695   5.876
 8635SOL    HW226805   6.243   3.835   5.825
 8636SOL     OW26806   5.763   5.314   0.015
 8636SOL    HW126807   5.748   5.275   0.106
 8636SOL    HW226808   5.831   5.260   6.993
 8637SOL     OW26809   1.828   1.013   0.082
 8637SOL    HW126810   1.866   0.950   0.014
 8637SOL    HW226811   1.851   0.981   0.174
 8638SOL     OW26812   1.890   3.727   0.061
 8638SOL    HW126813   1.960   3.692   0.123
 8638SOL    HW226814   1.833   3.794   0.111
 8639SOL     OW26815   5.153   2.701   2.474
 8639SOL    HW126816   5.162   2.651   2.561
 8639SOL    HW226817   5.102   2.644   2.409
 8640SOL     OW26818   4.188   4.137   0.602
 8640SOL    HW126819   4.123   4.188   0.658
 8640SOL    HW226820   4.280   4.149   0.637
 8641SOL     OW26821   6.886   3.968   3.223
 8641SOL    HW126822   6.819   3.932   3.287
 8641SOL    HW226823   6.978   3.953   3.260
 8642SOL     OW26824   4.951   0.390   2.175
 8642SOL    HW126825   4.885   0.347   2.114
 8642SOL    HW226826   4.970   0.328   2.251
 8643SOL     OW26827   4.824   0.105   6.985
 8643SOL    HW126828   4.817   0.205   6.976
 8643SOL    HW226829   4.739   0.069   7.023
 8644SOL     OW26830   5.755   2.252   5.301
 8644SOL    HW126831   5.674   2.295   5.341
 8644SOL    HW226832   5.837   2.291   5.342
 8645SOL     OW26833   6.147   4.651   1.210
 8645SOL    HW126834   6.153   4.736   1.159
 8645SOL    HW226835   6.064   4.601   1.183
 8646SOL     OW26836   4.587   0.912   0.613
 8646SOL    HW126837   4.541   0.962   0.539
 8646SOL    HW226838   4.685   0.907   0.593
 8647SOL     OW26839   3.643   5.090   0.074
 8647SOL    HW126840   3.668   5.139   7.016
 8647SOL    HW226841   3.726   5.066   0.124
 8648SOL     OW26842   5.985   0.652   4.178
 8648SOL    HW126843   5.953   0.693   4.093
 8648SOL    HW226844   5.939   0.564   4.192
 8649SOL     OW26845   6.398   4.198   5.511
 8649SOL    HW126846   6.350   4.111   5.521
 8649SOL    HW226847   6.343   4.261   5.457
 8650SOL     OW26848   1.581   5.020   4.185
 8650SOL    HW126849   1.552   4.957   4.257
 8650SOL    HW226850   1.675   5.051   4.203
 8651SOL     OW26851   3.927   1.190   0.194
 8651SOL    HW126852   3.994   1.261   0.213
 8651SOL    HW226853   3.834   1.226   0.206
 8652SOL     OW26854   1.576   4.093   3.860
 8652SOL    HW126855   1.577   4.162   3.788
 8652SOL    HW226856   1.665   4.091   3.906
 8653SOL     OW26857   0.178   2.106   6.278
 8653SOL    HW126858   0.182   2.178   6.347
 8653SOL    HW226859   0.128   2.028   6.316
 8654SOL     OW26860   0.033   6.291   2.553
 8654SOL    HW126861   0.005   6.379   2.515
 8654SOL    HW226862   0.114   6.303   2.610
 8655SOL     OW26863   6.117   6.980   4.087
 8655SOL    HW126864   6.130   0.005   4.172
 8655SOL    HW226865   6.019   6.976   4.066
 8656SOL     OW26866   6.334   1.045   1.259
 8656SOL    HW126867   6.261   0.989   1.298
 8656SOL    HW226868   6.399   0.987   1.211
 8657SOL     OW26869   4.539   4.923   5.928
 8657SOL    HW126870   4.582   4.849   5.979
 8657SOL    HW226871   4.557   5.010   5.974
 8658SOL     OW26872   5.006   4.977   0.132
 8658SOL    HW126873   5.011   4.877   0.135
 8658SOL    HW226874   5.039   5.015   0.219
 8659SOL     OW26875   4.407   0.574   3.411
 8659SOL    HW126876   4.377   0.669   3.402
 8659SOL    HW226877   4.488   0.571   3.469
 8660SOL     OW26878   5.947   4.022   0.135
 8660SOL    HW126879   6.010   3.976   0.073
 8660SOL    HW226880   5.864   3.968   0.144
 8661SOL     OW26881   5.527   4.002   1.697
 8661SOL    HW126882   5.598   3.940   1.664
 8661SOL    HW226883   5.551   4.096   1.674
 8662SOL     OW26884   5.687   6.211   1.479
 8662SOL    HW126885   5.776   6.248   1.456
 8662SOL    HW226886   5.620   6.285   1.485
 8663SOL     OW26887   2.715   5.568   0.563
 8663SOL    HW126888   2.729   5.615   0.650
 8663SOL    HW226889   2.754   5.623   0.489
 8664SOL     OW26890   4.568   5.265   6.881
 8664SOL    HW126891   4.526   5.316   6.807
 8664SOL    HW226892   4.516   5.181   6.898
 8665SOL     OW26893   4.896   5.791   5.612
 8665SOL    HW126894   4.904   5.867   5.676
 8665SOL    HW226895   4.801   5.781   5.583
 8666SOL     OW26896   4.886   1.703   4.827
 8666SOL    HW126897   4.952   1.705   4.752
 8666SOL    HW226898   4.903   1.623   4.884
 8667SOL     OW26899   5.000   1.665   3.086
 8667SOL    HW126900   5.024   1.572   3.117
 8667SOL    HW226901   5.074   1.728   3.109
 8668SOL     OW26902   5.319   2.485   4.109
 8668SOL    HW126903   5.331   2.525   4.018
 8668SOL    HW226904   5.381   2.529   4.173
 8669SOL     OW26905   3.693   0.234   6.272
 8669SOL    HW126906   3.709   0.296   6.349
 8669SOL    HW226907   3.772   0.235   6.211
 8670SOL     OW26908   3.665   5.559   4.646
 8670SOL    HW126909   3.600   5.545   4.720
 8670SOL    HW226910   3.745   5.501   4.661
 8671SOL     OW26911   5.572   0.125   3.938
 8671SOL    HW126912   5.602   0.088   4.026
 8671SOL    HW226913   5.646   0.116   3.872
 8672SOL     OW26914   2.383   5.520   4.501
 8672SOL    HW126915   2.387   5.540   4.599
 8672SOL    HW226916   2.476   5.504   4.467
 8673SOL     OW26917   0.481   1.463   0.088
 8673SOL    HW126918   0.515   1.518   0.012
 8673SOL    HW226919   0.552   1.400   0.118
 8674SOL     OW26920   6.926   6.351   2.152
 8674SOL    HW126921   6.966   6.438   2.179
 8674SOL    HW226922   6.949   6.281   2.219
 8675SOL     OW26923   3.364   2.057   4.747
 8675SOL    HW126924   3.267   2.081   4.746
 8675SOL    HW226925   3.377   1.974   4.801
 8676SOL     OW26926   3.102   0.925   2.961
 8676SOL    HW126927   3.052   0.872   3.030
 8676SOL    HW226928   3.042   0.942   2.883
 8677SOL     OW26929   2.388   5.818   6.155
 8677SOL    HW126930   2.322   5.817   6.231
 8677SOL    HW226931   2.393   5.726   6.115
 8678SOL     OW26932   0.519   0.171   0.019
 8678SOL    HW126933   0.445   0.231   7.016
 8678SOL    HW226934   0.483   0.080   0.041
 8679SOL     OW26935   5.755   1.920   4.639
 8679SOL    HW126936   5.762   1.866   4.723
 8679SOL    HW226937   5.726   1.862   4.563
 8680SOL     OW26938   1.348   3.786   1.325
 8680SOL    HW126939   1.319   3.698   1.362
 8680SOL    HW226940   1.371   3.847   1.401
 8681SOL     OW26941   4.918   4.568   6.877
 8681SOL    HW126942   5.013   4.589   6.855
 8681SOL    HW226943   4.914   4.478   6.922
 8682SOL     OW26944   3.609   6.414   3.133
 8682SOL    HW126945   3.562   6.488   3.181
 8682SOL    HW226946   3.641   6.447   3.044
 8683SOL     OW26947   1.269   2.838   2.282
 8683SOL    HW126948   1.283   2.927   2.325
 8683SOL    HW226949   1.338   2.824   2.210
 8684SOL     OW26950   0.494   3.035   4.665
 8684SOL    HW126951   0.531   2.946   4.637
 8684SOL    HW226952   0.395   3.028   4.677
 8685SOL     OW26953   1.542   2.254   5.597
 8685SOL    HW126954   1.579   2.346   5.591
 8685SOL    HW226955   1.445   2.256   5.570
 8686SOL     OW26956   6.489   2.201   2.198
 8686SOL    HW126957   6.511   2.277   2.137
 8686SOL    HW226958   6.524   2.116   2.160
 8687SOL     OW26959   3.650   6.488   2.872
 8687SOL    HW126960   3.687   6.441   2.792
 8687SOL    HW226961   3.660   6.587   2.860
 8688SOL     OW26962   2.766   6.626   0.527
 8688SOL    HW126963   2.726   6.535   0.520
 8688SOL    HW226964   2.862   6.619   0.551
 8689SOL     OW26965   3.957   5.813   0.229
 8689SOL    HW126966   4.008   5.768   0.156
 8689SOL    HW226967   3.866   5.837   0.196
 8690SOL     OW26968   1.463   2.361   4.007
 8690SOL    HW126969   1.503   2.390   4.094
 8690SOL    HW226970   1.425   2.441   3.960
 8691SOL     OW26971   4.349   2.660   6.475
 8691SOL    HW126972   4.332   2.705   6.562
 8691SOL    HW226973   4.312   2.716   6.400
 8692SOL     OW26974   3.404   2.117   2.903
 8692SOL    HW126975   3.465   2.151   2.974
 8692SOL    HW226976   3.356   2.035   2.937
 8693SOL     OW26977   5.133   1.884   1.151
 8693SOL    HW126978   5.209   1.949   1.156
 8693SOL    HW226979   5.049   1.928   1.182
 8694SOL     OW26980   4.655   0.432   6.302
 8694SOL    HW126981   4.631   0.407   6.395
 8694SOL    HW226982   4.741   0.389   6.277
 8695SOL     OW26983   4.478   3.003   5.983
 8695SOL    HW126984   4.547   2.976   6.050
 8695SOL    HW226985   4.522   3.017   5.894
 8696SOL     OW26986   3.243   5.641   0.810
 8696SOL    HW126987   3.157   5.591   0.825
 8696SOL    HW226988   3.275   5.677   0.898
 8697SOL     OW26989   6.661   3.719   0.021
 8697SOL    HW126990   6.742   3.672   0.056
 8697SOL    HW226991   6.668   3.726   6.947
 8698SOL     OW26992   5.141   5.586   3.988
 8698SOL    HW126993   5.134   5.494   3.950
 8698SOL    HW226994   5.118   5.653   3.917
 8699SOL     OW26995   0.941   2.220   5.644
 8699SOL    HW126996   0.935   2.288   5.718
 8699SOL    HW226997   0.999   2.255   5.571
 8700SOL     OW26998   2.155   0.708   5.190
 8700SOL    HW126999   2.073   0.651   5.183
 8700SOL    HW227000   2.217   0.687   5.115
 8701SOL     OW27001   0.909   0.978   5.974
 8701SOL    HW127002   0.895   1.003   6.070
 8701SOL    HW227003   0.965   0.896   5.969
 8702SOL     OW27004   5.359   4.673   6.813
 8702SOL    HW127005   5.290   4.601   6.825
 8702SOL    HW227006   5.436   4.655   6.873
 8703SOL     OW27007   3.077   5.822   1.620
 8703SOL    HW127008   3.023   5.745   1.655
 8703SOL    HW227009   3.174   5.804   1.637
 8704SOL     OW27010   6.423   3.965   2.636
 8704SOL    HW127011   6.490   3.923   2.574
 8704SOL    HW227012   6.437   4.063   2.639
 8705SOL     OW27013   4.916   0.616   6.261
 8705SOL    HW127014   4.821   0.635   6.234
 8705SOL    HW227015   4.922   0.617   6.361
 8706SOL     OW27016   4.958   2.239   5.930
 8706SOL    HW127017   5.019   2.184   5.987
 8706SOL    HW227018   4.919   2.182   5.858
 8707SOL     OW27019   4.343   2.881   0.528
 8707SOL    HW127020   4.355   2.940   0.448
 8707SOL    HW227021   4.411   2.809   0.526
 8708SOL     OW27022   3.565   0.644   2.258
 8708SOL    HW127023   3.536   0.618   2.350
 8708SOL    HW227024   3.497   0.707   2.219
 8709SOL     OW27025   6.532   4.815   0.102
 8709SOL    HW127026   6.486   4.747   0.046
 8709SOL    HW227027   6.629   4.819   0.076
 8710SOL     OW27028   1.576   2.797   3.057
 8710SOL    HW127029   1.557   2.764   2.965
 8710SOL    HW227030   1.672   2.823   3.064
 8711SOL     OW27031   0.260   6.607   2.382
 8711SOL    HW127032   0.181   6.598   2.443
 8711SOL    HW227033   0.230   6.637   2.291
 8712SOL     OW27034   3.768   2.176   3.486
 8712SOL    HW127035   3.744   2.084   3.454
 8712SOL    HW227036   3.690   2.237   3.473
 8713SOL     OW27037   6.861   4.091   3.575
 8713SOL    HW127038   6.835   3.998   3.549
 8713SOL    HW227039   6.961   4.101   3.568
 8714SOL     OW27040   0.786   0.924   5.743
 8714SOL    HW127041   0.841   0.953   5.821
 8714SOL    HW227042   0.748   1.005   5.698
 8715SOL     OW27043   6.103   0.875   1.126
 8715SOL    HW127044   6.078   0.969   1.101
 8715SOL    HW227045   6.124   0.871   1.223
 8716SOL     OW27046   1.116   1.870   0.992
 8716SOL    HW127047   1.096   1.835   0.900
 8716SOL    HW227048   1.170   1.803   1.042
 8717SOL     OW27049   4.150   3.528   2.485
 8717SOL    HW127050   4.106   3.439   2.494
 8717SOL    HW227051   4.206   3.546   2.566
 8718SOL     OW27052   6.994   2.242   5.061
 8718SOL    HW127053   0.030   2.318   5.047
 8718SOL    HW227054   6.993   2.184   4.980
 8719SOL     OW27055   1.763   0.686   5.343
 8719SOL    HW127056   1.729   0.744   5.417
 8719SOL    HW227057   1.693   0.619   5.319
 8720SOL     OW27058   6.552   4.973   5.327
 8720SOL    HW127059   6.453   4.974   5.310
 8720SOL    HW227060   6.572   4.909   5.401
 8721SOL     OW27061   5.947   2.177   4.096
 8721SOL    HW127062   6.043   2.199   4.078
 8721SOL    HW227063   5.910   2.242   4.163
 8722SOL     OW27064   3.654   0.832   0.906
 8722SOL    HW127065   3.640   0.928   0.931
 8722SOL    HW227066   3.747   0.804   0.929
 8723SOL     OW27067   5.944   5.967   1.040
 8723SOL    HW127068   5.916   5.872   1.029
 8723SOL    HW227069   6.029   5.982   0.990
 8724SOL     OW27070   6.086   6.871   5.062
 8724SOL    HW127071   6.132   6.788   5.029
 8724SOL    HW227072   6.155   6.933   5.101
 8725SOL     OW27073   1.635   0.909   6.845
 8725SOL    HW127074   1.706   0.912   6.915
 8725SOL    HW227075   1.674   0.871   6.760
 8726SOL     OW27076   6.090   7.022   1.558
 8726SOL    HW127077   6.068   0.093   1.545
 8726SOL    HW227078   6.046   6.989   1.642
 8727SOL     OW27079   6.370   6.389   1.955
 8727SOL    HW127080   6.287   6.342   1.983
 8727SOL    HW227081   6.419   6.333   1.887
 8728SOL     OW27082   3.823   0.002   5.263
 8728SOL    HW127083   3.806   0.008   5.165
 8728SOL    HW227084   3.857   6.936   5.286
 8729SOL     OW27085   5.027   5.411   3.138
 8729SOL    HW127086   5.116   5.452   3.159
 8729SOL    HW227087   4.955   5.479   3.155
 8730SOL     OW27088   6.902   5.255   2.832
 8730SOL    HW127089   6.805   5.261   2.806
 8730SOL    HW227090   6.918   5.316   2.910
 8731SOL     OW27091   1.730   1.893   3.574
 8731SOL    HW127092   1.822   1.921   3.546
 8731SOL    HW227093   1.712   1.925   3.667
 8732SOL     OW27094   5.232   4.598   1.869
 8732SOL    HW127095   5.296   4.565   1.799
 8732SOL    HW227096   5.278   4.597   1.958
 8733SOL     OW27097   0.976   5.900   2.820
 8733SOL    HW127098   0.894   5.882   2.765
 8733SOL    HW227099   1.056   5.904   2.761
 8734SOL     OW27100   1.015   4.830   2.122
 8734SOL    HW127101   0.961   4.793   2.198
 8734SOL    HW227102   0.971   4.912   2.086
 8735SOL     OW27103   0.615   1.843   6.846
 8735SOL    HW127104   0.605   1.891   6.758
 8735SOL    HW227105   0.631   1.910   6.919
 8736SOL     OW27106   0.526   6.413   0.242
 8736SOL    HW127107   0.461   6.480   0.206
 8736SOL    HW227108   0.541   6.341   0.175
 8737SOL     OW27109   4.521   6.749   6.180
 8737SOL    HW127110   4.501   6.696   6.262
 8737SOL    HW227111   4.581   6.826   6.203
 8738SOL     OW27112   1.124   3.965   4.963
 8738SOL    HW127113   1.186   3.917   5.026
 8738SOL    HW227114   1.121   3.915   4.876
 8739SOL     OW27115   6.705   4.643   6.653
 8739SOL    HW127116   6.795   4.680   6.675
 8739SOL    HW227117   6.645   4.717   6.623
 8740SOL     OW27118   4.275   0.773   5.767
 8740SOL    HW127119   4.363   0.819   5.765
 8740SOL    HW227120   4.202   0.841   5.782
 8741SOL     OW27121   2.076   1.843   1.811
 8741SOL    HW127122   2.085   1.872   1.906
 8741SOL    HW227123   2.008   1.771   1.804
 8742SOL     OW27124   4.870   6.167   1.767
 8742SOL    HW127125   4.806   6.190   1.840
 8742SOL    HW227126   4.897   6.250   1.718
 8743SOL     OW27127   2.247   5.927   2.488
 8743SOL    HW127128   2.301   6.009   2.505
 8743SOL    HW227129   2.151   5.952   2.479
 8744SOL     OW27130   4.130   2.611   5.981
 8744SOL    HW127131   4.067   2.653   5.916
 8744SOL    HW227132   4.220   2.654   5.972
 8745SOL     OW27133   5.921   1.916   5.775
 8745SOL    HW127134   5.902   2.000   5.725
 8745SOL    HW227135   5.902   1.837   5.716
 8746SOL     OW27136   4.487   4.341   5.599
 8746SOL    HW127137   4.485   4.326   5.500
 8746SOL    HW227138   4.443   4.428   5.621
 8747SOL     OW27139   0.799   2.449   3.540
 8747SOL    HW127140   0.775   2.499   3.457
 8747SOL    HW227141   0.873   2.385   3.519
 8748SOL     OW27142   0.740   0.448   0.041
 8748SOL    HW127143   0.796   0.454   0.123
 8748SOL    HW227144   0.759   0.362   7.020
 8749SOL     OW27145   3.106   0.520   4.448
 8749SOL    HW127146   3.064   0.453   4.387
 8749SOL    HW227147   3.035   0.578   4.488
 8750SOL     OW27148   2.544   2.855   5.395
 8750SOL    HW127149   2.479   2.872   5.469
 8750SOL    HW227150   2.524   2.918   5.319
 8751SOL     OW27151   6.943   0.424   1.977
 8751SOL    HW127152   6.880   0.500   1.959
 8751SOL    HW227153   6.968   0.380   1.891
 8752SOL     OW27154   2.990   4.522   6.951
 8752SOL    HW127155   3.039   4.510   6.865
 8752SOL    HW227156   2.944   4.611   6.951
 8753SOL     OW27157   5.065   1.413   4.360
 8753SOL    HW127158   5.151   1.409   4.309
 8753SOL    HW227159   4.990   1.435   4.298
 8754SOL     OW27160   0.542   2.014   5.851
 8754SOL    HW127161   0.621   2.005   5.790
 8754SOL    HW227162   0.463   1.971   5.809
 8755SOL     OW27163   2.699   1.661   6.630
 8755SOL    HW127164   2.696   1.712   6.544
 8755SOL    HW227165   2.772   1.593   6.626
 8756SOL     OW27166   2.262   2.877   3.295
 8756SOL    HW127167   2.282   2.957   3.352
 8756SOL    HW227168   2.311   2.797   3.330
 8757SOL     OW27169   6.204   6.685   5.640
 8757SOL    HW127170   6.139   6.699   5.565
 8757SOL    HW227171   6.255   6.769   5.656
 8758SOL     OW27172   5.368   6.239   1.875
 8758SOL    HW127173   5.358   6.145   1.843
 8758SOL    HW227174   5.288   6.292   1.848
 8759SOL     OW27175   4.698   1.464   6.509
 8759SOL    HW127176   4.611   1.506   6.533
 8759SOL    HW227177   4.772   1.529   6.528
 8760SOL     OW27178   2.034   1.695   4.304
 8760SOL    HW127179   1.951   1.750   4.301
 8760SOL    HW227180   2.022   1.614   4.247
 8761SOL     OW27181   5.225   0.690   0.852
 8761SOL    HW127182   5.214   0.767   0.915
 8761SOL    HW227183   5.136   0.667   0.812
 8762SOL     OW27184   1.181   3.295   2.766
 8762SOL    HW127185   1.249   3.260   2.831
 8762SOL    HW227186   1.124   3.363   2.812
 8763SOL     OW27187   6.651   6.049   4.931
 8763SOL    HW127188   6.587   6.056   4.854
 8763SOL    HW227189   6.723   5.983   4.909
 8764SOL     OW27190   5.418   1.993   3.737
 8764SOL    HW127191   5.388   1.901   3.761
 8764SOL    HW227192   5.497   2.018   3.793
 8765SOL     OW27193   5.352   6.615   4.561
 8765SOL    HW127194   5.360   6.622   4.461
 8765SOL    HW227195   5.443   6.607   4.601
 8766SOL     OW27196   3.249   4.930   3.696
 8766SOL    HW127197   3.251   5.026   3.669
 8766SOL    HW227198   3.180   4.881   3.643
 8767SOL     OW27199   4.427   0.499   2.647
 8767SOL    HW127200   4.381   0.484   2.734
 8767SOL    HW227201   4.473   0.415   2.618
 8768SOL     OW27202   1.689   3.108   0.174
 8768SOL    HW127203   1.711   3.203   0.195
 8768SOL    HW227204   1.752   3.048   0.224
 8769SOL     OW27205   0.395   0.199   5.089
 8769SOL    HW127206   0.326   0.262   5.053
 8769SOL    HW227207   0.373   0.174   5.183
 8770SOL     OW27208   4.769   4.231   2.152
 8770SOL    HW127209   4.678   4.244   2.114
 8770SOL    HW227210   4.762   4.197   2.246
 8771SOL     OW27211   1.744   1.824   6.299
 8771SOL    HW127212   1.764   1.875   6.383
 8771SOL    HW227213   1.712   1.886   6.229
 8772SOL     OW27214   6.346   0.786   6.533
 8772SOL    HW127215   6.369   0.857   6.467
 8772SOL    HW227216   6.366   0.819   6.626
 8773SOL     OW27217   4.035   2.164   3.322
 8773SOL    HW127218   3.970   2.219   3.373
 8773SOL    HW227219   4.121   2.215   3.311
 8774SOL     OW27220   1.141   1.566   0.545
 8774SOL    HW127221   1.222   1.546   0.601
 8774SOL    HW227222   1.169   1.608   0.459
 8775SOL     OW27223   5.758   0.054   3.751
 8775SOL    HW127224   5.691   0.022   3.684
 8775SOL    HW227225   5.848   0.060   3.708
 8776SOL     OW27226   3.722   3.217   4.967
 8776SOL    HW127227   3.793   3.174   4.912
 8776SOL    HW227228   3.719   3.315   4.948
 8777SOL     OW27229   6.977   4.994   1.361
 8777SOL    HW127230   0.029   4.980   1.422
 8777SOL    HW227231   6.977   5.088   1.327
 8778SOL     OW27232   6.965   1.683   3.334
 8778SOL    HW127233   6.948   1.703   3.238
 8778SOL    HW227234   6.970   1.769   3.386
 8779SOL     OW27235   1.570   4.520   2.397
 8779SOL    HW127236   1.537   4.426   2.394
 8779SOL    HW227237   1.572   4.558   2.305
 8780SOL     OW27238   1.473   5.887   3.830
 8780SOL    HW127239   1.465   5.860   3.734
 8780SOL    HW227240   1.403   5.955   3.852
 8781SOL     OW27241   0.015   0.877   3.098
 8781SOL    HW127242   0.078   0.940   3.141
 8781SOL    HW227243   6.982   0.836   3.168
 8782SOL     OW27244   5.717   0.982   1.830
 8782SOL    HW127245   5.630   0.976   1.878
 8782SOL    HW227246   5.745   1.077   1.823
 8783SOL     OW27247   6.225   3.945   3.722
 8783SOL    HW127248   6.134   3.931   3.684
 8783SOL    HW227249   6.262   4.032   3.690
 8784SOL     OW27250   5.473   4.852   5.235
 8784SOL    HW127251   5.481   4.905   5.150
 8784SOL    HW227252   5.509   4.905   5.311
 8785SOL     OW27253   5.326   3.966   6.760
 8785SOL    HW127254   5.394   3.937   6.692
 8785SOL    HW227255   5.235   3.938   6.730
 8786SOL     OW27256   1.788   6.294   7.008
 8786SOL    HW127257   1.851   6.306   0.059
 8786SOL    HW227258   1.697   6.269   0.018
 8787SOL     OW27259   1.238   3.494   2.422
 8787SOL    HW127260   1.319   3.436   2.410
 8787SOL    HW227261   1.238   3.533   2.514
 8788SOL     OW27262   6.659   1.624   4.999
 8788SOL    HW127263   6.652   1.724   4.997
 8788SOL    HW227264   6.755   1.598   5.009
 8789SOL     OW27265   6.439   0.532   6.536
 8789SOL    HW127266   6.415   0.629   6.542
 8789SOL    HW227267   6.528   0.517   6.577
 8790SOL     OW27268   6.843   1.546   6.812
 8790SOL    HW127269   6.892   1.618   6.764
 8790SOL    HW227270   6.779   1.586   6.877
 8791SOL     OW27271   5.256   6.673   5.996
 8791SOL    HW127272   5.244   6.732   6.076
 8791SOL    HW227273   5.352   6.646   5.989
 8792SOL     OW27274   3.920   6.903   3.287
 8792SOL    HW127275   3.949   6.919   3.381
 8792SOL    HW227276   3.821   6.889   3.284
 8793SOL     OW27277   2.688   5.815   4.089
 8793SOL    HW127278   2.618   5.757   4.047
 8793SOL    HW227279   2.687   5.802   4.188
 8794SOL     OW27280   3.258   6.648   3.173
 8794SOL    HW127281   3.242   6.610   3.082
 8794SOL    HW227282   3.172   6.652   3.223
 8795SOL     OW27283   1.558   6.593   5.407
 8795SOL    HW127284   1.485   6.626   5.348
 8795SOL    HW227285   1.556   6.493   5.411
 8796SOL     OW27286   4.600   1.661   5.650
 8796SOL    HW127287   4.632   1.625   5.738
 8796SOL    HW227288   4.561   1.587   5.596
 8797SOL     OW27289   1.820   6.579   6.315
 8797SOL    HW127290   1.900   6.562   6.371
 8797SOL    HW227291   1.826   6.526   6.230
 8798SOL     OW27292   5.359   4.082   5.398
 8798SOL    HW127293   5.283   4.084   5.462
 8798SOL    HW227294   5.325   4.060   5.306
 8799SOL     OW27295   2.211   4.247   3.594
 8799SOL    HW127296   2.248   4.329   3.551
 8799SOL    HW227297   2.139   4.209   3.536
 8800SOL     OW27298   4.486   3.910   5.596
 8800SOL    HW127299   4.438   3.868   5.519
 8800SOL    HW227300   4.551   3.978   5.562
 8801SOL     OW27301   2.400   1.227   4.112
 8801SOL    HW127302   2.405   1.253   4.209
 8801SOL    HW227303   2.314   1.179   4.095
 8802SOL     OW27304   1.153   6.625   1.876
 8802SOL    HW127305   1.109   6.711   1.901
 8802SOL    HW227306   1.252   6.633   1.887
 8803SOL     OW27307   1.978   5.295   6.927
 8803SOL    HW127308   2.009   5.266   6.836
 8803SOL    HW227309   1.977   5.216   6.988
 8804SOL     OW27310   3.988   0.930   1.812
 8804SOL    HW127311   4.008   0.857   1.747
 8804SOL    HW227312   4.029   1.015   1.780
 8805SOL     OW27313   1.580   0.834   3.625
 8805SOL    HW127314   1.553   0.776   3.702
 8805SOL    HW227315   1.557   0.788   3.539
 8806SOL     OW27316   1.753   5.382   0.693
 8806SOL    HW127317   1.737   5.456   0.758
 8806SOL    HW227318   1.673   5.321   0.691
 8807SOL     OW27319   6.006   5.582   5.820
 8807SOL    HW127320   6.051   5.538   5.742
 8807SOL    HW227321   5.909   5.559   5.819
 8808SOL     OW27322   5.893   1.372   0.703
 8808SOL    HW127323   5.801   1.350   0.669
 8808SOL    HW227324   5.961   1.337   0.639
 8809SOL     OW27325   5.545   3.488   1.515
 8809SOL    HW127326   5.544   3.389   1.503
 8809SOL    HW227327   5.612   3.512   1.585
 8810SOL     OW27328   5.821   1.715   4.226
 8810SOL    HW127329   5.757   1.717   4.303
 8810SOL    HW227330   5.915   1.725   4.260
 8811SOL     OW27331   2.425   1.576   4.197
 8811SOL    HW127332   2.522   1.592   4.179
 8811SOL    HW227333   2.414   1.488   4.244
 8812SOL     OW27334   1.026   0.941   0.524
 8812SOL    HW127335   1.049   0.967   0.430
 8812SOL    HW227336   1.079   0.860   0.550
 8813SOL     OW27337   0.605   5.591   1.569
 8813SOL    HW127338   0.509   5.605   1.592
 8813SOL    HW227339   0.613   5.570   1.471
 8814SOL     OW27340   0.117   0.539   6.838
 8814SOL    HW127341   0.200   0.533   6.783
 8814SOL    HW227342   0.140   0.571   6.930
 8815SOL     OW27343   6.859   5.638   1.588
 8815SOL    HW127344   6.796   5.683   1.526
 8815SOL    HW227345   6.950   5.636   1.547
 8816SOL     OW27346   0.762   6.215   0.897
 8816SOL    HW127347   0.852   6.174   0.881
 8816SOL    HW227348   0.760   6.258   0.987
 8817SOL     OW27349   0.962   6.321   5.232
 8817SOL    HW127350   0.907   6.403   5.246
 8817SOL    HW227351   0.906   6.240   5.252
 8818SOL     OW27352   0.215   3.778   3.558
 8818SOL    HW127353   0.282   3.777   3.631
 8818SOL    HW227354   0.123   3.777   3.597
 8819SOL     OW27355   4.165   6.205   4.606
 8819SOL    HW127356   4.198   6.264   4.533
 8819SOL    HW227357   4.115   6.128   4.566
 8820SOL     OW27358   1.681   2.628   4.406
 8820SOL    HW127359   1.735   2.697   4.456
 8820SOL    HW227360   1.677   2.653   4.309
 8821SOL     OW27361   2.007   6.925   6.315
 8821SOL    HW127362   2.003   6.841   6.261
 8821SOL    HW227363   2.018   7.003   6.254
 8822SOL     OW27364   0.659   0.402   2.874
 8822SOL    HW127365   0.591   0.343   2.830
 8822SOL    HW227366   0.727   0.431   2.807
 8823SOL     OW27367   2.082   0.313   0.920
 8823SOL    HW127368   2.019   0.366   0.976
 8823SOL    HW227369   2.125   0.242   0.977
 8824SOL     OW27370   2.541   4.040   0.868
 8824SOL    HW127371   2.539   4.087   0.780
 8824SOL    HW227372   2.499   3.950   0.858
 8825SOL     OW27373   1.709   1.206   1.923
 8825SOL    HW127374   1.787   1.226   1.863
 8825SOL    HW227375   1.705   1.107   1.941
 8826SOL     OW27376   6.470   1.994   0.086
 8826SOL    HW127377   6.446   2.068   0.149
 8826SOL    HW227378   6.501   1.914   0.138
 8827SOL     OW27379   2.638   1.135   3.478
 8827SOL    HW127380   2.619   1.217   3.533
 8827SOL    HW227381   2.661   1.162   3.385
 8828SOL     OW27382   3.419   5.701   3.678
 8828SOL    HW127383   3.363   5.765   3.626
 8828SOL    HW227384   3.371   5.673   3.761
 8829SOL     OW27385   0.356   3.200   6.892
 8829SOL    HW127386   0.290   3.136   6.931
 8829SOL    HW227387   0.445   3.156   6.884
 8830SOL     OW27388   6.804   1.247   0.033
 8830SOL    HW127389   6.889   1.285   7.022
 8830SOL    HW227390   6.751   1.321   0.076
 8831SOL     OW27391   5.974   1.129   3.593
 8831SOL    HW127392   5.948   1.036   3.567
 8831SOL    HW227393   5.893   1.178   3.627
 8832SOL     OW27394   0.426   6.919   2.025
 8832SOL    HW127395   0.353   6.905   1.957
 8832SOL    HW227396   0.404   6.868   2.108
 8833SOL     OW27397   1.640   5.754   4.861
 8833SOL    HW127398   1.681   5.761   4.952
 8833SOL    HW227399   1.627   5.658   4.837
 8834SOL     OW27400   5.925   3.200   4.567
 8834SOL    HW127401   5.879   3.285   4.543
 8834SOL    HW227402   5.900   3.174   4.660
 8835SOL     OW27403   6.647   0.342   5.534
 8835SOL    HW127404   6.623   0.316   5.627
 8835SOL    HW227405   6.669   0.440   5.531
 8836SOL     OW27406   4.236   0.660   0.755
 8836SOL    HW127407   4.200   0.567   0.744
 8836SOL    HW227408   4.259   0.698   0.665
 8837SOL     OW27409   0.949   0.719   1.914
 8837SOL    HW127410   0.963   0.621   1.923
 8837SOL    HW227411   0.904   0.755   1.995
 8838SOL     OW27412   2.727   5.245   3.594
 8838SOL    HW127413   2.698   5.163   3.545
 8838SOL    HW227414   2.647   5.291   3.633
 8839SOL     OW27415   6.123   6.085   3.009
 8839SOL    HW127416   6.214   6.122   2.993
 8839SOL    HW227417   6.117   6.048   3.101
 8840SOL     OW27418   5.833   1.968   2.073
 8840SOL    HW127419   5.819   2.065   2.051
 8840SOL    HW227420   5.931   1.949   2.075
 8841SOL     OW27421   1.483   1.106   4.909
 8841SOL    HW127422   1.525   1.071   4.825
 8841SOL    HW227423   1.482   1.033   4.978
 8842SOL     OW27424   3.036   3.301   1.167
 8842SOL    HW127425   3.068   3.228   1.228
 8842SOL    HW227426   3.006   3.260   1.081
 8843SOL     OW27427   1.154   3.015   5.124
 8843SOL    HW127428   1.128   3.096   5.176
 8843SOL    HW227429   1.120   3.023   5.031
 8844SOL     OW27430   5.775   1.302   6.080
 8844SOL    HW127431   5.801   1.357   6.159
 8844SOL    HW227432   5.700   1.240   6.105
 8845SOL     OW27433   3.828   4.396   6.966
 8845SOL    HW127434   3.813   4.298   6.960
 8845SOL    HW227435   3.821   4.437   6.875
 8846SOL     OW27436   2.223   5.337   3.685
 8846SOL    HW127437   2.165   5.334   3.604
 8846SOL    HW227438   2.168   5.362   3.765
 8847SOL     OW27439   2.694   0.466   2.819
 8847SOL    HW127440   2.742   0.387   2.781
 8847SOL    HW227441   2.635   0.505   2.748
 8848SOL     OW27442   2.207   1.044   1.544
 8848SOL    HW127443   2.260   1.027   1.461
 8848SOL    HW227444   2.235   1.132   1.584
 8849SOL     OW27445   1.640   6.003   2.384
 8849SOL    HW127446   1.686   5.957   2.308
 8849SOL    HW227447   1.542   5.982   2.380
 8850SOL     OW27448   2.697   2.023   6.743
 8850SOL    HW127449   2.746   2.086   6.683
 8850SOL    HW227450   2.621   1.981   6.694
 8851SOL     OW27451   1.792   5.055   2.361
 8851SOL    HW127452   1.757   5.077   2.452
 8851SOL    HW227453   1.892   5.056   2.363
 8852SOL     OW27454   1.408   1.815   5.167
 8852SOL    HW127455   1.445   1.805   5.259
 8852SOL    HW227456   1.359   1.902   5.159
 8853SOL     OW27457   2.991   0.645   1.382
 8853SOL    HW127458   3.043   0.570   1.342
 8853SOL    HW227459   2.935   0.689   1.311
 8854SOL     OW27460   1.835   2.434   5.167
 8854SOL    HW127461   1.900   2.360   5.185
 8854SOL    HW227462   1.787   2.416   5.081
 8855SOL     OW27463   6.356   5.420   1.394
 8855SOL    HW127464   6.283   5.479   1.359
 8855SOL    HW227465   6.339   5.326   1.365
 8856SOL     OW27466   6.639   5.608   5.858
 8856SOL    HW127467   6.588   5.693   5.854
 8856SOL    HW227468   6.733   5.626   5.886
 8857SOL     OW27469   6.463   1.505   5.629
 8857SOL    HW127470   6.454   1.456   5.542
 8857SOL    HW227471   6.392   1.474   5.692
 8858SOL     OW27472   0.022   5.089   5.534
 8858SOL    HW127473   0.031   5.095   5.435
 8858SOL    HW227474   7.002   5.004   5.559
 8859SOL     OW27475   0.994   0.740   3.480
 8859SOL    HW127476   1.000   0.791   3.566
 8859SOL    HW227477   0.955   0.650   3.497
 8860SOL     OW27478   6.926   2.415   1.717
 8860SOL    HW127479   6.881   2.453   1.797
 8860SOL    HW227480   6.971   2.488   1.666
 8861SOL     OW27481   4.321   1.428   1.293
 8861SOL    HW127482   4.350   1.340   1.331
 8861SOL    HW227483   4.229   1.450   1.327
 8862SOL     OW27484   4.572   5.763   4.899
 8862SOL    HW127485   4.653   5.796   4.947
 8862SOL    HW227486   4.593   5.756   4.801
 8863SOL     OW27487   2.441   4.522   3.662
 8863SOL    HW127488   2.379   4.502   3.586
 8863SOL    HW227489   2.521   4.571   3.628
 8864SOL     OW27490   5.577   2.528   6.553
 8864SOL    HW127491   5.602   2.587   6.630
 8864SOL    HW227492   5.504   2.572   6.500
 8865SOL     OW27493   3.152   1.867   6.255
 8865SOL    HW127494   3.248   1.884   6.279
 8865SOL    HW227495   3.127   1.774   6.283
 8866SOL     OW27496   5.795   6.368   2.459
 8866SOL    HW127497   5.788   6.312   2.542
 8866SOL    HW227498   5.712   6.422   2.448
 8867SOL     OW27499   6.180   3.746   2.567
 8867SOL    HW127500   6.094   3.793   2.551
 8867SOL    HW227501   6.252   3.814   2.583
 8868SOL     OW27502   6.933   3.573   2.753
 8868SOL    HW127503   6.864   3.619   2.810
 8868SOL    HW227504   6.978   3.641   2.694
 8869SOL     OW27505   3.655   5.761   4.478
 8869SOL    HW127506   3.666   5.696   4.553
 8869SOL    HW227507   3.595   5.722   4.408
 8870SOL     OW27508   1.631   6.827   1.792
 8870SOL    HW127509   1.683   6.783   1.865
 8870SOL    HW227510   1.600   6.917   1.822
 8871SOL     OW27511   1.921   0.379   3.042
 8871SOL    HW127512   1.830   0.347   3.071
 8871SOL    HW227513   1.989   0.308   3.062
 8872SOL     OW27514   0.634   4.392   6.014
 8872SOL    HW127515   0.697   4.387   5.936
 8872SOL    HW227516   0.685   4.381   6.099
 8873SOL     OW27517   1.702   0.387   1.888
 8873SOL    HW127518   1.621   0.352   1.841
 8873SOL    HW227519   1.673   0.441   1.968
 8874SOL     OW27520   1.948   5.149   0.716
 8874SOL    HW127521   1.876   5.216   0.736
 8874SOL    HW227522   2.005   5.183   0.642
 8875SOL     OW27523   0.246   2.699   3.474
 8875SOL    HW127524   0.225   2.634   3.402
 8875SOL    HW227525   0.344   2.695   3.495
 8876SOL     OW27526   3.114   0.446   5.935
 8876SOL    HW127527   3.202   0.398   5.933
 8876SOL    HW227528   3.044   0.384   5.972
 8877SOL     OW27529   1.001   3.802   1.459
 8877SOL    HW127530   1.049   3.769   1.378
 8877SOL    HW227531   0.905   3.773   1.455
 8878SOL     OW27532   4.031   4.635   0.689
 8878SOL    HW127533   4.095   4.645   0.613
 8878SOL    HW227534   3.947   4.592   0.657
 8879SOL     OW27535   6.392   4.826   2.913
 8879SOL    HW127536   6.442   4.847   2.998
 8879SOL    HW227537   6.432   4.746   2.870
 8880SOL     OW27538   4.564   6.580   3.597
 8880SOL    HW127539   4.604   6.668   3.571
 8880SOL    HW227540   4.500   6.550   3.527
 8881SOL     OW27541   4.260   5.414   3.591
 8881SOL    HW127542   4.174   5.389   3.635
 8881SOL    HW227543   4.312   5.475   3.652
 8882SOL     OW27544   4.314   0.749   0.515
 8882SOL    HW127545   4.305   0.738   0.416
 8882SOL    HW227546   4.341   0.843   0.535
 8883SOL     OW27547   0.140   6.606   6.032
 8883SOL    HW127548   0.140   6.513   6.070
 8883SOL    HW227549   0.047   6.644   6.039
 8884SOL     OW27550   5.882   3.869   4.302
 8884SOL    HW127551   5.783   3.880   4.312
 8884SOL    HW227552   5.926   3.957   4.313
 8885SOL     OW27553   5.572   5.497   0.187
 8885SOL    HW127554   5.585   5.423   0.253
 8885SOL    HW227555   5.659   5.520   0.145
 8886SOL     OW27556   3.249   5.387   6.866
 8886SOL    HW127557   3.192   5.456   6.912
 8886SOL    HW227558   3.197   5.302   6.858
 8887SOL     OW27559   4.612   0.646   0.506
 8887SOL    HW127560   4.545   0.718   0.524
 8887SOL    HW227561   4.697   0.686   0.473
 8888SOL     OW27562   2.241   1.777   3.766
 8888SOL    HW127563   2.143   1.760   3.779
 8888SOL    HW227564   2.293   1.720   3.830
 8889SOL     OW27565   6.742   6.385   6.051
 8889SOL    HW127566   6.763   6.411   6.145
 8889SOL    HW227567   6.823   6.343   6.009
 8890SOL     OW27568   6.852   6.874   0.198
 8890SOL    HW127569   6.914   6.920   0.134
 8890SOL    HW227570   6.807   6.942   0.256
 8891SOL     OW27571   5.746   4.634   6.276
 8891SOL    HW127572   5.782   4.595   6.360
 8891SOL    HW227573   5.820   4.652   6.212
 8892SOL     OW27574   3.427   4.957   3.904
 8892SOL    HW127575   3.478   5.031   3.861
 8892SOL    HW227576   3.358   4.922   3.840
 8893SOL     OW27577   1.222   5.276   4.491
 8893SOL    HW127578   1.314   5.316   4.494
 8893SOL    HW227579   1.160   5.339   4.443
 8894SOL     OW27580   4.532   2.603   0.335
 8894SOL    HW127581   4.574   2.512   0.335
 8894SOL    HW227582   4.602   2.673   0.321
 8895SOL     OW27583   0.796   3.565   0.823
 8895SOL    HW127584   0.855   3.638   0.856
 8895SOL    HW227585   0.837   3.476   0.847
 8896SOL     OW27586   0.650   2.334   4.229
 8896SOL    HW127587   0.676   2.309   4.135
 8896SOL    HW227588   0.562   2.382   4.227
 8897SOL     OW27589   1.485   3.790   3.825
 8897SOL    HW127590   1.456   3.751   3.737
 8897SOL    HW227591   1.499   3.888   3.814
 8898SOL     OW27592   4.948   3.387   2.639
 8898SOL    HW127593   4.939   3.368   2.737
 8898SOL    HW227594   4.898   3.318   2.587
 8899SOL     OW27595   0.226   4.335   6.250
 8899SOL    HW127596   0.151   4.269   6.251
 8899SOL    HW227597   0.242   4.366   6.156
 8900SOL     OW27598   5.841   2.099   3.403
 8900SOL    HW127599   5.902   2.097   3.323
 8900SOL    HW227600   5.888   2.143   3.479
 8901SOL     OW27601   0.552   2.305   3.579
 8901SOL    HW127602   0.645   2.328   3.548
 8901SOL    HW227603   0.545   2.318   3.678
 8902SOL     OW27604   1.526   4.476   0.189
 8902SOL    HW127605   1.458   4.549   0.204
 8902SOL    HW227606   1.580   4.464   0.273
 8903SOL     OW27607   1.770   1.209   4.539
 8903SOL    HW127608   1.792   1.138   4.471
 8903SOL    HW227609   1.682   1.250   4.517
 8904SOL     OW27610   0.399   1.315   2.313
 8904SOL    HW127611   0.436   1.351   2.228
 8904SOL    HW227612   0.451   1.353   2.390
 8905SOL     OW27613   1.583   3.407   2.178
 8905SOL    HW127614   1.667   3.356   2.193
 8905SOL    HW227615   1.590   3.497   2.222
 8906SOL     OW27616   0.542   0.225   0.936
 8906SOL    HW127617   0.566   0.228   0.840
 8906SOL    HW227618   0.495   0.310   0.961
 8907SOL     OW27619   3.354   2.533   5.310
 8907SOL    HW127620   3.284   2.474   5.270
 8907SOL    HW227621   3.356   2.620   5.261
 8908SOL     OW27622   1.491   5.369   0.499
 8908SOL    HW127623   1.401   5.327   0.490
 8908SOL    HW227624   1.491   5.459   0.455
 8909SOL     OW27625   2.461   1.437   6.668
 8909SOL    HW127626   2.474   1.514   6.730
 8909SOL    HW227627   2.453   1.470   6.574
 8910SOL     OW27628   0.933   2.698   4.912
 8910SOL    HW127629   0.924   2.666   5.007
 8910SOL    HW227630   0.873   2.777   4.898
 8911SOL     OW27631   5.200   1.820   4.078
 8911SOL    HW127632   5.255   1.895   4.115
 8911SOL    HW227633   5.106   1.850   4.066
 8912SOL     OW27634   3.955   3.898   5.298
 8912SOL    HW127635   3.959   3.806   5.260
 8912SOL    HW227636   4.031   3.912   5.361
 8913SOL     OW27637   5.298   5.223   0.382
 8913SOL    HW127638   5.243   5.278   0.319
 8913SOL    HW227639   5.394   5.248   0.372
 8914SOL     OW27640   5.209   6.367   4.973
 8914SOL    HW127641   5.227   6.270   4.961
 8914SOL    HW227642   5.184   6.408   4.886
 8915SOL     OW27643   0.782   1.146   3.649
 8915SOL    HW127644   0.783   1.245   3.658
 8915SOL    HW227645   0.717   1.107   3.714
 8916SOL     OW27646   5.751   1.474   6.311
 8916SOL    HW127647   5.803   1.442   6.390
 8916SOL    HW227648   5.776   1.568   6.290
 8917SOL     OW27649   6.331   1.670   0.408
 8917SOL    HW127650   6.242   1.650   0.367
 8917SOL    HW227651   6.330   1.761   0.449
 8918SOL     OW27652   1.764   5.371   1.440
 8918SOL    HW127653   1.810   5.396   1.355
 8918SOL    HW227654   1.817   5.300   1.487
 8919SOL     OW27655   5.447   4.399   6.580
 8919SOL    HW127656   5.542   4.388   6.608
 8919SOL    HW227657   5.433   4.493   6.547
 8920SOL     OW27658   0.151   1.047   6.487
 8920SOL    HW127659   0.233   1.003   6.524
 8920SOL    HW227660   0.073   1.026   6.545
 8921SOL     OW27661   1.213   3.312   0.996
 8921SOL    HW127662   1.287   3.366   1.035
 8921SOL    HW227663   1.249   3.251   0.926
 8922SOL     OW27664   3.598   6.606   3.327
 8922SOL    HW127665   3.694   6.597   3.354
 8922SOL    HW227666   3.550   6.666   3.391
 8923SOL     OW27667   1.500   1.930   5.432
 8923SOL    HW127668   1.491   1.895   5.526
 8923SOL    HW227669   1.594   1.962   5.418
 8924SOL     OW27670   5.314   5.276   4.446
 8924SOL    HW127671   5.247   5.239   4.382
 8924SOL    HW227672   5.404   5.237   4.426
 8925SOL     OW27673   1.352   0.797   2.615
 8925SOL    HW127674   1.320   0.705   2.593
 8925SOL    HW227675   1.292   0.865   2.572
 8926SOL     OW27676   6.320   3.284   5.798
 8926SOL    HW127677   6.276   3.326   5.878
 8926SOL    HW227678   6.413   3.257   5.820
 8927SOL     OW27679   6.708   2.279   5.539
 8927SOL    HW127680   6.636   2.245   5.479
 8927SOL    HW227681   6.668   2.329   5.615
 8928SOL     OW27682   2.723   0.241   5.551
 8928SOL    HW127683   2.649   0.260   5.487
 8928SOL    HW227684   2.686   0.201   5.635
 8929SOL     OW27685   6.304   2.642   5.074
 8929SOL    HW127686   6.274   2.734   5.048
 8929SOL    HW227687   6.226   2.590   5.109
 8930SOL     OW27688   1.282   3.894   3.358
 8930SOL    HW127689   1.191   3.925   3.383
 8930SOL    HW227690   1.289   3.795   3.368
 8931SOL     OW27691   3.585   3.063   1.887
 8931SOL    HW127692   3.615   3.015   1.969
 8931SOL    HW227693   3.503   3.020   1.850
 8932SOL     OW27694   0.600   2.153   3.112
 8932SOL    HW127695   0.566   2.067   3.150
 8932SOL    HW227696   0.559   2.230   3.161
 8933SOL     OW27697   3.736   2.473   6.531
 8933SOL    HW127698   3.739   2.569   6.557
 8933SOL    HW227699   3.649   2.453   6.486
 8934SOL     OW27700   3.662   5.882   3.762
 8934SOL    HW127701   3.586   5.819   3.749
 8934SOL    HW227702   3.626   5.975   3.776
 8935SOL     OW27703   6.762   5.339   0.791
 8935SOL    HW127704   6.809   5.303   0.872
 8935SOL    HW227705   6.792   5.433   0.775
 8936SOL     OW27706   1.842   3.352   0.600
 8936SOL    HW127707   1.856   3.380   0.505
 8936SOL    HW227708   1.845   3.433   0.659
 8937SOL     OW27709   0.538   6.631   5.161
 8937SOL    HW127710   0.499   6.669   5.077
 8937SOL    HW227711   0.463   6.606   5.224
 8938SOL     OW27712   6.701   5.147   1.443
 8938SOL    HW127713   6.647   5.102   1.514
 8938SOL    HW227714   6.745   5.228   1.481
 8939SOL     OW27715   5.142   1.983   4.782
 8939SOL    HW127716   5.074   1.980   4.856
 8939SOL    HW227717   5.232   1.960   4.819
 8940SOL     OW27718   6.753   0.637   3.937
 8940SOL    HW127719   6.818   0.562   3.950
 8940SOL    HW227720   6.678   0.628   4.001
 8941SOL     OW27721   5.651   2.327   5.768
 8941SOL    HW127722   5.619   2.376   5.850
 8941SOL    HW227723   5.602   2.361   5.688
 8942SOL     OW27724   0.309   2.862   5.220
 8942SOL    HW127725   0.320   2.959   5.240
 8942SOL    HW227726   0.385   2.811   5.262
 8943SOL     OW27727   5.290   3.941   0.360
 8943SOL    HW127728   5.296   3.926   0.459
 8943SOL    HW227729   5.195   3.954   0.333
 8944SOL     OW27730   5.503   5.356   6.270
 8944SOL    HW127731   5.511   5.423   6.197
 8944SOL    HW227732   5.439   5.390   6.340
 8945SOL     OW27733   2.173   0.355   4.738
 8945SOL    HW127734   2.234   0.395   4.671
 8945SOL    HW227735   2.083   0.398   4.731
 8946SOL     OW27736   3.362   2.071   5.071
 8946SOL    HW127737   3.303   2.136   5.023
 8946SOL    HW227738   3.451   2.114   5.089
 8947SOL     OW27739   2.121   3.720   5.930
 8947SOL    HW127740   2.049   3.790   5.932
 8947SOL    HW227741   2.099   3.651   5.861
 8948SOL     OW27742   5.344   5.006   3.533
 8948SOL    HW127743   5.418   5.070   3.552
 8948SOL    HW227744   5.382   4.917   3.507
 8949SOL     OW27745   1.907   6.983   6.808
 8949SOL    HW127746   1.882   6.982   6.905
 8949SOL    HW227747   1.826   6.961   6.752
 8950SOL     OW27748   4.671   3.202   5.520
 8950SOL    HW127749   4.594   3.248   5.477
 8950SOL    HW227750   4.726   3.156   5.450
 8951SOL     OW27751   1.506   2.601   5.347
 8951SOL    HW127752   1.523   2.634   5.253
 8951SOL    HW227753   1.410   2.575   5.355
 8952SOL     OW27754   1.049   1.355   2.483
 8952SOL    HW127755   1.019   1.404   2.565
 8952SOL    HW227756   1.132   1.398   2.448
 8953SOL     OW27757   1.386   3.573   7.011
 8953SOL    HW127758   1.374   3.587   6.913
 8953SOL    HW227759   1.417   3.658   0.027
 8954SOL     OW27760   0.144   5.883   5.614
 8954SOL    HW127761   0.064   5.916   5.563
 8954SOL    HW227762   0.215   5.855   5.550
 8955SOL     OW27763   6.824   4.228   3.308
 8955SOL    HW127764   6.881   4.161   3.261
 8955SOL    HW227765   6.839   4.222   3.407
 8956SOL     OW27766   0.271   0.806   6.267
 8956SOL    HW127767   0.221   0.749   6.332
 8956SOL    HW227768   0.311   0.884   6.315
 8957SOL     OW27769   2.823   4.622   1.642
 8957SOL    HW127770   2.868   4.580   1.721
 8957SOL    HW227771   2.870   4.706   1.617
 8958SOL     OW27772   0.586   0.142   4.037
 8958SOL    HW127773   0.581   0.154   3.938
 8958SOL    HW227774   0.548   0.053   4.062
 8959SOL     OW27775   1.180   4.737   0.896
 8959SOL    HW127776   1.219   4.803   0.961
 8959SOL    HW227777   1.111   4.782   0.840
 8960SOL     OW27778   4.336   5.467   2.725
 8960SOL    HW127779   4.302   5.500   2.813
 8960SOL    HW227780   4.424   5.423   2.737
 8961SOL     OW27781   1.575   1.538   4.518
 8961SOL    HW127782   1.479   1.533   4.546
 8961SOL    HW227783   1.634   1.540   4.599
 8962SOL     OW27784   5.845   6.993   2.562
 8962SOL    HW127785   5.792   0.024   2.625
 8962SOL    HW227786   5.833   0.000   2.468
 8963SOL     OW27787   5.113   6.493   4.265
 8963SOL    HW127788   5.020   6.482   4.230
 8963SOL    HW227789   5.129   6.427   4.339
 8964SOL     OW27790   5.422   5.039   2.050
 8964SOL    HW127791   5.409   4.967   2.119
 8964SOL    HW227792   5.458   5.121   2.095
 8965SOL     OW27793   1.819   5.216   1.185
 8965SOL    HW127794   1.885   5.269   1.131
 8965SOL    HW227795   1.869   5.155   1.247
 8966SOL     OW27796   1.409   2.873   6.045
 8966SOL    HW127797   1.437   2.804   6.112
 8966SOL    HW227798   1.321   2.911   6.071
 8967SOL     OW27799   3.570   6.750   1.601
 8967SOL    HW127800   3.546   6.790   1.513
 8967SOL    HW227801   3.639   6.808   1.646
 8968SOL     OW27802   5.084   5.788   2.288
 8968SOL    HW127803   5.016   5.778   2.361
 8968SOL    HW227804   5.087   5.704   2.233
 8969SOL     OW27805   6.062   0.679   3.679
 8969SOL    HW127806   6.050   0.717   3.771
 8969SOL    HW227807   6.159   0.659   3.664
 8970SOL     OW27808   3.286   2.528   1.228
 8970SOL    HW127809   3.253   2.436   1.249
 8970SOL    HW227810   3.377   2.541   1.268
 8971SOL     OW27811   3.465   6.294   2.501
 8971SOL    HW127812   3.410   6.245   2.568
 8971SOL    HW227813   3.527   6.357   2.548
 8972SOL     OW27814   4.836   6.235   0.146
 8972SOL    HW127815   4.864   6.173   0.072
 8972SOL    HW227816   4.766   6.298   0.112
 8973SOL     OW27817   1.123   4.144   1.669
 8973SOL    HW127818   1.148   4.059   1.716
 8973SOL    HW227819   1.137   4.134   1.571
 8974SOL     OW27820   1.048   4.282   6.403
 8974SOL    HW127821   1.070   4.334   6.485
 8974SOL    HW227822   1.032   4.187   6.426
 8975SOL     OW27823   2.772   0.829   0.041
 8975SOL    HW127824   2.723   0.875   6.993
 8975SOL    HW227825   2.740   0.866   0.129
 8976SOL     OW27826   1.093   5.520   5.028
 8976SOL    HW127827   1.046   5.464   5.095
 8976SOL    HW227828   1.109   5.467   4.944
 8977SOL     OW27829   6.341   1.295   6.341
 8977SOL    HW127830   6.407   1.318   6.269
 8977SOL    HW227831   6.317   1.198   6.334
 8978SOL     OW27832   5.864   6.146   6.922
 8978SOL    HW127833   5.772   6.137   6.882
 8978SOL    HW227834   5.866   6.101   7.011
 8979SOL     OW27835   1.608   3.717   4.965
 8979SOL    HW127836   1.560   3.642   4.918
 8979SOL    HW227837   1.679   3.753   4.905
 8980SOL     OW27838   2.808   3.571   5.423
 8980SOL    HW127839   2.818   3.613   5.333
 8980SOL    HW227840   2.822   3.640   5.494
 8981SOL     OW27841   4.029   1.645   4.990
 8981SOL    HW127842   3.965   1.591   4.936
 8981SOL    HW227843   4.109   1.589   5.012
 8982SOL     OW27844   2.043   3.566   0.335
 8982SOL    HW127845   2.117   3.633   0.331
 8982SOL    HW227846   2.053   3.500   0.260
 8983SOL     OW27847   3.116   6.330   6.767
 8983SOL    HW127848   3.017   6.320   6.755
 8983SOL    HW227849   3.162   6.304   6.682
 8984SOL     OW27850   2.167   6.531   2.754
 8984SOL    HW127851   2.227   6.570   2.684
 8984SOL    HW227852   2.186   6.574   2.842
 8985SOL     OW27853   3.501   2.467   0.436
 8985SOL    HW127854   3.582   2.504   0.483
 8985SOL    HW227855   3.437   2.430   0.504
 8986SOL     OW27856   3.493   5.064   2.887
 8986SOL    HW127857   3.418   5.041   2.949
 8986SOL    HW227858   3.577   5.020   2.918
 8987SOL     OW27859   4.498   6.444   3.226
 8987SOL    HW127860   4.503   6.537   3.189
 8987SOL    HW227861   4.442   6.443   3.308
 8988SOL     OW27862   0.454   6.049   3.683
 8988SOL    HW127863   0.533   6.107   3.703
 8988SOL    HW227864   0.370   6.102   3.692
 8989SOL     OW27865   4.167   3.356   6.734
 8989SOL    HW127866   4.260   3.331   6.706
 8989SOL    HW227867   4.152   3.453   6.713
 8990SOL     OW27868   0.163   4.568   3.846
 8990SOL    HW127869   0.088   4.622   3.884
 8990SOL    HW227870   0.143   4.545   3.751
 8991SOL     OW27871   1.614   3.251   4.752
 8991SOL    HW127872   1.618   3.174   4.688
 8991SOL    HW227873   1.587   3.217   4.842
 8992SOL     OW27874   4.966   1.437   0.727
 8992SOL    HW127875   4.974   1.482   0.816
 8992SOL    HW227876   4.910   1.492   0.666
 8993SOL     OW27877   3.880   3.099   6.858
 8993SOL    HW127878   3.829   3.063   6.937
 8993SOL    HW227879   3.821   3.098   6.778
 8994SOL     OW27880   1.580   4.690   4.678
 8994SOL    HW127881   1.668   4.726   4.649
 8994SOL    HW227882   1.570   4.595   4.648
 8995SOL     OW27883   6.402   1.692   0.781
 8995SOL    HW127884   6.446   1.669   0.694
 8995SOL    HW227885   6.303   1.692   0.768
 8996SOL     OW27886   5.502   4.065   5.824
 8996SOL    HW127887   5.455   3.978   5.836
 8996SOL    HW227888   5.436   4.134   5.793
 8997SOL     OW27889   4.800   0.872   6.366
 8997SOL    HW127890   4.786   0.849   6.462
 8997SOL    HW227891   4.893   0.845   6.338
 8998SOL     OW27892   6.044   3.360   4.171
 8998SOL    HW127893   6.001   3.447   4.195
 8998SOL    HW227894   6.141   3.376   4.148
 8999SOL     OW27895   5.093   6.711   6.416
 8999SOL    HW127896   5.084   6.701   6.516
 8999SOL    HW227897   5.169   6.653   6.385
 9000SOL     OW27898   1.422   3.242   2.013
 9000SOL    HW127899   1.343   3.299   2.037
 9000SOL    HW227900   1.493   3.252   2.083
 9001SOL     OW27901   0.140   5.581   1.820
 9001SOL    HW127902   0.140   5.677   1.848
 9001SOL    HW227903   0.102   5.525   1.894
 9002SOL     OW27904   1.395   4.623   5.305
 9002SOL    HW127905   1.434   4.708   5.269
 9002SOL    HW227906   1.427   4.546   5.250
 9003SOL     OW27907   4.975   3.500   1.293
 9003SOL    HW127908   4.973   3.504   1.393
 9003SOL    HW227909   5.038   3.428   1.264
 9004SOL     OW27910   4.528   5.032   0.933
 9004SOL    HW127911   4.543   5.020   1.031
 9004SOL    HW227912   4.615   5.022   0.884
 9005SOL     OW27913   5.858   1.658   5.650
 9005SOL    HW127914   5.764   1.624   5.647
 9005SOL    HW227915   5.922   1.583   5.635
 9006SOL     OW27916   2.541   6.334   0.852
 9006SOL    HW127917   2.549   6.432   0.837
 9006SOL    HW227918   2.457   6.315   0.904
 9007SOL     OW27919   2.427   1.620   2.209
 9007SOL    HW127920   2.417   1.632   2.110
 9007SOL    HW227921   2.515   1.577   2.229
 9008SOL     OW27922   0.089   4.976   3.046
 9008SOL    HW127923   7.016   4.968   3.054
 9008SOL    HW227924   0.125   4.898   2.995
 9009SOL     OW27925   3.042   5.284   1.284
 9009SOL    HW127926   3.036   5.280   1.384
 9009SOL    HW227927   2.951   5.300   1.245
 9010SOL     OW27928   2.388   5.992   4.359
 9010SOL    HW127929   2.360   5.997   4.263
 9010SOL    HW227930   2.447   6.069   4.381
 9011SOL     OW27931   4.194   0.953   1.484
 9011SOL    HW127932   4.139   0.905   1.415
 9011SOL    HW227933   4.264   0.891   1.518
 9012SOL     OW27934   2.458   5.534   0.227
 9012SOL    HW127935   2.445   5.595   0.305
 9012SOL    HW227936   2.554   5.507   0.221
 9013SOL     OW27937   0.516   0.487   5.262
 9013SOL    HW127938   0.458   0.520   5.337
 9013SOL    HW227939   0.486   0.396   5.233
 9014SOL     OW27940   6.399   2.749   0.987
 9014SOL    HW127941   6.382   2.845   0.967
 9014SOL    HW227942   6.360   2.726   1.076
 9015SOL     OW27943   4.852   2.037   1.643
 9015SOL    HW127944   4.810   2.041   1.552
 9015SOL    HW227945   4.840   2.125   1.689
 9016SOL     OW27946   5.489   5.235   6.579
 9016SOL    HW127947   5.416   5.303   6.585
 9016SOL    HW227948   5.450   5.143   6.588
 9017SOL     OW27949   4.281   1.024   3.961
 9017SOL    HW127950   4.321   0.945   4.008
 9017SOL    HW227951   4.293   1.015   3.863
 9018SOL     OW27952   3.365   3.785   6.315
 9018SOL    HW127953   3.461   3.803   6.336
 9018SOL    HW227954   3.360   3.720   6.238
 9019SOL     OW27955   0.663   4.282   2.937
 9019SOL    HW127956   0.643   4.356   2.873
 9019SOL    HW227957   0.747   4.235   2.909
 9020SOL     OW27958   0.084   4.680   1.303
 9020SOL    HW127959   7.012   4.688   1.320
 9020SOL    HW227960   0.103   4.593   1.257
 9021SOL     OW27961   6.807   0.838   3.256
 9021SOL    HW127962   6.771   0.754   3.298
 9021SOL    HW227963   6.851   0.894   3.326
 9022SOL     OW27964   3.696   1.426   6.740
 9022SOL    HW127965   3.723   1.504   6.684
 9022SOL    HW227966   3.596   1.420   6.745
 9023SOL     OW27967   4.367   3.592   1.627
 9023SOL    HW127968   4.312   3.579   1.710
 9023SOL    HW227969   4.450   3.642   1.650
 9024SOL     OW27970   1.236   4.416   5.114
 9024SOL    HW127971   1.232   4.342   5.047
 9024SOL    HW227972   1.205   4.382   5.203
 9025SOL     OW27973   6.741   5.614   0.755
 9025SOL    HW127974   6.748   5.698   0.701
 9025SOL    HW227975   6.680   5.629   0.833
 9026SOL     OW27976   3.254   2.069   0.508
 9026SOL    HW127977   3.258   2.127   0.590
 9026SOL    HW227978   3.222   2.123   0.430
 9027SOL     OW27979   1.001   3.586   3.363
 9027SOL    HW127980   0.979   3.498   3.405
 9027SOL    HW227981   0.996   3.578   3.264
 9028SOL     OW27982   4.054   2.983   5.355
 9028SOL    HW127983   4.005   2.976   5.268
 9028SOL    HW227984   4.000   2.940   5.427
 9029SOL     OW27985   4.111   6.882   5.055
 9029SOL    HW127986   4.206   6.865   5.081
 9029SOL    HW227987   4.050   6.830   5.115
 9030SOL     OW27988   1.991   2.496   4.088
 9030SOL    HW127989   2.043   2.412   4.101
 9030SOL    HW227990   1.908   2.476   4.034
 9031SOL     OW27991   4.317   6.939   4.412
 9031SOL    HW127992   4.358   6.946   4.503
 9031SOL    HW227993   4.272   7.025   4.389
 9032SOL     OW27994   4.685   3.701   1.185
 9032SOL    HW127995   4.773   3.676   1.226
 9032SOL    HW227996   4.615   3.704   1.257
 9033SOL     OW27997   0.360   4.596   2.773
 9033SOL    HW127998   0.328   4.624   2.864
 9033SOL    HW227999   0.283   4.562   2.720
 9034SOL     OW28000   3.199   6.168   4.712
 9034SOL    HW128001   3.233   6.106   4.783
 9034SOL    HW228002   3.274   6.227   4.681
 9035SOL     OW28003   2.085   5.904   6.956
 9035SOL    HW128004   2.073   5.834   6.886
 9035SOL    HW228005   2.137   5.867   0.007
 9036SOL     OW28006   1.577   4.194   5.381
 9036SOL    HW128007   1.509   4.193   5.454
 9036SOL    HW228008   1.665   4.163   5.416
 9037SOL     OW28009   1.204   2.944   4.067
 9037SOL    HW128010   1.122   2.896   4.099
 9037SOL    HW228011   1.243   2.997   4.142
 9038SOL     OW28012   4.364   3.147   0.125
 9038SOL    HW128013   4.292   3.082   0.146
 9038SOL    HW228014   4.327   3.240   0.126
 9039SOL     OW28015   3.301   4.917   6.805
 9039SOL    HW128016   3.346   4.998   6.767
 9039SOL    HW228017   3.266   4.861   6.730
 9040SOL     OW28018   2.635   2.320   1.978
 9040SOL    HW128019   2.733   2.327   1.994
 9040SOL    HW228020   2.594   2.258   2.045
 9041SOL     OW28021   1.184   2.474   0.980
 9041SOL    HW128022   1.092   2.463   0.941
 9041SOL    HW228023   1.183   2.445   1.075
 9042SOL     OW28024   3.856   6.706   4.916
 9042SOL    HW128025   3.875   6.675   5.008
 9042SOL    HW228026   3.895   6.642   4.850
 9043SOL     OW28027   2.103   1.532   6.126
 9043SOL    HW128028   2.156   1.495   6.202
 9043SOL    HW228029   2.164   1.577   6.061
 9044SOL     OW28030   0.589   1.174   6.935
 9044SOL    HW128031   0.585   1.213   0.001
 9044SOL    HW228032   0.589   1.075   6.941
 9045SOL     OW28033   3.888   0.410   3.234
 9045SOL    HW128034   3.977   0.440   3.270
 9045SOL    HW228035   3.825   0.398   3.310
 9046SOL     OW28036   4.074   3.828   2.777
 9046SOL    HW128037   3.979   3.860   2.777
 9046SOL    HW228038   4.126   3.881   2.709
 9047SOL     OW28039   0.900   4.149   4.913
 9047SOL    HW128040   0.955   4.067   4.930
 9047SOL    HW228041   0.960   4.226   4.894
 9048SOL     OW28042   6.371   2.601   6.370
 9048SOL    HW128043   6.407   2.691   6.393
 9048SOL    HW228044   6.374   2.542   6.451
 9049SOL     OW28045   3.773   6.296   5.582
 9049SOL    HW128046   3.734   6.204   5.586
 9049SOL    HW228047   3.701   6.363   5.601
 9050SOL     OW28048   0.404   3.399   1.375
 9050SOL    HW128049   0.401   3.305   1.341
 9050SOL    HW228050   0.313   3.440   1.366
 9051SOL     OW28051   2.151   0.173   1.718
 9051SOL    HW128052   2.226   0.227   1.680
 9051SOL    HW228053   2.102   0.226   1.787
 9052SOL     OW28054   2.180   3.176   3.943
 9052SOL    HW128055   2.209   3.084   3.970
 9052SOL    HW228056   2.220   3.243   4.005
 9053SOL     OW28057   1.969   1.308   0.622
 9053SOL    HW128058   2.024   1.295   0.540
 9053SOL    HW228059   1.915   1.225   0.640
 9054SOL     OW28060   1.913   5.788   4.524
 9054SOL    HW128061   1.963   5.854   4.468
 9054SOL    HW228062   1.965   5.704   4.531
 9055SOL     OW28063   6.093   3.914   4.603
 9055SOL    HW128064   6.147   3.889   4.522
 9055SOL    HW228065   6.140   3.987   4.653
 9056SOL     OW28066   6.428   1.711   2.187
 9056SOL    HW128067   6.503   1.687   2.126
 9056SOL    HW228068   6.341   1.690   2.142
 9057SOL     OW28069   4.707   2.114   4.653
 9057SOL    HW128070   4.757   2.194   4.684
 9057SOL    HW228071   4.642   2.085   4.723
 9058SOL     OW28072   1.151   0.722   0.606
 9058SOL    HW128073   1.236   0.733   0.658
 9058SOL    HW228074   1.172   0.696   0.512
 9059SOL     OW28075   1.133   2.266   2.978
 9059SOL    HW128076   1.039   2.248   3.009
 9059SOL    HW228077   1.137   2.354   2.932
 9060SOL     OW28078   5.722   3.000   4.474
 9060SOL    HW128079   5.641   3.058   4.485
 9060SOL    HW228080   5.800   3.043   4.519
 9061SOL     OW28081   3.710   5.590   2.477
 9061SOL    HW128082   3.723   5.496   2.507
 9061SOL    HW228083   3.773   5.611   2.403
 9062SOL     OW28084   0.978   5.517   1.644
 9062SOL    HW128085   0.987   5.505   1.545
 9062SOL    HW228086   1.043   5.586   1.675
 9063SOL     OW28087   2.675   1.148   4.105
 9063SOL    HW128088   2.576   1.147   4.088
 9063SOL    HW228089   2.712   1.056   4.091
 9064SOL     OW28090   6.633   3.726   6.505
 9064SOL    HW128091   6.573   3.669   6.449
 9064SOL    HW228092   6.615   3.823   6.485
 9065SOL     OW28093   3.961   6.741   0.396
 9065SOL    HW128094   4.025   6.801   0.444
 9065SOL    HW228095   3.922   6.788   0.317
 9066SOL     OW28096   5.370   0.297   0.515
 9066SOL    HW128097   5.404   0.308   0.422
 9066SOL    HW228098   5.287   0.241   0.514
 9067SOL     OW28099   1.744   0.454   3.667
 9067SOL    HW128100   1.822   0.412   3.712
 9067SOL    HW228101   1.763   0.463   3.569
 9068SOL     OW28102   0.823   6.585   4.643
 9068SOL    HW128103   0.852   6.575   4.548
 9068SOL    HW228104   0.723   6.593   4.646
 9069SOL     OW28105   1.213   3.354   6.636
 9069SOL    HW128106   1.241   3.333   6.729
 9069SOL    HW228107   1.267   3.431   6.601
 9070SOL     OW28108   2.166   3.876   4.793
 9070SOL    HW128109   2.166   3.777   4.805
 9070SOL    HW228110   2.225   3.918   4.862
 9071SOL     OW28111   6.467   6.233   0.777
 9071SOL    HW128112   6.380   6.185   0.772
 9071SOL    HW228113   6.479   6.270   0.869
 9072SOL     OW28114   0.026   3.467   0.638
 9072SOL    HW128115   7.014   3.552   0.675
 9072SOL    HW228116   0.013   3.465   0.539
 9073SOL     OW28117   1.863   0.444   1.610
 9073SOL    HW128118   1.912   0.384   1.547
 9073SOL    HW228119   1.888   0.422   1.704
 9074SOL     OW28120   1.663   0.228   2.726
 9074SOL    HW128121   1.746   0.249   2.778
 9074SOL    HW228122   1.592   0.193   2.788
 9075SOL     OW28123   6.167   0.563   2.013
 9075SOL    HW128124   6.147   0.565   1.915
 9075SOL    HW228125   6.083   0.580   2.064
 9076SOL     OW28126   0.749   1.006   6.226
 9076SOL    HW128127   0.740   0.907   6.214
 9076SOL    HW228128   0.667   1.052   6.193
 9077SOL     OW28129   4.293   6.664   2.262
 9077SOL    HW128130   4.291   6.751   2.310
 9077SOL    HW228131   4.226   6.666   2.187
 9078SOL     OW28132   4.010   3.471   4.943
 9078SOL    HW128133   3.911   3.480   4.930
 9078SOL    HW228134   4.055   3.462   4.854
 9079SOL     OW28135   3.334   6.952   4.498
 9079SOL    HW128136   3.369   6.889   4.428
 9079SOL    HW228137   3.377   6.931   4.586
 9080SOL     OW28138   5.171   2.316   6.981
 9080SOL    HW128139   5.139   2.410   6.970
 9080SOL    HW228140   5.152   2.265   6.897
 9081SOL     OW28141   5.576   6.424   3.248
 9081SOL    HW128142   5.650   6.392   3.189
 9081SOL    HW228143   5.538   6.509   3.212
 9082SOL     OW28144   2.272   0.560   3.747
 9082SOL    HW128145   2.232   0.631   3.689
 9082SOL    HW228146   2.220   0.554   3.833
 9083SOL     OW28147   4.907   4.694   5.359
 9083SOL    HW128148   4.976   4.690   5.286
 9083SOL    HW228149   4.923   4.619   5.424
 9084SOL     OW28150   3.107   3.700   2.892
 9084SOL    HW128151   3.207   3.703   2.883
 9084SOL    HW228152   3.072   3.619   2.844
 9085SOL     OW28153   2.074   1.502   0.857
 9085SOL    HW128154   2.095   1.448   0.939
 9085SOL    HW228155   2.031   1.443   0.789
 9086SOL     OW28156   0.723   3.544   0.563
 9086SOL    HW128157   0.759   3.616   0.504
 9086SOL    HW228158   0.746   3.564   0.658
 9087SOL     OW28159   4.849   3.177   2.490
 9087SOL    HW128160   4.848   3.140   2.397
 9087SOL    HW228161   4.823   3.105   2.555
 9088SOL     OW28162   6.426   0.560   7.000
 9088SOL    HW128163   6.339   0.512   7.013
 9088SOL    HW228164   6.488   0.503   6.946
 9089SOL     OW28165   4.862   6.686   6.012
 9089SOL    HW128166   4.949   6.684   5.962
 9089SOL    HW228167   4.869   6.748   6.090
 9090SOL     OW28168   6.122   0.698   4.840
 9090SOL    HW128169   6.060   0.685   4.763
 9090SOL    HW228170   6.086   0.650   4.921
 9091SOL     OW28171   2.852   4.256   6.602
 9091SOL    HW128172   2.841   4.334   6.540
 9091SOL    HW228173   2.822   4.172   6.556
 9092SOL     OW28174   6.996   1.930   6.830
 9092SOL    HW128175   6.952   1.993   6.894
 9092SOL    HW228176   7.008   1.841   6.874
 9093SOL     OW28177   1.319   6.764   5.575
 9093SOL    HW128178   1.244   6.707   5.544
 9093SOL    HW228179   1.297   6.860   5.558
 9094SOL     OW28180   0.347   3.343   2.439
 9094SOL    HW128181   0.377   3.408   2.509
 9094SOL    HW228182   0.425   3.319   2.381
 9095SOL     OW28183   4.820   5.091   5.328
 9095SOL    HW128184   4.821   4.991   5.337
 9095SOL    HW228185   4.754   5.117   5.258
 9096SOL     OW28186   6.409   5.308   2.922
 9096SOL    HW128187   6.447   5.249   2.993
 9096SOL    HW228188   6.476   5.378   2.898
 9097SOL     OW28189   0.577   2.691   6.212
 9097SOL    HW128190   0.544   2.754   6.282
 9097SOL    HW228191   0.576   2.598   6.248
 9098SOL     OW28192   1.895   2.170   5.067
 9098SOL    HW128193   1.863   2.139   4.978
 9098SOL    HW228194   1.836   2.134   5.139
 9099SOL     OW28195   2.197   3.343   6.149
 9099SOL    HW128196   2.148   3.315   6.231
 9099SOL    HW228197   2.168   3.434   6.121
 9100SOL     OW28198   1.460   4.289   2.452
 9100SOL    HW128199   1.370   4.323   2.480
 9100SOL    HW228200   1.454   4.254   2.358
 9101SOL     OW28201   2.858   1.061   2.168
 9101SOL    HW128202   2.760   1.063   2.186
 9101SOL    HW228203   2.900   1.146   2.200
 9102SOL     OW28204   4.527   6.525   2.784
 9102SOL    HW128205   4.474   6.599   2.743
 9102SOL    HW228206   4.614   6.516   2.735
 9103SOL     OW28207   6.471   2.075   6.775
 9103SOL    HW128208   6.406   2.007   6.808
 9103SOL    HW228209   6.423   2.143   6.719
 9104SOL     OW28210   0.540   0.794   0.528
 9104SOL    HW128211   0.514   0.878   0.480
 9104SOL    HW228212   0.561   0.815   0.623
 9105SOL     OW28213   1.989   0.099   6.111
 9105SOL    HW128214   1.953   0.151   6.033
 9105SOL    HW228215   1.962   0.142   6.196
 9106SOL     OW28216   0.754   4.643   6.994
 9106SOL    HW128217   0.774   4.569   0.033
 9106SOL    HW228218   0.657   4.640   6.970
 9107SOL     OW28219   2.673   0.831   6.455
 9107SOL    HW128220   2.743   0.783   6.508
 9107SOL    HW228221   2.702   0.925   6.440
 9108SOL     OW28222   5.271   5.507   5.521
 9108SOL    HW128223   5.205   5.473   5.588
 9108SOL    HW228224   5.297   5.432   5.460
 9109SOL     OW28225   5.588   2.671   2.037
 9109SOL    HW128226   5.588   2.727   2.120
 9109SOL    HW228227   5.586   2.731   1.957
 9110SOL     OW28228   1.517   5.564   5.508
 9110SOL    HW128229   1.579   5.557   5.430
 9110SOL    HW228230   1.570   5.573   5.593
 9111SOL     OW28231   4.648   2.724   5.344
 9111SOL    HW128232   4.592   2.672   5.279
 9111SOL    HW228233   4.590   2.791   5.390
 9112SOL     OW28234   2.307   5.304   3.066
 9112SOL    HW128235   2.394   5.290   3.020
 9112SOL    HW228236   2.239   5.336   3.000
 9113SOL     OW28237   4.951   2.255   3.162
 9113SOL    HW128238   5.038   2.272   3.209
 9113SOL    HW228239   4.951   2.161   3.125
 9114SOL     OW28240   1.417   6.033   5.055
 9114SOL    HW128241   1.397   6.107   4.991
 9114SOL    HW228242   1.506   6.049   5.097
 9115SOL     OW28243   5.923   4.440   3.567
 9115SOL    HW128244   6.006   4.406   3.523
 9115SOL    HW228245   5.887   4.371   3.630
 9116SOL     OW28246   1.075   6.666   3.327
 9116SOL    HW128247   1.160   6.700   3.368
 9116SOL    HW228248   0.998   6.720   3.360
 9117SOL     OW28249   4.232   0.452   0.171
 9117SOL    HW128250   4.202   0.492   0.257
 9117SOL    HW228251   4.176   0.372   0.150
 9118SOL     OW28252   5.637   4.069   0.828
 9118SOL    HW128253   5.674   3.984   0.791
 9118SOL    HW228254   5.712   4.128   0.857
 9119SOL     OW28255   3.561   6.769   1.269
 9119SOL    HW128256   3.482   6.716   1.299
 9119SOL    HW228257   3.631   6.708   1.232
 9120SOL     OW28258   5.878   2.919   5.955
 9120SOL    HW128259   5.933   2.836   5.954
 9120SOL    HW228260   5.934   2.995   5.990
 9121SOL     OW28261   3.377   0.127   5.658
 9121SOL    HW128262   3.333   0.039   5.637
 9121SOL    HW228263   3.368   0.188   5.579
 9122SOL     OW28264   2.515   4.454   1.745
 9122SOL    HW128265   2.513   4.396   1.663
 9122SOL    HW228266   2.521   4.550   1.718
 9123SOL     OW28267   1.265   0.609   3.155
 9123SOL    HW128268   1.251   0.510   3.165
 9123SOL    HW228269   1.281   0.650   3.245
 9124SOL     OW28270   3.214   5.102   1.602
 9124SOL    HW128271   3.213   5.179   1.666
 9124SOL    HW228272   3.309   5.084   1.573
 9125SOL     OW28273   3.760   6.637   0.594
 9125SOL    HW128274   3.835   6.691   0.556
 9125SOL    HW228275   3.695   6.615   0.521
 9126SOL     OW28276   4.037   5.264   0.520
 9126SOL    HW128277   4.132   5.232   0.513
 9126SOL    HW228278   3.975   5.185   0.514
 9127SOL     OW28279   6.890   3.516   5.179
 9127SOL    HW128280   6.818   3.455   5.146
 9127SOL    HW228281   6.858   3.611   5.176
 9128SOL     OW28282   6.075   2.987   5.115
 9128SOL    HW128283   6.050   2.929   5.192
 9128SOL    HW228284   5.993   3.017   5.067
 9129SOL     OW28285   2.305   1.769   0.307
 9129SOL    HW128286   2.372   1.822   0.359
 9129SOL    HW228287   2.226   1.751   0.366
 9130SOL     OW28288   2.811   4.048   5.506
 9130SOL    HW128289   2.726   4.027   5.458
 9130SOL    HW228290   2.854   4.128   5.465
 9131SOL     OW28291   5.916   2.638   0.725
 9131SOL    HW128292   5.992   2.585   0.688
 9131SOL    HW228293   5.947   2.691   0.804
 9132SOL     OW28294   0.986   3.921   3.478
 9132SOL    HW128295   0.888   3.941   3.479
 9132SOL    HW228296   1.014   3.883   3.567
 9133SOL     OW28297   4.603   0.753   1.085
 9133SOL    HW128298   4.560   0.665   1.069
 9133SOL    HW228299   4.533   0.825   1.086
 9134SOL     OW28300   4.492   5.363   0.962
 9134SOL    HW128301   4.477   5.399   1.054
 9134SOL    HW228302   4.590   5.349   0.948
 9135SOL     OW28303   0.913   6.102   2.323
 9135SOL    HW128304   0.934   6.061   2.235
 9135SOL    HW228305   0.815   6.121   2.329
 9136SOL     OW28306   6.181   4.722   6.482
 9136SOL    HW128307   6.172   4.712   6.383
 9136SOL    HW228308   6.137   4.807   6.511
 9137SOL     OW28309   4.408   5.983   7.014
 9137SOL    HW128310   4.430   6.043   0.065
 9137SOL    HW228311   4.468   6.005   6.937
 9138SOL     OW28312   3.133   3.071   0.815
 9138SOL    HW128313   3.072   3.085   0.893
 9138SOL    HW228314   3.220   3.034   0.848
 9139SOL     OW28315   0.054   0.581   0.948
 9139SOL    HW128316   0.009   0.513   0.891
 9139SOL    HW228317   0.143   0.547   0.978
 9140SOL     OW28318   0.569   4.384   2.476
 9140SOL    HW128319   0.558   4.460   2.411
 9140SOL    HW228320   0.495   4.318   2.463
 9141SOL     OW28321   6.798   5.689   6.243
 9141SOL    HW128322   6.872   5.755   6.253
 9141SOL    HW228323   6.766   5.662   6.334
 9142SOL     OW28324   1.159   3.849   3.094
 9142SOL    HW128325   1.165   3.945   3.121
 9142SOL    HW228326   1.246   3.804   3.112
 9143SOL     OW28327   0.337   3.237   2.817
 9143SOL    HW128328   0.277   3.214   2.741
 9143SOL    HW228329   0.284   3.245   2.901
 9144SOL     OW28330   2.951   4.770   5.675
 9144SOL    HW128331   2.979   4.689   5.727
 9144SOL    HW228332   2.853   4.784   5.685
 9145SOL     OW28333   1.283   6.605   6.059
 9145SOL    HW128334   1.245   6.617   5.967
 9145SOL    HW228335   1.211   6.619   6.127
 9146SOL     OW28336   5.643   3.407   3.141
 9146SOL    HW128337   5.555   3.452   3.129
 9146SOL    HW228338   5.713   3.475   3.163
 9147SOL     OW28339   4.627   0.514   4.296
 9147SOL    HW128340   4.642   0.431   4.241
 9147SOL    HW228341   4.710   0.535   4.347
 9148SOL     OW28342   6.251   6.823   1.713
 9148SOL    HW128343   6.217   6.908   1.753
 9148SOL    HW228344   6.351   6.824   1.713
 9149SOL     OW28345   7.018   4.150   1.260
 9149SOL    HW128346   6.961   4.103   1.192
 9149SOL    HW228347   0.007   4.089   1.338
 9150SOL     OW28348   2.763   3.297   7.024
 9150SOL    HW128349   2.820   3.347   6.958
 9150SOL    HW228350   2.812   3.216   0.029
 9151SOL     OW28351   1.674   3.600   3.773
 9151SOL    HW128352   1.581   3.635   3.761
 9151SOL    HW228353   1.733   3.674   3.804
 9152SOL     OW28354   1.812   4.152   3.960
 9152SOL    HW128355   1.843   4.079   4.021
 9152SOL    HW228356   1.824   4.240   4.005
 9153SOL     OW28357   6.755   3.375   6.626
 9153SOL    HW128358   6.680   3.432   6.661
 9153SOL    HW228359   6.740   3.358   6.529
 9154SOL     OW28360   6.002   4.981   2.815
 9154SOL    HW128361   5.973   4.919   2.888
 9154SOL    HW228362   5.921   5.022   2.772
 9155SOL     OW28363   0.633   5.901   2.801
 9155SOL    HW128364   0.650   5.964   2.876
 9155SOL    HW228365   0.676   5.935   2.718
 9156SOL     OW28366   6.621   4.123   6.822
 9156SOL    HW128367   6.573   4.085   6.901
 9156SOL    HW228368   6.707   4.164   6.852
 9157SOL     OW28369   2.641   5.064   6.090
 9157SOL    HW128370   2.643   5.124   6.169
 9157SOL    HW228371   2.717   4.999   6.096
 9158SOL     OW28372   6.957   3.307   4.109
 9158SOL    HW128373   6.937   3.232   4.172
 9158SOL    HW228374   6.963   3.271   4.016
 9159SOL     OW28375   3.647   0.886   3.174
 9159SOL    HW128376   3.665   0.802   3.122
 9159SOL    HW228377   3.693   0.881   3.262
 9160SOL     OW28378   0.224   4.541   6.895
 9160SOL    HW128379   0.298   4.590   6.849
 9160SOL    HW228380   0.241   4.543   6.994
 9161SOL     OW28381   5.890   4.091   1.578
 9161SOL    HW128382   5.806   4.109   1.526
 9161SOL    HW228383   5.956   4.164   1.560
 9162SOL     OW28384   4.612   1.753   2.020
 9162SOL    HW128385   4.552   1.694   1.966
 9162SOL    HW228386   4.598   1.849   1.993
 9163SOL     OW28387   1.590   2.819   3.340
 9163SOL    HW128388   1.550   2.802   3.249
 9163SOL    HW228389   1.526   2.788   3.410
 9164SOL     OW28390   2.302   0.813   6.690
 9164SOL    HW128391   2.288   0.892   6.630
 9164SOL    HW228392   2.357   0.744   6.642
 9165SOL     OW28393   5.538   2.068   5.759
 9165SOL    HW128394   5.614   2.129   5.782
 9165SOL    HW228395   5.457   2.123   5.738
 9166SOL     OW28396   5.144   5.022   1.715
 9166SOL    HW128397   5.125   5.114   1.750
 9166SOL    HW228398   5.242   5.004   1.719
 9167SOL     OW28399   2.067   1.015   5.015
 9167SOL    HW128400   2.167   1.005   5.019
 9167SOL    HW228401   2.024   0.941   5.067
 9168SOL     OW28402   6.633   6.388   4.395
 9168SOL    HW128403   6.641   6.466   4.334
 9168SOL    HW228404   6.573   6.319   4.354
 9169SOL     OW28405   6.288   6.230   0.529
 9169SOL    HW128406   6.370   6.233   0.585
 9169SOL    HW228407   6.311   6.193   0.439
 9170SOL     OW28408   1.710   1.400   5.269
 9170SOL    HW128409   1.638   1.381   5.202
 9170SOL    HW228410   1.768   1.319   5.279
 9171SOL     OW28411   3.175   4.447   0.560
 9171SOL    HW128412   3.143   4.473   0.469
 9171SOL    HW228413   3.216   4.526   0.605
 9172SOL     OW28414   5.335   1.458   4.311
 9172SOL    HW128415   5.363   1.524   4.241
 9172SOL    HW228416   5.336   1.502   4.400
 9173SOL     OW28417   5.903   2.699   4.184
 9173SOL    HW128418   5.875   2.614   4.229
 9173SOL    HW228419   5.894   2.690   4.085
 9174SOL     OW28420   6.870   5.137   0.273
 9174SOL    HW128421   6.932   5.198   0.323
 9174SOL    HW228422   6.777   5.172   0.278
 9175SOL     OW28423   1.723   6.599   6.618
 9175SOL    HW128424   1.732   6.696   6.642
 9175SOL    HW228425   1.803   6.571   6.565
 9176SOL     OW28426   1.666   1.164   2.378
 9176SOL    HW128427   1.595   1.095   2.391
 9176SOL    HW228428   1.632   1.253   2.409
 9177SOL     OW28429   0.412   4.296   3.902
 9177SOL    HW128430   0.375   4.334   3.987
 9177SOL    HW228431   0.376   4.204   3.888
 9178SOL     OW28432   1.723   6.468   0.691
 9178SOL    HW128433   1.664   6.401   0.737
 9178SOL    HW228434   1.819   6.443   0.704
 9179SOL     OW28435   4.279   5.501   5.332
 9179SOL    HW128436   4.331   5.544   5.258
 9179SOL    HW228437   4.210   5.440   5.293
 9180SOL     OW28438   0.423   1.273   4.054
 9180SOL    HW128439   0.379   1.220   4.126
 9180SOL    HW228440   0.380   1.363   4.048
 9181SOL     OW28441   4.017   1.580   3.425
 9181SOL    HW128442   4.087   1.561   3.494
 9181SOL    HW228443   3.927   1.562   3.463
 9182SOL     OW28444   1.777   1.157   2.929
 9182SOL    HW128445   1.750   1.113   3.015
 9182SOL    HW228446   1.699   1.159   2.867
 9183SOL     OW28447   6.141   3.135   5.581
 9183SOL    HW128448   6.204   3.189   5.638
 9183SOL    HW228449   6.192   3.095   5.505
 9184SOL     OW28450   3.537   2.909   1.117
 9184SOL    HW128451   3.577   2.947   1.033
 9184SOL    HW228452   3.444   2.877   1.098
 9185SOL     OW28453   0.943   0.063   6.465
 9185SOL    HW128454   1.029   0.110   6.484
 9185SOL    HW228455   0.962   6.994   6.438
 9186SOL     OW28456   5.613   1.115   6.216
 9186SOL    HW128457   5.543   1.044   6.211
 9186SOL    HW228458   5.673   1.098   6.295
 9187SOL     OW28459   5.052   1.778   0.350
 9187SOL    HW128460   5.009   1.862   0.383
 9187SOL    HW228461   5.095   1.729   0.427
 9188SOL     OW28462   1.012   0.421   1.963
 9188SOL    HW128463   1.072   0.360   1.911
 9188SOL    HW228464   1.062   0.456   2.042
 9189SOL     OW28465   3.878   1.574   3.942
 9189SOL    HW128466   3.923   1.662   3.927
 9189SOL    HW228467   3.924   1.504   3.886
 9190SOL     OW28468   6.251   3.954   5.701
 9190SOL    HW128469   6.166   3.944   5.650
 9190SOL    HW228470   6.326   3.913   5.649
 9191SOL     OW28471   5.563   6.250   0.141
 9191SOL    HW128472   5.556   6.298   0.229
 9191SOL    HW228473   5.638   6.289   0.088
 9192SOL     OW28474   6.251   4.424   5.383
 9192SOL    HW128475   6.159   4.425   5.423
 9192SOL    HW228476   6.248   4.469   5.293
 9193SOL     OW28477   3.521   3.229   3.388
 9193SOL    HW128478   3.459   3.260   3.316
 9193SOL    HW228479   3.472   3.168   3.451
 9194SOL     OW28480   3.000   5.315   2.779
 9194SOL    HW128481   2.903   5.325   2.803
 9194SOL    HW228482   3.017   5.360   2.691
 9195SOL     OW28483   0.080   3.177   2.734
 9195SOL    HW128484   0.119   3.105   2.677
 9195SOL    HW228485   0.068   3.142   2.827
 9196SOL     OW28486   4.699   0.426   3.583
 9196SOL    HW128487   4.789   0.390   3.609
 9196SOL    HW228488   4.628   0.365   3.617
 9197SOL     OW28489   3.546   3.374   6.161
 9197SOL    HW128490   3.545   3.280   6.125
 9197SOL    HW228491   3.636   3.414   6.147
 9198SOL     OW28492   6.310   2.822   5.616
 9198SOL    HW128493   6.386   2.768   5.654
 9198SOL    HW228494   6.315   2.820   5.516
 9199SOL     OW28495   1.182   3.949   6.791
 9199SOL    HW128496   1.090   3.989   6.786
 9199SOL    HW228497   1.204   3.907   6.703
 9200SOL     OW28498   6.448   0.532   0.263
 9200SOL    HW128499   6.434   0.623   0.301
 9200SOL    HW228500   6.449   0.537   0.163
 9201SOL     OW28501   0.845   3.658   2.474
 9201SOL    HW128502   0.855   3.558   2.476
 9201SOL    HW228503   0.784   3.686   2.549
 9202SOL     OW28504   3.086   5.621   4.360
 9202SOL    HW128505   3.139   5.560   4.419
 9202SOL    HW228506   2.991   5.622   4.391
 9203SOL     OW28507   5.144   0.824   5.698
 9203SOL    HW128508   5.123   0.884   5.620
 9203SOL    HW228509   5.106   0.863   5.782
 9204SOL     OW28510   4.775   4.282   2.527
 9204SOL    HW128511   4.757   4.193   2.486
 9204SOL    HW228512   4.692   4.336   2.528
 9205SOL     OW28513   5.379   2.855   2.537
 9205SOL    HW128514   5.285   2.836   2.506
 9205SOL    HW228515   5.413   2.778   2.590
 9206SOL     OW28516   0.685   6.680   3.329
 9206SOL    HW128517   0.720   6.699   3.237
 9206SOL    HW228518   0.655   6.585   3.334
 9207SOL     OW28519   4.194   6.589   0.518
 9207SOL    HW128520   4.196   6.500   0.564
 9207SOL    HW228521   4.127   6.588   0.444
 9208SOL     OW28522   5.253   4.240   1.721
 9208SOL    HW128523   5.229   4.167   1.657
 9208SOL    HW228524   5.173   4.260   1.778
 9209SOL     OW28525   4.175   0.904   2.543
 9209SOL    HW128526   4.253   0.843   2.527
 9209SOL    HW228527   4.095   0.869   2.495
 9210SOL     OW28528   1.297   0.281   1.264
 9210SOL    HW128529   1.201   0.301   1.243
 9210SOL    HW228530   1.342   0.245   1.183
 9211SOL     OW28531   5.214   1.498   6.976
 9211SOL    HW128532   5.134   1.527   6.924
 9211SOL    HW228533   5.198   1.512   0.047
 9212SOL     OW28534   5.401   3.679   4.699
 9212SOL    HW128535   5.365   3.693   4.791
 9212SOL    HW228536   5.365   3.594   4.661
 9213SOL     OW28537   6.106   6.826   3.247
 9213SOL    HW128538   6.006   6.830   3.254
 9213SOL    HW228539   6.135   6.730   3.244
 9214SOL     OW28540   2.177   2.126   4.762
 9214SOL    HW128541   2.174   2.057   4.834
 9214SOL    HW228542   2.263   2.177   4.769
 9215SOL     OW28543   0.668   3.419   2.903
 9215SOL    HW128544   0.623   3.369   2.828
 9215SOL    HW228545   0.599   3.470   2.955
 9216SOL     OW28546   1.910   5.582   4.771
 9216SOL    HW128547   1.907   5.511   4.701
 9216SOL    HW228548   1.817   5.613   4.791
 9217SOL     OW28549   4.376   1.037   6.447
 9217SOL    HW128550   4.450   1.099   6.473
 9217SOL    HW228551   4.288   1.075   6.476
 9218SOL     OW28552   5.716   5.627   6.044
 9218SOL    HW128553   5.788   5.694   6.063
 9218SOL    HW228554   5.627   5.667   6.064
 9219SOL     OW28555   3.546   2.610   5.640
 9219SOL    HW128556   3.526   2.708   5.638
 9219SOL    HW228557   3.498   2.568   5.718
 9220SOL     OW28558   1.486   6.222   3.256
 9220SOL    HW128559   1.477   6.180   3.346
 9220SOL    HW228560   1.565   6.184   3.209
 9221SOL     OW28561   2.680   1.191   0.141
 9221SOL    HW128562   2.681   1.120   0.212
 9221SOL    HW228563   2.588   1.228   0.131
 9222SOL     OW28564   1.455   3.615   3.604
 9222SOL    HW128565   1.523   3.638   3.535
 9222SOL    HW228566   1.366   3.604   3.560
 9223SOL     OW28567   0.871   3.609   4.627
 9223SOL    HW128568   0.895   3.666   4.705
 9223SOL    HW228569   0.820   3.529   4.659
 9224SOL     OW28570   2.166   4.110   4.368
 9224SOL    HW128571   2.098   4.142   4.302
 9224SOL    HW228572   2.225   4.186   4.395
 9225SOL     OW28573   4.843   6.856   6.974
 9225SOL    HW128574   4.765   6.914   6.948
 9225SOL    HW228575   4.894   6.900   0.022
 9226SOL     OW28576   0.880   1.167   0.818
 9226SOL    HW128577   0.833   1.208   0.739
 9226SOL    HW228578   0.957   1.225   0.844
 9227SOL     OW28579   2.623   5.529   1.051
 9227SOL    HW128580   2.680   5.505   0.972
 9227SOL    HW228581   2.669   5.600   1.104
 9228SOL     OW28582   2.936   2.686   5.782
 9228SOL    HW128583   2.887   2.773   5.770
 9228SOL    HW228584   2.930   2.658   5.878
 9229SOL     OW28585   0.081   4.792   6.998
 9229SOL    HW128586   0.170   4.747   6.997
 9229SOL    HW228587   0.085   4.873   0.032
 9230SOL     OW28588   4.297   1.462   4.259
 9230SOL    HW128589   4.251   1.526   4.322
 9230SOL    HW228590   4.229   1.402   4.217
 9231SOL     OW28591   7.024   5.901   4.234
 9231SOL    HW128592   6.954   5.898   4.305
 9231SOL    HW228593   6.998   5.839   4.159
 9232SOL     OW28594   1.506   5.485   1.777
 9232SOL    HW128595   1.606   5.486   1.784
 9232SOL    HW228596   1.473   5.391   1.783
 9233SOL     OW28597   1.111   0.208   0.166
 9233SOL    HW128598   1.173   0.197   0.244
 9233SOL    HW228599   1.016   0.205   0.198
 9234SOL     OW28600   2.083   4.667   0.769
 9234SOL    HW128601   1.985   4.685   0.779
 9234SOL    HW228602   2.131   4.696   0.852
 9235SOL     OW28603   2.386   2.263   3.754
 9235SOL    HW128604   2.303   2.315   3.770
 9235SOL    HW228605   2.362   2.167   3.737
 9236SOL     OW28606   2.257   3.880   6.547
 9236SOL    HW128607   2.301   3.964   6.576
 9236SOL    HW228608   2.193   3.899   6.472
 9237SOL     OW28609   6.005   4.821   3.320
 9237SOL    HW128610   6.009   4.920   3.335
 9237SOL    HW228611   6.098   4.784   3.314
 9238SOL     OW28612   1.822   3.100   5.290
 9238SOL    HW128613   1.919   3.099   5.312
 9238SOL    HW228614   1.808   3.148   5.203
 9239SOL     OW28615   0.502   4.730   6.862
 9239SOL    HW128616   0.446   4.720   6.780
 9239SOL    HW228617   0.508   4.826   6.887
 9240SOL     OW28618   4.851   2.444   2.680
 9240SOL    HW128619   4.798   2.520   2.641
 9240SOL    HW228620   4.940   2.478   2.712
 9241SOL     OW28621   5.648   0.067   1.021
 9241SOL    HW128622   5.734   0.098   0.983
 9241SOL    HW228623   5.617   7.010   0.974
 9242SOL     OW28624   1.298   2.874   0.766
 9242SOL    HW128625   1.294   2.846   0.862
 9242SOL    HW228626   1.250   2.807   0.710
 9243SOL     OW28627   1.054   0.640   7.013
 9243SOL    HW128628   1.064   0.604   0.080
 9243SOL    HW228629   0.998   0.723   7.016
 9244SOL     OW28630   4.143   6.098   5.206
 9244SOL    HW128631   4.111   6.187   5.173
 9244SOL    HW228632   4.155   6.036   5.129
 9245SOL     OW28633   0.919   4.280   3.221
 9245SOL    HW128634   0.874   4.266   3.309
 9245SOL    HW228635   0.851   4.300   3.151
 9246SOL     OW28636   6.516   0.868   5.231
 9246SOL    HW128637   6.545   0.779   5.266
 9246SOL    HW228638   6.573   0.893   5.152
 9247SOL     OW28639   3.851   5.910   3.564
 9247SOL    HW128640   3.930   5.965   3.593
 9247SOL    HW228641   3.809   5.867   3.644
 9248SOL     OW28642   2.290   1.352   5.564
 9248SOL    HW128643   2.256   1.331   5.472
 9248SOL    HW228644   2.325   1.268   5.606
 9249SOL     OW28645   4.001   5.308   1.537
 9249SOL    HW128646   3.906   5.326   1.561
 9249SOL    HW228647   4.061   5.361   1.597
 9250SOL     OW28648   0.246   2.783   3.873
 9250SOL    HW128649   0.282   2.694   3.843
 9250SOL    HW228650   0.292   2.809   3.958
 9251SOL     OW28651   3.290   2.783   1.108
 9251SOL    HW128652   3.283   2.685   1.122
 9251SOL    HW228653   3.229   2.831   1.170
 9252SOL     OW28654   5.648   0.902   5.691
 9252SOL    HW128655   5.738   0.906   5.736
 9252SOL    HW228656   5.576   0.915   5.759
 9253SOL     OW28657   0.802   4.860   5.262
 9253SOL    HW128658   0.855   4.932   5.307
 9253SOL    HW228659   0.718   4.843   5.314
 9254SOL     OW28660   6.910   5.106   3.275
 9254SOL    HW128661   6.868   5.052   3.201
 9254SOL    HW228662   6.863   5.194   3.282
 9255SOL     OW28663   6.624   4.495   0.538
 9255SOL    HW128664   6.662   4.436   0.609
 9255SOL    HW228665   6.526   4.476   0.528
 9256SOL     OW28666   1.796   6.452   1.391
 9256SOL    HW128667   1.863   6.441   1.465
 9256SOL    HW228668   1.731   6.524   1.415
 9257SOL     OW28669   6.739   5.899   3.980
 9257SOL    HW128670   6.666   5.930   3.919
 9257SOL    HW228671   6.752   5.965   4.053
 9258SOL     OW28672   3.816   4.618   0.962
 9258SOL    HW128673   3.735   4.579   1.005
 9258SOL    HW228674   3.801   4.628   0.864
 9259SOL     OW28675   1.972   1.664   6.321
 9259SOL    HW128676   1.906   1.738   6.305
 9259SOL    HW228677   2.013   1.637   6.234
 9260SOL     OW28678   5.641   3.484   5.029
 9260SOL    HW128679   5.561   3.518   5.079
 9260SOL    HW228680   5.704   3.439   5.092
 9261SOL     OW28681   3.902   2.327   1.762
 9261SOL    HW128682   3.966   2.290   1.830
 9261SOL    HW228683   3.809   2.319   1.796
 9262SOL     OW28684   6.280   5.952   3.582
 9262SOL    HW128685   6.355   5.974   3.644
 9262SOL    HW228686   6.211   6.025   3.585
 9263SOL     OW28687   2.128   3.854   3.870
 9263SOL    HW128688   2.181   3.879   3.951
 9263SOL    HW228689   2.136   3.756   3.854
 9264SOL     OW28690   4.415   3.993   7.019
 9264SOL    HW128691   4.487   3.949   0.047
 9264SOL    HW228692   4.332   3.938   7.025
 9265SOL     OW28693   5.394   2.440   0.436
 9265SOL    HW128694   5.487   2.406   0.428
 9265SOL    HW228695   5.352   2.404   0.520
 9266SOL     OW28696   0.302   4.119   1.222
 9266SOL    HW128697   0.292   4.166   1.310
 9266SOL    HW228698   0.291   4.185   1.147
 9267SOL     OW28699   0.419   1.033   4.534
 9267SOL    HW128700   0.448   0.954   4.587
 9267SOL    HW228701   0.320   1.032   4.523
 9268SOL     OW28702   0.689   6.718   2.327
 9268SOL    HW128703   0.605   6.761   2.296
 9268SOL    HW228704   0.667   6.644   2.391
 9269SOL     OW28705   4.079   0.740   1.297
 9269SOL    HW128706   4.114   0.650   1.323
 9269SOL    HW228707   4.090   0.753   1.199
 9270SOL     OW28708   1.471   0.713   5.816
 9270SOL    HW128709   1.427   0.795   5.854
 9270SOL    HW228710   1.543   0.682   5.878
 9271SOL     OW28711   1.362   0.397   4.892
 9271SOL    HW128712   1.440   0.359   4.842
 9271SOL    HW228713   1.349   0.347   4.977
 9272SOL     OW28714   6.508   6.289   5.973
 9272SOL    HW128715   6.581   6.346   6.011
 9272SOL    HW228716   6.475   6.330   5.888
 9273SOL     OW28717   4.712   5.075   4.691
 9273SOL    HW128718   4.804   5.057   4.655
 9273SOL    HW228719   4.684   5.168   4.665
 9274SOL     OW28720   0.942   2.927   6.910
 9274SOL    HW128721   0.972   3.022   6.923
 9274SOL    HW228722   1.002   2.866   6.963
 9275SOL     OW28723   0.811   0.199   0.670
 9275SOL    HW128724   0.828   0.202   0.769
 9275SOL    HW228725   0.767   0.112   0.647
 9276SOL     OW28726   3.291   5.162   0.332
 9276SOL    HW128727   3.326   5.185   0.422
 9276SOL    HW228728   3.366   5.162   0.266
 9277SOL     OW28729   5.215   5.438   2.533
 9277SOL    HW128730   5.281   5.512   2.546
 9277SOL    HW228731   5.132   5.458   2.586
 9278SOL     OW28732   0.657   0.923   4.823
 9278SOL    HW128733   0.639   0.847   4.760
 9278SOL    HW228734   0.754   0.945   4.822
 9279SOL     OW28735   4.647   5.956   1.363
 9279SOL    HW128736   4.671   6.001   1.449
 9279SOL    HW228737   4.633   6.024   1.292
 9280SOL     OW28738   1.653   0.615   2.725
 9280SOL    HW128739   1.706   0.619   2.809
 9280SOL    HW228740   1.652   0.705   2.681
 9281SOL     OW28741   3.139   4.990   0.178
 9281SOL    HW128742   3.200   5.028   0.248
 9281SOL    HW228743   3.078   4.922   0.219
 9282SOL     OW28744   3.202   6.902   4.930
 9282SOL    HW128745   3.232   6.865   5.018
 9282SOL    HW228746   3.278   6.899   4.865
 9283SOL     OW28747   4.686   6.446   6.920
 9283SOL    HW128748   4.673   6.452   6.821
 9283SOL    HW228749   4.604   6.405   6.962
 9284SOL     OW28750   3.382   3.901   4.985
 9284SOL    HW128751   3.348   3.895   4.891
 9284SOL    HW228752   3.479   3.928   4.983
 9285SOL     OW28753   6.954   4.214   2.263
 9285SOL    HW128754   6.951   4.196   2.361
 9285SOL    HW228755   0.017   4.254   2.240
 9286SOL     OW28756   4.783   5.712   1.363
 9286SOL    HW128757   4.736   5.800   1.357
 9286SOL    HW228758   4.771   5.673   1.454
 9287SOL     OW28759   3.288   4.509   5.995
 9287SOL    HW128760   3.267   4.450   6.073
 9287SOL    HW228761   3.239   4.476   5.914
 9288SOL     OW28762   4.354   2.036   2.996
 9288SOL    HW128763   4.408   1.957   2.968
 9288SOL    HW228764   4.257   2.011   2.999
 9289SOL     OW28765   4.919   6.074   6.994
 9289SOL    HW128766   4.897   6.056   6.898
 9289SOL    HW228767   4.989   6.009   7.024
 9290SOL     OW28768   5.298   0.307   4.558
 9290SOL    HW128769   5.363   0.293   4.633
 9290SOL    HW228770   5.348   0.312   4.471
 9291SOL     OW28771   1.415   4.636   5.829
 9291SOL    HW128772   1.464   4.632   5.916
 9291SOL    HW228773   1.460   4.701   5.768
 9292SOL     OW28774   1.740   2.136   6.165
 9292SOL    HW128775   1.758   2.135   6.263
 9292SOL    HW228776   1.824   2.110   6.116
 9293SOL     OW28777   5.225   2.895   5.565
 9293SOL    HW128778   5.183   2.866   5.479
 9293SOL    HW228779   5.157   2.945   5.620
 9294SOL     OW28780   4.563   1.272   0.266
 9294SOL    HW128781   4.653   1.264   0.224
 9294SOL    HW228782   4.501   1.321   0.204
 9295SOL     OW28783   0.809   1.528   5.641
 9295SOL    HW128784   0.799   1.556   5.545
 9295SOL    HW228785   0.830   1.430   5.645
 9296SOL     OW28786   1.868   4.646   0.261
 9296SOL    HW128787   1.811   4.593   0.324
 9296SOL    HW228788   1.854   4.743   0.278
 9297SOL     OW28789   5.763   6.616   2.783
 9297SOL    HW128790   5.821   6.630   2.703
 9297SOL    HW228791   5.819   6.622   2.866
 9298SOL     OW28792   1.349   6.330   5.789
 9298SOL    HW128793   1.358   6.354   5.886
 9298SOL    HW228794   1.262   6.282   5.775
 9299SOL     OW28795   2.064   2.710   4.878
 9299SOL    HW128796   2.134   2.706   4.950
 9299SOL    HW228797   2.034   2.617   4.855
 9300SOL     OW28798   1.569   6.236   6.040
 9300SOL    HW128799   1.477   6.273   6.058
 9300SOL    HW228800   1.564   6.136   6.038
 9301SOL     OW28801   0.076   4.109   4.689
 9301SOL    HW128802   0.112   4.117   4.782
 9301SOL    HW228803   0.131   4.166   4.628
 9302SOL     OW28804   1.670   3.374   5.194
 9302SOL    HW128805   1.640   3.456   5.145
 9302SOL    HW228806   1.749   3.396   5.251
 9303SOL     OW28807   2.579   4.668   0.995
 9303SOL    HW128808   2.594   4.761   1.029
 9303SOL    HW228809   2.500   4.668   0.934
 9304SOL     OW28810   4.797   5.321   0.795
 9304SOL    HW128811   4.753   5.323   0.705
 9304SOL    HW228812   4.896   5.328   0.784
 9305SOL     OW28813   2.429   1.529   1.488
 9305SOL    HW128814   2.431   1.550   1.390
 9305SOL    HW228815   2.507   1.572   1.533
 9306SOL     OW28816   0.451   5.502   4.755
 9306SOL    HW128817   0.457   5.472   4.850
 9306SOL    HW228818   0.440   5.601   4.751
 9307SOL     OW28819   2.595   3.149   1.579
 9307SOL    HW128820   2.689   3.128   1.553
 9307SOL    HW228821   2.570   3.097   1.660
 9308SOL     OW28822   2.078   3.656   1.899
 9308SOL    HW128823   2.079   3.751   1.928
 9308SOL    HW228824   2.132   3.600   1.963
 9309SOL     OW28825   5.110   6.076   5.782
 9309SOL    HW128826   5.174   6.154   5.776
 9309SOL    HW228827   5.047   6.091   5.859
 9310SOL     OW28828   5.350   5.892   6.429
 9310SOL    HW128829   5.342   5.954   6.507
 9310SOL    HW228830   5.387   5.941   6.351
 9311SOL     OW28831   4.489   3.465   1.401
 9311SOL    HW128832   4.577   3.507   1.423
 9311SOL    HW228833   4.429   3.471   1.481
 9312SOL     OW28834   0.480   2.359   1.954
 9312SOL    HW128835   0.533   2.305   2.019
 9312SOL    HW228836   0.409   2.302   1.913
 9313SOL     OW28837   0.702   6.248   2.103
 9313SOL    HW128838   0.699   6.150   2.089
 9313SOL    HW228839   0.691   6.269   2.200
 9314SOL     OW28840   4.998   3.285   0.010
 9314SOL    HW128841   5.024   3.192   7.011
 9314SOL    HW228842   4.925   3.282   0.079
 9315SOL     OW28843   5.776   0.863   6.361
 9315SOL    HW128844   5.715   0.788   6.337
 9315SOL    HW228845   5.726   0.932   6.415
 9316SOL     OW28846   4.488   1.031   5.692
 9316SOL    HW128847   4.541   1.012   5.775
 9316SOL    HW228848   4.535   0.991   5.613
 9317SOL     OW28849   4.301   6.176   3.506
 9317SOL    HW128850   4.222   6.148   3.561
 9317SOL    HW228851   4.298   6.129   3.418
 9318SOL     OW28852   4.970   6.028   1.196
 9318SOL    HW128853   5.064   5.998   1.180
 9318SOL    HW228854   4.909   5.983   1.130
 9319SOL     OW28855   2.354   4.064   0.199
 9319SOL    HW128856   2.401   3.985   0.238
 9319SOL    HW228857   2.256   4.055   0.213
 9320SOL     OW28858   6.522   6.536   6.515
 9320SOL    HW128859   6.597   6.485   6.474
 9320SOL    HW228860   6.471   6.478   6.578
 9321SOL     OW28861   0.295   3.767   4.755
 9321SOL    HW128862   0.243   3.706   4.696
 9321SOL    HW228863   0.393   3.754   4.738
 9322SOL     OW28864   5.714   4.046   5.635
 9322SOL    HW128865   5.683   3.959   5.595
 9322SOL    HW228866   5.663   4.063   5.720
 9323SOL     OW28867   1.326   2.806   4.373
 9323SOL    HW128868   1.397   2.787   4.306
 9323SOL    HW228869   1.237   2.808   4.327
 9324SOL     OW28870   0.645   4.205   1.418
 9324SOL    HW128871   0.629   4.232   1.513
 9324SOL    HW228872   0.730   4.152   1.411
 9325SOL     OW28873   1.139   4.801   2.857
 9325SOL    HW128874   1.237   4.817   2.844
 9325SOL    HW228875   1.117   4.808   2.954
 9326SOL     OW28876   3.977   4.246   0.733
 9326SOL    HW128877   3.961   4.332   0.780
 9326SOL    HW228878   3.947   4.170   0.790
 9327SOL     OW28879   4.265   0.240   3.855
 9327SOL    HW128880   4.231   0.283   3.939
 9327SOL    HW228881   4.210   0.158   3.836
 9328SOL     OW28882   2.715   6.398   4.569
 9328SOL    HW128883   2.757   6.387   4.479
 9328SOL    HW228884   2.785   6.425   4.635
 9329SOL     OW28885   6.798   5.392   6.496
 9329SOL    HW128886   6.856   5.467   6.528
 9329SOL    HW228887   6.759   5.345   6.575
 9330SOL     OW28888   5.813   5.846   6.289
 9330SOL    HW128889   5.906   5.809   6.300
 9330SOL    HW228890   5.809   5.902   6.206
 9331SOL     OW28891   1.598   3.044   4.552
 9331SOL    HW128892   1.521   2.991   4.515
 9331SOL    HW228893   1.639   3.099   4.479
 9332SOL     OW28894   4.341   5.636   1.245
 9332SOL    HW128895   4.428   5.609   1.203
 9332SOL    HW228896   4.293   5.698   1.183
 9333SOL     OW28897   3.755   4.652   0.666
 9333SOL    HW128898   3.740   4.742   0.626
 9333SOL    HW228899   3.689   4.588   0.629
 9334SOL     OW28900   5.683   6.204   5.576
 9334SOL    HW128901   5.782   6.212   5.572
 9334SOL    HW228902   5.658   6.124   5.630
 9335SOL     OW28903   2.242   2.806   1.497
 9335SOL    HW128904   2.276   2.892   1.458
 9335SOL    HW228905   2.276   2.729   1.443
 9336SOL     OW28906   6.937   0.352   5.357
 9336SOL    HW128907   6.918   0.339   5.454
 9336SOL    HW228908   6.989   0.274   5.322
 9337SOL     OW28909   2.500   0.632   6.582
 9337SOL    HW128910   2.561   0.601   6.655
 9337SOL    HW228911   2.550   0.692   6.519
 9338SOL     OW28912   6.294   5.987   6.848
 9338SOL    HW128913   6.251   5.958   6.762
 9338SOL    HW228914   6.257   5.933   6.924
 9339SOL     OW28915   6.526   4.482   5.634
 9339SOL    HW128916   6.457   4.413   5.614
 9339SOL    HW228917   6.617   4.442   5.622
 9340SOL     OW28918   4.307   6.332   2.175
 9340SOL    HW128919   4.315   6.324   2.275
 9340SOL    HW228920   4.213   6.309   2.148
 9341SOL     OW28921   5.546   3.678   6.780
 9341SOL    HW128922   5.519   3.687   6.685
 9341SOL    HW228923   5.568   3.768   6.818
 9342SOL     OW28924   2.940   0.302   4.286
 9342SOL    HW128925   3.008   0.300   4.212
 9342SOL    HW228926   2.928   0.210   4.323
 9343SOL     OW28927   4.901   4.326   1.640
 9343SOL    HW128928   4.918   4.383   1.560
 9343SOL    HW228929   4.892   4.231   1.612
 9344SOL     OW28930   5.982   5.644   4.979
 9344SOL    HW128931   6.003   5.554   5.018
 9344SOL    HW228932   5.901   5.682   5.023
 9345SOL     OW28933   0.320   6.828   1.139
 9345SOL    HW128934   0.335   6.884   1.057
 9345SOL    HW228935   0.228   6.789   1.136
 9346SOL     OW28936   5.477   6.374   1.516
 9346SOL    HW128937   5.417   6.301   1.547
 9346SOL    HW228938   5.497   6.436   1.592
 9347SOL     OW28939   3.691   5.237   0.328
 9347SOL    HW128940   3.723   5.310   0.267
 9347SOL    HW228941   3.724   5.149   0.295
 9348SOL     OW28942   1.862   6.014   1.952
 9348SOL    HW128943   1.884   5.960   1.871
 9348SOL    HW228944   1.935   6.003   2.020
 9349SOL     OW28945   6.228   5.101   1.729
 9349SOL    HW128946   6.225   5.021   1.790
 9349SOL    HW228947   6.137   5.142   1.723
 9350SOL     OW28948   0.144   0.990   5.013
 9350SOL    HW128949   0.099   1.041   5.086
 9350SOL    HW228950   0.217   0.933   5.050
 9351SOL     OW28951   3.176   1.378   6.381
 9351SOL    HW128952   3.122   1.302   6.420
 9351SOL    HW228953   3.206   1.354   6.289
 9352SOL     OW28954   3.420   1.873   6.291
 9352SOL    HW128955   3.478   1.947   6.256
 9352SOL    HW228956   3.406   1.885   6.389
 9353SOL     OW28957   1.284   3.607   1.102
 9353SOL    HW128958   1.185   3.607   1.098
 9353SOL    HW228959   1.315   3.675   1.169
 9354SOL     OW28960   5.212   1.669   1.294
 9354SOL    HW128961   5.173   1.577   1.283
 9354SOL    HW228962   5.154   1.735   1.245
 9355SOL     OW28963   6.754   6.950   3.538
 9355SOL    HW128964   6.787   6.937   3.445
 9355SOL    HW228965   6.661   6.915   3.547
 9356SOL     OW28966   4.283   5.122   2.099
 9356SOL    HW128967   4.236   5.148   2.183
 9356SOL    HW228968   4.381   5.140   2.108
 9357SOL     OW28969   2.956   3.082   1.020
 9357SOL    HW128970   2.982   3.031   1.102
 9357SOL    HW228971   2.905   3.023   0.958
 9358SOL     OW28972   6.357   4.358   2.171
 9358SOL    HW128973   6.300   4.341   2.090
 9358SOL    HW228974   6.404   4.274   2.197
 9359SOL     OW28975   0.006   4.142   6.138
 9359SOL    HW128976   6.933   4.147   6.151
 9359SOL    HW228977   0.038   4.050   6.161
 9360SOL     OW28978   2.139   1.072   6.270
 9360SOL    HW128979   2.224   1.125   6.269
 9360SOL    HW228980   2.143   1.003   6.198
 9361SOL     OW28981   3.102   6.535   2.318
 9361SOL    HW128982   3.200   6.551   2.330
 9361SOL    HW228983   3.087   6.441   2.287
 9362SOL     OW28984   2.300   1.360   2.331
 9362SOL    HW128985   2.387   1.383   2.287
 9362SOL    HW228986   2.270   1.270   2.299
 9363SOL     OW28987   3.248   6.034   2.867
 9363SOL    HW128988   3.164   5.980   2.874
 9363SOL    HW228989   3.249   6.102   2.940
 9364SOL     OW28990   4.581   2.929   6.522
 9364SOL    HW128991   4.482   2.943   6.511
 9364SOL    HW228992   4.596   2.849   6.580
 9365SOL     OW28993   2.814   1.692   4.801
 9365SOL    HW128994   2.719   1.721   4.811
 9365SOL    HW228995   2.864   1.761   4.751
 9366SOL     OW28996   3.467   2.043   0.370
 9366SOL    HW128997   3.378   2.056   0.414
 9366SOL    HW228998   3.528   2.118   0.394
 9367SOL     OW28999   6.633   5.446   3.430
 9367SOL    HW129000   6.695   5.403   3.495
 9367SOL    HW229001   6.649   5.410   3.338
 9368SOL     OW29002   3.234   2.368   1.620
 9368SOL    HW129003   3.297   2.300   1.658
 9368SOL    HW229004   3.240   2.367   1.520
 9369SOL     OW29005   0.242   2.013   5.514
 9369SOL    HW129006   0.248   1.974   5.606
 9369SOL    HW229007   0.149   2.044   5.497
 9370SOL     OW29008   6.290   0.803   2.395
 9370SOL    HW129009   6.262   0.708   2.379
 9370SOL    HW229010   6.300   0.819   2.493
 9371SOL     OW29011   0.919   6.139   0.641
 9371SOL    HW129012   0.850   6.162   0.572
 9371SOL    HW229013   0.926   6.214   0.707
 9372SOL     OW29014   5.807   6.600   3.421
 9372SOL    HW129015   5.822   6.563   3.512
 9372SOL    HW229016   5.743   6.677   3.426
 9373SOL     OW29017   4.602   1.566   3.217
 9373SOL    HW129018   4.700   1.582   3.227
 9373SOL    HW229019   4.552   1.647   3.248
 9374SOL     OW29020   5.911   2.845   0.569
 9374SOL    HW129021   5.880   2.834   0.474
 9374SOL    HW229022   5.891   2.762   0.621
 9375SOL     OW29023   6.977   1.184   2.675
 9375SOL    HW129024   6.993   1.108   2.738
 9375SOL    HW229025   0.008   1.172   2.593
 9376SOL     OW29026   3.131   3.654   0.552
 9376SOL    HW129027   3.095   3.622   0.640
 9376SOL    HW229028   3.120   3.753   0.546
 9377SOL     OW29029   6.671   5.415   3.873
 9377SOL    HW129030   6.726   5.368   3.941
 9377SOL    HW229031   6.730   5.464   3.809
 9378SOL     OW29032   2.422   0.459   0.103
 9378SOL    HW129033   2.495   0.416   0.049
 9378SOL    HW229034   2.460   0.532   0.159
 9379SOL     OW29035   4.515   4.811   4.217
 9379SOL    HW129036   4.582   4.845   4.151
 9379SOL    HW229037   4.497   4.882   4.286
 9380SOL     OW29038   6.513   6.988   5.620
 9380SOL    HW129039   6.600   6.983   5.669
 9380SOL    HW229040   6.445   6.932   5.667
 9381SOL     OW29041   2.588   2.635   5.227
 9381SOL    HW129042   2.585   2.681   5.316
 9381SOL    HW229043   2.572   2.701   5.155
 9382SOL     OW29044   3.898   0.985   2.898
 9382SOL    HW129045   3.803   0.966   2.875
 9382SOL    HW229046   3.904   1.071   2.949
 9383SOL     OW29047   3.593   6.684   4.675
 9383SOL    HW129048   3.686   6.713   4.651
 9383SOL    HW229049   3.534   6.691   4.595
 9384SOL     OW29050   5.034   6.082   2.781
 9384SOL    HW129051   5.079   5.992   2.779
 9384SOL    HW229052   4.955   6.078   2.843
 9385SOL     OW29053   3.881   1.213   3.463
 9385SOL    HW129054   3.912   1.124   3.496
 9385SOL    HW229055   3.859   1.272   3.540
 9386SOL     OW29056   3.505   6.382   5.643
 9386SOL    HW129057   3.421   6.333   5.667
 9386SOL    HW229058   3.502   6.406   5.545
 9387SOL     OW29059   3.088   6.627   1.428
 9387SOL    HW129060   3.185   6.652   1.426
 9387SOL    HW229061   3.033   6.703   1.396
 9388SOL     OW29062   0.621   6.519   2.927
 9388SOL    HW129063   0.549   6.505   2.995
 9388SOL    HW229064   0.647   6.432   2.886
 9389SOL     OW29065   2.564   0.579   5.801
 9389SOL    HW129066   2.646   0.542   5.844
 9389SOL    HW229067   2.504   0.503   5.774
 9390SOL     OW29068   3.659   5.518   2.991
 9390SOL    HW129069   3.587   5.556   3.049
 9390SOL    HW229070   3.706   5.593   2.944
 9391SOL     OW29071   1.417   1.314   5.573
 9391SOL    HW129072   1.345   1.320   5.503
 9391SOL    HW229073   1.476   1.394   5.566
 9392SOL     OW29074   1.269   6.829   4.710
 9392SOL    HW129075   1.194   6.851   4.648
 9392SOL    HW229076   1.282   6.730   4.711
 9393SOL     OW29077   4.261   2.066   5.502
 9393SOL    HW129078   4.317   2.099   5.578
 9393SOL    HW229079   4.267   1.967   5.497
 9394SOL     OW29080   6.205   2.887   3.198
 9394SOL    HW129081   6.229   2.942   3.118
 9394SOL    HW229082   6.161   2.802   3.169
 9395SOL     OW29083   2.749   2.894   0.238
 9395SOL    HW129084   2.812   2.817   0.248
 9395SOL    HW229085   2.708   2.915   0.327
 9396SOL     OW29086   6.268   6.663   4.934
 9396SOL    HW129087   6.313   6.738   4.982
 9396SOL    HW229088   6.337   6.598   4.902
 9397SOL     OW29089   1.939   0.842   6.913
 9397SOL    HW129090   1.895   0.767   6.963
 9397SOL    HW229091   1.937   0.822   6.815
 9398SOL     OW29092   2.567   1.742   0.078
 9398SOL    HW129093   2.494   1.674   0.081
 9398SOL    HW229094   2.565   1.797   0.161
 9399SOL     OW29095   6.626   1.881   6.473
 9399SOL    HW129096   6.642   1.935   6.390
 9399SOL    HW229097   6.561   1.807   6.452
 9400SOL     OW29098   4.909   3.356   1.537
 9400SOL    HW129099   4.887   3.374   1.633
 9400SOL    HW229100   4.999   3.315   1.531
 9401SOL     OW29101   2.929   6.480   3.961
 9401SOL    HW129102   2.919   6.458   3.863
 9401SOL    HW229103   2.946   6.395   4.012
 9402SOL     OW29104   2.932   5.362   6.702
 9402SOL    HW129105   2.977   5.409   6.626
 9402SOL    HW229106   2.998   5.302   6.747
 9403SOL     OW29107   5.534   1.399   3.591
 9403SOL    HW129108   5.461   1.361   3.534
 9403SOL    HW229109   5.597   1.451   3.533
 9404SOL     OW29110   0.883   5.075   6.881
 9404SOL    HW129111   0.907   4.984   6.846
 9404SOL    HW229112   0.783   5.085   6.881
 9405SOL     OW29113   5.907   6.321   1.702
 9405SOL    HW129114   5.930   6.416   1.681
 9405SOL    HW229115   5.985   6.262   1.682
 9406SOL     OW29116   0.008   2.176   5.323
 9406SOL    HW129117   6.998   2.195   5.232
 9406SOL    HW229118   7.007   2.084   5.351
 9407SOL     OW29119   3.157   6.698   3.448
 9407SOL    HW129120   3.243   6.744   3.424
 9407SOL    HW229121   3.103   6.756   3.508
 9408SOL     OW29122   3.796   1.513   6.494
 9408SOL    HW129123   3.798   1.418   6.523
 9408SOL    HW229124   3.757   1.520   6.402
 9409SOL     OW29125   5.137   3.938   3.978
 9409SOL    HW129126   5.191   3.990   4.043
 9409SOL    HW229127   5.059   3.896   4.024
 9410SOL     OW29128   4.033   6.360   2.066
 9410SOL    HW129129   3.957   6.364   2.000
 9410SOL    HW229130   4.009   6.412   2.147
 9411SOL     OW29131   3.841   5.523   1.003
 9411SOL    HW129132   3.833   5.508   0.905
 9411SOL    HW229133   3.913   5.591   1.021
 9412SOL     OW29134   0.287   2.856   1.438
 9412SOL    HW129135   0.346   2.919   1.389
 9412SOL    HW229136   0.336   2.771   1.456
 9413SOL     OW29137   4.520   5.370   5.558
 9413SOL    HW129138   4.466   5.437   5.508
 9413SOL    HW229139   4.517   5.282   5.511
 9414SOL     OW29140   3.301   1.325   2.496
 9414SOL    HW129141   3.296   1.414   2.451
 9414SOL    HW229142   3.385   1.279   2.468
 9415SOL     OW29143   1.803   6.542   2.275
 9415SOL    HW129144   1.748   6.461   2.258
 9415SOL    HW229145   1.748   6.611   2.323
 9416SOL     OW29146   1.183   1.888   1.352
 9416SOL    HW129147   1.196   1.869   1.450
 9416SOL    HW229148   1.250   1.835   1.299
 9417SOL     OW29149   2.857   5.676   5.472
 9417SOL    HW129150   2.852   5.647   5.376
 9417SOL    HW229151   2.923   5.750   5.481
 9418SOL     OW29152   2.258   5.666   1.246
 9418SOL    HW129153   2.186   5.693   1.310
 9418SOL    HW229154   2.323   5.606   1.292
 9419SOL     OW29155   2.840   6.559   5.335
 9419SOL    HW129156   2.919   6.585   5.390
 9419SOL    HW229157   2.784   6.493   5.385
 9420SOL     OW29158   6.785   1.425   4.650
 9420SOL    HW129159   6.700   1.414   4.701
 9420SOL    HW229160   6.792   1.354   4.581
 9421SOL     OW29161   1.849   4.668   5.510
 9421SOL    HW129162   1.946   4.684   5.491
 9421SOL    HW229163   1.836   4.576   5.546
 9422SOL     OW29164   5.381   0.056   2.516
 9422SOL    HW129165   5.326   0.035   2.436
 9422SOL    HW229166   5.360   7.018   2.590
 9423SOL     OW29167   4.433   0.959   3.289
 9423SOL    HW129168   4.436   0.954   3.190
 9423SOL    HW229169   4.526   0.949   3.325
 9424SOL     OW29170   4.651   0.291   5.664
 9424SOL    HW129171   4.699   0.205   5.683
 9424SOL    HW229172   4.600   0.319   5.745
 9425SOL     OW29173   0.493   3.443   5.528
 9425SOL    HW129174   0.565   3.375   5.542
 9425SOL    HW229175   0.511   3.524   5.584
 9426SOL     OW29176   2.898   0.948   0.491
 9426SOL    HW129177   2.970   0.953   0.561
 9426SOL    HW229178   2.933   0.985   0.405
 9427SOL     OW29179   2.780   5.021   4.766
 9427SOL    HW129180   2.698   4.987   4.811
 9427SOL    HW229181   2.854   4.955   4.775
 9428SOL     OW29182   6.174   0.122   2.891
 9428SOL    HW129183   6.110   0.070   2.835
 9428SOL    HW229184   6.200   0.205   2.841
 9429SOL     OW29185   1.453   4.209   2.197
 9429SOL    HW129186   1.390   4.138   2.228
 9429SOL    HW229187   1.480   4.190   2.102
 9430SOL     OW29188   6.498   6.925   2.184
 9430SOL    HW129189   6.425   6.861   2.210
 9430SOL    HW229190   6.522   6.981   2.263
 9431SOL     OW29191   6.371   4.031   0.177
 9431SOL    HW129192   6.301   3.980   0.128
 9431SOL    HW229193   6.333   4.064   0.264
 9432SOL     OW29194   6.023   0.071   3.618
 9432SOL    HW129195   6.092   7.024   3.625
 9432SOL    HW229196   6.068   0.157   3.595
 9433SOL     OW29197   3.258   5.114   5.170
 9433SOL    HW129198   3.236   5.027   5.213
 9433SOL    HW229199   3.176   5.152   5.127
 9434SOL     OW29200   5.786   4.516   3.120
 9434SOL    HW129201   5.789   4.538   3.023
 9434SOL    HW229202   5.750   4.594   3.171
 9435SOL     OW29203   1.762   1.524   3.967
 9435SOL    HW129204   1.753   1.425   3.979
 9435SOL    HW229205   1.684   1.569   4.011
 9436SOL     OW29206   1.943   3.951   0.952
 9436SOL    HW129207   1.847   3.939   0.978
 9436SOL    HW229208   1.948   4.002   0.866
 9437SOL     OW29209   1.291   5.459   3.283
 9437SOL    HW129210   1.343   5.517   3.346
 9437SOL    HW229211   1.346   5.380   3.258
 9438SOL     OW29212   0.804   6.419   1.925
 9438SOL    HW129213   0.761   6.368   1.999
 9438SOL    HW229214   0.880   6.473   1.961
 9439SOL     OW29215   6.734   3.143   2.375
 9439SOL    HW129216   6.804   3.214   2.377
 9439SOL    HW229217   6.648   3.180   2.409
 9440SOL     OW29218   4.840   6.333   5.260
 9440SOL    HW129219   4.831   6.333   5.359
 9440SOL    HW229220   4.907   6.263   5.232
 9441SOL     OW29221   1.412   5.273   5.213
 9441SOL    HW129222   1.358   5.342   5.260
 9441SOL    HW229223   1.493   5.251   5.268
 9442SOL     OW29224   6.952   2.156   7.015
 9442SOL    HW129225   6.994   2.203   6.938
 9442SOL    HW229226   6.967   2.209   0.073
 9443SOL     OW29227   1.809   4.725   1.653
 9443SOL    HW129228   1.906   4.744   1.664
 9443SOL    HW229229   1.795   4.663   1.576
 9444SOL     OW29230   0.152   3.050   6.998
 9444SOL    HW129231   0.121   3.091   0.058
 9444SOL    HW229232   0.176   2.954   7.014
 9445SOL     OW29233   4.903   3.761   2.054
 9445SOL    HW129234   4.893   3.849   2.009
 9445SOL    HW229235   4.998   3.729   2.045
 9446SOL     OW29236   6.633   6.621   2.706
 9446SOL    HW129237   6.661   6.692   2.771
 9446SOL    HW229238   6.540   6.592   2.727
 9447SOL     OW29239   5.420   3.474   2.002
 9447SOL    HW129240   5.392   3.460   1.907
 9447SOL    HW229241   5.374   3.406   2.060
 9448SOL     OW29242   5.373   6.279   6.207
 9448SOL    HW129243   5.451   6.253   6.151
 9448SOL    HW229244   5.291   6.286   6.150
 9449SOL     OW29245   6.400   5.482   5.206
 9449SOL    HW129246   6.492   5.514   5.225
 9449SOL    HW229247   6.388   5.471   5.107
 9450SOL     OW29248   2.250   4.952   4.665
 9450SOL    HW129249   2.202   5.033   4.697
 9450SOL    HW229250   2.339   4.978   4.628
 9451SOL     OW29251   4.726   5.619   6.044
 9451SOL    HW129252   4.658   5.558   6.003
 9451SOL    HW229253   4.818   5.584   6.025
 9452SOL     OW29254   2.446   3.705   0.824
 9452SOL    HW129255   2.509   3.655   0.765
 9452SOL    HW229256   2.361   3.722   0.773
 9453SOL     OW29257   2.082   4.751   2.893
 9453SOL    HW129258   2.100   4.662   2.936
 9453SOL    HW229259   2.026   4.739   2.812
 9454SOL     OW29260   1.103   4.325   6.127
 9454SOL    HW129261   1.115   4.318   6.226
 9454SOL    HW229262   1.082   4.234   6.090
 9455SOL     OW29263   3.220   1.907   2.822
 9455SOL    HW129264   3.186   1.999   2.840
 9455SOL    HW229265   3.242   1.898   2.725
 9456SOL     OW29266   0.631   4.050   1.156
 9456SOL    HW129267   0.635   4.113   1.233
 9456SOL    HW229268   0.555   3.987   1.168
 9457SOL     OW29269   1.994   3.830   6.823
 9457SOL    HW129270   2.092   3.849   6.832
 9457SOL    HW229271   1.962   3.780   6.903
 9458SOL     OW29272   0.116   5.015   5.820
 9458SOL    HW129273   0.122   5.053   5.728
 9458SOL    HW229274   0.198   5.040   5.871
 9459SOL     OW29275   6.434   5.198   2.305
 9459SOL    HW129276   6.527   5.190   2.340
 9459SOL    HW229277   6.371   5.211   2.382
 9460SOL     OW29278   0.276   2.407   4.767
 9460SOL    HW129279   0.331   2.327   4.790
 9460SOL    HW229280   0.210   2.424   4.840
 9461SOL     OW29281   0.139   1.405   3.006
 9461SOL    HW129282   0.069   1.364   3.064
 9461SOL    HW229283   0.212   1.338   2.990
 9462SOL     OW29284   1.786   3.405   2.915
 9462SOL    HW129285   1.792   3.429   2.818
 9462SOL    HW229286   1.830   3.317   2.930
 9463SOL     OW29287   0.305   0.696   0.780
 9463SOL    HW129288   0.251   0.627   0.733
 9463SOL    HW229289   0.247   0.774   0.803
 9464SOL     OW29290   5.818   6.684   6.460
 9464SOL    HW129291   5.762   6.712   6.382
 9464SOL    HW229292   5.764   6.689   6.544
 9465SOL     OW29293   6.708   0.463   2.910
 9465SOL    HW129294   6.634   0.430   2.969
 9465SOL    HW229295   6.687   0.555   2.879
 9466SOL     OW29296   2.601   3.120   5.730
 9466SOL    HW129297   2.660   3.175   5.671
 9466SOL    HW229298   2.605   3.024   5.703
 9467SOL     OW29299   1.664   2.595   1.412
 9467SOL    HW129300   1.631   2.556   1.326
 9467SOL    HW229301   1.586   2.619   1.470
 9468SOL     OW29302   6.008   3.182   5.850
 9468SOL    HW129303   6.056   3.170   5.763
 9468SOL    HW229304   5.924   3.233   5.834
 9469SOL     OW29305   6.289   5.395   2.168
 9469SOL    HW129306   6.353   5.349   2.229
 9469SOL    HW229307   6.215   5.333   2.143
 9470SOL     OW29308   5.133   2.603   6.764
 9470SOL    HW129309   5.227   2.635   6.773
 9470SOL    HW229310   5.091   2.595   6.854
 9471SOL     OW29311   0.050   2.688   5.460
 9471SOL    HW129312   7.025   2.714   5.542
 9471SOL    HW229313   0.033   2.592   5.439
 9472SOL     OW29314   6.360   4.296   4.904
 9472SOL    HW129315   6.329   4.210   4.863
 9472SOL    HW229316   6.322   4.373   4.852
 9473SOL     OW29317   3.230   6.692   5.706
 9473SOL    HW129318   3.151   6.668   5.762
 9473SOL    HW229319   3.313   6.657   5.749
 9474SOL     OW29320   5.616   4.230   2.055
 9474SOL    HW129321   5.703   4.181   2.066
 9474SOL    HW229322   5.556   4.178   1.994
 9475SOL     OW29323   3.290   3.481   0.790
 9475SOL    HW129324   3.326   3.422   0.863
 9475SOL    HW229325   3.333   3.571   0.795
 9476SOL     OW29326   3.491   3.350   5.201
 9476SOL    HW129327   3.487   3.262   5.155
 9476SOL    HW229328   3.432   3.348   5.281
 9477SOL     OW29329   0.917   3.070   0.864
 9477SOL    HW129330   0.859   3.064   0.782
 9477SOL    HW229331   0.880   3.008   0.935
 9478SOL     OW29332   5.125   4.152   5.579
 9478SOL    HW129333   5.048   4.183   5.524
 9478SOL    HW229334   5.112   4.056   5.606
 9479SOL     OW29335   5.856   5.387   6.034
 9479SOL    HW129336   5.823   5.324   6.105
 9479SOL    HW229337   5.796   5.466   6.029
 9480SOL     OW29338   4.343   4.512   6.773
 9480SOL    HW129339   4.390   4.520   6.685
 9480SOL    HW229340   4.353   4.418   6.808
 9481SOL     OW29341   6.480   3.902   1.521
 9481SOL    HW129342   6.529   3.972   1.574
 9481SOL    HW229343   6.391   3.937   1.493
 9482SOL     OW29344   6.029   0.541   3.426
 9482SOL    HW129345   6.029   0.581   3.518
 9482SOL    HW229346   6.065   0.608   3.361
 9483SOL     OW29347   1.692   1.876   0.856
 9483SOL    HW129348   1.714   1.973   0.842
 9483SOL    HW229349   1.609   1.868   0.911
 9484SOL     OW29350   6.429   1.280   3.945
 9484SOL    HW129351   6.387   1.197   3.981
 9484SOL    HW229352   6.358   1.347   3.924
 9485SOL     OW29353   1.753   0.690   1.632
 9485SOL    HW129354   1.767   0.591   1.635
 9485SOL    HW229355   1.831   0.732   1.585
 9486SOL     OW29356   2.691   5.269   0.633
 9486SOL    HW129357   2.695   5.337   0.560
 9486SOL    HW229358   2.716   5.312   0.720
 9487SOL     OW29359   3.263   3.999   3.615
 9487SOL    HW129360   3.249   4.035   3.708
 9487SOL    HW229361   3.326   3.922   3.619
 9488SOL     OW29362   1.804   5.890   1.649
 9488SOL    HW129363   1.752   5.813   1.612
 9488SOL    HW229364   1.797   5.969   1.589
 9489SOL     OW29365   4.225   4.121   0.907
 9489SOL    HW129366   4.126   4.127   0.919
 9489SOL    HW229367   4.259   4.206   0.866
 9490SOL     OW29368   5.158   0.562   1.198
 9490SOL    HW129369   5.072   0.578   1.150
 9490SOL    HW229370   5.152   0.597   1.292
 9491SOL     OW29371   6.807   5.324   4.786
 9491SOL    HW129372   6.719   5.283   4.811
 9491SOL    HW229373   6.810   5.418   4.819
 9492SOL     OW29374   3.300   3.850   2.157
 9492SOL    HW129375   3.205   3.851   2.127
 9492SOL    HW229376   3.318   3.931   2.212
 9493SOL     OW29377   4.787   5.137   3.742
 9493SOL    HW129378   4.773   5.043   3.712
 9493SOL    HW229379   4.741   5.199   3.678
 9494SOL     OW29380   5.222   3.687   6.873
 9494SOL    HW129381   5.317   3.703   6.844
 9494SOL    HW229382   5.208   3.727   6.964
 9495SOL     OW29383   6.126   2.226   3.332
 9495SOL    HW129384   6.200   2.274   3.380
 9495SOL    HW229385   6.165   2.159   3.270
 9496SOL     OW29386   5.363   3.943   6.461
 9496SOL    HW129387   5.288   3.889   6.421
 9496SOL    HW229388   5.326   4.030   6.495
 9497SOL     OW29389   4.719   4.274   0.807
 9497SOL    HW129390   4.801   4.229   0.770
 9497SOL    HW229391   4.723   4.372   0.787
 9498SOL     OW29392   4.218   6.594   5.518
 9498SOL    HW129393   4.248   6.526   5.586
 9498SOL    HW229394   4.189   6.677   5.565
 9499SOL     OW29395   2.495   4.214   5.572
 9499SOL    HW129396   2.432   4.155   5.622
 9499SOL    HW229397   2.466   4.220   5.476
 9500SOL     OW29398   4.087   6.726   1.730
 9500SOL    HW129399   4.052   6.731   1.636
 9500SOL    HW229400   4.074   6.815   1.774
 9501SOL     OW29401   3.794   2.060   4.901
 9501SOL    HW129402   3.744   2.126   4.845
 9501SOL    HW229403   3.818   2.102   4.988
 9502SOL     OW29404   6.427   2.031   4.875
 9502SOL    HW129405   6.384   2.077   4.952
 9502SOL    HW229406   6.358   2.007   4.807
 9503SOL     OW29407   0.366   1.130   1.371
 9503SOL    HW129408   0.462   1.101   1.366
 9503SOL    HW229409   0.354   1.214   1.319
 9504SOL     OW29410   6.724   2.661   1.417
 9504SOL    HW129411   6.745   2.757   1.399
 9504SOL    HW229412   6.777   2.602   1.355
 9505SOL     OW29413   6.298   3.553   3.377
 9505SOL    HW129414   6.368   3.495   3.418
 9505SOL    HW229415   6.219   3.497   3.350
 9506SOL     OW29416   7.016   3.187   0.192
 9506SOL    HW129417   0.075   3.238   0.178
 9506SOL    HW229418   6.945   3.222   0.131
 9507SOL     OW29419   2.496   1.185   4.506
 9507SOL    HW129420   2.557   1.200   4.428
 9507SOL    HW229421   2.548   1.153   4.585
 9508SOL     OW29422   5.433   2.577   0.194
 9508SOL    HW129423   5.431   2.538   0.286
 9508SOL    HW229424   5.401   2.672   0.198
 9509SOL     OW29425   1.081   6.743   5.409
 9509SOL    HW129426   1.104   6.818   5.346
 9509SOL    HW229427   1.053   6.663   5.356
 9510SOL     OW29428   7.000   3.607   2.121
 9510SOL    HW129429   6.910   3.565   2.127
 9510SOL    HW229430   6.991   3.702   2.092
 9511SOL     OW29431   0.746   2.056   0.329
 9511SOL    HW129432   0.649   2.083   0.328
 9511SOL    HW229433   0.797   2.117   0.388
 9512SOL     OW29434   6.489   1.921   3.569
 9512SOL    HW129435   6.399   1.963   3.564
 9512SOL    HW229436   6.483   1.833   3.617
 9513SOL     OW29437   1.790   3.809   4.787
 9513SOL    HW129438   1.836   3.732   4.742
 9513SOL    HW229439   1.777   3.883   4.721
 9514SOL     OW29440   1.880   3.529   6.651
 9514SOL    HW129441   1.955   3.580   6.609
 9514SOL    HW229442   1.833   3.588   6.717
 9515SOL     OW29443   1.198   6.090   6.917
 9515SOL    HW129444   1.213   6.133   7.006
 9515SOL    HW229445   1.132   6.015   6.927
 9516SOL     OW29446   4.951   3.235   4.203
 9516SOL    HW129447   4.956   3.148   4.153
 9516SOL    HW229448   4.891   3.224   4.283
 9517SOL     OW29449   0.986   5.256   1.349
 9517SOL    HW129450   0.993   5.218   1.441
 9517SOL    HW229451   0.992   5.356   1.353
 9518SOL     OW29452   1.400   2.730   6.414
 9518SOL    HW129453   1.452   2.693   6.490
 9518SOL    HW229454   1.324   2.669   6.393
 9519SOL     OW29455   3.024   3.517   2.703
 9519SOL    HW129456   2.991   3.444   2.643
 9519SOL    HW229457   3.076   3.583   2.650
 9520SOL     OW29458   6.636   1.071   4.613
 9520SOL    HW129459   6.559   1.106   4.666
 9520SOL    HW229460   6.720   1.117   4.642
 9521SOL     OW29461   2.981   5.232   1.554
 9521SOL    HW129462   2.959   5.207   1.648
 9521SOL    HW229463   3.056   5.175   1.520
 9522SOL     OW29464   4.123   5.427   2.055
 9522SOL    HW129465   4.194   5.380   2.108
 9522SOL    HW229466   4.045   5.446   2.114
 9523SOL     OW29467   2.080   5.098   4.917
 9523SOL    HW129468   2.035   5.134   4.999
 9523SOL    HW229469   2.126   5.173   4.869
 9524SOL     OW29470   1.133   3.650   1.653
 9524SOL    HW129471   1.172   3.727   1.704
 9524SOL    HW229472   1.074   3.686   1.581
 9525SOL     OW29473   1.541   2.379   5.866
 9525SOL    HW129474   1.519   2.292   5.911
 9525SOL    HW229475   1.640   2.390   5.862
 9526SOL     OW29476   5.282   4.669   0.714
 9526SOL    HW129477   5.356   4.646   0.651
 9526SOL    HW229478   5.315   4.734   0.782
 9527SOL     OW29479   2.395   6.701   4.438
 9527SOL    HW129480   2.338   6.778   4.468
 9527SOL    HW229481   2.483   6.736   4.405
 9528SOL     OW29482   5.813   0.913   1.344
 9528SOL    HW129483   5.748   0.961   1.285
 9528SOL    HW229484   5.877   0.978   1.385
 9529SOL     OW29485   6.031   3.577   0.731
 9529SOL    HW129486   6.059   3.481   0.727
 9529SOL    HW229487   5.939   3.583   0.772
 9530SOL     OW29488   1.210   5.650   4.384
 9530SOL    HW129489   1.122   5.609   4.364
 9530SOL    HW229490   1.224   5.654   4.483
 9531SOL     OW29491   4.301   4.706   2.891
 9531SOL    HW129492   4.367   4.781   2.892
 9531SOL    HW229493   4.298   4.666   2.799
 9532SOL     OW29494   6.184   4.903   1.516
 9532SOL    HW129495   6.089   4.913   1.483
 9532SOL    HW229496   6.202   4.972   1.586
 9533SOL     OW29497   0.794   5.735   4.752
 9533SOL    HW129498   0.867   5.763   4.814
 9533SOL    HW229499   0.783   5.636   4.755
 9534SOL     OW29500   5.938   4.508   5.174
 9534SOL    HW129501   5.883   4.432   5.137
 9534SOL    HW229502   5.899   4.538   5.261
 9535SOL     OW29503   1.972   1.946   5.428
 9535SOL    HW129504   1.935   1.875   5.489
 9535SOL    HW229505   2.003   2.024   5.483
 9536SOL     OW29506   3.545   2.849   4.724
 9536SOL    HW129507   3.513   2.813   4.636
 9536SOL    HW229508   3.534   2.948   4.726
 9537SOL     OW29509   2.974   1.628   4.157
 9537SOL    HW129510   3.069   1.638   4.186
 9537SOL    HW229511   2.954   1.695   4.085
 9538SOL     OW29512   4.033   1.236   4.424
 9538SOL    HW129513   4.112   1.231   4.484
 9538SOL    HW229514   4.050   1.181   4.342
 9539SOL     OW29515   3.296   3.037   4.088
 9539SOL    HW129516   3.204   3.051   4.053
 9539SOL    HW229517   3.291   3.010   4.184
 9540SOL     OW29518   4.825   5.256   3.986
 9540SOL    HW129519   4.745   5.286   4.038
 9540SOL    HW229520   4.795   5.206   3.905
 9541SOL     OW29521   0.912   0.783   5.527
 9541SOL    HW129522   0.850   0.839   5.583
 9541SOL    HW229523   0.966   0.843   5.468
 9542SOL     OW29524   5.785   4.785   4.659
 9542SOL    HW129525   5.845   4.803   4.737
 9542SOL    HW229526   5.747   4.871   4.625
 9543SOL     OW29527   2.938   0.214   6.040
 9543SOL    HW129528   2.929   0.160   6.123
 9543SOL    HW229529   2.899   0.163   5.962
 9544SOL     OW29530   4.746   4.051   3.793
 9544SOL    HW129531   4.711   4.116   3.860
 9544SOL    HW229532   4.771   3.966   3.839
 9545SOL     OW29533   0.769   5.312   2.500
 9545SOL    HW129534   0.765   5.326   2.599
 9545SOL    HW229535   0.676   5.317   2.462
 9546SOL     OW29536   3.747   2.045   5.909
 9546SOL    HW129537   3.653   2.024   5.883
 9546SOL    HW229538   3.762   2.144   5.903
 9547SOL     OW29539   3.170   5.917   4.009
 9547SOL    HW129540   3.209   5.835   3.968
 9547SOL    HW229541   3.085   5.893   4.057
 9548SOL     OW29542   1.019   5.307   5.207
 9548SOL    HW129543   1.070   5.224   5.185
 9548SOL    HW229544   0.923   5.296   5.179
 9549SOL     OW29545   3.374   0.592   2.797
 9549SOL    HW129546   3.366   0.691   2.812
 9549SOL    HW229547   3.303   0.545   2.849
 9550SOL     OW29548   6.158   2.516   0.650
 9550SOL    HW129549   6.242   2.548   0.694
 9550SOL    HW229550   6.167   2.419   0.628
 9551SOL     OW29551   6.009   3.108   6.100
 9551SOL    HW129552   6.031   3.150   6.012
 9551SOL    HW229553   6.093   3.075   6.143
 9552SOL     OW29554   2.201   0.511   5.987
 9552SOL    HW129555   2.144   0.499   6.068
 9552SOL    HW229556   2.245   0.424   5.964
 9553SOL     OW29557   5.583   2.009   0.521
 9553SOL    HW129558   5.658   1.944   0.505
 9553SOL    HW229559   5.571   2.066   0.440
 9554SOL     OW29560   2.266   6.678   3.756
 9554SOL    HW129561   2.209   6.707   3.680
 9554SOL    HW229562   2.363   6.691   3.732
 9555SOL     OW29563   0.189   1.531   3.310
 9555SOL    HW129564   0.096   1.568   3.299
 9555SOL    HW229565   0.230   1.570   3.392
 9556SOL     OW29566   1.611   5.000   1.468
 9556SOL    HW129567   1.514   4.978   1.460
 9556SOL    HW229568   1.665   4.916   1.459
 9557SOL     OW29569   4.579   6.882   1.346
 9557SOL    HW129570   4.628   6.963   1.379
 9557SOL    HW229571   4.481   6.892   1.365
 9558SOL     OW29572   5.616   6.416   5.411
 9558SOL    HW129573   5.632   6.320   5.432
 9558SOL    HW229574   5.704   6.463   5.403
 9559SOL     OW29575   1.143   3.866   0.239
 9559SOL    HW129576   1.092   3.925   0.301
 9559SOL    HW229577   1.240   3.892   0.241
 9560SOL     OW29578   2.505   1.067   2.520
 9560SOL    HW129579   2.524   1.149   2.573
 9560SOL    HW229580   2.435   1.013   2.567
 9561SOL     OW29581   0.549   0.879   1.506
 9561SOL    HW129582   0.538   0.971   1.543
 9561SOL    HW229583   0.622   0.832   1.554
 9562SOL     OW29584   2.985   6.622   4.335
 9562SOL    HW129585   3.044   6.620   4.255
 9562SOL    HW229586   3.041   6.619   4.418
 9563SOL     OW29587   0.415   6.682   0.203
 9563SOL    HW129588   0.392   6.778   0.186
 9563SOL    HW229589   0.470   6.675   0.287
 9564SOL     OW29590   1.811   1.705   1.387
 9564SOL    HW129591   1.869   1.659   1.454
 9564SOL    HW229592   1.804   1.648   1.305
 9565SOL     OW29593   3.487   1.213   4.730
 9565SOL    HW129594   3.528   1.162   4.654
 9565SOL    HW229595   3.549   1.286   4.758
 9566SOL     OW29596   2.511   6.146   0.151
 9566SOL    HW129597   2.453   6.083   0.203
 9566SOL    HW229598   2.599   6.101   0.132
 9567SOL     OW29599   5.918   4.057   0.613
 9567SOL    HW129600   6.004   4.016   0.645
 9567SOL    HW229601   5.893   4.016   0.525
 9568SOL     OW29602   4.212   1.095   0.450
 9568SOL    HW129603   4.271   1.024   0.412
 9568SOL    HW229604   4.220   1.094   0.550
 9569SOL     OW29605   0.108   1.005   2.077
 9569SOL    HW129606   0.143   0.997   1.983
 9569SOL    HW229607   0.098   0.913   2.116
 9570SOL     OW29608   0.620   3.062   0.712
 9570SOL    HW129609   0.525   3.049   0.742
 9570SOL    HW229610   0.662   2.973   0.696
 9571SOL     OW29611   2.577   2.681   5.874
 9571SOL    HW129612   2.541   2.613   5.810
 9571SOL    HW229613   2.670   2.705   5.849
 9572SOL     OW29614   2.337   4.847   2.556
 9572SOL    HW129615   2.356   4.834   2.653
 9572SOL    HW229616   2.415   4.816   2.502
 9573SOL     OW29617   0.037   1.689   5.817
 9573SOL    HW129618   6.989   1.622   5.831
 9573SOL    HW229619   0.047   1.745   5.899
 9574SOL     OW29620   3.495   2.804   2.112
 9574SOL    HW129621   3.510   2.706   2.116
 9574SOL    HW229622   3.583   2.852   2.109
 9575SOL     OW29623   6.510   0.769   1.973
 9575SOL    HW129624   6.606   0.793   1.986
 9575SOL    HW229625   6.456   0.853   1.962
 9576SOL     OW29626   1.699   1.996   6.854
 9576SOL    HW129627   1.645   1.993   6.938
 9576SOL    HW229628   1.719   1.903   6.824
 9577SOL     OW29629   0.185   5.793   6.111
 9577SOL    HW129630   0.178   5.865   6.042
 9577SOL    HW229631   0.205   5.835   6.200
 9578SOL     OW29632   1.522   2.639   2.592
 9578SOL    HW129633   1.573   2.705   2.647
 9578SOL    HW229634   1.537   2.547   2.628
 9579SOL     OW29635   6.940   6.094   2.755
 9579SOL    HW129636   0.005   6.074   2.791
 9579SOL    HW229637   6.946   6.162   2.683
 9580SOL     OW29638   5.034   3.669   1.109
 9580SOL    HW129639   5.021   3.615   1.192
 9580SOL    HW229640   5.040   3.766   1.134
 9581SOL     OW29641   0.684   0.160   6.396
 9581SOL    HW129642   0.778   0.147   6.427
 9581SOL    HW229643   0.668   0.258   6.380
 9582SOL     OW29644   3.753   5.702   4.955
 9582SOL    HW129645   3.792   5.652   4.878
 9582SOL    HW229646   3.682   5.646   4.998
 9583SOL     OW29647   3.067   4.361   1.141
 9583SOL    HW129648   3.070   4.343   1.240
 9583SOL    HW229649   3.160   4.355   1.104
 9584SOL     OW29650   1.071   5.072   5.884
 9584SOL    HW129651   1.138   5.006   5.919
 9584SOL    HW229652   1.073   5.072   5.784
 9585SOL     OW29653   5.417   6.327   2.303
 9585SOL    HW129654   5.322   6.325   2.334
 9585SOL    HW229655   5.465   6.402   2.350
 9586SOL     OW29656   4.333   5.386   2.232
 9586SOL    HW129657   4.413   5.420   2.282
 9586SOL    HW229658   4.250   5.405   2.285
 9587SOL     OW29659   0.949   6.675   2.241
 9587SOL    HW129660   0.859   6.683   2.285
 9587SOL    HW229661   1.020   6.683   2.311
 9588SOL     OW29662   6.095   5.922   0.322
 9588SOL    HW129663   6.028   5.991   0.350
 9588SOL    HW229664   6.187   5.958   0.335
 9589SOL     OW29665   1.703   4.056   0.015
 9589SOL    HW129666   1.704   3.965   0.056
 9589SOL    HW229667   1.774   4.112   0.057
 9590SOL     OW29668   6.065   2.680   1.721
 9590SOL    HW129669   6.002   2.637   1.655
 9590SOL    HW229670   6.140   2.617   1.740
 9591SOL     OW29671   4.005   5.789   6.479
 9591SOL    HW129672   3.994   5.755   6.386
 9591SOL    HW229673   3.981   5.716   6.543
 9592SOL     OW29674   3.158   5.091   1.112
 9592SOL    HW129675   3.118   5.146   1.185
 9592SOL    HW229676   3.197   5.151   1.042
 9593SOL     OW29677   1.084   1.646   5.510
 9593SOL    HW129678   0.985   1.628   5.510
 9593SOL    HW229679   1.102   1.731   5.461
 9594SOL     OW29680   2.563   6.209   4.374
 9594SOL    HW129681   2.618   6.249   4.448
 9594SOL    HW229682   2.599   6.238   4.286
 9595SOL     OW29683   0.882   2.666   3.772
 9595SOL    HW129684   0.785   2.674   3.794
 9595SOL    HW229685   0.899   2.580   3.724
 9596SOL     OW29686   0.893   5.214   0.481
 9596SOL    HW129687   0.825   5.144   0.502
 9596SOL    HW229688   0.861   5.271   0.406
 9597SOL     OW29689   0.213   4.154   1.507
 9597SOL    HW129690   0.280   4.083   1.524
 9597SOL    HW229691   0.137   4.145   1.572
 9598SOL     OW29692   2.073   4.094   3.413
 9598SOL    HW129693   2.114   4.055   3.330
 9598SOL    HW229694   2.046   4.020   3.475
 9599SOL     OW29695   3.122   0.268   4.089
 9599SOL    HW129696   3.084   0.262   3.997
 9599SOL    HW229697   3.194   0.200   4.100
 9600SOL     OW29698   2.791   0.377   0.012
 9600SOL    HW129699   2.879   0.416   7.010
 9600SOL    HW229700   2.748   0.435   0.081
 9601SOL     OW29701   5.382   4.230   0.406
 9601SOL    HW129702   5.294   4.273   0.424
 9601SOL    HW229703   5.371   4.159   0.336
 9602SOL     OW29704   4.806   3.921   5.469
 9602SOL    HW129705   4.757   4.006   5.487
 9602SOL    HW229706   4.817   3.870   5.555
 9603SOL     OW29707   5.065   6.714   6.698
 9603SOL    HW129708   5.022   6.646   6.757
 9603SOL    HW229709   5.129   6.770   6.751
 9604SOL     OW29710   5.029   7.005   1.270
 9604SOL    HW129711   4.943   0.012   1.230
 9604SOL    HW229712   5.019   6.909   1.297
 9605SOL     OW29713   0.944   5.087   3.099
 9605SOL    HW129714   0.848   5.061   3.109
 9605SOL    HW229715   0.960   5.176   3.143
 9606SOL     OW29716   1.265   6.593   6.653
 9606SOL    HW129717   1.186   6.534   6.638
 9606SOL    HW229718   1.345   6.538   6.675
 9607SOL     OW29719   2.980   1.058   0.244
 9607SOL    HW129720   2.903   1.077   0.183
 9607SOL    HW229721   3.062   1.042   0.189
 9608SOL     OW29722   0.384   4.659   2.197
 9608SOL    HW129723   0.378   4.752   2.161
 9608SOL    HW229724   0.334   4.597   2.137
 9609SOL     OW29725   3.763   3.114   0.377
 9609SOL    HW129726   3.667   3.110   0.403
 9609SOL    HW229727   3.821   3.093   0.456
 9610SOL     OW29728   1.609   4.787   3.482
 9610SOL    HW129729   1.583   4.883   3.492
 9610SOL    HW229730   1.536   4.737   3.435
 9611SOL     OW29731   1.552   6.289   0.788
 9611SOL    HW129732   1.453   6.302   0.783
 9611SOL    HW229733   1.575   6.235   0.869
 9612SOL     OW29734   0.479   3.189   2.000
 9612SOL    HW129735   0.407   3.238   1.951
 9612SOL    HW229736   0.488   3.096   1.963
 9613SOL     OW29737   5.204   6.298   4.051
 9613SOL    HW129738   5.152   6.307   3.965
 9613SOL    HW229739   5.165   6.359   4.120
 9614SOL     OW29740   3.726   2.033   1.791
 9614SOL    HW129741   3.734   2.055   1.693
 9614SOL    HW229742   3.662   2.097   1.834
 9615SOL     OW29743   1.989   1.384   1.384
 9615SOL    HW129744   1.978   1.287   1.406
 9615SOL    HW229745   1.900   1.430   1.391
 9616SOL     OW29746   3.476   4.077   1.003
 9616SOL    HW129747   3.505   4.124   1.086
 9616SOL    HW229748   3.384   4.040   1.017
 9617SOL     OW29749   1.775   3.191   3.278
 9617SOL    HW129750   1.868   3.223   3.298
 9617SOL    HW229751   1.710   3.263   3.303
 9618SOL     OW29752   2.535   0.069   0.747
 9618SOL    HW129753   2.548   0.159   0.705
 9618SOL    HW229754   2.614   0.011   0.728
 9619SOL     OW29755   1.793   0.299   5.908
 9619SOL    HW129756   1.828   0.275   5.817
 9619SOL    HW229757   1.709   0.248   5.926
 9620SOL     OW29758   4.372   6.823   5.189
 9620SOL    HW129759   4.385   6.727   5.165
 9620SOL    HW229760   4.378   6.834   5.288
 9621SOL     OW29761   1.902   2.928   1.864
 9621SOL    HW129762   1.928   2.895   1.773
 9621SOL    HW229763   1.815   2.977   1.857
 9622SOL     OW29764   6.428   1.455   0.261
 9622SOL    HW129765   6.399   1.534   0.315
 9622SOL    HW229766   6.523   1.466   0.233
 9623SOL     OW29767   2.698   3.356   5.490
 9623SOL    HW129768   2.712   3.286   5.420
 9623SOL    HW229769   2.736   3.443   5.458
 9624SOL     OW29770   6.020   3.886   2.895
 9624SOL    HW129771   5.927   3.883   2.934
 9624SOL    HW229772   6.083   3.840   2.957
 9625SOL     OW29773   5.205   5.278   6.780
 9625SOL    HW129774   5.133   5.217   6.813
 9625SOL    HW229775   5.276   5.286   6.850
 9626SOL     OW29776   4.459   5.201   0.684
 9626SOL    HW129777   4.393   5.161   0.619
 9626SOL    HW229778   4.552   5.190   0.648
 9627SOL     OW29779   0.618   6.075   6.193
 9627SOL    HW129780   0.518   6.079   6.200
 9627SOL    HW229781   0.645   5.991   6.146
 9628SOL     OW29782   5.343   4.863   0.902
 9628SOL    HW129783   5.402   4.792   0.940
 9628SOL    HW229784   5.378   4.953   0.929
 9629SOL     OW29785   1.934   0.468   1.103
 9629SOL    HW129786   1.869   0.528   1.055
 9629SOL    HW229787   1.892   0.434   1.187
 9630SOL     OW29788   6.033   6.756   4.631
 9630SOL    HW129789   6.007   6.746   4.535
 9630SOL    HW229790   6.022   6.669   4.678
 9631SOL     OW29791   0.040   6.382   6.145
 9631SOL    HW129792   7.014   6.390   6.230
 9631SOL    HW229793   7.012   6.330   6.078
 9632SOL     OW29794   1.983   6.830   3.175
 9632SOL    HW129795   1.948   6.790   3.090
 9632SOL    HW229796   2.001   6.928   3.160
 9633SOL     OW29797   5.167   4.948   6.378
 9633SOL    HW129798   5.163   4.848   6.380
 9633SOL    HW229799   5.252   4.977   6.334
 9634SOL     OW29800   1.537   6.379   3.739
 9634SOL    HW129801   1.544   6.291   3.694
 9634SOL    HW229802   1.627   6.422   3.745
 9635SOL     OW29803   1.938   6.147   5.241
 9635SOL    HW129804   1.993   6.153   5.158
 9635SOL    HW229805   1.897   6.056   5.248
 9636SOL     OW29806   3.991   1.613   5.450
 9636SOL    HW129807   3.976   1.515   5.434
 9636SOL    HW229808   3.952   1.639   5.538
 9637SOL     OW29809   2.699   2.543   6.521
 9637SOL    HW129810   2.608   2.502   6.518
 9637SOL    HW229811   2.692   2.642   6.513
 9638SOL     OW29812   0.285   3.640   6.266
 9638SOL    HW129813   0.376   3.653   6.305
 9638SOL    HW229814   0.227   3.591   6.331
 9639SOL     OW29815   3.856   1.756   2.090
 9639SOL    HW129816   3.933   1.694   2.103
 9639SOL    HW229817   3.819   1.745   1.998
 9640SOL     OW29818   2.321   2.645   3.859
 9640SOL    HW129819   2.257   2.712   3.897
 9640SOL    HW229820   2.348   2.580   3.930
 9641SOL     OW29821   4.378   0.044   0.526
 9641SOL    HW129822   4.319   0.125   0.517
 9641SOL    HW229823   4.445   0.060   0.597
 9642SOL     OW29824   2.927   0.187   4.644
 9642SOL    HW129825   2.870   0.190   4.561
 9642SOL    HW229826   2.924   0.095   4.683
 9643SOL     OW29827   5.394   4.239   3.596
 9643SOL    HW129828   5.359   4.164   3.653
 9643SOL    HW229829   5.317   4.294   3.564
 9644SOL     OW29830   1.009   4.048   6.153
 9644SOL    HW129831   1.090   4.003   6.115
 9644SOL    HW229832   0.992   4.015   6.245
 9645SOL     OW29833   2.496   5.146   4.794
 9645SOL    HW129834   2.536   5.055   4.787
 9645SOL    HW229835   2.466   5.177   4.704
 9646SOL     OW29836   3.662   4.865   2.565
 9646SOL    HW129837   3.727   4.939   2.581
 9646SOL    HW229838   3.585   4.873   2.629
 9647SOL     OW29839   6.403   4.553   1.225
 9647SOL    HW129840   6.466   4.592   1.159
 9647SOL    HW229841   6.309   4.579   1.201
 9648SOL     OW29842   4.401   1.226   1.025
 9648SOL    HW129843   4.428   1.266   0.937
 9648SOL    HW229844   4.327   1.280   1.064
 9649SOL     OW29845   2.842   0.113   6.921
 9649SOL    HW129846   2.869   0.208   6.935
 9649SOL    HW229847   2.844   0.064   7.008
 9650SOL     OW29848   6.891   5.072   2.281
 9650SOL    HW129849   6.906   5.031   2.191
 9650SOL    HW229850   6.955   5.032   2.347
 9651SOL     OW29851   0.077   2.089   5.989
 9651SOL    HW129852   7.004   2.084   5.978
 9651SOL    HW229853   0.099   2.138   6.074
 9652SOL     OW29854   1.054   4.809   1.438
 9652SOL    HW129855   1.045   4.854   1.527
 9652SOL    HW229856   1.010   4.865   1.368
 9653SOL     OW29857   4.035   4.829   5.129
 9653SOL    HW129858   4.039   4.896   5.056
 9653SOL    HW229859   3.941   4.819   5.162
 9654SOL     OW29860   3.003   2.208   1.448
 9654SOL    HW129861   2.913   2.178   1.418
 9654SOL    HW229862   2.993   2.271   1.525
 9655SOL     OW29863   0.199   1.446   6.449
 9655SOL    HW129864   0.273   1.460   6.514
 9655SOL    HW229865   0.128   1.515   6.463
 9656SOL     OW29866   2.107   0.668   2.719
 9656SOL    HW129867   2.045   0.726   2.667
 9656SOL    HW229868   2.070   0.653   2.811
 9657SOL     OW29869   5.355   0.884   4.178
 9657SOL    HW129870   5.358   0.826   4.096
 9657SOL    HW229871   5.382   0.830   4.257
 9658SOL     OW29872   0.107   2.069   2.504
 9658SOL    HW129873   0.111   1.969   2.517
 9658SOL    HW229874   0.012   2.096   2.488
 9659SOL     OW29875   6.786   4.262   0.340
 9659SOL    HW129876   6.787   4.344   0.398
 9659SOL    HW229877   6.880   4.234   0.322
 9660SOL     OW29878   0.262   6.164   0.767
 9660SOL    HW129879   0.237   6.206   0.855
 9660SOL    HW229880   0.269   6.236   0.697
 9661SOL     OW29881   4.549   5.850   1.089
 9661SOL    HW129882   4.623   5.895   1.039
 9661SOL    HW229883   4.559   5.868   1.187
 9662SOL     OW29884   6.180   2.914   4.490
 9662SOL    HW129885   6.149   2.983   4.424
 9662SOL    HW229886   6.193   2.956   4.579
 9663SOL     OW29887   1.695   5.483   3.834
 9663SOL    HW129888   1.661   5.398   3.874
 9663SOL    HW229889   1.653   5.560   3.882
 9664SOL     OW29890   4.705   6.864   2.953
 9664SOL    HW129891   4.753   6.929   3.013
 9664SOL    HW229892   4.753   6.776   2.955
 9665SOL     OW29893   6.126   4.872   5.537
 9665SOL    HW129894   6.059   4.816   5.586
 9665SOL    HW229895   6.183   4.813   5.480
 9666SOL     OW29896   6.048   4.082   1.009
 9666SOL    HW129897   6.140   4.042   1.006
 9666SOL    HW229898   5.981   4.010   1.027
 9667SOL     OW29899   4.079   3.351   4.432
 9667SOL    HW129900   4.010   3.290   4.469
 9667SOL    HW229901   4.092   3.333   4.335
 9668SOL     OW29902   6.720   1.414   5.758
 9668SOL    HW129903   6.769   1.375   5.679
 9668SOL    HW229904   6.632   1.448   5.728
 9669SOL     OW29905   0.663   1.221   1.002
 9669SOL    HW129906   0.604   1.287   0.955
 9669SOL    HW229907   0.728   1.182   0.937
 9670SOL     OW29908   4.085   4.646   5.720
 9670SOL    HW129909   4.000   4.662   5.670
 9670SOL    HW229910   4.083   4.696   5.807
 9671SOL     OW29911   6.893   5.072   6.129
 9671SOL    HW129912   6.912   5.071   6.031
 9671SOL    HW229913   6.817   5.134   6.148
 9672SOL     OW29914   1.230   6.577   5.040
 9672SOL    HW129915   1.183   6.549   4.957
 9672SOL    HW229916   1.313   6.628   5.016
 9673SOL     OW29917   3.769   5.231   6.930
 9673SOL    HW129918   3.766   5.319   6.882
 9673SOL    HW229919   3.819   5.165   6.874
 9674SOL     OW29920   2.600   6.485   2.311
 9674SOL    HW129921   2.669   6.519   2.247
 9674SOL    HW229922   2.509   6.490   2.269
 9675SOL     OW29923   5.957   0.622   2.185
 9675SOL    HW129924   5.968   0.716   2.218
 9675SOL    HW229925   5.916   0.567   2.257
 9676SOL     OW29926   1.638   3.670   5.883
 9676SOL    HW129927   1.542   3.662   5.856
 9676SOL    HW229928   1.664   3.590   5.937
 9677SOL     OW29929   2.042   4.150   5.871
 9677SOL    HW129930   2.039   4.202   5.786
 9677SOL    HW229931   1.983   4.196   5.939
 9678SOL     OW29932   3.722   3.765   2.961
 9678SOL    HW129933   3.781   3.685   2.954
 9678SOL    HW229934   3.626   3.736   2.953
 9679SOL     OW29935   0.757   2.708   1.975
 9679SOL    HW129936   0.805   2.795   1.957
 9679SOL    HW229937   0.820   2.632   1.958
 9680SOL     OW29938   5.802   6.540   3.720
 9680SOL    HW129939   5.874   6.607   3.743
 9680SOL    HW229940   5.821   6.454   3.766
 9681SOL     OW29941   2.120   0.867   1.188
 9681SOL    HW129942   2.186   0.931   1.228
 9681SOL    HW229943   2.028   0.900   1.205
 9682SOL     OW29944   4.771   4.990   3.353
 9682SOL    HW129945   4.749   4.926   3.279
 9682SOL    HW229946   4.755   4.946   3.441
 9683SOL     OW29947   4.134   5.483   0.656
 9683SOL    HW129948   4.076   5.563   0.644
 9683SOL    HW229949   4.107   5.412   0.591
 9684SOL     OW29950   0.030   3.830   4.913
 9684SOL    HW129951   0.100   3.804   4.847
 9684SOL    HW229952   0.058   3.800   5.005
 9685SOL     OW29953   2.620   2.789   1.019
 9685SOL    HW129954   2.719   2.778   1.021
 9685SOL    HW229955   2.579   2.731   1.089
 9686SOL     OW29956   6.846   1.359   0.934
 9686SOL    HW129957   6.929   1.394   0.892
 9686SOL    HW229958   6.766   1.398   0.888
 9687SOL     OW29959   2.152   0.875   3.107
 9687SOL    HW129960   2.057   0.873   3.075
 9687SOL    HW229961   2.214   0.878   3.028
 9688SOL     OW29962   6.895   2.299   2.851
 9688SOL    HW129963   6.822   2.279   2.917
 9688SOL    HW229964   6.941   2.384   2.877
 9689SOL     OW29965   1.837   6.988   0.426
 9689SOL    HW129966   1.910   6.920   0.435
 9689SOL    HW229967   1.766   6.953   0.365
 9690SOL     OW29968   5.811   4.590   6.911
 9690SOL    HW129969   5.880   4.639   6.857
 9690SOL    HW229970   5.841   4.495   6.923
 9691SOL     OW29971   2.322   5.299   2.064
 9691SOL    HW129972   2.332   5.345   2.152
 9691SOL    HW229973   2.412   5.273   2.029
 9692SOL     OW29974   2.657   5.404   2.714
 9692SOL    HW129975   2.726   5.346   2.672
 9692SOL    HW229976   2.636   5.481   2.653
 9693SOL     OW29977   0.155   5.744   2.149
 9693SOL    HW129978   0.059   5.769   2.134
 9693SOL    HW229979   0.159   5.653   2.191
 9694SOL     OW29980   2.110   2.009   6.419
 9694SOL    HW129981   2.206   2.012   6.447
 9694SOL    HW229982   2.105   1.992   6.320
 9695SOL     OW29983   5.878   4.318   0.628
 9695SOL    HW129984   5.870   4.218   0.631
 9695SOL    HW229985   5.938   4.345   0.553
 9696SOL     OW29986   3.968   2.497   1.563
 9696SOL    HW129987   3.961   2.592   1.591
 9696SOL    HW229988   3.955   2.438   1.643
 9697SOL     OW29989   0.778   4.981   0.136
 9697SOL    HW129990   0.764   5.041   0.057
 9697SOL    HW229991   0.841   4.907   0.111
 9698SOL     OW29992   5.965   0.704   5.114
 9698SOL    HW129993   5.937   0.618   5.157
 9698SOL    HW229994   6.043   0.741   5.163
 9699SOL     OW29995   0.566   3.896   5.597
 9699SOL    HW129996   0.588   3.884   5.501
 9699SOL    HW229997   0.497   3.829   5.625
 9700SOL     OW29998   3.463   4.831   5.173
 9700SOL    HW129999   3.410   4.877   5.244
 9700SOL    HW230000   3.463   4.732   5.189
 9701SOL     OW30001   3.731   5.602   5.339
 9701SOL    HW130002   3.678   5.601   5.253
 9701SOL    HW230003   3.823   5.635   5.320
 9702SOL     OW30004   5.434   1.248   0.449
 9702SOL    HW130005   5.453   1.155   0.418
 9702SOL    HW230006   5.369   1.292   0.386
 9703SOL     OW30007   2.973   6.143   4.861
 9703SOL    HW130008   2.941   6.049   4.844
 9703SOL    HW230009   3.051   6.163   4.802
 9704SOL     OW30010   3.199   0.055   2.863
 9704SOL    HW130011   3.215   6.985   2.843
 9704SOL    HW230012   3.131   0.092   2.800
 9705SOL     OW30013   4.631   4.904   0.257
 9705SOL    HW130014   4.533   4.920   0.264
 9705SOL    HW230015   4.651   4.848   0.176
 9706SOL     OW30016   6.529   2.326   0.773
 9706SOL    HW130017   6.498   2.268   0.698
 9706SOL    HW230018   6.518   2.278   0.859
 9707SOL     OW30019   1.154   4.362   1.998
 9707SOL    HW130020   1.135   4.271   2.037
 9707SOL    HW230021   1.129   4.362   1.901
 9708SOL     OW30022   2.184   2.793   3.636
 9708SOL    HW130023   2.263   2.753   3.682
 9708SOL    HW230024   2.119   2.720   3.613
 9709SOL     OW30025   0.893   6.079   3.655
 9709SOL    HW130026   0.946   6.112   3.577
 9709SOL    HW230027   0.825   6.013   3.623
 9710SOL     OW30028   0.587   0.817   2.493
 9710SOL    HW130029   0.582   0.770   2.581
 9710SOL    HW230030   0.542   0.762   2.422
 9711SOL     OW30031   1.507   3.191   6.114
 9711SOL    HW130032   1.514   3.120   6.044
 9711SOL    HW230033   1.435   3.167   6.179
 9712SOL     OW30034   5.518   2.696   5.070
 9712SOL    HW130035   5.545   2.600   5.074
 9712SOL    HW230036   5.494   2.720   4.976
 9713SOL     OW30037   0.067   4.294   2.961
 9713SOL    HW130038   0.025   4.242   3.036
 9713SOL    HW230039   0.167   4.291   2.970
 9714SOL     OW30040   1.698   1.672   1.709
 9714SOL    HW130041   1.752   1.618   1.773
 9714SOL    HW230042   1.738   1.764   1.701
 9715SOL     OW30043   6.511   5.737   4.643
 9715SOL    HW130044   6.549   5.649   4.614
 9715SOL    HW230045   6.571   5.811   4.613
 9716SOL     OW30046   3.688   2.040   6.655
 9716SOL    HW130047   3.661   2.010   6.563
 9716SOL    HW230048   3.608   2.075   6.704
 9717SOL     OW30049   5.328   5.954   4.494
 9717SOL    HW130050   5.346   5.863   4.531
 9717SOL    HW230051   5.349   6.023   4.563
 9718SOL     OW30052   4.135   2.786   1.410
 9718SOL    HW130053   4.150   2.884   1.419
 9718SOL    HW230054   4.046   2.769   1.367
 9719SOL     OW30055   0.944   2.412   0.551
 9719SOL    HW130056   0.987   2.378   0.468
 9719SOL    HW230057   0.886   2.490   0.529
 9720SOL     OW30058   0.587   6.180   1.823
 9720SOL    HW130059   0.588   6.277   1.849
 9720SOL    HW230060   0.642   6.127   1.889
 9721SOL     OW30061   0.796   3.194   2.331
 9721SOL    HW130062   0.782   3.124   2.401
 9721SOL    HW230063   0.894   3.215   2.323
 9722SOL     OW30064   0.677   0.533   3.510
 9722SOL    HW130065   0.609   0.606   3.510
 9722SOL    HW230066   0.711   0.518   3.417
 9723SOL     OW30067   0.995   6.560   2.716
 9723SOL    HW130068   0.917   6.623   2.717
 9723SOL    HW230069   1.080   6.613   2.717
 9724SOL     OW30070   2.916   2.804   1.703
 9724SOL    HW130071   2.830   2.766   1.736
 9724SOL    HW230072   2.983   2.731   1.689
 9725SOL     OW30073   4.273   3.554   6.316
 9725SOL    HW130074   4.269   3.599   6.405
 9725SOL    HW230075   4.366   3.523   6.298
 9726SOL     OW30076   5.519   0.295   4.711
 9726SOL    HW130077   5.479   0.244   4.787
 9726SOL    HW230078   5.584   0.362   4.745
 9727SOL     OW30079   1.205   4.026   5.454
 9727SOL    HW130080   1.262   4.087   5.509
 9727SOL    HW230081   1.162   4.078   5.380
 9728SOL     OW30082   1.634   6.390   6.417
 9728SOL    HW130083   1.653   6.353   6.508
 9728SOL    HW230084   1.689   6.472   6.403
 9729SOL     OW30085   1.367   4.679   3.154
 9729SOL    HW130086   1.377   4.668   3.253
 9729SOL    HW230087   1.312   4.760   3.134
 9730SOL     OW30088   6.912   3.351   2.415
 9730SOL    HW130089   6.981   3.374   2.347
 9730SOL    HW230090   6.875   3.435   2.455
 9731SOL     OW30091   4.173   5.101   0.758
 9731SOL    HW130092   4.169   5.001   0.754
 9731SOL    HW230093   4.102   5.139   0.698
 9732SOL     OW30094   6.756   6.355   2.799
 9732SOL    HW130095   6.687   6.426   2.789
 9732SOL    HW230096   6.769   6.308   2.711
 9733SOL     OW30097   6.080   5.013   4.633
 9733SOL    HW130098   5.994   5.035   4.679
 9733SOL    HW230099   6.073   5.038   4.536
 9734SOL     OW30100   5.534   1.579   3.901
 9734SOL    HW130101   5.622   1.599   3.857
 9734SOL    HW230102   5.526   1.481   3.916
 9735SOL     OW30103   2.256   5.014   2.822
 9735SOL    HW130104   2.181   5.072   2.791
 9735SOL    HW230105   2.335   5.071   2.844
 9736SOL     OW30106   5.140   1.104   6.811
 9736SOL    HW130107   5.144   1.114   6.712
 9736SOL    HW230108   5.058   1.148   6.846
 9737SOL     OW30109   4.310   2.124   4.795
 9737SOL    HW130110   4.265   2.123   4.706
 9737SOL    HW230111   4.241   2.126   4.867
 9738SOL     OW30112   1.929   0.647   2.941
 9738SOL    HW130113   1.845   0.700   2.956
 9738SOL    HW230114   1.922   0.560   2.991
 9739SOL     OW30115   0.451   5.048   1.422
 9739SOL    HW130116   0.476   4.954   1.445
 9739SOL    HW230117   0.473   5.108   1.500
 9740SOL     OW30118   5.951   3.546   3.015
 9740SOL    HW130119   6.019   3.504   3.075
 9740SOL    HW230120   5.981   3.538   2.920
 9741SOL     OW30121   4.478   1.235   2.791
 9741SOL    HW130122   4.471   1.137   2.773
 9741SOL    HW230123   4.459   1.253   2.887
 9742SOL     OW30124   5.149   0.137   3.282
 9742SOL    HW130125   5.100   0.162   3.366
 9742SOL    HW230126   5.108   0.185   3.205
 9743SOL     OW30127   1.916   2.695   5.821
 9743SOL    HW130128   1.995   2.664   5.874
 9743SOL    HW230129   1.855   2.747   5.880
 9744SOL     OW30130   1.159   0.504   2.176
 9744SOL    HW130131   1.168   0.426   2.238
 9744SOL    HW230132   1.214   0.580   2.211
 9745SOL     OW30133   0.727   2.447   5.388
 9745SOL    HW130134   0.712   2.360   5.435
 9745SOL    HW230135   0.658   2.460   5.317
 9746SOL     OW30136   5.311   1.070   5.134
 9746SOL    HW130137   5.282   0.978   5.160
 9746SOL    HW230138   5.239   1.136   5.156
 9747SOL     OW30139   1.483   1.364   0.978
 9747SOL    HW130140   1.398   1.321   1.009
 9747SOL    HW230141   1.560   1.330   1.034
 9748SOL     OW30142   1.248   6.362   5.197
 9748SOL    HW130143   1.151   6.344   5.210
 9748SOL    HW230144   1.260   6.433   5.128
 9749SOL     OW30145   1.294   2.892   5.667
 9749SOL    HW130146   1.217   2.840   5.703
 9749SOL    HW230147   1.380   2.852   5.701
 9750SOL     OW30148   5.505   4.811   3.857
 9750SOL    HW130149   5.526   4.734   3.916
 9750SOL    HW230150   5.577   4.880   3.865
 9751SOL     OW30151   2.099   1.941   0.993
 9751SOL    HW130152   2.118   1.869   0.926
 9751SOL    HW230153   2.069   2.024   0.945
 9752SOL     OW30154   4.649   0.655   6.164
 9752SOL    HW130155   4.625   0.568   6.207
 9752SOL    HW230156   4.598   0.729   6.209
 9753SOL     OW30157   6.696   6.432   4.672
 9753SOL    HW130158   6.790   6.460   4.693
 9753SOL    HW230159   6.691   6.401   4.577
 9754SOL     OW30160   1.391   1.769   6.859
 9754SOL    HW130161   1.422   1.696   6.919
 9754SOL    HW230162   1.368   1.731   6.769
 9755SOL     OW30163   4.077   3.715   5.112
 9755SOL    HW130164   4.100   3.787   5.046
 9755SOL    HW230165   4.044   3.634   5.063
 9756SOL     OW30166   5.689   3.148   6.866
 9756SOL    HW130167   5.681   3.237   6.821
 9756SOL    HW230168   5.728   3.082   6.802
 9757SOL     OW30169   5.173   3.132   3.613
 9757SOL    HW130170   5.215   3.059   3.560
 9757SOL    HW230171   5.193   3.220   3.571
 9758SOL     OW30172   1.981   0.128   5.660
 9758SOL    HW130173   2.053   0.080   5.609
 9758SOL    HW230174   1.933   0.190   5.598
 9759SOL     OW30175   2.093   6.490   1.108
 9759SOL    HW130176   2.093   6.406   1.163
 9759SOL    HW230177   2.069   6.468   1.013
 9760SOL     OW30178   5.430   4.652   4.810
 9760SOL    HW130179   5.496   4.577   4.818
 9760SOL    HW230180   5.366   4.649   4.887
 9761SOL     OW30181   5.911   4.989   1.418
 9761SOL    HW130182   5.892   5.040   1.502
 9761SOL    HW230183   5.829   4.985   1.362
 9762SOL     OW30184   2.284   2.022   4.515
 9762SOL    HW130185   2.268   2.035   4.613
 9762SOL    HW230186   2.197   2.011   4.468
 9763SOL     OW30187   4.702   1.177   1.682
 9763SOL    HW130188   4.738   1.235   1.609
 9763SOL    HW230189   4.617   1.133   1.652
 9764SOL     OW30190   1.718   2.481   3.586
 9764SOL    HW130191   1.739   2.533   3.503
 9764SOL    HW230192   1.627   2.441   3.578
 9765SOL     OW30193   6.960   1.952   5.424
 9765SOL    HW130194   7.021   1.890   5.474
 9765SOL    HW230195   6.892   1.989   5.487
 9766SOL     OW30196   2.851   0.850   3.386
 9766SOL    HW130197   2.902   0.915   3.443
 9766SOL    HW230198   2.766   0.825   3.433
 9767SOL     OW30199   5.442   1.829   5.093
 9767SOL    HW130200   5.526   1.809   5.144
 9767SOL    HW230201   5.377   1.754   5.105
 9768SOL     OW30202   4.692   2.247   2.775
 9768SOL    HW130203   4.748   2.326   2.749
 9768SOL    HW230204   4.635   2.272   2.854
 9769SOL     OW30205   1.391   2.638   0.952
 9769SOL    HW130206   1.301   2.595   0.947
 9769SOL    HW230207   1.384   2.724   1.002
 9770SOL     OW30208   6.107   5.428   5.593
 9770SOL    HW130209   6.157   5.342   5.582
 9770SOL    HW230210   6.009   5.408   5.599
 9771SOL     OW30211   4.381   4.608   1.095
 9771SOL    HW130212   4.335   4.618   1.183
 9771SOL    HW230213   4.317   4.575   1.026
 9772SOL     OW30214   0.128   6.744   1.647
 9772SOL    HW130215   0.031   6.723   1.632
 9772SOL    HW230216   0.185   6.675   1.603
 9773SOL     OW30217   5.419   5.633   3.941
 9773SOL    HW130218   5.324   5.626   3.972
 9773SOL    HW230219   5.424   5.696   3.863
 9774SOL     OW30220   6.079   4.830   3.654
 9774SOL    HW130221   6.054   4.905   3.715
 9774SOL    HW230222   6.049   4.852   3.561
 9775SOL     OW30223   1.963   2.433   4.791
 9775SOL    HW130224   1.982   2.344   4.749
 9775SOL    HW230225   1.901   2.421   4.868
 9776SOL     OW30226   0.204   5.496   4.275
 9776SOL    HW130227   0.105   5.510   4.268
 9776SOL    HW230228   0.229   5.483   4.371
 9777SOL     OW30229   6.155   4.712   6.190
 9777SOL    HW130230   6.204   4.635   6.149
 9777SOL    HW230231   6.191   4.798   6.154
 9778SOL     OW30232   4.651   0.197   3.362
 9778SOL    HW130233   4.558   0.219   3.392
 9778SOL    HW230234   4.707   0.173   3.441
 9779SOL     OW30235   2.516   1.453   4.868
 9779SOL    HW130236   2.608   1.451   4.908
 9779SOL    HW230237   2.516   1.511   4.787
 9780SOL     OW30238   2.056   3.020   0.343
 9780SOL    HW130239   2.123   2.969   0.397
 9780SOL    HW230240   1.964   2.985   0.362
 9781SOL     OW30241   1.548   4.464   4.545
 9781SOL    HW130242   1.636   4.432   4.510
 9781SOL    HW230243   1.487   4.386   4.559
 9782SOL     OW30244   6.769   0.290   1.279
 9782SOL    HW130245   6.762   0.190   1.289
 9782SOL    HW230246   6.865   0.317   1.278
 9783SOL     OW30247   5.972   0.725   1.500
 9783SOL    HW130248   5.918   0.773   1.431
 9783SOL    HW230249   5.924   0.730   1.588
 9784SOL     OW30250   4.591   1.093   3.481
 9784SOL    HW130251   4.592   1.189   3.508
 9784SOL    HW230252   4.502   1.070   3.443
 9785SOL     OW30253   0.104   2.867   2.700
 9785SOL    HW130254   0.070   2.840   2.789
 9785SOL    HW230255   0.148   2.789   2.655
 9786SOL     OW30256   2.234   5.137   5.863
 9786SOL    HW130257   2.303   5.181   5.920
 9786SOL    HW230258   2.235   5.038   5.879
 9787SOL     OW30259   5.063   3.979   1.814
 9787SOL    HW130260   5.111   3.964   1.901
 9787SOL    HW230261   4.965   3.985   1.831
 9788SOL     OW30262   0.204   6.862   4.040
 9788SOL    HW130263   0.113   6.867   4.081
 9788SOL    HW230264   0.215   6.774   3.993
 9789SOL     OW30265   2.196   5.684   5.825
 9789SOL    HW130266   2.179   5.688   5.726
 9789SOL    HW230267   2.155   5.765   5.868
 9790SOL     OW30268   5.574   1.699   4.364
 9790SOL    HW130269   5.582   1.684   4.265
 9790SOL    HW230270   5.484   1.737   4.384
 9791SOL     OW30271   1.666   1.274   1.168
 9791SOL    HW130272   1.654   1.231   1.257
 9791SOL    HW230273   1.730   1.221   1.113
 9792SOL     OW30274   4.632   4.826   1.318
 9792SOL    HW130275   4.714   4.832   1.375
 9792SOL    HW230276   4.600   4.732   1.316
 9793SOL     OW30277   5.548   6.478   2.761
 9793SOL    HW130278   5.635   6.521   2.740
 9793SOL    HW230279   5.489   6.543   2.810
 9794SOL     OW30280   5.192   3.210   5.904
 9794SOL    HW130281   5.207   3.295   5.955
 9794SOL    HW230282   5.096   3.185   5.910
 9795SOL     OW30283   1.320   3.210   4.715
 9795SOL    HW130284   1.306   3.288   4.654
 9795SOL    HW230285   1.417   3.202   4.739
 9796SOL     OW30286   2.886   5.152   0.926
 9796SOL    HW130287   2.968   5.130   0.978
 9796SOL    HW230288   2.830   5.069   0.915
 9797SOL     OW30289   4.181   3.621   6.643
 9797SOL    HW130290   4.197   3.622   6.741
 9797SOL    HW230291   4.256   3.670   6.597
 9798SOL     OW30292   2.818   0.619   0.886
 9798SOL    HW130293   2.779   0.560   0.815
 9798SOL    HW230294   2.836   0.710   0.847
 9799SOL     OW30295   3.111   3.156   2.465
 9799SOL    HW130296   3.140   3.169   2.370
 9799SOL    HW230297   3.183   3.111   2.516
 9800SOL     OW30298   4.362   5.858   6.647
 9800SOL    HW130299   4.295   5.893   6.712
 9800SOL    HW230300   4.365   5.758   6.653
 9801SOL     OW30301   4.935   5.777   0.870
 9801SOL    HW130302   4.896   5.741   0.785
 9801SOL    HW230303   5.030   5.804   0.854
 9802SOL     OW30304   0.722   3.418   1.076
 9802SOL    HW130305   0.645   3.359   1.052
 9802SOL    HW230306   0.808   3.367   1.069
 9803SOL     OW30307   6.103   6.957   6.955
 9803SOL    HW130308   6.165   6.892   7.001
 9803SOL    HW230309   6.119   0.023   6.991
 9804SOL     OW30310   0.109   5.363   3.580
 9804SOL    HW130311   0.170   5.358   3.501
 9804SOL    HW230312   0.150   5.420   3.651
 9805SOL     OW30313   1.308   5.352   6.979
 9805SOL    HW130314   1.341   5.429   0.007
 9805SOL    HW230315   1.384   5.313   6.927
 9806SOL     OW30316   0.496   2.619   1.820
 9806SOL    HW130317   0.584   2.655   1.852
 9806SOL    HW230318   0.480   2.529   1.861
 9807SOL     OW30319   4.273   1.843   0.282
 9807SOL    HW130320   4.325   1.853   0.197
 9807SOL    HW230321   4.317   1.895   0.355
 9808SOL     OW30322   6.475   1.725   5.260
 9808SOL    HW130323   6.478   1.627   5.238
 9808SOL    HW230324   6.485   1.778   5.176
 9809SOL     OW30325   0.775   1.651   4.588
 9809SOL    HW130326   0.678   1.643   4.565
 9809SOL    HW230327   0.802   1.747   4.587
 9810SOL     OW30328   2.699   1.577   2.966
 9810SOL    HW130329   2.725   1.649   3.031
 9810SOL    HW230330   2.670   1.619   2.880
 9811SOL     OW30331   6.805   6.234   3.052
 9811SOL    HW130332   6.770   6.312   3.105
 9811SOL    HW230333   6.797   6.254   2.955
 9812SOL     OW30334   4.707   2.551   5.942
 9812SOL    HW130335   4.660   2.486   6.002
 9812SOL    HW230336   4.716   2.511   5.851
 9813SOL     OW30337   6.246   5.271   0.104
 9813SOL    HW130338   6.200   5.249   0.190
 9813SOL    HW230339   6.323   5.208   0.090
 9814SOL     OW30340   6.647   6.626   5.975
 9814SOL    HW130341   6.693   6.554   6.028
 9814SOL    HW230342   6.550   6.625   5.995
 9815SOL     OW30343   6.463   3.407   1.554
 9815SOL    HW130344   6.560   3.386   1.554
 9815SOL    HW230345   6.449   3.499   1.591
 9816SOL     OW30346   6.210   0.402   0.021
 9816SOL    HW130347   6.137   0.412   6.978
 9816SOL    HW230348   6.169   0.396   0.112
 9817SOL     OW30349   2.938   6.072   1.647
 9817SOL    HW130350   2.909   6.075   1.743
 9817SOL    HW230351   2.975   5.982   1.626
 9818SOL     OW30352   1.982   1.041   3.507
 9818SOL    HW130353   2.039   1.106   3.558
 9818SOL    HW230354   1.942   0.974   3.570
 9819SOL     OW30355   5.908   3.635   4.948
 9819SOL    HW130356   5.924   3.580   5.030
 9819SOL    HW230357   5.809   3.646   4.935
 9820SOL     OW30358   2.569   2.329   6.195
 9820SOL    HW130359   2.635   2.400   6.219
 9820SOL    HW230360   2.572   2.313   6.096
 9821SOL     OW30361   4.458   1.963   1.905
 9821SOL    HW130362   4.435   2.056   1.878
 9821SOL    HW230363   4.424   1.899   1.837
 9822SOL     OW30364   4.196   5.674   4.478
 9822SOL    HW130365   4.099   5.677   4.502
 9822SOL    HW230366   4.248   5.637   4.556
 9823SOL     OW30367   1.509   0.872   2.804
 9823SOL    HW130368   1.442   0.819   2.752
 9823SOL    HW230369   1.579   0.906   2.741
 9824SOL     OW30370   1.145   5.809   5.738
 9824SOL    HW130371   1.202   5.850   5.809
 9824SOL    HW230372   1.201   5.788   5.658
 9825SOL     OW30373   4.939   6.097   6.349
 9825SOL    HW130374   4.984   6.177   6.310
 9825SOL    HW230375   4.872   6.127   6.417
 9826SOL     OW30376   2.730   6.341   5.480
 9826SOL    HW130377   2.745   6.243   5.468
 9826SOL    HW230378   2.632   6.361   5.470
 9827SOL     OW30379   1.852   5.730   2.420
 9827SOL    HW130380   1.767   5.783   2.428
 9827SOL    HW230381   1.849   5.673   2.338
 9828SOL     OW30382   4.287   1.498   5.060
 9828SOL    HW130383   4.323   1.563   5.127
 9828SOL    HW230384   4.352   1.486   4.986
 9829SOL     OW30385   4.370   5.534   6.030
 9829SOL    HW130386   4.405   5.471   5.961
 9829SOL    HW230387   4.293   5.491   6.078
 9830SOL     OW30388   5.870   1.849   2.634
 9830SOL    HW130389   5.812   1.774   2.603
 9830SOL    HW230390   5.832   1.936   2.602
 9831SOL     OW30391   0.645   4.053   2.218
 9831SOL    HW130392   0.592   4.133   2.192
 9831SOL    HW230393   0.689   4.015   2.137
 9832SOL     OW30394   4.912   4.323   4.774
 9832SOL    HW130395   4.935   4.404   4.828
 9832SOL    HW230396   4.859   4.350   4.694
 9833SOL     OW30397   3.082   3.981   4.381
 9833SOL    HW130398   3.088   4.023   4.472
 9833SOL    HW230399   3.149   4.024   4.320
 9834SOL     OW30400   2.511   5.459   5.310
 9834SOL    HW130401   2.606   5.434   5.293
 9834SOL    HW230402   2.505   5.521   5.388
 9835SOL     OW30403   3.751   4.153   4.744
 9835SOL    HW130404   3.810   4.117   4.816
 9835SOL    HW230405   3.754   4.253   4.745
 9836SOL     OW30406   0.549   3.628   5.724
 9836SOL    HW130407   0.550   3.538   5.768
 9836SOL    HW230408   0.497   3.692   5.781
 9837SOL     OW30409   5.421   2.189   1.807
 9837SOL    HW130410   5.364   2.116   1.844
 9837SOL    HW230411   5.459   2.243   1.883
 9838SOL     OW30412   0.754   6.105   1.269
 9838SOL    HW130413   0.770   6.070   1.361
 9838SOL    HW230414   0.702   6.037   1.217
 9839SOL     OW30415   4.310   0.635   2.448
 9839SOL    HW130416   4.230   0.577   2.437
 9839SOL    HW230417   4.378   0.589   2.506
 9840SOL     OW30418   6.242   1.903   6.614
 9840SOL    HW130419   6.197   1.827   6.661
 9840SOL    HW230420   6.337   1.878   6.594
 9841SOL     OW30421   0.212   6.222   3.230
 9841SOL    HW130422   0.306   6.234   3.260
 9841SOL    HW230423   0.211   6.172   3.143
 9842SOL     OW30424   2.952   2.063   7.017
 9842SOL    HW130425   2.890   1.991   0.023
 9842SOL    HW230426   2.960   2.058   6.917
 9843SOL     OW30427   6.808   6.641   1.072
 9843SOL    HW130428   6.821   6.580   0.994
 9843SOL    HW230429   6.748   6.717   1.045
 9844SOL     OW30430   5.003   7.015   4.211
 9844SOL    HW130431   5.009   0.057   4.285
 9844SOL    HW230432   5.046   6.930   4.241
 9845SOL     OW30433   1.605   2.778   1.751
 9845SOL    HW130434   1.524   2.750   1.698
 9845SOL    HW230435   1.600   2.876   1.768
 9846SOL     OW30436   5.027   1.164   1.329
 9846SOL    HW130437   5.107   1.104   1.336
 9846SOL    HW230438   4.981   1.148   1.242
 9847SOL     OW30439   3.860   3.370   0.505
 9847SOL    HW130440   3.877   3.277   0.537
 9847SOL    HW230441   3.924   3.432   0.549
 9848SOL     OW30442   3.697   3.503   5.287
 9848SOL    HW130443   3.611   3.461   5.257
 9848SOL    HW230444   3.763   3.432   5.309
 9849SOL     OW30445   0.720   1.661   5.855
 9849SOL    HW130446   0.806   1.674   5.905
 9849SOL    HW230447   0.735   1.597   5.779
 9850SOL     OW30448   0.600   0.550   4.337
 9850SOL    HW130449   0.624   0.454   4.323
 9850SOL    HW230450   0.637   0.605   4.262
 9851SOL     OW30451   3.458   4.905   4.409
 9851SOL    HW130452   3.504   4.913   4.321
 9851SOL    HW230453   3.527   4.910   4.482
 9852SOL     OW30454   1.910   1.399   6.460
 9852SOL    HW130455   1.917   1.492   6.423
 9852SOL    HW230456   1.814   1.376   6.475
 9853SOL     OW30457   6.931   4.523   3.934
 9853SOL    HW130458   6.952   4.591   4.004
 9853SOL    HW230459   6.972   4.436   3.958
 9854SOL     OW30460   1.091   5.088   6.523
 9854SOL    HW130461   0.995   5.109   6.508
 9854SOL    HW230462   1.116   5.110   6.617
 9855SOL     OW30463   1.688   3.618   1.434
 9855SOL    HW130464   1.619   3.557   1.473
 9855SOL    HW230465   1.656   3.712   1.438
 9856SOL     OW30466   5.761   4.206   3.010
 9856SOL    HW130467   5.860   4.191   3.020
 9856SOL    HW230468   5.726   4.147   2.937
 9857SOL     OW30469   4.354   1.975   3.718
 9857SOL    HW130470   4.271   2.029   3.703
 9857SOL    HW230471   4.362   1.953   3.815
 9858SOL     OW30472   6.782   6.499   2.514
 9858SOL    HW130473   6.737   6.413   2.490
 9858SOL    HW230474   6.730   6.545   2.586
 9859SOL     OW30475   0.208   5.824   4.383
 9859SOL    HW130476   0.124   5.826   4.328
 9859SOL    HW230477   0.237   5.729   4.395
 9860SOL     OW30478   1.694   2.768   5.463
 9860SOL    HW130479   1.611   2.716   5.442
 9860SOL    HW230480   1.674   2.866   5.457
 9861SOL     OW30481   3.782   1.491   4.232
 9861SOL    HW130482   3.830   1.570   4.269
 9861SOL    HW230483   3.712   1.461   4.297
 9862SOL     OW30484   1.461   5.149   1.007
 9862SOL    HW130485   1.484   5.228   0.950
 9862SOL    HW230486   1.482   5.170   1.103
 9863SOL     OW30487   3.924   6.261   0.909
 9863SOL    HW130488   3.981   6.315   0.971
 9863SOL    HW230489   3.952   6.165   0.913
 9864SOL     OW30490   2.964   5.965   5.082
 9864SOL    HW130491   2.979   6.060   5.053
 9864SOL    HW230492   2.889   5.926   5.029
 9865SOL     OW30493   0.815   6.225   5.800
 9865SOL    HW130494   0.807   6.263   5.892
 9865SOL    HW230495   0.812   6.125   5.805
 9866SOL     OW30496   6.452   4.880   4.431
 9866SOL    HW130497   6.474   4.882   4.528
 9866SOL    HW230498   6.374   4.820   4.415
 9867SOL     OW30499   4.925   1.835   1.873
 9867SOL    HW130500   4.880   1.917   1.838
 9867SOL    HW230501   4.911   1.829   1.972
 9868SOL     OW30502   1.408   4.590   3.414
 9868SOL    HW130503   1.467   4.512   3.394
 9868SOL    HW230504   1.323   4.558   3.456
 9869SOL     OW30505   0.044   2.822   1.358
 9869SOL    HW130506   0.141   2.836   1.377
 9869SOL    HW230507   0.016   2.883   1.284
 9870SOL     OW30508   3.196   1.171   2.189
 9870SOL    HW130509   3.118   1.231   2.202
 9870SOL    HW230510   3.276   1.225   2.160
 9871SOL     OW30511   6.690   3.768   4.683
 9871SOL    HW130512   6.648   3.847   4.727
 9871SOL    HW230513   6.789   3.783   4.673
 9872SOL     OW30514   1.673   4.836   5.399
 9872SOL    HW130515   1.641   4.799   5.312
 9872SOL    HW230516   1.729   4.768   5.446
 9873SOL     OW30517   2.178   1.585   5.372
 9873SOL    HW130518   2.084   1.594   5.338
 9873SOL    HW230519   2.180   1.604   5.470
 9874SOL     OW30520   6.978   2.607   4.621
 9874SOL    HW130521   6.897   2.560   4.656
 9874SOL    HW230522   6.955   2.656   4.537
 9875SOL     OW30523   6.756   5.855   0.582
 9875SOL    HW130524   6.779   5.949   0.607
 9875SOL    HW230525   6.785   5.838   0.488
 9876SOL     OW30526   2.317   6.855   3.342
 9876SOL    HW130527   2.253   6.918   3.385
 9876SOL    HW230528   2.347   6.893   3.254
 9877SOL     OW30529   0.692   5.136   4.772
 9877SOL    HW130530   0.780   5.088   4.763
 9877SOL    HW230531   0.694   5.220   4.718
 9878SOL     OW30532   2.112   3.130   0.111
 9878SOL    HW130533   2.094   3.074   0.192
 9878SOL    HW230534   2.062   3.094   0.033
 9879SOL     OW30535   0.318   4.935   6.297
 9879SOL    HW130536   0.354   4.898   6.382
 9879SOL    HW230537   0.243   4.877   6.265
 9880SOL     OW30538   3.231   1.755   0.104
 9880SOL    HW130539   3.280   1.702   0.173
 9880SOL    HW230540   3.220   1.849   0.136
 9881SOL     OW30541   5.782   0.086   4.458
 9881SOL    HW130542   5.744   0.023   4.391
 9881SOL    HW230543   5.734   0.075   4.545
 9882SOL     OW30544   4.110   3.633   4.419
 9882SOL    HW130545   4.011   3.642   4.431
 9882SOL    HW230546   4.137   3.539   4.438
 9883SOL     OW30547   2.175   0.139   1.122
 9883SOL    HW130548   2.206   0.180   1.207
 9883SOL    HW230549   2.254   0.104   1.071
 9884SOL     OW30550   1.827   3.760   6.400
 9884SOL    HW130551   1.887   3.691   6.439
 9884SOL    HW230552   1.838   3.762   6.300
 9885SOL     OW30553   6.365   3.400   4.287
 9885SOL    HW130554   6.312   3.466   4.235
 9885SOL    HW230555   6.377   3.317   4.233
 9886SOL     OW30556   5.024   6.086   1.463
 9886SOL    HW130557   4.987   6.059   1.374
 9886SOL    HW230558   5.040   6.004   1.519
 9887SOL     OW30559   3.868   0.149   0.526
 9887SOL    HW130560   3.778   0.117   0.554
 9887SOL    HW230561   3.933   0.134   0.601
 9888SOL     OW30562   6.026   5.129   2.348
 9888SOL    HW130563   5.997   5.204   2.289
 9888SOL    HW230564   6.098   5.162   2.410
 9889SOL     OW30565   0.283   5.021   3.625
 9889SOL    HW130566   0.194   4.997   3.584
 9889SOL    HW230567   0.271   5.038   3.722
 9890SOL     OW30568   6.960   4.166   1.766
 9890SOL    HW130569   6.915   4.185   1.853
 9890SOL    HW230570   0.032   4.189   1.773
 9891SOL     OW30571   5.334   4.184   0.938
 9891SOL    HW130572   5.364   4.196   0.844
 9891SOL    HW230573   5.333   4.086   0.960
 9892SOL     OW30574   2.032   5.411   4.198
 9892SOL    HW130575   2.022   5.316   4.171
 9892SOL    HW230576   1.965   5.467   4.149
 9893SOL     OW30577   6.131   5.151   2.977
 9893SOL    HW130578   6.086   5.095   2.906
 9893SOL    HW230579   6.229   5.131   2.978
 9894SOL     OW30580   3.682   2.742   5.945
 9894SOL    HW130581   3.736   2.763   6.027
 9894SOL    HW230582   3.588   2.772   5.959
 9895SOL     OW30583   4.963   2.428   6.632
 9895SOL    HW130584   4.960   2.407   6.534
 9895SOL    HW230585   5.044   2.483   6.651
 9896SOL     OW30586   3.829   3.875   0.318
 9896SOL    HW130587   3.922   3.891   0.349
 9896SOL    HW230588   3.769   3.861   0.397
 9897SOL     OW30589   5.831   1.958   2.900
 9897SOL    HW130590   5.897   2.028   2.925
 9897SOL    HW230591   5.864   1.909   2.819
 9898SOL     OW30592   1.299   5.278   5.727
 9898SOL    HW130593   1.238   5.202   5.749
 9898SOL    HW230594   1.363   5.250   5.655
 9899SOL     OW30595   5.189   5.025   2.541
 9899SOL    HW130596   5.182   5.103   2.479
 9899SOL    HW230597   5.168   4.941   2.491
 9900SOL     OW30598   1.356   2.390   4.449
 9900SOL    HW130599   1.336   2.411   4.544
 9900SOL    HW230600   1.315   2.459   4.390
 9901SOL     OW30601   2.902   2.584   6.040
 9901SOL    HW130602   2.988   2.609   6.085
 9901SOL    HW230603   2.830   2.575   6.108
 9902SOL     OW30604   3.714   3.370   0.253
 9902SOL    HW130605   3.733   3.430   0.331
 9902SOL    HW230606   3.726   3.274   0.282
 9903SOL     OW30607   4.326   1.862   1.685
 9903SOL    HW130608   4.239   1.816   1.669
 9903SOL    HW230609   4.363   1.894   1.598
 9904SOL     OW30610   6.586   1.842   0.934
 9904SOL    HW130611   6.598   1.805   1.026
 9904SOL    HW230612   6.515   1.790   0.886
 9905SOL     OW30613   1.181   0.168   5.833
 9905SOL    HW130614   1.163   0.076   5.798
 9905SOL    HW230615   1.148   0.175   5.927
 9906SOL     OW30616   2.549   3.858   6.320
 9906SOL    HW130617   2.553   3.814   6.410
 9906SOL    HW230618   2.543   3.788   6.249
 9907SOL     OW30619   2.782   6.290   2.964
 9907SOL    HW130620   2.745   6.363   3.022
 9907SOL    HW230621   2.880   6.305   2.950
 9908SOL     OW30622   0.922   3.909   5.836
 9908SOL    HW130623   0.896   3.821   5.876
 9908SOL    HW230624   0.868   3.982   5.878
 9909SOL     OW30625   3.190   1.117   3.137
 9909SOL    HW130626   3.288   1.108   3.125
 9909SOL    HW230627   3.143   1.047   3.083
 9910SOL     OW30628   6.515   4.038   0.426
 9910SOL    HW130629   6.608   4.066   0.449
 9910SOL    HW230630   6.505   4.037   0.326
 9911SOL     OW30631   3.301   4.929   3.312
 9911SOL    HW130632   3.250   5.002   3.360
 9911SOL    HW230633   3.345   4.870   3.380
 9912SOL     OW30634   5.052   0.411   1.512
 9912SOL    HW130635   5.055   0.502   1.472
 9912SOL    HW230636   5.078   0.416   1.609
 9913SOL     OW30637   5.189   2.381   2.982
 9913SOL    HW130638   5.184   2.354   3.078
 9913SOL    HW230639   5.186   2.299   2.925
 9914SOL     OW30640   0.866   0.589   4.895
 9914SOL    HW130641   0.826   0.633   4.975
 9914SOL    HW230642   0.960   0.622   4.882
 9915SOL     OW30643   4.897   3.190   3.831
 9915SOL    HW130644   4.992   3.211   3.853
 9915SOL    HW230645   4.874   3.228   3.742
 9916SOL     OW30646   2.220   2.922   2.465
 9916SOL    HW130647   2.265   2.864   2.396
 9916SOL    HW230648   2.179   2.864   2.535
 9917SOL     OW30649   3.332   3.927   5.657
 9917SOL    HW130650   3.262   3.877   5.607
 9917SOL    HW230651   3.421   3.909   5.617
 9918SOL     OW30652   2.355   2.001   5.410
 9918SOL    HW130653   2.333   1.933   5.340
 9918SOL    HW230654   2.450   2.028   5.401
 9919SOL     OW30655   0.283   5.378   2.972
 9919SOL    HW130656   0.210   5.352   3.035
 9919SOL    HW230657   0.264   5.469   2.936
 9920SOL     OW30658   3.741   6.535   1.551
 9920SOL    HW130659   3.682   6.615   1.564
 9920SOL    HW230660   3.837   6.563   1.559
 9921SOL     OW30661   6.045   0.752   2.942
 9921SOL    HW130662   6.120   0.693   2.969
 9921SOL    HW230663   6.063   0.789   2.851
 9922SOL     OW30664   4.312   4.809   0.834
 9922SOL    HW130665   4.388   4.873   0.829
 9922SOL    HW230666   4.327   4.746   0.911
 9923SOL     OW30667   6.777   2.468   5.902
 9923SOL    HW130668   6.684   2.457   5.937
 9923SOL    HW230669   6.793   2.564   5.880
 9924SOL     OW30670   6.704   0.729   2.810
 9924SOL    HW130671   6.614   0.685   2.815
 9924SOL    HW230672   6.708   0.802   2.877
 9925SOL     OW30673   2.821   2.886   5.361
 9925SOL    HW130674   2.899   2.834   5.395
 9925SOL    HW230675   2.737   2.855   5.406
 9926SOL     OW30676   1.100   1.295   0.307
 9926SOL    HW130677   1.153   1.245   0.376
 9926SOL    HW230678   1.002   1.285   0.326
 9927SOL     OW30679   0.218   2.016   2.058
 9927SOL    HW130680   0.238   2.094   2.118
 9927SOL    HW230681   0.264   2.030   1.970
 9928SOL     OW30682   0.187   3.924   1.977
 9928SOL    HW130683   0.246   3.920   2.058
 9928SOL    HW230684   0.095   3.950   2.004
 9929SOL     OW30685   2.616   4.429   0.266
 9929SOL    HW130686   2.529   4.385   0.242
 9929SOL    HW230687   2.681   4.417   0.191
 9930SOL     OW30688   0.163   6.822   6.220
 9930SOL    HW130689   0.216   6.744   6.186
 9930SOL    HW230690   0.070   6.793   6.244
 9931SOL     OW30691   1.514   5.991   5.738
 9931SOL    HW130692   1.588   5.938   5.781
 9931SOL    HW230693   1.438   6.000   5.803
 9932SOL     OW30694   1.260   1.723   0.319
 9932SOL    HW130695   1.242   1.814   0.282
 9932SOL    HW230696   1.330   1.730   0.391
 9933SOL     OW30697   2.263   1.554   3.254
 9933SOL    HW130698   2.230   1.612   3.329
 9933SOL    HW230699   2.321   1.609   3.194
 9934SOL     OW30700   5.128   1.505   5.783
 9934SOL    HW130701   5.121   1.405   5.783
 9934SOL    HW230702   5.201   1.534   5.845
 9935SOL     OW30703   3.248   2.151   0.792
 9935SOL    HW130704   3.210   2.203   0.868
 9935SOL    HW230705   3.308   2.080   0.828
 9936SOL     OW30706   5.893   5.800   5.425
 9936SOL    HW130707   5.793   5.795   5.429
 9936SOL    HW230708   5.921   5.891   5.393
 9937SOL     OW30709   0.699   6.906   3.101
 9937SOL    HW130710   0.607   6.874   3.124
 9937SOL    HW230711   0.758   6.827   3.083
 9938SOL     OW30712   6.626   0.616   4.199
 9938SOL    HW130713   6.586   0.694   4.246
 9938SOL    HW230714   6.711   0.589   4.245
 9939SOL     OW30715   2.213   4.621   1.605
 9939SOL    HW130716   2.198   4.529   1.641
 9939SOL    HW230717   2.245   4.680   1.679
 9940SOL     OW30718   0.990   6.975   3.122
 9940SOL    HW130719   1.040   7.003   3.204
 9940SOL    HW230720   0.897   6.951   3.146
 9941SOL     OW30721   4.730   4.840   6.251
 9941SOL    HW130722   4.698   4.795   6.167
 9941SOL    HW230723   4.778   4.924   6.227
 9942SOL     OW30724   4.305   4.805   3.800
 9942SOL    HW130725   4.367   4.883   3.810
 9942SOL    HW230726   4.312   4.747   3.882
 9943SOL     OW30727   2.453   4.105   6.958
 9943SOL    HW130728   2.439   4.197   6.922
 9943SOL    HW230729   2.427   4.102   0.028
 9944SOL     OW30730   1.576   4.810   0.319
 9944SOL    HW130731   1.555   4.822   0.222
 9944SOL    HW230732   1.491   4.807   0.371
 9945SOL     OW30733   5.717   4.027   6.711
 9945SOL    HW130734   5.644   4.025   6.780
 9945SOL    HW230735   5.806   4.018   6.756
 9946SOL     OW30736   5.439   1.294   2.529
 9946SOL    HW130737   5.518   1.237   2.505
 9946SOL    HW230738   5.357   1.237   2.532
 9947SOL     OW30739   2.040   1.585   3.929
 9947SOL    HW130740   2.079   1.527   3.858
 9947SOL    HW230741   1.943   1.565   3.939
 9948SOL     OW30742   6.474   0.094   4.390
 9948SOL    HW130743   6.490   7.023   4.408
 9948SOL    HW230744   6.381   0.107   4.356
 9949SOL     OW30745   6.282   4.478   4.620
 9949SOL    HW130746   6.189   4.502   4.646
 9949SOL    HW230747   6.283   4.387   4.577
 9950SOL     OW30748   6.290   4.931   5.822
 9950SOL    HW130749   6.226   5.005   5.801
 9950SOL    HW230750   6.383   4.963   5.808
 9951SOL     OW30751   0.509   2.233   2.306
 9951SOL    HW130752   0.528   2.144   2.347
 9951SOL    HW230753   0.579   2.298   2.334
 9952SOL     OW30754   0.406   4.088   1.903
 9952SOL    HW130755   0.501   4.063   1.881
 9952SOL    HW230756   0.355   4.006   1.928
 9953SOL     OW30757   5.949   2.401   3.234
 9953SOL    HW130758   6.013   2.341   3.282
 9953SOL    HW230759   5.932   2.365   3.142
 9954SOL     OW30760   2.743   2.100   6.112
 9954SOL    HW130761   2.807   2.069   6.182
 9954SOL    HW230762   2.698   2.184   6.142
 9955SOL     OW30763   5.151   3.200   0.727
 9955SOL    HW130764   5.052   3.217   0.723
 9955SOL    HW230765   5.168   3.114   0.775
 9956SOL     OW30766   2.059   3.904   3.595
 9956SOL    HW130767   2.058   3.876   3.691
 9956SOL    HW230768   2.153   3.898   3.560
 9957SOL     OW30769   5.648   6.585   1.209
 9957SOL    HW130770   5.737   6.551   1.239
 9957SOL    HW230771   5.582   6.511   1.211
 9958SOL     OW30772   4.744   4.787   7.007
 9958SOL    HW130773   4.822   4.735   6.972
 9958SOL    HW230774   4.744   4.878   6.967
 9959SOL     OW30775   4.342   4.356   0.819
 9959SOL    HW130776   4.437   4.382   0.802
 9959SOL    HW230777   4.293   4.432   0.861
 9960SOL     OW30778   6.729   6.956   6.739
 9960SOL    HW130779   6.826   6.943   6.720
 9960SOL    HW230780   6.689   7.017   6.671
 9961SOL     OW30781   2.654   4.974   2.233
 9961SOL    HW130782   2.576   4.939   2.285
 9961SOL    HW230783   2.723   4.902   2.224
 9962SOL     OW30784   3.052   6.251   2.279
 9962SOL    HW130785   2.976   6.234   2.340
 9962SOL    HW230786   3.103   6.166   2.265
 9963SOL     OW30787   1.646   1.566   6.305
 9963SOL    HW130788   1.675   1.658   6.331
 9963SOL    HW230789   1.624   1.564   6.208
 9964SOL     OW30790   4.674   4.106   5.212
 9964SOL    HW130791   4.708   4.125   5.120
 9964SOL    HW230792   4.625   4.186   5.246
 9965SOL     OW30793   2.661   5.417   4.485
 9965SOL    HW130794   2.714   5.361   4.549
 9965SOL    HW230795   2.626   5.359   4.412
 9966SOL     OW30796   3.552   4.922   2.296
 9966SOL    HW130797   3.580   4.849   2.234
 9966SOL    HW230798   3.582   4.900   2.389
 9967SOL     OW30799   6.884   6.808   3.285
 9967SOL    HW130800   6.837   6.781   3.201
 9967SOL    HW230801   6.932   6.895   3.270
 9968SOL     OW30802   3.724   6.640   1.083
 9968SOL    HW130803   3.721   6.541   1.082
 9968SOL    HW230804   3.728   6.675   0.989
 9969SOL     OW30805   1.539   5.137   3.745
 9969SOL    HW130806   1.451   5.182   3.729
 9969SOL    HW230807   1.587   5.183   3.819
 9970SOL     OW30808   6.431   4.260   1.276
 9970SOL    HW130809   6.484   4.295   1.199
 9970SOL    HW230810   6.384   4.336   1.321
 9971SOL     OW30811   1.241   4.033   2.315
 9971SOL    HW130812   1.246   3.963   2.387
 9971SOL    HW230813   1.178   4.105   2.342
 9972SOL     OW30814   3.372   3.845   0.021
 9972SOL    HW130815   3.452   3.796   0.055
 9972SOL    HW230816   3.373   3.845   6.947
 9973SOL     OW30817   3.668   1.673   3.280
 9973SOL    HW130818   3.658   1.590   3.335
 9973SOL    HW230819   3.748   1.664   3.220
 9974SOL     OW30820   0.117   2.224   3.568
 9974SOL    HW130821   0.021   2.203   3.551
 9974SOL    HW230822   0.125   2.300   3.633
 9975SOL     OW30823   1.179   5.068   6.796
 9975SOL    HW130824   1.239   5.022   6.731
 9975SOL    HW230825   1.132   4.999   6.852
 9976SOL     OW30826   2.697   4.357   6.308
 9976SOL    HW130827   2.709   4.285   6.239
 9976SOL    HW230828   2.785   4.379   6.349
 9977SOL     OW30829   5.493   6.034   5.311
 9977SOL    HW130830   5.401   6.021   5.275
 9977SOL    HW230831   5.559   6.032   5.236
 9978SOL     OW30832   0.566   2.432   6.275
 9978SOL    HW130833   0.524   2.439   6.185
 9978SOL    HW230834   0.633   2.358   6.276
 9979SOL     OW30835   4.716   3.117   5.251
 9979SOL    HW130836   4.645   3.173   5.292
 9979SOL    HW230837   4.768   3.172   5.185
 9980SOL     OW30838   0.909   0.672   6.657
 9980SOL    HW130839   0.879   0.672   6.562
 9980SOL    HW230840   0.838   0.633   6.715
 9981SOL     OW30841   0.116   2.418   1.156
 9981SOL    HW130842   0.170   2.474   1.093
 9981SOL    HW230843   0.152   2.429   1.249
 9982SOL     OW30844   2.274   1.739   4.859
 9982SOL    HW130845   2.230   1.696   4.780
 9982SOL    HW230846   2.233   1.829   4.874
 9983SOL     OW30847   0.161   3.075   2.067
 9983SOL    HW130848   0.103   3.072   1.986
 9983SOL    HW230849   0.239   3.135   2.050
 9984SOL     OW30850   6.891   5.965   1.534
 9984SOL    HW130851   6.841   6.052   1.533
 9984SOL    HW230852   6.835   5.894   1.493
 9985SOL     OW30853   4.142   5.388   0.928
 9985SOL    HW130854   4.143   5.429   0.837
 9985SOL    HW230855   4.122   5.458   0.996
 9986SOL     OW30856   4.897   4.373   0.148
 9986SOL    HW130857   4.996   4.374   0.160
 9986SOL    HW230858   4.868   4.285   0.111
 9987SOL     OW30859   5.406   3.073   1.549
 9987SOL    HW130860   5.470   3.140   1.586
 9987SOL    HW230861   5.440   3.039   1.462
 9988SOL     OW30862   5.461   6.094   4.686
 9988SOL    HW130863   5.453   6.185   4.726
 9988SOL    HW230864   5.558   6.071   4.673
 9989SOL     OW30865   6.658   5.096   2.424
 9989SOL    HW130866   6.740   5.070   2.373
 9989SOL    HW230867   6.617   5.015   2.465
 9990SOL     OW30868   0.449   6.925   3.252
 9990SOL    HW130869   0.387   6.990   3.297
 9990SOL    HW230870   0.491   6.867   3.322
 9991SOL     OW30871   1.753   3.913   4.368
 9991SOL    HW130872   1.781   3.962   4.285
 9991SOL    HW230873   1.788   3.820   4.365
 9992SOL     OW30874   3.553   4.604   1.085
 9992SOL    HW130875   3.466   4.595   1.036
 9992SOL    HW230876   3.556   4.692   1.131
 9993SOL     OW30877   3.834   0.103   4.120
 9993SOL    HW130878   3.807   0.194   4.087
 9993SOL    HW230879   3.769   0.073   4.189
 9994SOL     OW30880   0.074   4.435   4.289
 9994SOL    HW130881   0.138   4.439   4.212
 9994SOL    HW230882   7.011   4.401   4.257
 9995SOL     OW30883   2.707   0.600   5.017
 9995SOL    HW130884   2.803   0.628   5.017
 9995SOL    HW230885   2.697   0.517   4.961
 9996SOL     OW30886   2.185   4.126   1.223
 9996SOL    HW130887   2.124   4.169   1.157
 9996SOL    HW230888   2.276   4.115   1.181
 9997SOL     OW30889   6.197   1.928   4.489
 9997SOL    HW130890   6.163   2.020   4.471
 9997SOL    HW230891   6.195   1.910   4.587
 9998SOL     OW30892   4.857   3.736   2.820
 9998SOL    HW130893   4.922   3.679   2.871
 9998SOL    HW230894   4.857   3.709   2.724
 9999SOL     OW30895   0.048   6.733   3.759
 9999SOL    HW130896   0.048   6.694   3.852
 9999SOL    HW230897   0.129   6.700   3.710
10000SOL     OW30898   5.154   1.775   1.774
10000SOL    HW130899   5.157   1.717   1.692
10000SOL    HW230900   5.060   1.776   1.809
10001SOL     OW30901   2.884   6.130   2.538
10001SOL    HW130902   2.914   6.036   2.556
10001SOL    HW230903   2.921   6.191   2.608
10002SOL     OW30904   2.614   1.037   0.966
10002SOL    HW130905   2.557   1.102   0.915
10002SOL    HW230906   2.660   0.976   0.902
10003SOL     OW30907   2.399   1.791   3.135
10003SOL    HW130908   2.387   1.819   3.040
10003SOL    HW230909   2.352   1.856   3.195
10004SOL     OW30910   5.596   4.393   4.559
10004SOL    HW130911   5.551   4.403   4.470
10004SOL    HW230912   5.641   4.303   4.564
10005SOL     OW30913   2.854   5.748   3.573
10005SOL    HW130914   2.779   5.812   3.593
10005SOL    HW230915   2.816   5.657   3.559
10006SOL     OW30916   5.513   0.593   5.293
10006SOL    HW130917   5.526   0.684   5.253
10006SOL    HW230918   5.530   0.523   5.224
10007SOL     OW30919   0.982   4.295   4.423
10007SOL    HW130920   0.941   4.294   4.331
10007SOL    HW230921   1.047   4.371   4.429
10008SOL     OW30922   3.562   1.815   4.338
10008SOL    HW130923   3.589   1.768   4.254
10008SOL    HW230924   3.469   1.849   4.329
10009SOL     OW30925   1.916   4.311   1.830
10009SOL    HW130926   1.842   4.346   1.772
10009SOL    HW230927   1.877   4.263   1.909
10010SOL     OW30928   2.900   4.958   6.818
10010SOL    HW130929   2.836   5.027   6.784
10010SOL    HW230930   2.977   5.003   6.863
10011SOL     OW30931   0.262   3.778   0.293
10011SOL    HW130932   0.247   3.721   0.374
10011SOL    HW230933   0.331   3.847   0.313
10012SOL     OW30934   5.043   0.549   2.544
10012SOL    HW130935   4.963   0.528   2.488
10012SOL    HW230936   5.018   0.543   2.641
10013SOL     OW30937   1.377   5.142   4.726
10013SOL    HW130938   1.458   5.199   4.715
10013SOL    HW230939   1.323   5.142   4.642
10014SOL     OW30940   0.465   6.510   3.164
10014SOL    HW130941   0.383   6.536   3.214
10014SOL    HW230942   0.479   6.411   3.171
10015SOL     OW30943   3.726   5.513   6.442
10015SOL    HW130944   3.680   5.580   6.383
10015SOL    HW230945   3.677   5.426   6.438
10016SOL     OW30946   1.755   0.403   4.567
10016SOL    HW130947   1.669   0.351   4.569
10016SOL    HW230948   1.755   0.463   4.488
10017SOL     OW30949   2.731   1.905   3.129
10017SOL    HW130950   2.711   1.945   3.040
10017SOL    HW230951   2.807   1.840   3.119
10018SOL     OW30952   6.842   3.833   6.036
10018SOL    HW130953   6.879   3.847   5.944
10018SOL    HW230954   6.838   3.921   6.084
10019SOL     OW30955   0.330   1.217   2.688
10019SOL    HW130956   0.295   1.173   2.771
10019SOL    HW230957   0.289   1.308   2.679
10020SOL     OW30958   6.766   0.613   1.860
10020SOL    HW130959   6.816   0.634   1.776
10020SOL    HW230960   6.672   0.588   1.837
10021SOL     OW30961   1.337   3.558   1.483
10021SOL    HW130962   1.362   3.461   1.486
10021SOL    HW230963   1.263   3.576   1.548
10022SOL     OW30964   2.337   6.361   0.218
10022SOL    HW130965   2.384   6.435   0.268
10022SOL    HW230966   2.404   6.291   0.192
10023SOL     OW30967   2.553   6.551   5.955
10023SOL    HW130968   2.503   6.623   5.907
10023SOL    HW230969   2.536   6.558   6.053
10024SOL     OW30970   1.583   5.066   3.106
10024SOL    HW130971   1.669   5.077   3.156
10024SOL    HW230972   1.603   5.045   3.010
10025SOL     OW30973   1.780   3.721   2.012
10025SOL    HW130974   1.836   3.759   1.938
10025SOL    HW230975   1.839   3.697   2.090
10026SOL     OW30976   4.860   0.918   2.483
10026SOL    HW130977   4.893   0.871   2.401
10026SOL    HW230978   4.760   0.919   2.484
10027SOL     OW30979   1.408   2.739   5.053
10027SOL    HW130980   1.344   2.682   5.001
10027SOL    HW230981   1.457   2.799   4.991
10028SOL     OW30982   2.868   0.812   1.559
10028SOL    HW130983   2.930   0.759   1.500
10028SOL    HW230984   2.886   0.789   1.655
10029SOL     OW30985   0.109   2.762   4.234
10029SOL    HW130986   0.120   2.664   4.218
10029SOL    HW230987   0.112   2.811   4.147
10030SOL     OW30988   2.598   6.765   5.056
10030SOL    HW130989   2.580   6.669   5.078
10030SOL    HW230990   2.593   6.779   4.957
10031SOL     OW30991   3.708   5.191   4.894
10031SOL    HW130992   3.790   5.158   4.848
10031SOL    HW230993   3.657   5.114   4.933
10032SOL     OW30994   3.274   6.274   5.750
10032SOL    HW130995   3.270   6.174   5.740
10032SOL    HW230996   3.199   6.316   5.700
10033SOL     OW30997   4.888   1.769   3.817
10033SOL    HW130998   4.964   1.753   3.754
10033SOL    HW230999   4.834   1.686   3.827
10034SOL     OW31000   1.860   0.853   3.675
10034SOL    HW131001   1.906   0.854   3.764
10034SOL    HW231002   1.762   0.866   3.689
10035SOL     OW31003   6.241   3.674   0.256
10035SOL    HW131004   6.144   3.647   0.262
10035SOL    HW231005   6.298   3.594   0.273
10036SOL     OW31006   6.656   0.777   6.678
10036SOL    HW131007   6.743   0.734   6.700
10036SOL    HW231008   6.629   0.753   6.584
10037SOL     OW31009   6.296   6.866   5.821
10037SOL    HW131010   6.235   6.938   5.854
10037SOL    HW231011   6.340   6.822   5.899
10038SOL     OW31012   4.795   6.872   0.317
10038SOL    HW131013   4.856   6.921   0.254
10038SOL    HW231014   4.708   6.921   0.324
10039SOL     OW31015   4.666   5.322   4.588
10039SOL    HW131016   4.681   5.359   4.496
10039SOL    HW231017   4.570   5.330   4.613
10040SOL     OW31018   4.473   6.882   0.761
10040SOL    HW131019   4.463   6.830   0.676
10040SOL    HW231020   4.455   6.822   0.838
10041SOL     OW31021   6.929   4.713   5.662
10041SOL    HW131022   6.838   4.738   5.695
10041SOL    HW231023   6.986   4.686   5.740
10042SOL     OW31024   0.691   1.184   5.528
10042SOL    HW131025   0.670   1.113   5.461
10042SOL    HW231026   0.607   1.214   5.573
10043SOL     OW31027   0.896   0.819   2.523
10043SOL    HW131028   0.903   0.860   2.614
10043SOL    HW231029   0.944   0.877   2.457
10044SOL     OW31030   2.913   1.524   4.623
10044SOL    HW131031   2.871   1.587   4.687
10044SOL    HW231032   2.856   1.516   4.541
10045SOL     OW31033   4.629   0.276   4.165
10045SOL    HW131034   4.605   0.194   4.218
10045SOL    HW231035   4.705   0.255   4.103
10046SOL     OW31036   6.832   1.762   1.842
10046SOL    HW131037   6.862   1.804   1.756
10046SOL    HW231038   6.888   1.797   1.917
10047SOL     OW31039   6.168   2.566   5.411
10047SOL    HW131040   6.255   2.517   5.410
10047SOL    HW231041   6.138   2.580   5.505
10048SOL     OW31042   3.172   1.450   1.839
10048SOL    HW131043   3.126   1.518   1.782
10048SOL    HW231044   3.177   1.363   1.791
10049SOL     OW31045   1.156   0.577   6.733
10049SOL    HW131046   1.144   0.637   6.812
10049SOL    HW231047   1.076   0.584   6.673
10050SOL     OW31048   5.645   3.144   4.969
10050SOL    HW131049   5.682   3.213   5.032
10050SOL    HW231050   5.663   3.053   5.005
10051SOL     OW31051   6.662   2.919   4.602
10051SOL    HW131052   6.737   2.901   4.665
10051SOL    HW231053   6.574   2.911   4.649
10052SOL     OW31054   1.885   3.226   1.382
10052SOL    HW131055   1.935   3.229   1.469
10052SOL    HW231056   1.882   3.317   1.342
10053SOL     OW31057   3.751   5.086   2.725
10053SOL    HW131058   3.835   5.086   2.780
10053SOL    HW231059   3.672   5.095   2.785
10054SOL     OW31060   4.506   5.891   6.398
10054SOL    HW131061   4.476   5.875   6.492
10054SOL    HW231062   4.481   5.813   6.341
10055SOL     OW31063   6.298   2.296   4.653
10055SOL    HW131064   6.203   2.302   4.621
10055SOL    HW231065   6.302   2.315   4.751
10056SOL     OW31066   5.982   5.235   0.775
10056SOL    HW131067   5.928   5.172   0.831
10056SOL    HW231068   6.067   5.190   0.747
10057SOL     OW31069   3.815   1.860   4.294
10057SOL    HW131070   3.858   1.932   4.348
10057SOL    HW231071   3.718   1.855   4.317
10058SOL     OW31072   6.750   4.665   4.276
10058SOL    HW131073   6.736   4.616   4.362
10058SOL    HW231074   6.734   4.602   4.200
10059SOL     OW31075   5.411   6.352   0.831
10059SOL    HW131076   5.387   6.367   0.736
10059SOL    HW231077   5.347   6.286   0.871
10060SOL     OW31078   2.262   2.384   2.075
10060SOL    HW131079   2.243   2.382   2.173
10060SOL    HW231080   2.287   2.292   2.044
10061SOL     OW31081   5.502   1.290   4.071
10061SOL    HW131082   5.484   1.237   4.154
10061SOL    HW231083   5.415   1.318   4.031
10062SOL     OW31084   5.996   6.354   4.614
10062SOL    HW131085   6.007   6.424   4.685
10062SOL    HW231086   5.920   6.294   4.638
10063SOL     OW31087   1.633   2.173   3.200
10063SOL    HW131088   1.576   2.237   3.148
10063SOL    HW231089   1.708   2.141   3.141
10064SOL     OW31090   5.882   5.505   5.300
10064SOL    HW131091   5.905   5.599   5.326
10064SOL    HW231092   5.887   5.446   5.380
10065SOL     OW31093   1.430   0.583   1.687
10065SOL    HW131094   1.452   0.661   1.629
10065SOL    HW231095   1.468   0.597   1.779
10066SOL     OW31096   1.227   1.072   3.710
10066SOL    HW131097   1.311   1.060   3.658
10066SOL    HW231098   1.230   1.161   3.757
10067SOL     OW31099   5.755   4.626   4.459
10067SOL    HW131100   5.780   4.689   4.533
10067SOL    HW231101   5.713   4.544   4.498
10068SOL     OW31102   5.307   2.836   4.277
10068SOL    HW131103   5.357   2.771   4.221
10068SOL    HW231104   5.215   2.849   4.238
10069SOL     OW31105   2.194   6.476   3.933
10069SOL    HW131106   2.249   6.510   4.009
10069SOL    HW231107   2.211   6.533   3.852
10070SOL     OW31108   0.551   6.591   4.719
10070SOL    HW131109   0.535   6.630   4.809
10070SOL    HW231110   0.464   6.570   4.676
10071SOL     OW31111   4.528   4.942   4.467
10071SOL    HW131112   4.602   4.897   4.518
10071SOL    HW231113   4.457   4.972   4.532
10072SOL     OW31114   0.657   6.578   3.723
10072SOL    HW131115   0.609   6.577   3.810
10072SOL    HW231116   0.745   6.624   3.733
10073SOL     OW31117   6.103   4.471   4.922
10073SOL    HW131118   6.052   4.499   5.004
10073SOL    HW231119   6.095   4.372   4.910
10074SOL     OW31120   0.751   0.256   5.670
10074SOL    HW131121   0.809   0.196   5.725
10074SOL    HW231122   0.751   0.347   5.710
10075SOL     OW31123   1.235   2.331   2.667
10075SOL    HW131124   1.297   2.353   2.743
10075SOL    HW231125   1.228   2.410   2.606
10076SOL     OW31126   5.580   0.272   4.349
10076SOL    HW131127   5.636   0.211   4.405
10076SOL    HW231128   5.636   0.317   4.281
10077SOL     OW31129   3.759   2.324   6.763
10077SOL    HW131130   3.675   2.270   6.773
10077SOL    HW231131   3.762   2.363   6.671
10078SOL     OW31132   6.163   6.192   4.453
10078SOL    HW131133   6.186   6.280   4.495
10078SOL    HW231134   6.091   6.148   4.505
10079SOL     OW31135   1.675   3.036   2.105
10079SOL    HW131136   1.583   2.997   2.109
10079SOL    HW231137   1.703   3.047   2.010
10080SOL     OW31138   3.391   1.978   6.547
10080SOL    HW131139   3.411   2.054   6.485
10080SOL    HW231140   3.339   2.011   6.626
10081SOL     OW31141   0.387   6.909   6.673
10081SOL    HW131142   0.439   6.993   6.657
10081SOL    HW231143   0.324   6.893   6.597
10082SOL     OW31144   6.684   2.900   2.712
10082SOL    HW131145   6.707   2.830   2.780
10082SOL    HW231146   6.762   2.913   2.651
10083SOL     OW31147   4.911   1.061   3.290
10083SOL    HW131148   4.897   1.133   3.358
10083SOL    HW231149   4.861   1.085   3.206
10084SOL     OW31150   3.339   0.286   5.885
10084SOL    HW131151   3.347   0.218   5.812
10084SOL    HW231152   3.374   0.247   5.971
10085SOL     OW31153   0.552   4.828   2.836
10085SOL    HW131154   0.625   4.877   2.789
10085SOL    HW231155   0.465   4.875   2.821
10086SOL     OW31156   5.693   5.341   2.620
10086SOL    HW131157   5.685   5.431   2.578
10086SOL    HW231158   5.603   5.310   2.650
10087SOL     OW31159   1.013   0.887   3.741
10087SOL    HW131160   1.083   0.953   3.713
10087SOL    HW231161   0.946   0.933   3.800
10088SOL     OW31162   0.222   6.661   5.772
10088SOL    HW131163   0.173   6.655   5.859
10088SOL    HW231164   0.208   6.577   5.720
10089SOL     OW31165   2.598   1.762   3.311
10089SOL    HW131166   2.522   1.743   3.249
10089SOL    HW231167   2.659   1.829   3.269
10090SOL     OW31168   0.676   4.434   1.258
10090SOL    HW131169   0.674   4.377   1.340
10090SOL    HW231170   0.684   4.375   1.177
10091SOL     OW31171   1.065   3.218   4.862
10091SOL    HW131172   1.021   3.297   4.821
10091SOL    HW231173   1.145   3.193   4.808
10092SOL     OW31174   1.485   3.972   4.941
10092SOL    HW131175   1.503   3.875   4.928
10092SOL    HW231176   1.540   4.007   5.017
10093SOL     OW31177   0.883   4.836   4.450
10093SOL    HW131178   0.895   4.799   4.357
10093SOL    HW231179   0.970   4.830   4.500
10094SOL     OW31180   2.363   6.560   2.173
10094SOL    HW131181   2.404   6.523   2.090
10094SOL    HW231182   2.336   6.656   2.158
10095SOL     OW31183   6.368   1.376   5.420
10095SOL    HW131184   6.272   1.394   5.400
10095SOL    HW231185   6.422   1.388   5.336
10096SOL     OW31186   6.586   5.077   2.864
10096SOL    HW131187   6.603   4.989   2.819
10096SOL    HW231188   6.508   5.122   2.821
10097SOL     OW31189   0.889   1.098   0.064
10097SOL    HW131190   0.802   1.146   0.071
10097SOL    HW231191   0.956   1.155   0.018
10098SOL     OW31192   1.900   6.892   5.779
10098SOL    HW131193   1.911   6.990   5.764
10098SOL    HW231194   1.897   6.873   5.877
10099SOL     OW31195   0.068   4.403   6.619
10099SOL    HW131196   0.025   4.451   6.542
10099SOL    HW231197   0.049   4.452   6.704
10100SOL     OW31198   5.488   6.948   5.174
10100SOL    HW131199   5.415   6.991   5.121
10100SOL    HW231200   5.497   6.853   5.147
10101SOL     OW31201   5.889   4.686   1.603
10101SOL    HW131202   5.875   4.613   1.669
10101SOL    HW231203   5.983   4.682   1.568
10102SOL     OW31204   2.399   0.789   3.002
10102SOL    HW131205   2.449   0.703   3.013
10102SOL    HW231206   2.450   0.863   3.047
10103SOL     OW31207   3.002   0.993   4.811
10103SOL    HW131208   2.963   1.085   4.803
10103SOL    HW231209   3.057   0.973   4.731
10104SOL     OW31210   0.850   3.581   5.318
10104SOL    HW131211   0.895   3.502   5.358
10104SOL    HW231212   0.815   3.640   5.391
10105SOL     OW31213   1.350   1.341   6.148
10105SOL    HW131214   1.323   1.376   6.238
10105SOL    HW231215   1.272   1.348   6.085
10106SOL     OW31216   5.479   4.743   1.265
10106SOL    HW131217   5.527   4.718   1.349
10106SOL    HW231218   5.392   4.786   1.288
10107SOL     OW31219   6.969   1.637   6.413
10107SOL    HW131220   6.951   1.539   6.411
10107SOL    HW231221   6.930   1.676   6.496
10108SOL     OW31222   6.437   6.389   6.996
10108SOL    HW131223   6.456   6.377   0.067
10108SOL    HW231224   6.345   6.427   6.984
10109SOL     OW31225   3.738   6.319   2.656
10109SOL    HW131226   3.799   6.322   2.577
10109SOL    HW231227   3.721   6.225   2.683
10110SOL     OW31228   4.128   6.798   5.665
10110SOL    HW131229   4.045   6.743   5.673
10110SOL    HW231230   4.108   6.893   5.691
10111SOL     OW31231   6.450   3.353   3.432
10111SOL    HW131232   6.501   3.300   3.364
10111SOL    HW231233   6.400   3.290   3.492
10112SOL     OW31234   5.799   3.878   4.637
10112SOL    HW131235   5.869   3.856   4.569
10112SOL    HW231236   5.753   3.795   4.666
10113SOL     OW31237   3.597   1.107   6.763
10113SOL    HW131238   3.665   1.164   6.715
10113SOL    HW231239   3.563   1.156   6.843
10114SOL     OW31240   5.767   0.659   1.218
10114SOL    HW131241   5.781   0.747   1.263
10114SOL    HW231242   5.814   0.659   1.130
10115SOL     OW31243   2.896   1.695   3.140
10115SOL    HW131244   2.936   1.659   3.224
10115SOL    HW231245   2.950   1.664   3.062
10116SOL     OW31246   0.736   6.502   0.644
10116SOL    HW131247   0.650   6.452   0.661
10116SOL    HW231248   0.774   6.534   0.731
10117SOL     OW31249   6.168   0.239   4.770
10117SOL    HW131250   6.250   0.294   4.783
10117SOL    HW231251   6.185   0.168   4.702
10118SOL     OW31252   6.805   4.628   2.856
10118SOL    HW131253   6.784   4.541   2.811
10118SOL    HW231254   6.898   4.626   2.892
10119SOL     OW31255   1.640   6.689   4.534
10119SOL    HW131256   1.584   6.714   4.455
10119SOL    HW231257   1.603   6.606   4.576
10120SOL     OW31258   0.493   3.143   4.092
10120SOL    HW131259   0.574   3.155   4.148
10120SOL    HW231260   0.412   3.141   4.150
10121SOL     OW31261   6.892   5.160   5.279
10121SOL    HW131262   6.805   5.109   5.281
10121SOL    HW231263   6.944   5.134   5.198
10122SOL     OW31264   5.522   3.083   0.460
10122SOL    HW131265   5.431   3.126   0.460
10122SOL    HW231266   5.539   3.042   0.370
10123SOL     OW31267   6.626   5.961   0.281
10123SOL    HW131268   6.596   5.904   0.358
10123SOL    HW231269   6.615   5.911   0.196
10124SOL     OW31270   2.160   4.160   6.913
10124SOL    HW131271   2.197   4.073   6.880
10124SOL    HW231272   2.138   4.219   6.835
10125SOL     OW31273   2.242   0.758   2.434
10125SOL    HW131274   2.285   0.683   2.484
10125SOL    HW231275   2.263   0.751   2.337
10126SOL     OW31276   6.386   5.931   6.278
10126SOL    HW131277   6.419   5.953   6.370
10126SOL    HW231278   6.464   5.908   6.219
10127SOL     OW31279   2.460   5.538   5.871
10127SOL    HW131280   2.374   5.587   5.889
10127SOL    HW231281   2.441   5.441   5.860
10128SOL     OW31282   1.024   2.068   1.225
10128SOL    HW131283   1.040   2.039   1.131
10128SOL    HW231284   1.069   2.005   1.288
10129SOL     OW31285   4.706   2.845   4.050
10129SOL    HW131286   4.611   2.866   4.029
10129SOL    HW231287   4.711   2.793   4.136
10130SOL     OW31288   2.492   4.567   2.894
10130SOL    HW131289   2.459   4.514   2.815
10130SOL    HW231290   2.497   4.664   2.870
10131SOL     OW31291   0.831   1.465   3.229
10131SOL    HW131292   0.732   1.462   3.236
10131SOL    HW231293   0.872   1.435   3.315
10132SOL     OW31294   2.700   6.492   3.134
10132SOL    HW131295   2.745   6.573   3.171
10132SOL    HW231296   2.725   6.412   3.189
10133SOL     OW31297   4.519   6.567   2.151
10133SOL    HW131298   4.516   6.498   2.078
10133SOL    HW231299   4.426   6.597   2.172
10134SOL     OW31300   7.023   0.282   3.694
10134SOL    HW131301   0.030   0.208   3.752
10134SOL    HW231302   6.928   0.264   3.668
10135SOL     OW31303   5.195   3.365   3.475
10135SOL    HW131304   5.257   3.437   3.445
10135SOL    HW231305   5.103   3.402   3.485
10136SOL     OW31306   5.692   0.128   2.725
10136SOL    HW131307   5.702   0.188   2.804
10136SOL    HW231308   5.636   0.173   2.655
10137SOL     OW31309   6.949   5.387   4.000
10137SOL    HW131310   6.951   5.320   4.075
10137SOL    HW231311   6.958   5.340   3.913
10138SOL     OW31312   4.333   2.377   1.180
10138SOL    HW131313   4.416   2.421   1.214
10138SOL    HW231314   4.257   2.395   1.242
10139SOL     OW31315   4.094   3.409   3.305
10139SOL    HW131316   4.084   3.333   3.241
10139SOL    HW231317   4.068   3.378   3.397
10140SOL     OW31318   6.337   5.570   5.727
10140SOL    HW131319   6.348   5.561   5.826
10140SOL    HW231320   6.267   5.507   5.695
10141SOL     OW31321   3.588   1.715   4.595
10141SOL    HW131322   3.531   1.756   4.524
10141SOL    HW231323   3.666   1.774   4.614
10142SOL     OW31324   5.442   6.345   4.801
10142SOL    HW131325   5.494   6.427   4.777
10142SOL    HW231326   5.367   6.370   4.862
10143SOL     OW31327   4.748   0.344   1.178
10143SOL    HW131328   4.662   0.353   1.129
10143SOL    HW231329   4.804   0.426   1.163
10144SOL     OW31330   4.807   6.545   6.462
10144SOL    HW131331   4.786   6.619   6.526
10144SOL    HW231332   4.894   6.503   6.487
10145SOL     OW31333   3.896   5.761   6.222
10145SOL    HW131334   3.958   5.810   6.161
10145SOL    HW231335   3.812   5.813   6.234
10146SOL     OW31336   3.436   5.213   5.368
10146SOL    HW131337   3.369   5.178   5.302
10146SOL    HW231338   3.446   5.148   5.444
10147SOL     OW31339   5.293   4.608   4.554
10147SOL    HW131340   5.314   4.625   4.458
10147SOL    HW231341   5.354   4.662   4.612
10148SOL     OW31342   5.566   5.037   6.996
10148SOL    HW131343   5.528   5.129   6.986
10148SOL    HW231344   5.616   5.011   6.914
10149SOL     OW31345   5.515   1.973   0.876
10149SOL    HW131346   5.520   1.880   0.839
10149SOL    HW231347   5.578   1.982   0.953
10150SOL     OW31348   4.274   3.826   0.293
10150SOL    HW131349   4.226   3.767   0.358
10150SOL    HW231350   4.370   3.836   0.321
10151SOL     OW31351   0.586   0.082   6.642
10151SOL    HW131352   0.616   0.088   6.547
10151SOL    HW231353   0.665   0.089   6.703
10152SOL     OW31354   1.716   5.953   4.214
10152SOL    HW131355   1.634   5.989   4.257
10152SOL    HW231356   1.787   6.024   4.212
10153SOL     OW31357   4.919   5.356   4.338
10153SOL    HW131358   4.907   5.333   4.434
10153SOL    HW231359   4.976   5.287   4.294
10154SOL     OW31360   5.596   6.836   4.658
10154SOL    HW131361   5.631   6.804   4.570
10154SOL    HW231362   5.634   6.926   4.679
10155SOL     OW31363   4.192   1.665   5.729
10155SOL    HW131364   4.094   1.677   5.716
10155SOL    HW231365   4.210   1.571   5.758
10156SOL     OW31366   6.147   0.049   2.352
10156SOL    HW131367   6.223   0.056   2.418
10156SOL    HW231368   6.095   0.134   2.352
10157SOL     OW31369   6.028   2.572   6.164
10157SOL    HW131370   6.003   2.533   6.076
10157SOL    HW231371   6.028   2.672   6.159
10158SOL     OW31372   4.537   3.592   0.100
10158SOL    HW131373   4.612   3.537   0.136
10158SOL    HW231374   4.452   3.567   0.147
10159SOL     OW31375   2.839   3.465   6.247
10159SOL    HW131376   2.784   3.532   6.198
10159SOL    HW231377   2.803   3.373   6.230
10160SOL     OW31378   1.601   3.720   2.257
10160SOL    HW131379   1.671   3.729   2.186
10160SOL    HW231380   1.633   3.764   2.341
10161SOL     OW31381   3.471   4.100   6.847
10161SOL    HW131382   3.426   4.122   6.933
10161SOL    HW231383   3.408   4.050   6.788
10162SOL     OW31384   2.595   4.562   0.508
10162SOL    HW131385   2.611   4.524   0.417
10162SOL    HW231386   2.517   4.515   0.551
10163SOL     OW31387   5.347   5.013   6.612
10163SOL    HW131388   5.310   4.996   6.703
10163SOL    HW231389   5.295   4.960   6.545
10164SOL     OW31390   6.280   3.297   4.709
10164SOL    HW131391   6.369   3.318   4.667
10164SOL    HW231392   6.207   3.316   4.643
10165SOL     OW31393   1.010   2.286   3.465
10165SOL    HW131394   1.051   2.343   3.393
10165SOL    HW231395   1.076   2.272   3.538
10166SOL     OW31396   3.427   1.270   2.141
10166SOL    HW131397   3.489   1.216   2.084
10166SOL    HW231398   3.464   1.275   2.234
10167SOL     OW31399   4.068   2.118   6.258
10167SOL    HW131400   4.107   2.085   6.172
10167SOL    HW231401   4.116   2.202   6.286
10168SOL     OW31402   6.432   3.861   5.519
10168SOL    HW131403   6.531   3.871   5.511
10168SOL    HW231404   6.398   3.810   5.440
10169SOL     OW31405   6.041   4.219   3.020
10169SOL    HW131406   6.124   4.187   2.975
10169SOL    HW231407   6.064   4.268   3.104
10170SOL     OW31408   1.164   4.302   5.796
10170SOL    HW131409   1.071   4.339   5.794
10170SOL    HW231410   1.160   4.202   5.801
10171SOL     OW31411   6.532   3.890   5.842
10171SOL    HW131412   6.483   3.805   5.860
10171SOL    HW231413   6.629   3.870   5.829
10172SOL     OW31414   6.305   6.865   3.901
10172SOL    HW131415   6.228   6.920   3.935
10172SOL    HW231416   6.383   6.924   3.883
10173SOL     OW31417   1.187   3.134   0.756
10173SOL    HW131418   1.249   3.060   0.731
10173SOL    HW231419   1.108   3.097   0.804
10174SOL     OW31420   5.424   5.299   2.690
10174SOL    HW131421   5.365   5.356   2.634
10174SOL    HW231422   5.420   5.204   2.657
10175SOL     OW31423   6.651   2.126   3.411
10175SOL    HW131424   6.680   2.074   3.331
10175SOL    HW231425   6.584   2.073   3.463
10176SOL     OW31426   1.747   3.450   6.042
10176SOL    HW131427   1.715   3.397   6.120
10176SOL    HW231428   1.774   3.389   5.968
10177SOL     OW31429   2.134   1.335   0.388
10177SOL    HW131430   2.097   1.402   0.324
10177SOL    HW231431   2.199   1.276   0.340
10178SOL     OW31432   6.673   2.390   5.110
10178SOL    HW131433   6.612   2.311   5.118
10178SOL    HW231434   6.758   2.372   5.159
10179SOL     OW31435   1.166   1.496   5.736
10179SOL    HW131436   1.264   1.517   5.726
10179SOL    HW231437   1.117   1.527   5.655
10180SOL     OW31438   4.128   6.874   6.932
10180SOL    HW131439   4.129   6.775   6.948
10180SOL    HW231440   4.034   6.903   6.910
10181SOL     OW31441   4.995   3.395   2.332
10181SOL    HW131442   5.034   3.342   2.257
10181SOL    HW231443   5.035   3.366   2.419
10182SOL     OW31444   5.479   1.006   1.969
10182SOL    HW131445   5.467   1.078   1.901
10182SOL    HW231446   5.511   1.047   2.055
10183SOL     OW31447   0.666   1.959   6.518
10183SOL    HW131448   0.604   2.034   6.495
10183SOL    HW231449   0.641   1.877   6.467
10184SOL     OW31450   4.266   0.955   6.021
10184SOL    HW131451   4.216   0.965   5.935
10184SOL    HW231452   4.221   0.886   6.078
10185SOL     OW31453   5.433   5.683   1.786
10185SOL    HW131454   5.371   5.724   1.854
10185SOL    HW231455   5.528   5.697   1.814
10186SOL     OW31456   5.713   3.312   2.893
10186SOL    HW131457   5.696   3.350   2.983
10186SOL    HW231458   5.727   3.386   2.827
10187SOL     OW31459   0.436   2.910   1.127
10187SOL    HW131460   0.435   2.816   1.092
10187SOL    HW231461   0.531   2.937   1.146
10188SOL     OW31462   3.380   6.346   0.905
10188SOL    HW131463   3.371   6.250   0.878
10188SOL    HW231464   3.477   6.369   0.914
10189SOL     OW31465   1.428   0.561   5.455
10189SOL    HW131466   1.390   0.500   5.525
10189SOL    HW231467   1.504   0.612   5.494
10190SOL     OW31468   4.543   3.221   1.492
10190SOL    HW131469   4.559   3.293   1.424
10190SOL    HW231470   4.539   3.132   1.447
10191SOL     OW31471   5.040   4.228   6.372
10191SOL    HW131472   5.129   4.232   6.418
10191SOL    HW231473   5.016   4.319   6.339
10192SOL     OW31474   4.651   1.044   5.934
10192SOL    HW131475   4.667   1.139   5.962
10192SOL    HW231476   4.607   0.994   6.008
10193SOL     OW31477   4.087   3.665   1.954
10193SOL    HW131478   4.158   3.604   1.919
10193SOL    HW231479   4.077   3.651   2.052
10194SOL     OW31480   5.796   4.359   4.962
10194SOL    HW131481   5.725   4.291   4.982
10194SOL    HW231482   5.755   4.436   4.912
10195SOL     OW31483   5.882   5.039   0.986
10195SOL    HW131484   5.845   5.124   1.022
10195SOL    HW231485   5.866   4.965   1.051
10196SOL     OW31486   4.564   1.789   4.398
10196SOL    HW131487   4.504   1.823   4.471
10196SOL    HW231488   4.626   1.861   4.369
10197SOL     OW31489   6.907   1.892   4.760
10197SOL    HW131490   6.832   1.957   4.752
10197SOL    HW231491   6.887   1.810   4.707
10198SOL     OW31492   3.215   0.729   1.911
10198SOL    HW131493   3.220   0.637   1.951
10198SOL    HW231494   3.296   0.745   1.855
10199SOL     OW31495   2.361   2.921   5.889
10199SOL    HW131496   2.300   2.993   5.920
10199SOL    HW231497   2.454   2.941   5.919
10200SOL     OW31498   4.489   2.018   1.181
10200SOL    HW131499   4.497   1.928   1.138
10200SOL    HW231500   4.531   2.087   1.122
10201SOL     OW31501   0.960   4.600   0.978
10201SOL    HW131502   0.901   4.647   1.044
10201SOL    HW231503   1.043   4.654   0.964
10202SOL     OW31504   3.879   2.520   6.286
10202SOL    HW131505   3.841   2.518   6.379
10202SOL    HW231506   3.948   2.592   6.281
10203SOL     OW31507   5.881   2.715   3.912
10203SOL    HW131508   5.949   2.700   3.839
10203SOL    HW231509   5.809   2.776   3.878
10204SOL     OW31510   5.592   6.946   6.586
10204SOL    HW131511   5.685   6.945   6.550
10204SOL    HW231512   5.578   6.865   6.643
10205SOL     OW31513   1.159   1.199   0.559
10205SOL    HW131514   1.099   1.120   0.548
10205SOL    HW231515   1.131   1.252   0.639
10206SOL     OW31516   0.443   0.720   6.075
10206SOL    HW131517   0.401   0.758   6.157
10206SOL    HW231518   0.400   0.632   6.054
10207SOL     OW31519   1.169   1.898   6.220
10207SOL    HW131520   1.189   1.920   6.124
10207SOL    HW231521   1.254   1.876   6.267
10208SOL     OW31522   5.862   4.730   3.995
10208SOL    HW131523   5.809   4.785   3.930
10208SOL    HW231524   5.839   4.634   3.984
10209SOL     OW31525   6.602   0.104   6.170
10209SOL    HW131526   6.650   0.129   6.086
10209SOL    HW231527   6.629   0.013   6.199
10210SOL     OW31528   4.557   6.434   1.336
10210SOL    HW131529   4.613   6.497   1.390
10210SOL    HW231530   4.463   6.438   1.368
10211SOL     OW31531   3.979   6.892   4.288
10211SOL    HW131532   3.909   6.961   4.271
10211SOL    HW231533   4.068   6.937   4.300
10212SOL     OW31534   1.150   0.788   5.203
10212SOL    HW131535   1.098   0.739   5.273
10212SOL    HW231536   1.118   0.883   5.197
10213SOL     OW31537   4.189   3.063   1.398
10213SOL    HW131538   4.094   3.066   1.427
10213SOL    HW231539   4.199   3.113   1.311
10214SOL     OW31540   0.807   2.638   1.647
10214SOL    HW131541   0.806   2.575   1.724
10214SOL    HW231542   0.786   2.588   1.563
10215SOL     OW31543   3.981   3.156   3.099
10215SOL    HW131544   4.005   3.078   3.042
10215SOL    HW231545   3.946   3.123   3.187
10216SOL     OW31546   0.031   1.000   1.116
10216SOL    HW131547   0.028   1.095   1.149
10216SOL    HW231548   0.124   0.965   1.127
10217SOL     OW31549   2.727   1.203   3.230
10217SOL    HW131550   2.642   1.250   3.211
10217SOL    HW231551   2.797   1.230   3.164
10218SOL     OW31552   1.410   3.012   1.879
10218SOL    HW131553   1.357   3.024   1.795
10218SOL    HW231554   1.401   3.094   1.936
10219SOL     OW31555   0.391   1.993   2.823
10219SOL    HW131556   0.415   1.897   2.840
10219SOL    HW231557   0.296   2.008   2.849
10220SOL     OW31558   3.881   2.734   1.300
10220SOL    HW131559   3.798   2.758   1.350
10220SOL    HW231560   3.892   2.635   1.298
10221SOL     OW31561   0.502   5.616   3.231
10221SOL    HW131562   0.537   5.608   3.138
10221SOL    HW231563   0.555   5.557   3.292
10222SOL     OW31564   2.906   3.360   5.115
10222SOL    HW131565   2.868   3.286   5.170
10222SOL    HW231566   2.997   3.335   5.082
10223SOL     OW31567   0.758   4.596   1.499
10223SOL    HW131568   0.824   4.591   1.424
10223SOL    HW231569   0.666   4.609   1.462
10224SOL     OW31570   6.279   3.003   3.919
10224SOL    HW131571   6.243   2.946   3.993
10224SOL    HW231572   6.373   3.031   3.941
10225SOL     OW31573   2.227   4.492   5.737
10225SOL    HW131574   2.131   4.464   5.736
10225SOL    HW231575   2.234   4.587   5.706
10226SOL     OW31576   3.877   0.565   6.686
10226SOL    HW131577   3.929   0.618   6.619
10226SOL    HW231578   3.840   0.627   6.755
10227SOL     OW31579   4.541   4.445   0.394
10227SOL    HW131580   4.578   4.471   0.484
10227SOL    HW231581   4.585   4.498   0.323
10228SOL     OW31582   6.741   0.005   1.057
10228SOL    HW131583   6.831   6.995   1.029
10228SOL    HW231584   6.711   0.073   0.991
10229SOL     OW31585   0.844   3.179   5.055
10229SOL    HW131586   0.791   3.158   4.973
10229SOL    HW231587   0.941   3.184   5.031
10230SOL     OW31588   6.533   5.574   2.646
10230SOL    HW131589   6.507   5.596   2.553
10230SOL    HW231590   6.499   5.644   2.709
10231SOL     OW31591   1.384   5.820   4.852
10231SOL    HW131592   1.480   5.793   4.847
10231SOL    HW231593   1.376   5.906   4.902
10232SOL     OW31594   2.624   0.931   3.127
10232SOL    HW131595   2.625   0.965   3.033
10232SOL    HW231596   2.680   0.991   3.184
10233SOL     OW31597   3.821   4.071   5.453
10233SOL    HW131598   3.876   4.061   5.536
10233SOL    HW231599   3.845   3.998   5.389
10234SOL     OW31600   6.117   6.659   1.443
10234SOL    HW131601   6.073   6.690   1.359
10234SOL    HW231602   6.188   6.724   1.470
10235SOL     OW31603   1.576   1.761   2.182
10235SOL    HW131604   1.493   1.707   2.171
10235SOL    HW231605   1.552   1.858   2.184
10236SOL     OW31606   2.149   6.546   0.426
10236SOL    HW131607   2.198   6.515   0.508
10236SOL    HW231608   2.207   6.609   0.374
10237SOL     OW31609   0.197   3.615   0.034
10237SOL    HW131610   0.282   3.639   0.082
10237SOL    HW231611   0.129   3.687   0.048
10238SOL     OW31612   4.193   4.928   1.252
10238SOL    HW131613   4.260   4.854   1.252
10238SOL    HW231614   4.112   4.900   1.305
10239SOL     OW31615   1.239   2.910   4.842
10239SOL    HW131616   1.210   2.815   4.847
10239SOL    HW231617   1.333   2.918   4.876
10240SOL     OW31618   2.948   6.383   2.033
10240SOL    HW131619   2.955   6.482   2.040
10240SOL    HW231620   2.983   6.341   2.117
10241SOL     OW31621   5.235   1.998   1.901
10241SOL    HW131622   5.224   1.899   1.895
10241SOL    HW231623   5.192   2.031   1.985
10242SOL     OW31624   0.326   2.021   0.530
10242SOL    HW131625   0.246   2.078   0.549
10242SOL    HW231626   0.335   1.951   0.601
10243SOL     OW31627   2.557   4.829   1.386
10243SOL    HW131628   2.569   4.928   1.393
10243SOL    HW231629   2.460   4.806   1.390
10244SOL     OW31630   2.435   4.101   1.110
10244SOL    HW131631   2.468   4.111   1.017
10244SOL    HW231632   2.512   4.086   1.172
10245SOL     OW31633   3.452   4.163   1.309
10245SOL    HW131634   3.463   4.154   1.408
10245SOL    HW231635   3.355   4.149   1.285
10246SOL     OW31636   3.379   3.534   4.418
10246SOL    HW131637   3.475   3.550   4.395
10246SOL    HW231638   3.324   3.538   4.335
10247SOL     OW31639   0.859   4.314   5.823
10247SOL    HW131640   0.795   4.241   5.799
10247SOL    HW231641   0.874   4.372   5.743
10248SOL     OW31642   0.968   0.411   2.958
10248SOL    HW131643   0.909   0.476   3.005
10248SOL    HW231644   0.925   0.321   2.959
10249SOL     OW31645   2.109   4.745   0.069
10249SOL    HW131646   2.145   4.826   0.115
10249SOL    HW231647   2.041   4.701   0.127
10250SOL     OW31648   6.429   3.482   0.260
10250SOL    HW131649   6.503   3.456   0.323
10250SOL    HW231650   6.365   3.405   0.250
10251SOL     OW31651   2.213   1.040   4.303
10251SOL    HW131652   2.217   1.095   4.386
10251SOL    HW231653   2.166   1.092   4.231
10252SOL     OW31654   4.322   3.556   5.679
10252SOL    HW131655   4.259   3.540   5.603
10252SOL    HW231656   4.363   3.469   5.706
10253SOL     OW31657   3.678   6.382   0.852
10253SOL    HW131658   3.772   6.355   0.871
10253SOL    HW231659   3.650   6.346   0.763
10254SOL     OW31660   4.851   1.402   5.501
10254SOL    HW131661   4.945   1.376   5.480
10254SOL    HW231662   4.789   1.358   5.435
10255SOL     OW31663   2.433   6.866   1.219
10255SOL    HW131664   2.435   6.788   1.156
10255SOL    HW231665   2.401   6.948   1.170
10256SOL     OW31666   4.605   0.638   2.043
10256SOL    HW131667   4.511   0.642   2.012
10256SOL    HW231668   4.610   0.665   2.140
10257SOL     OW31669   2.478   4.717   3.911
10257SOL    HW131670   2.425   4.797   3.940
10257SOL    HW231671   2.430   4.671   3.836
10258SOL     OW31672   3.684   1.931   3.365
10258SOL    HW131673   3.633   1.949   3.450
10258SOL    HW231674   3.690   1.833   3.350
10259SOL     OW31675   0.630   3.917   3.597
10259SOL    HW131676   0.591   3.969   3.673
10259SOL    HW231677   0.702   3.857   3.632
10260SOL     OW31678   0.992   1.372   3.447
10260SOL    HW131679   1.051   1.294   3.467
10260SOL    HW231680   1.045   1.443   3.401
10261SOL     OW31681   0.236   4.351   0.531
10261SOL    HW131682   0.156   4.410   0.540
10261SOL    HW231683   0.308   4.401   0.483
10262SOL     OW31684   3.416   6.866   6.287
10262SOL    HW131685   3.500   6.919   6.272
10262SOL    HW231686   3.420   6.781   6.235
10263SOL     OW31687   5.672   0.589   0.619
10263SOL    HW131688   5.694   0.493   0.635
10263SOL    HW231689   5.581   0.597   0.579
10264SOL     OW31690   5.770   5.173   6.525
10264SOL    HW131691   5.741   5.081   6.496
10264SOL    HW231692   5.691   5.234   6.526
10265SOL     OW31693   3.125   2.560   0.391
10265SOL    HW131694   3.063   2.558   0.312
10265SOL    HW231695   3.211   2.603   0.365
10266SOL     OW31696   3.405   2.925   2.834
10266SOL    HW131697   3.322   2.921   2.889
10266SOL    HW231698   3.453   2.838   2.839
10267SOL     OW31699   5.535   0.944   0.940
10267SOL    HW131700   5.590   0.968   0.860
10267SOL    HW231701   5.581   0.871   0.991
10268SOL     OW31702   5.506   6.520   2.019
10268SOL    HW131703   5.501   6.587   1.944
10268SOL    HW231704   5.569   6.554   2.089
10269SOL     OW31705   0.930   2.809   6.656
10269SOL    HW131706   0.918   2.856   6.743
10269SOL    HW231707   0.952   2.713   6.672
10270SOL     OW31708   3.249   5.973   2.421
10270SOL    HW131709   3.295   6.006   2.339
10270SOL    HW231710   3.248   6.046   2.490
10271SOL     OW31711   2.945   2.800   0.006
10271SOL    HW131712   3.013   2.755   0.063
10271SOL    HW231713   2.856   2.754   0.016
10272SOL     OW31714   0.810   0.937   3.936
10272SOL    HW131715   0.775   0.848   3.963
10272SOL    HW231716   0.736   1.005   3.940
10273SOL     OW31717   3.108   4.981   4.617
10273SOL    HW131718   3.144   4.952   4.527
10273SOL    HW231719   3.070   4.901   4.664
10274SOL     OW31720   0.537   4.907   6.029
10274SOL    HW131721   0.438   4.904   6.042
10274SOL    HW231722   0.574   4.814   6.024
10275SOL     OW31723   0.065   0.481   2.205
10275SOL    HW131724   0.039   0.456   2.111
10275SOL    HW231725   0.136   0.418   2.238
10276SOL     OW31726   4.498   5.749   5.718
10276SOL    HW131727   4.527   5.826   5.774
10276SOL    HW231728   4.409   5.717   5.749
10277SOL     OW31729   1.050   6.977   4.116
10277SOL    HW131730   0.965   7.006   4.073
10277SOL    HW231731   1.124   6.979   4.048
10278SOL     OW31732   0.387   1.114   4.272
10278SOL    HW131733   0.437   1.119   4.358
10278SOL    HW231734   0.315   1.044   4.280
10279SOL     OW31735   2.830   5.505   3.766
10279SOL    HW131736   2.796   5.477   3.676
10279SOL    HW231737   2.792   5.444   3.836
10280SOL     OW31738   5.669   3.466   6.724
10280SOL    HW131739   5.618   3.525   6.786
10280SOL    HW231740   5.606   3.405   6.676
10281SOL     OW31741   6.993   2.732   2.921
10281SOL    HW131742   7.009   2.736   3.020
10281SOL    HW231743   6.913   2.675   2.903
10282SOL     OW31744   5.386   3.141   3.291
10282SOL    HW131745   5.369   3.240   3.293
10282SOL    HW231746   5.484   3.124   3.290
10283SOL     OW31747   0.953   3.111   0.549
10283SOL    HW131748   0.881   3.179   0.542
10283SOL    HW231749   1.028   3.146   0.606
10284SOL     OW31750   6.379   1.911   4.264
10284SOL    HW131751   6.363   1.819   4.230
10284SOL    HW231752   6.323   1.926   4.346
10285SOL     OW31753   3.942   6.653   3.109
10285SOL    HW131754   3.891   6.671   3.193
10285SOL    HW231755   4.035   6.690   3.117
10286SOL     OW31756   3.375   0.696   4.168
10286SOL    HW131757   3.399   0.612   4.216
10286SOL    HW231758   3.337   0.674   4.078
10287SOL     OW31759   1.733   5.863   2.183
10287SOL    HW131760   1.771   5.774   2.159
10287SOL    HW231761   1.723   5.918   2.100
10288SOL     OW31762   3.922   0.211   4.470
10288SOL    HW131763   3.979   0.274   4.522
10288SOL    HW231764   3.827   0.220   4.501
10289SOL     OW31765   2.992   6.276   1.102
10289SOL    HW131766   3.008   6.178   1.103
10289SOL    HW231767   2.902   6.297   1.139
10290SOL     OW31768   2.921   3.293   2.591
10290SOL    HW131769   2.882   3.226   2.654
10290SOL    HW231770   2.989   3.248   2.534
10291SOL     OW31771   3.896   1.621   3.134
10291SOL    HW131772   3.955   1.644   3.211
10291SOL    HW231773   3.953   1.592   3.056
10292SOL     OW31774   0.586   1.242   5.957
10292SOL    HW131775   0.604   1.332   5.995
10292SOL    HW231776   0.549   1.251   5.865
10293SOL     OW31777   0.745   3.052   3.510
10293SOL    HW131778   0.812   3.037   3.582
10293SOL    HW231779   0.655   3.066   3.551
10294SOL     OW31780   4.091   1.899   3.024
10294SOL    HW131781   4.060   1.840   2.949
10294SOL    HW231782   4.122   1.842   3.100
10295SOL     OW31783   1.195   2.460   5.778
10295SOL    HW131784   1.225   2.418   5.864
10295SOL    HW231785   1.272   2.507   5.735
10296SOL     OW31786   5.975   1.258   5.891
10296SOL    HW131787   5.904   1.274   5.960
10296SOL    HW231788   5.933   1.252   5.801
10297SOL     OW31789   2.169   1.420   6.565
10297SOL    HW131790   2.076   1.443   6.535
10297SOL    HW231791   2.232   1.491   6.533
10298SOL     OW31792   1.406   4.462   1.986
10298SOL    HW131793   1.460   4.417   1.915
10298SOL    HW231794   1.311   4.432   1.980
10299SOL     OW31795   4.170   6.490   2.469
10299SOL    HW131796   4.202   6.399   2.497
10299SOL    HW231797   4.219   6.519   2.388
10300SOL     OW31798   1.620   4.202   1.955
10300SOL    HW131799   1.557   4.219   1.879
10300SOL    HW231800   1.640   4.105   1.961
10301SOL     OW31801   4.641   1.730   5.281
10301SOL    HW131802   4.671   1.654   5.224
10301SOL    HW231803   4.715   1.756   5.343
10302SOL     OW31804   2.665   6.202   3.799
10302SOL    HW131805   2.642   6.115   3.754
10302SOL    HW231806   2.615   6.208   3.886
10303SOL     OW31807   0.968   5.596   3.617
10303SOL    HW131808   1.024   5.672   3.650
10303SOL    HW231809   0.983   5.516   3.675
10304SOL     OW31810   6.214   0.474   0.882
10304SOL    HW131811   6.264   0.388   0.890
10304SOL    HW231812   6.132   0.459   0.827
10305SOL     OW31813   2.680   4.300   5.857
10305SOL    HW131814   2.610   4.229   5.865
10305SOL    HW231815   2.638   4.382   5.817
10306SOL     OW31816   5.538   5.878   0.384
10306SOL    HW131817   5.487   5.893   0.299
10306SOL    HW231818   5.580   5.964   0.414
10307SOL     OW31819   3.282   1.349   4.843
10307SOL    HW131820   3.352   1.288   4.805
10307SOL    HW231821   3.316   1.443   4.842
10308SOL     OW31822   2.504   4.551   2.256
10308SOL    HW131823   2.543   4.548   2.164
10308SOL    HW231824   2.459   4.463   2.275
10309SOL     OW31825   6.868   1.392   6.419
10309SOL    HW131826   6.841   1.296   6.418
10309SOL    HW231827   6.831   1.436   6.501
10310SOL     OW31828   3.070   3.733   0.108
10310SOL    HW131829   3.147   3.788   0.138
10310SOL    HW231830   3.028   3.688   0.187
10311SOL     OW31831   6.749   5.591   0.092
10311SOL    HW131832   6.707   5.623   0.177
10311SOL    HW231833   6.680   5.546   0.036
10312SOL     OW31834   4.392   6.721   2.658
10312SOL    HW131835   4.433   6.746   2.570
10312SOL    HW231836   4.292   6.725   2.649
10313SOL     OW31837   3.756   5.906   2.237
10313SOL    HW131838   3.847   5.871   2.260
10313SOL    HW231839   3.718   5.955   2.316
10314SOL     OW31840   6.751   0.520   0.071
10314SOL    HW131841   6.711   0.477   7.016
10314SOL    HW231842   6.702   0.489   0.153
10315SOL     OW31843   5.725   5.997   4.039
10315SOL    HW131844   5.815   5.952   4.033
10315SOL    HW231845   5.713   6.033   4.131
10316SOL     OW31846   6.693   2.929   6.165
10316SOL    HW131847   6.690   2.986   6.247
10316SOL    HW231848   6.773   2.869   6.169
10317SOL     OW31849   4.167   6.266   6.254
10317SOL    HW131850   4.207   6.340   6.199
10317SOL    HW231851   4.234   6.193   6.266
10318SOL     OW31852   4.715   1.146   6.323
10318SOL    HW131853   4.726   1.047   6.322
10318SOL    HW231854   4.690   1.176   6.416
10319SOL     OW31855   1.042   4.243   5.268
10319SOL    HW131856   0.992   4.291   5.196
10319SOL    HW231857   1.073   4.309   5.337
10320SOL     OW31858   0.450   6.182   2.627
10320SOL    HW131859   0.456   6.146   2.534
10320SOL    HW231860   0.362   6.157   2.667
10321SOL     OW31861   5.727   1.728   1.941
10321SOL    HW131862   5.765   1.815   1.972
10321SOL    HW231863   5.781   1.694   1.864
10322SOL     OW31864   4.345   4.865   4.879
10322SOL    HW131865   4.313   4.925   4.952
10322SOL    HW231866   4.323   4.770   4.901
10323SOL     OW31867   6.295   4.958   5.230
10323SOL    HW131868   6.300   4.875   5.286
10323SOL    HW231869   6.309   4.935   5.134
10324SOL     OW31870   3.554   3.241   2.973
10324SOL    HW131871   3.630   3.273   2.917
10324SOL    HW231872   3.582   3.159   3.023
10325SOL     OW31873   0.287   4.870   2.354
10325SOL    HW131874   0.353   4.804   2.390
10325SOL    HW231875   0.219   4.892   2.424
10326SOL     OW31876   6.125   3.782   6.438
10326SOL    HW131877   6.035   3.776   6.396
10326SOL    HW231878   6.143   3.875   6.468
10327SOL     OW31879   2.365   2.990   1.732
10327SOL    HW131880   2.294   3.043   1.777
10327SOL    HW231881   2.324   2.938   1.656
10328SOL     OW31882   6.091   2.667   1.164
10328SOL    HW131883   6.101   2.710   1.074
10328SOL    HW231884   6.014   2.707   1.212
10329SOL     OW31885   2.534   1.297   2.702
10329SOL    HW131886   2.439   1.314   2.677
10329SOL    HW231887   2.593   1.363   2.657
10330SOL     OW31888   4.060   0.599   1.789
10330SOL    HW131889   4.120   0.566   1.716
10330SOL    HW231890   4.075   0.544   1.871
10331SOL     OW31891   6.659   6.140   6.392
10331SOL    HW131892   6.586   6.202   6.362
10331SOL    HW231893   6.621   6.070   6.452
10332SOL     OW31894   6.642   0.115   6.917
10332SOL    HW131895   6.685   0.121   7.007
10332SOL    HW231896   6.675   0.034   6.870
10333SOL     OW31897   0.815   5.236   5.043
10333SOL    HW131898   0.827   5.184   4.959
10333SOL    HW231899   0.782   5.328   5.021
10334SOL     OW31900   3.345   0.723   4.445
10334SOL    HW131901   3.257   0.678   4.457
10334SOL    HW231902   3.362   0.737   4.348
10335SOL     OW31903   1.468   4.257   6.942
10335SOL    HW131904   1.539   4.252   7.013
10335SOL    HW231905   1.510   4.243   6.852
10336SOL     OW31906   6.313   0.300   1.915
10336SOL    HW131907   6.334   0.223   1.975
10336SOL    HW231908   6.256   0.366   1.964
10337SOL     OW31909   0.531   5.702   6.759
10337SOL    HW131910   0.515   5.654   6.672
10337SOL    HW231911   0.462   5.773   6.770
10338SOL     OW31912   1.667   6.260   2.315
10338SOL    HW131913   1.652   6.171   2.357
10338SOL    HW231914   1.646   6.255   2.217
10339SOL     OW31915   6.254   3.466   6.027
10339SOL    HW131916   6.262   3.490   6.124
10339SOL    HW231917   6.287   3.543   5.971
10340SOL     OW31918   1.515   3.180   6.965
10340SOL    HW131919   1.581   3.117   7.007
10340SOL    HW231920   1.559   3.230   6.891
10341SOL     OW31921   2.117   3.472   2.270
10341SOL    HW131922   2.166   3.490   2.184
10341SOL    HW231923   2.061   3.390   2.259
10342SOL     OW31924   1.829   0.328   3.978
10342SOL    HW131925   1.929   0.332   3.989
10342SOL    HW231926   1.786   0.395   4.039
10343SOL     OW31927   3.127   5.397   0.117
10343SOL    HW131928   3.183   5.315   0.114
10343SOL    HW231929   3.150   5.451   0.198
10344SOL     OW31930   4.180   3.865   0.049
10344SOL    HW131931   4.133   3.953   0.043
10344SOL    HW231932   4.201   3.845   0.145
10345SOL     OW31933   1.811   2.451   5.782
10345SOL    HW131934   1.863   2.536   5.781
10345SOL    HW231935   1.773   2.435   5.691
10346SOL     OW31936   0.038   5.838   1.211
10346SOL    HW131937   0.133   5.848   1.181
10346SOL    HW231938   7.019   5.765   1.159
10347SOL     OW31939   5.285   1.383   3.393
10347SOL    HW131940   5.317   1.314   3.328
10347SOL    HW231941   5.191   1.409   3.371
10348SOL     OW31942   6.220   2.636   0.387
10348SOL    HW131943   6.155   2.698   0.343
10348SOL    HW231944   6.178   2.595   0.467
10349SOL     OW31945   1.020   0.923   6.579
10349SOL    HW131946   1.008   0.838   6.630
10349SOL    HW231947   1.112   0.959   6.596
10350SOL     OW31948   2.645   5.259   5.056
10350SOL    HW131949   2.666   5.233   4.962
10350SOL    HW231950   2.546   5.260   5.070
10351SOL     OW31951   4.753   5.145   0.152
10351SOL    HW131952   4.780   5.122   0.058
10351SOL    HW231953   4.749   5.062   0.207
10352SOL     OW31954   3.306   0.619   6.365
10352SOL    HW131955   3.332   0.527   6.395
10352SOL    HW231956   3.241   0.612   6.290
10353SOL     OW31957   6.889   2.861   4.771
10353SOL    HW131958   6.983   2.888   4.747
10353SOL    HW231959   6.891   2.771   4.815
10354SOL     OW31960   5.935   1.516   2.010
10354SOL    HW131961   5.836   1.520   2.022
10354SOL    HW231962   5.980   1.527   2.098
10355SOL     OW31963   2.720   6.340   1.825
10355SOL    HW131964   2.642   6.337   1.886
10355SOL    HW231965   2.771   6.426   1.839
10356SOL     OW31966   6.839   4.694   6.230
10356SOL    HW131967   6.797   4.717   6.142
10356SOL    HW231968   6.860   4.778   6.279
10357SOL     OW31969   1.752   2.949   6.371
10357SOL    HW131970   1.663   2.993   6.386
10357SOL    HW231971   1.739   2.864   6.320
10358SOL     OW31972   0.228   2.320   2.869
10358SOL    HW131973   0.271   2.405   2.837
10358SOL    HW231974   0.239   2.249   2.800
10359SOL     OW31975   0.618   1.545   0.910
10359SOL    HW131976   0.693   1.608   0.932
10359SOL    HW231977   0.538   1.598   0.882
10360SOL     OW31978   4.564   4.859   3.138
10360SOL    HW131979   4.519   4.772   3.159
10360SOL    HW231980   4.496   4.927   3.113
10361SOL     OW31981   2.637   6.631   2.605
10361SOL    HW131982   2.709   6.593   2.547
10361SOL    HW231983   2.550   6.586   2.583
10362SOL     OW31984   1.968   4.623   4.525
10362SOL    HW131985   2.039   4.686   4.490
10362SOL    HW231986   1.891   4.677   4.559
10363SOL     OW31987   4.963   0.819   2.932
10363SOL    HW131988   4.890   0.887   2.928
10363SOL    HW231989   4.947   0.756   3.007
10364SOL     OW31990   3.130   3.581   1.667
10364SOL    HW131991   3.163   3.675   1.678
10364SOL    HW231992   3.048   3.567   1.723
10365SOL     OW31993   3.736   5.893   0.511
10365SOL    HW131994   3.656   5.863   0.563
10365SOL    HW231995   3.713   5.896   0.414
10366SOL     OW31996   2.252   0.183   4.490
10366SOL    HW131997   2.322   0.255   4.490
10366SOL    HW231998   2.162   0.224   4.497
10367SOL     OW31999   5.532   2.150   2.519
10367SOL    HW132000   5.613   2.128   2.464
10367SOL    HW232001   5.551   2.129   2.615
10368SOL     OW32002   2.454   0.853   1.086
10368SOL    HW132003   2.401   0.799   1.020
10368SOL    HW232004   2.518   0.912   1.037
10369SOL     OW32005   4.235   0.846   6.965
10369SOL    HW132006   4.167   0.919   6.962
10369SOL    HW232007   4.313   0.875   7.020
10370SOL     OW32008   4.494   1.026   4.894
10370SOL    HW132009   4.418   0.984   4.946
10370SOL    HW232010   4.574   0.966   4.899
10371SOL     OW32011   3.219   5.438   5.718
10371SOL    HW132012   3.264   5.514   5.672
10371SOL    HW232013   3.120   5.443   5.702
10372SOL     OW32014   2.352   1.117   5.667
10372SOL    HW132015   2.355   1.127   5.766
10372SOL    HW232016   2.398   1.032   5.640
10373SOL     OW32017   1.508   6.455   4.541
10373SOL    HW132018   1.543   6.370   4.581
10373SOL    HW232019   1.484   6.440   4.445
10374SOL     OW32020   2.813   1.474   3.642
10374SOL    HW132021   2.726   1.476   3.592
10374SOL    HW232022   2.860   1.561   3.628
10375SOL     OW32023   5.117   2.354   0.376
10375SOL    HW132024   5.081   2.377   0.467
10375SOL    HW232025   5.177   2.427   0.344
10376SOL     OW32026   1.139   0.457   3.697
10376SOL    HW132027   1.124   0.409   3.611
10376SOL    HW232028   1.060   0.516   3.716
10377SOL     OW32029   0.260   0.783   3.382
10377SOL    HW132030   0.304   0.856   3.434
10377SOL    HW232031   0.224   0.714   3.444
10378SOL     OW32032   0.212   1.054   6.126
10378SOL    HW132033   0.211   1.095   6.217
10378SOL    HW232034   0.167   0.964   6.130
10379SOL     OW32035   5.295   0.336   5.012
10379SOL    HW132036   5.383   0.367   5.047
10379SOL    HW232037   5.272   0.248   5.052
10380SOL     OW32038   5.782   0.691   2.865
10380SOL    HW132039   5.748   0.726   2.778
10380SOL    HW232040   5.878   0.716   2.875
10381SOL     OW32041   4.775   5.350   5.873
10381SOL    HW132042   4.797   5.267   5.823
10381SOL    HW232043   4.747   5.422   5.810
10382SOL     OW32044   2.460   5.263   6.016
10382SOL    HW132045   2.518   5.337   6.051
10382SOL    HW232046   2.484   5.177   6.061
10383SOL     OW32047   1.334   3.531   0.660
10383SOL    HW132048   1.367   3.443   0.695
10383SOL    HW232049   1.313   3.522   0.563
10384SOL     OW32050   6.998   7.005   0.953
10384SOL    HW132051   0.002   6.952   1.033
10384SOL    HW232052   0.020   6.972   0.872
10385SOL     OW32053   5.708   6.883   6.129
10385SOL    HW132054   5.646   6.944   6.080
10385SOL    HW232055   5.659   6.840   6.205
10386SOL     OW32056   6.279   3.492   4.914
10386SOL    HW132057   6.275   3.456   5.007
10386SOL    HW232058   6.285   3.416   4.849
10387SOL     OW32059   2.869   2.223   3.089
10387SOL    HW132060   2.843   2.317   3.065
10387SOL    HW232061   2.814   2.192   3.166
10388SOL     OW32062   1.267   5.296   3.654
10388SOL    HW132063   1.195   5.269   3.589
10388SOL    HW232064   1.226   5.341   3.733
10389SOL     OW32065   0.614   4.764   3.088
10389SOL    HW132066   0.576   4.791   3.000
10389SOL    HW232067   0.634   4.846   3.143
10390SOL     OW32068   1.708   4.048   3.299
10390SOL    HW132069   1.791   4.000   3.270
10390SOL    HW232070   1.636   4.033   3.231
10391SOL     OW32071   1.527   6.056   6.450
10391SOL    HW132072   1.558   6.118   6.523
10391SOL    HW232073   1.600   6.043   6.384
10392SOL     OW32074   5.768   4.379   0.298
10392SOL    HW132075   5.818   4.310   0.351
10392SOL    HW232076   5.832   4.436   0.248
10393SOL     OW32077   1.048   1.493   3.976
10393SOL    HW132078   0.948   1.495   3.984
10393SOL    HW232079   1.089   1.489   4.067
10394SOL     OW32080   2.042   6.649   6.800
10394SOL    HW132081   1.991   6.698   6.729
10394SOL    HW232082   2.132   6.690   6.810
10395SOL     OW32083   0.197   0.816   3.742
10395SOL    HW132084   0.178   0.912   3.766
10395SOL    HW232085   0.136   0.788   3.668
10396SOL     OW32086   1.090   0.103   3.422
10396SOL    HW132087   1.031   0.060   3.490
10396SOL    HW232088   1.067   0.200   3.415
10397SOL     OW32089   4.140   0.643   3.059
10397SOL    HW132090   4.188   0.681   2.980
10397SOL    HW232091   4.075   0.711   3.094
10398SOL     OW32092   6.400   3.014   1.470
10398SOL    HW132093   6.328   3.083   1.464
10398SOL    HW232094   6.397   2.972   1.561
10399SOL     OW32095   4.802   2.249   5.461
10399SOL    HW132096   4.870   2.176   5.453
10399SOL    HW232097   4.783   2.286   5.370
10400SOL     OW32098   2.396   5.751   3.012
10400SOL    HW132099   2.347   5.761   2.925
10400SOL    HW232100   2.331   5.762   3.087
10401SOL     OW32101   6.895   5.767   2.194
10401SOL    HW132102   6.836   5.843   2.222
10401SOL    HW232103   6.900   5.763   2.095
10402SOL     OW32104   0.712   3.502   5.078
10402SOL    HW132105   0.781   3.505   5.151
10402SOL    HW232106   0.743   3.441   5.006
10403SOL     OW32107   5.097   1.241   2.169
10403SOL    HW132108   5.041   1.296   2.106
10403SOL    HW232109   5.043   1.217   2.250
10404SOL     OW32110   0.561   6.581   3.993
10404SOL    HW132111   0.654   6.548   4.011
10404SOL    HW232112   0.497   6.534   4.055
10405SOL     OW32113   1.679   6.101   5.566
10405SOL    HW132114   1.779   6.103   5.572
10405SOL    HW232115   1.642   6.054   5.646
10406SOL     OW32116   2.329   4.773   6.215
10406SOL    HW132117   2.253   4.721   6.253
10406SOL    HW232118   2.401   4.710   6.184
10407SOL     OW32119   1.272   1.859   5.949
10407SOL    HW132120   1.244   1.923   5.877
10407SOL    HW232121   1.257   1.765   5.917
10408SOL     OW32122   4.504   4.617   3.537
10408SOL    HW132123   4.534   4.704   3.499
10408SOL    HW232124   4.404   4.612   3.536
10409SOL     OW32125   0.305   3.669   1.887
10409SOL    HW132126   0.247   3.750   1.900
10409SOL    HW232127   0.399   3.691   1.911
10410SOL     OW32128   4.413   0.937   1.074
10410SOL    HW132129   4.416   1.036   1.062
10410SOL    HW232130   4.410   0.915   1.172
10411SOL     OW32131   2.369   4.830   3.043
10411SOL    HW132132   2.453   4.877   3.015
10411SOL    HW232133   2.292   4.862   2.988
10412SOL     OW32134   1.539   2.394   0.087
10412SOL    HW132135   1.615   2.374   0.148
10412SOL    HW232136   1.507   2.309   0.044
10413SOL     OW32137   0.285   2.049   6.943
10413SOL    HW132138   0.330   2.021   6.858
10413SOL    HW232139   0.244   1.969   6.986
10414SOL     OW32140   5.567   6.491   6.845
10414SOL    HW132141   5.591   6.476   6.941
10414SOL    HW232142   5.467   6.486   6.835
10415SOL     OW32143   0.551   5.899   3.425
10415SOL    HW132144   0.636   5.950   3.407
10415SOL    HW232145   0.492   5.954   3.484
10416SOL     OW32146   6.054   2.332   4.958
10416SOL    HW132147   6.057   2.410   5.021
10416SOL    HW232148   6.118   2.348   4.883
10417SOL     OW32149   4.053   5.141   2.853
10417SOL    HW132150   4.040   5.208   2.926
10417SOL    HW232151   4.070   5.051   2.892
10418SOL     OW32152   6.723   4.280   5.978
10418SOL    HW132153   6.776   4.363   5.958
10418SOL    HW232154   6.668   4.256   5.898
10419SOL     OW32155   2.711   1.066   5.609
10419SOL    HW132156   2.791   1.078   5.667
10419SOL    HW232157   2.708   1.139   5.540
10420SOL     OW32158   6.625   3.224   3.262
10420SOL    HW132159   6.548   3.164   3.236
10420SOL    HW232160   6.692   3.226   3.189
10421SOL     OW32161   1.148   4.583   3.959
10421SOL    HW132162   1.167   4.608   4.054
10421SOL    HW232163   1.204   4.504   3.934
10422SOL     OW32164   6.929   3.562   4.516
10422SOL    HW132165   6.921   3.503   4.596
10422SOL    HW232166   6.915   3.508   4.433
10423SOL     OW32167   3.188   4.918   4.071
10423SOL    HW132168   3.107   4.915   4.012
10423SOL    HW232169   3.268   4.942   4.016
10424SOL     OW32170   3.907   1.045   6.485
10424SOL    HW132171   3.956   1.015   6.403
10424SOL    HW232172   3.954   1.011   6.566
10425SOL     OW32173   2.214   0.865   0.484
10425SOL    HW132174   2.153   0.900   0.413
10425SOL    HW232175   2.214   0.765   0.483
10426SOL     OW32176   5.469   3.150   5.964
10426SOL    HW132177   5.380   3.105   5.955
10426SOL    HW232178   5.466   3.214   6.041
10427SOL     OW32179   5.724   6.320   4.925
10427SOL    HW132180   5.772   6.402   4.955
10427SOL    HW232181   5.640   6.346   4.878
10428SOL     OW32182   2.061   1.195   3.286
10428SOL    HW132183   2.057   1.153   3.377
10428SOL    HW232184   2.156   1.202   3.257
10429SOL     OW32185   0.859   3.400   2.618
10429SOL    HW132186   0.888   3.375   2.526
10429SOL    HW232187   0.770   3.359   2.638
10430SOL     OW32188   3.612   0.612   3.849
10430SOL    HW132189   3.680   0.686   3.849
10430SOL    HW232190   3.569   0.607   3.758
10431SOL     OW32191   3.086   2.191   3.979
10431SOL    HW132192   3.106   2.095   3.998
10431SOL    HW232193   3.087   2.243   4.065
10432SOL     OW32194   6.915   6.735   5.993
10432SOL    HW132195   6.835   6.681   5.968
10432SOL    HW232196   6.891   6.801   6.065
10433SOL     OW32197   1.677   6.917   2.138
10433SOL    HW132198   1.700   6.839   2.080
10433SOL    HW232199   1.639   6.885   2.224
10434SOL     OW32200   4.775   6.369   5.548
10434SOL    HW132201   4.676   6.377   5.536
10434SOL    HW232202   4.802   6.420   5.630
10435SOL     OW32203   0.871   2.621   6.442
10435SOL    HW132204   0.866   2.522   6.457
10435SOL    HW232205   0.816   2.668   6.510
10436SOL     OW32206   0.404   4.417   5.243
10436SOL    HW132207   0.468   4.344   5.218
10436SOL    HW232208   0.312   4.393   5.212
10437SOL     OW32209   5.755   5.084   5.034
10437SOL    HW132210   5.736   4.986   5.027
10437SOL    HW232211   5.825   5.100   5.104
10438SOL     OW32212   6.939   6.219   5.969
10438SOL    HW132213   6.973   6.127   5.989
10438SOL    HW232214   6.888   6.217   5.883
10439SOL     OW32215   6.936   0.162   4.209
10439SOL    HW132216   6.846   0.185   4.244
10439SOL    HW232217   7.004   0.174   4.281
10440SOL     OW32218   0.050   2.087   6.608
10440SOL    HW132219   0.038   2.006   6.665
10440SOL    HW232220   0.108   2.065   6.529
10441SOL     OW32221   3.596   1.981   0.682
10441SOL    HW132222   3.529   1.936   0.741
10441SOL    HW232223   3.574   1.963   0.587
10442SOL     OW32224   2.474   1.617   5.313
10442SOL    HW132225   2.509   1.664   5.232
10442SOL    HW232226   2.375   1.621   5.314
10443SOL     OW32227   0.255   1.133   2.944
10443SOL    HW132228   0.183   1.084   2.994
10443SOL    HW232229   0.328   1.158   3.008
10444SOL     OW32230   4.038   5.348   4.590
10444SOL    HW132231   4.007   5.357   4.496
10444SOL    HW232232   4.127   5.392   4.601
10445SOL     OW32233   1.885   4.285   2.786
10445SOL    HW132234   1.848   4.295   2.694
10445SOL    HW232235   1.811   4.290   2.853
10446SOL     OW32236   2.043   3.797   5.052
10446SOL    HW132237   2.029   3.761   4.959
10446SOL    HW232238   2.122   3.859   5.052
10447SOL     OW32239   0.253   1.660   2.942
10447SOL    HW132240   0.329   1.677   3.004
10447SOL    HW232241   0.218   1.568   2.957
10448SOL     OW32242   2.455   6.753   2.783
10448SOL    HW132243   2.516   6.710   2.716
10448SOL    HW232244   2.457   6.700   2.868
10449SOL     OW32245   3.505   6.030   6.581
10449SOL    HW132246   3.590   6.067   6.543
10449SOL    HW232247   3.514   5.930   6.592
10450SOL     OW32248   6.937   0.426   6.214
10450SOL    HW132249   6.907   0.509   6.167
10450SOL    HW232250   7.014   0.385   6.164
10451SOL     OW32251   2.254   0.838   3.979
10451SOL    HW132252   2.303   0.839   4.067
10451SOL    HW232253   2.318   0.863   3.906
10452SOL     OW32254   6.929   3.581   4.093
10452SOL    HW132255   6.951   3.491   4.132
10452SOL    HW232256   7.012   3.623   4.058
10453SOL     OW32257   4.291   5.486   3.334
10453SOL    HW132258   4.375   5.539   3.317
10453SOL    HW232259   4.286   5.462   3.431
10454SOL     OW32260   6.562   0.973   6.006
10454SOL    HW132261   6.512   1.056   5.982
10454SOL    HW232262   6.659   0.995   6.017
10455SOL     OW32263   5.797   6.550   4.553
10455SOL    HW132264   5.834   6.634   4.513
10455SOL    HW232265   5.848   6.471   4.519
10456SOL     OW32266   0.372   5.064   0.019
10456SOL    HW132267   0.325   5.115   0.091
10456SOL    HW232268   0.369   5.116   6.960
10457SOL     OW32269   4.058   2.449   0.026
10457SOL    HW132270   4.015   2.511   0.091
10457SOL    HW232271   3.990   2.383   7.019
10458SOL     OW32272   6.827   6.399   6.604
10458SOL    HW132273   6.767   6.407   6.683
10458SOL    HW232274   6.922   6.413   6.634
10459SOL     OW32275   6.938   5.531   0.530
10459SOL    HW132276   7.010   5.595   0.559
10459SOL    HW232277   6.850   5.561   0.568
10460SOL     OW32278   0.426   3.414   0.206
10460SOL    HW132279   0.496   3.342   0.204
10460SOL    HW232280   0.339   3.376   0.175
10461SOL     OW32281   0.319   5.594   5.406
10461SOL    HW132282   0.250   5.640   5.351
10461SOL    HW232283   0.354   5.657   5.475
10462SOL     OW32284   4.336   1.644   0.870
10462SOL    HW132285   4.381   1.713   0.927
10462SOL    HW232286   4.337   1.556   0.917
10463SOL     OW32287   5.017   2.928   5.951
10463SOL    HW132288   5.011   2.973   5.862
10463SOL    HW232289   4.932   2.942   6.002
10464SOL     OW32290   6.049   5.525   2.780
10464SOL    HW132291   6.106   5.524   2.862
10464SOL    HW232292   5.953   5.517   2.806
10465SOL     OW32293   5.723   3.846   1.949
10465SOL    HW132294   5.630   3.814   1.964
10465SOL    HW232295   5.744   3.842   1.851
10466SOL     OW32296   5.609   4.951   6.473
10466SOL    HW132297   5.625   4.901   6.558
10466SOL    HW232298   5.672   4.918   6.403
10467SOL     OW32299   1.799   2.793   6.889
10467SOL    HW132300   1.717   2.799   6.832
10467SOL    HW232301   1.800   2.706   6.938
10468SOL     OW32302   2.763   4.691   3.856
10468SOL    HW132303   2.791   4.625   3.927
10468SOL    HW232304   2.664   4.703   3.860
10469SOL     OW32305   6.012   1.405   5.265
10469SOL    HW132306   6.058   1.366   5.185
10469SOL    HW232307   5.998   1.503   5.250
10470SOL     OW32308   2.543   2.401   3.919
10470SOL    HW132309   2.478   2.348   3.864
10470SOL    HW232310   2.635   2.385   3.884
10471SOL     OW32311   2.866   0.615   0.536
10471SOL    HW132312   2.896   0.570   0.452
10471SOL    HW232313   2.870   0.714   0.525
10472SOL     OW32314   3.504   5.447   0.531
10472SOL    HW132315   3.443   5.514   0.488
10472SOL    HW232316   3.599   5.473   0.514
10473SOL     OW32317   5.355   4.666   6.528
10473SOL    HW132318   5.353   4.666   6.628
10473SOL    HW232319   5.261   4.658   6.493
10474SOL     OW32320   5.419   0.814   3.898
10474SOL    HW132321   5.518   0.813   3.884
10474SOL    HW232322   5.384   0.907   3.886
10475SOL     OW32323   1.475   6.376   1.786
10475SOL    HW132324   1.375   6.375   1.797
10475SOL    HW232325   1.513   6.295   1.830
10476SOL     OW32326   3.602   6.309   0.556
10476SOL    HW132327   3.518   6.275   0.513
10476SOL    HW232328   3.603   6.409   0.554
10477SOL     OW32329   6.145   6.399   4.068
10477SOL    HW132330   6.238   6.394   4.106
10477SOL    HW232331   6.099   6.481   4.103
10478SOL     OW32332   6.233   6.848   0.334
10478SOL    HW132333   6.193   6.927   0.382
10478SOL    HW232334   6.324   6.830   0.370
10479SOL     OW32335   0.107   1.789   2.479
10479SOL    HW132336   0.033   1.750   2.534
10479SOL    HW232337   0.069   1.826   2.394
10480SOL     OW32338   1.169   0.165   2.099
10480SOL    HW132339   1.230   0.202   2.169
10480SOL    HW232340   1.186   0.213   2.013
10481SOL     OW32341   0.786   0.034   3.317
10481SOL    HW132342   0.720   0.057   3.388
10481SOL    HW232343   0.738   7.019   3.239
10482SOL     OW32344   5.348   3.582   3.399
10482SOL    HW132345   5.334   3.678   3.425
10482SOL    HW232346   5.377   3.578   3.304
10483SOL     OW32347   5.832   5.155   0.254
10483SOL    HW132348   5.850   5.146   0.352
10483SOL    HW232349   5.884   5.086   0.203
10484SOL     OW32350   6.492   1.212   1.471
10484SOL    HW132351   6.415   1.224   1.533
10484SOL    HW232352   6.460   1.170   1.386
10485SOL     OW32353   4.418   3.871   6.046
10485SOL    HW132354   4.452   3.802   6.111
10485SOL    HW232355   4.430   3.837   5.953
10486SOL     OW32356   6.109   3.003   0.792
10486SOL    HW132357   6.193   3.010   0.845
10486SOL    HW232358   6.131   2.984   0.696
10487SOL     OW32359   5.899   6.268   1.318
10487SOL    HW132360   5.842   6.239   1.241
10487SOL    HW232361   5.994   6.244   1.301
10488SOL     OW32362   2.576   3.055   6.388
10488SOL    HW132363   2.560   3.134   6.330
10488SOL    HW232364   2.571   3.082   6.484
10489SOL     OW32365   6.994   5.776   6.464
10489SOL    HW132366   0.067   5.771   6.452
10489SOL    HW232367   6.968   5.870   6.490
10490SOL     OW32368   6.918   1.035   3.399
10490SOL    HW132369   7.002   1.087   3.415
10490SOL    HW232370   6.842   1.098   3.383
10491SOL     OW32371   2.119   3.938   6.318
10491SOL    HW132372   2.044   3.999   6.345
10491SOL    HW232373   2.202   3.991   6.305
10492SOL     OW32374   4.837   3.467   5.338
10492SOL    HW132375   4.775   3.490   5.263
10492SOL    HW232376   4.866   3.372   5.330
10493SOL     OW32377   3.528   0.916   1.626
10493SOL    HW132378   3.462   0.991   1.633
10493SOL    HW232379   3.573   0.919   1.537
10494SOL     OW32380   5.385   2.007   4.220
10494SOL    HW132381   5.359   2.099   4.189
10494SOL    HW232382   5.479   2.008   4.253
10495SOL     OW32383   2.085   0.241   0.476
10495SOL    HW132384   2.153   0.299   0.522
10495SOL    HW232385   1.994   0.261   0.513
10496SOL     OW32386   0.009   6.954   6.992
10496SOL    HW132387   7.019   0.027   6.983
10496SOL    HW232388   0.106   6.934   6.975
10497SOL     OW32389   1.561   0.433   0.758
10497SOL    HW132390   1.567   0.516   0.702
10497SOL    HW232391   1.651   0.410   0.793
10498SOL     OW32392   2.074   6.873   6.570
10498SOL    HW132393   2.042   6.949   6.627
10498SOL    HW232394   2.048   6.890   6.475
10499SOL     OW32395   2.948   6.059   3.233
10499SOL    HW132396   3.027   6.106   3.273
10499SOL    HW232397   2.936   5.970   3.277
10500SOL     OW32398   0.934   2.368   5.859
10500SOL    HW132399   1.023   2.384   5.817
10500SOL    HW232400   0.926   2.423   5.942
10501SOL     OW32401   2.143   4.344   2.787
10501SOL    HW132402   2.181   4.338   2.694
10501SOL    HW232403   2.044   4.334   2.783
10502SOL     OW32404   3.227   6.837   0.332
10502SOL    HW132405   3.146   6.783   0.309
10502SOL    HW232406   3.303   6.808   0.275
10503SOL     OW32407   4.081   2.830   0.325
10503SOL    HW132408   4.032   2.865   0.404
10503SOL    HW232409   4.067   2.891   0.246
10504SOL     OW32410   2.444   3.002   0.153
10504SOL    HW132411   2.535   2.965   0.171
10504SOL    HW232412   2.430   3.084   0.208
10505SOL     OW32413   6.267   5.810   0.622
10505SOL    HW132414   6.168   5.797   0.623
10505SOL    HW232415   6.303   5.800   0.715
10506SOL     OW32416   0.283   4.478   6.488
10506SOL    HW132417   0.211   4.430   6.538
10506SOL    HW232418   0.269   4.468   6.390
10507SOL     OW32419   1.546   0.533   6.169
10507SOL    HW132420   1.497   0.448   6.190
10507SOL    HW232421   1.598   0.520   6.084
10508SOL     OW32422   5.577   5.157   3.510
10508SOL    HW132423   5.580   5.231   3.578
10508SOL    HW232424   5.619   5.189   3.425
10509SOL     OW32425   1.227   6.886   6.948
10509SOL    HW132426   1.131   6.875   6.971
10509SOL    HW232427   1.258   6.978   6.974
10510SOL     OW32428   5.756   5.211   6.207
10510SOL    HW132429   5.707   5.245   6.287
10510SOL    HW232430   5.690   5.175   6.140
10511SOL     OW32431   4.063   2.890   0.607
10511SOL    HW132432   4.068   2.847   0.697
10511SOL    HW232433   4.145   2.867   0.554
10512SOL     OW32434   4.843   0.559   6.640
10512SOL    HW132435   4.771   0.510   6.592
10512SOL    HW232436   4.853   0.521   6.732
10513SOL     OW32437   0.659   2.047   6.089
10513SOL    HW132438   0.590   2.063   6.159
10513SOL    HW232439   0.615   2.017   6.004
10514SOL     OW32440   6.237   4.076   0.446
10514SOL    HW132441   6.328   4.036   0.450
10514SOL    HW232442   6.198   4.082   0.538
10515SOL     OW32443   6.653   1.665   2.700
10515SOL    HW132444   6.625   1.569   2.697
10515SOL    HW232445   6.747   1.674   2.669
10516SOL     OW32446   4.443   0.786   6.767
10516SOL    HW132447   4.367   0.847   6.790
10516SOL    HW232448   4.439   0.705   6.826
10517SOL     OW32449   6.545   1.895   2.574
10517SOL    HW132450   6.622   1.881   2.511
10517SOL    HW232451   6.529   1.811   2.625
10518SOL     OW32452   1.221   5.630   0.366
10518SOL    HW132453   1.199   5.536   0.341
10518SOL    HW232454   1.206   5.690   0.287
10519SOL     OW32455   3.392   2.805   5.897
10519SOL    HW132456   3.353   2.745   5.827
10519SOL    HW232457   3.330   2.881   5.915
10520SOL     OW32458   2.959   2.765   6.492
10520SOL    HW132459   3.046   2.765   6.541
10520SOL    HW232460   2.897   2.832   6.534
10521SOL     OW32461   6.282   6.410   1.124
10521SOL    HW132462   6.301   6.504   1.149
10521SOL    HW232463   6.250   6.359   1.204
10522SOL     OW32464   6.554   1.025   0.473
10522SOL    HW132465   6.631   1.014   0.536
10522SOL    HW232466   6.589   1.032   0.379
10523SOL     OW32467   0.322   5.393   6.138
10523SOL    HW132468   0.386   5.467   6.159
10523SOL    HW232469   0.336   5.318   6.202
10524SOL     OW32470   1.888   6.673   4.438
10524SOL    HW132471   1.956   6.741   4.412
10524SOL    HW232472   1.798   6.716   4.444
10525SOL     OW32473   1.878   6.594   5.273
10525SOL    HW132474   1.977   6.603   5.266
10525SOL    HW232475   1.840   6.673   5.320
10526SOL     OW32476   0.708   1.083   2.403
10526SOL    HW132477   0.664   1.083   2.313
10526SOL    HW232478   0.690   0.996   2.449
10527SOL     OW32479   0.943   2.782   4.627
10527SOL    HW132480   1.026   2.739   4.592
10527SOL    HW232481   0.942   2.776   4.727
10528SOL     OW32482   0.835   4.850   4.998
10528SOL    HW132483   0.829   4.881   5.093
10528SOL    HW232484   0.743   4.841   4.961
10529SOL     OW32485   0.483   6.215   3.318
10529SOL    HW132486   0.519   6.277   3.387
10529SOL    HW232487   0.559   6.165   3.276
10530SOL     OW32488   2.431   1.816   6.104
10530SOL    HW132489   2.515   1.825   6.051
10530SOL    HW232490   2.367   1.756   6.056
10531SOL     OW32491   1.880   3.581   4.651
10531SOL    HW132492   1.978   3.584   4.632
10531SOL    HW232493   1.865   3.542   4.742
10532SOL     OW32494   2.828   2.539   6.794
10532SOL    HW132495   2.818   2.600   6.873
10532SOL    HW232496   2.757   2.561   6.726
10533SOL     OW32497   3.391   1.239   5.100
10533SOL    HW132498   3.364   1.181   5.023
10533SOL    HW232499   3.418   1.329   5.065
10534SOL     OW32500   6.963   6.062   1.154
10534SOL    HW132501   7.023   6.133   1.190
10534SOL    HW232502   6.991   5.973   1.190
10535SOL     OW32503   0.125   1.488   2.305
10535SOL    HW132504   0.106   1.401   2.260
10535SOL    HW232505   0.201   1.476   2.370
10536SOL     OW32506   4.715   0.561   3.317
10536SOL    HW132507   4.697   0.654   3.349
10536SOL    HW232508   4.759   0.508   3.390
10537SOL     OW32509   2.808   5.252   2.993
10537SOL    HW132510   2.756   5.337   2.991
10537SOL    HW232511   2.855   5.244   3.082
10538SOL     OW32512   4.209   3.928   6.740
10538SOL    HW132513   4.110   3.944   6.740
10538SOL    HW232514   4.226   3.829   6.740
10539SOL     OW32515   0.724   4.032   6.074
10539SOL    HW132516   0.810   4.072   6.105
10539SOL    HW232517   0.652   4.052   6.141
10540SOL     OW32518   1.646   0.985   5.317
10540SOL    HW132519   1.588   1.066   5.328
10540SOL    HW232520   1.736   1.013   5.283
10541SOL     OW32521   3.840   3.437   1.110
10541SOL    HW132522   3.789   3.396   1.034
10541SOL    HW232523   3.796   3.414   1.196
10542SOL     OW32524   0.286   1.906   0.282
10542SOL    HW132525   0.358   1.844   0.312
10542SOL    HW232526   0.264   1.970   0.355
10543SOL     OW32527   0.268   1.915   5.792
10543SOL    HW132528   0.194   1.856   5.761
10543SOL    HW232529   0.263   1.926   5.891
10544SOL     OW32530   2.747   2.155   2.674
10544SOL    HW132531   2.833   2.186   2.635
10544SOL    HW232532   2.687   2.123   2.601
10545SOL     OW32533   7.003   0.105   2.107
10545SOL    HW132534   6.976   0.112   2.203
10545SOL    HW232535   6.925   0.126   2.048
10546SOL     OW32536   1.727   0.048   4.866
10546SOL    HW132537   1.771   6.984   4.872
10546SOL    HW232538   1.739   0.097   4.952
10547SOL     OW32539   4.373   0.881   1.815
10547SOL    HW132540   4.346   0.835   1.900
10547SOL    HW232541   4.347   0.978   1.820
10548SOL     OW32542   5.250   3.814   4.494
10548SOL    HW132543   5.206   3.742   4.440
10548SOL    HW232544   5.295   3.772   4.573
10549SOL     OW32545   0.407   0.483   2.401
10549SOL    HW132546   0.498   0.457   2.435
10549SOL    HW232547   0.362   0.541   2.469
10550SOL     OW32548   5.114   6.771   4.310
10550SOL    HW132549   5.075   6.755   4.401
10550SOL    HW232550   5.131   6.684   4.265
10551SOL     OW32551   1.179   2.427   5.136
10551SOL    HW132552   1.232   2.372   5.201
10551SOL    HW232553   1.128   2.497   5.186
10552SOL     OW32554   4.400   1.837   5.731
10552SOL    HW132555   4.492   1.799   5.717
10552SOL    HW232556   4.332   1.774   5.693
10553SOL     OW32557   0.781   5.206   1.034
10553SOL    HW132558   0.730   5.146   1.095
10553SOL    HW232559   0.751   5.191   0.939
10554SOL     OW32560   6.132   4.978   6.899
10554SOL    HW132561   6.110   5.075   6.904
10554SOL    HW232562   6.229   4.967   6.875
10555SOL     OW32563   3.152   1.807   1.855
10555SOL    HW132564   3.173   1.728   1.913
10555SOL    HW232565   3.227   1.874   1.862
10556SOL     OW32566   1.975   3.279   5.057
10556SOL    HW132567   2.010   3.185   5.060
10556SOL    HW232568   2.029   3.337   5.116
10557SOL     OW32569   0.220   2.193   3.141
10557SOL    HW132570   0.295   2.127   3.136
10557SOL    HW232571   0.208   2.236   3.052
10558SOL     OW32572   4.607   6.703   5.389
10558SOL    HW132573   4.595   6.802   5.386
10558SOL    HW232574   4.697   6.679   5.353
10559SOL     OW32575   4.115   1.638   1.010
10559SOL    HW132576   4.057   1.716   1.032
10559SOL    HW232577   4.192   1.669   0.954
10560SOL     OW32578   1.566   4.788   5.149
10560SOL    HW132579   1.623   4.855   5.101
10560SOL    HW232580   1.583   4.697   5.113
10561SOL     OW32581   1.924   5.061   0.073
10561SOL    HW132582   1.878   4.995   0.133
10561SOL    HW232583   2.014   5.026   0.048
10562SOL     OW32584   4.687   0.025   0.866
10562SOL    HW132585   4.725   0.085   0.796
10562SOL    HW232586   4.615   6.994   0.827
10563SOL     OW32587   2.007   1.379   4.576
10563SOL    HW132588   2.091   1.369   4.524
10563SOL    HW232589   1.949   1.300   4.562
10564SOL     OW32590   6.137   0.512   1.494
10564SOL    HW132591   6.078   0.592   1.500
10564SOL    HW232592   6.206   0.526   1.424
10565SOL     OW32593   6.807   1.037   5.472
10565SOL    HW132594   6.721   0.990   5.452
10565SOL    HW232595   6.789   1.135   5.485
10566SOL     OW32596   3.992   4.078   6.382
10566SOL    HW132597   4.045   4.005   6.339
10566SOL    HW232598   3.927   4.116   6.317
10567SOL     OW32599   1.897   3.163   4.369
10567SOL    HW132600   1.863   3.236   4.428
10567SOL    HW232601   1.996   3.152   4.384
10568SOL     OW32602   5.543   1.157   2.175
10568SOL    HW132603   5.606   1.204   2.237
10568SOL    HW232604   5.486   1.093   2.227
10569SOL     OW32605   6.315   3.504   2.531
10569SOL    HW132606   6.261   3.589   2.535
10569SOL    HW232607   6.393   3.511   2.593
10570SOL     OW32608   1.813   4.548   2.551
10570SOL    HW132609   1.729   4.539   2.497
10570SOL    HW232610   1.888   4.502   2.503
10571SOL     OW32611   6.370   5.403   3.502
10571SOL    HW132612   6.292   5.458   3.473
10571SOL    HW232613   6.455   5.452   3.481
10572SOL     OW32614   5.782   3.517   2.693
10572SOL    HW132615   5.765   3.461   2.612
10572SOL    HW232616   5.719   3.594   2.694
10573SOL     OW32617   5.802   5.971   3.517
10573SOL    HW132618   5.730   6.008   3.459
10573SOL    HW232619   5.772   5.972   3.612
10574SOL     OW32620   1.616   2.214   3.832
10574SOL    HW132621   1.559   2.269   3.893
10574SOL    HW232622   1.584   2.223   3.738
10575SOL     OW32623   0.444   0.576   4.044
10575SOL    HW132624   0.352   0.614   4.048
10575SOL    HW232625   0.438   0.476   4.046
10576SOL     OW32626   1.342   5.930   5.296
10576SOL    HW132627   1.418   5.980   5.336
10576SOL    HW232628   1.334   5.952   5.199
10577SOL     OW32629   2.068   3.333   6.382
10577SOL    HW132630   2.040   3.428   6.368
10577SOL    HW232631   2.006   3.289   6.447
10578SOL     OW32632   5.824   0.759   4.888
10578SOL    HW132633   5.873   0.744   4.974
10578SOL    HW232634   5.726   0.769   4.908
10579SOL     OW32635   4.046   0.904   0.789
10579SOL    HW132636   4.145   0.916   0.787
10579SOL    HW232637   4.021   0.822   0.737
10580SOL     OW32638   6.791   6.439   6.314
10580SOL    HW132639   6.799   6.388   6.400
10580SOL    HW232640   6.867   6.503   6.306
10581SOL     OW32641   6.198   0.317   3.115
10581SOL    HW132642   6.209   0.230   3.069
10581SOL    HW232643   6.101   0.340   3.121
10582SOL     OW32644   3.496   4.884   0.202
10582SOL    HW132645   3.541   4.968   0.170
10582SOL    HW232646   3.517   4.809   0.138
10583SOL     OW32647   4.055   0.736   6.586
10583SOL    HW132648   4.137   0.681   6.599
10583SOL    HW232649   4.054   0.811   6.653
10584SOL     OW32650   5.426   5.914   1.329
10584SOL    HW132651   5.524   5.900   1.316
10584SOL    HW232652   5.401   5.893   1.424
10585SOL     OW32653   1.456   3.095   5.849
10585SOL    HW132654   1.418   3.187   5.839
10585SOL    HW232655   1.392   3.029   5.811
10586SOL     OW32656   2.331   6.081   5.747
10586SOL    HW132657   2.426   6.051   5.759
10586SOL    HW232658   2.307   6.081   5.650
10587SOL     OW32659   6.040   3.405   0.269
10587SOL    HW132660   5.969   3.338   0.247
10587SOL    HW232661   6.004   3.473   0.332
10588SOL     OW32662   0.849   4.700   2.296
10588SOL    HW132663   0.885   4.617   2.253
10588SOL    HW232664   0.760   4.679   2.338
10589SOL     OW32665   5.828   2.393   4.257
10589SOL    HW132666   5.781   2.440   4.183
10589SOL    HW232667   5.761   2.361   4.325
10590SOL     OW32668   1.118   6.832   2.680
10590SOL    HW132669   1.125   6.846   2.779
10590SOL    HW232670   1.135   6.918   2.633
10591SOL     OW32671   1.840   1.816   5.654
10591SOL    HW132672   1.789   1.760   5.719
10591SOL    HW232673   1.795   1.905   5.643
10592SOL     OW32674   6.371   1.347   7.013
10592SOL    HW132675   6.390   1.253   6.983
10592SOL    HW232676   6.368   1.350   0.087
10593SOL     OW32677   2.419   6.171   1.404
10593SOL    HW132678   2.339   6.114   1.422
10593SOL    HW232679   2.479   6.170   1.485
10594SOL     OW32680   6.528   1.684   3.710
10594SOL    HW132681   6.508   1.604   3.653
10594SOL    HW232682   6.623   1.681   3.741
10595SOL     OW32683   3.077   6.960   5.818
10595SOL    HW132684   3.097   6.900   5.895
10595SOL    HW232685   3.158   6.966   5.759
10596SOL     OW32686   3.820   6.605   2.105
10596SOL    HW132687   3.769   6.670   2.162
10596SOL    HW232688   3.768   6.586   2.022
10597SOL     OW32689   2.576   0.863   4.940
10597SOL    HW132690   2.634   0.782   4.949
10597SOL    HW232691   2.589   0.921   5.021
10598SOL     OW32692   1.918   2.602   0.093
10598SOL    HW132693   2.003   2.627   0.048
10598SOL    HW232694   1.884   2.516   0.055
10599SOL     OW32695   6.196   1.692   6.799
10599SOL    HW132696   6.225   1.611   6.749
10599SOL    HW232697   6.276   1.743   6.829
10600SOL     OW32698   2.798   3.199   6.385
10600SOL    HW132699   2.790   3.233   6.479
10600SOL    HW232700   2.729   3.129   6.370
10601SOL     OW32701   2.788   6.341   6.103
10601SOL    HW132702   2.692   6.313   6.110
10601SOL    HW232703   2.793   6.439   6.081
10602SOL     OW32704   4.650   1.229   1.199
10602SOL    HW132705   4.564   1.238   1.149
10602SOL    HW232706   4.690   1.139   1.180
10603SOL     OW32707   1.353   6.128   3.677
10603SOL    HW132708   1.355   6.121   3.777
10603SOL    HW232709   1.263   6.162   3.648
10604SOL     OW32710   6.269   4.052   4.841
10604SOL    HW132711   6.297   3.960   4.869
10604SOL    HW232712   6.200   4.087   4.904
10605SOL     OW32713   1.086   5.186   0.646
10605SOL    HW132714   1.014   5.194   0.577
10605SOL    HW232715   1.044   5.174   0.736
10606SOL     OW32716   0.141   0.678   1.495
10606SOL    HW132717   0.089   0.762   1.508
10606SOL    HW232718   0.220   0.697   1.436
10607SOL     OW32719   4.353   4.704   6.174
10607SOL    HW132720   4.323   4.660   6.259
10607SOL    HW232721   4.314   4.796   6.169
10608SOL     OW32722   5.974   1.614   4.531
10608SOL    HW132723   6.003   1.650   4.443
10608SOL    HW232724   5.908   1.540   4.517
10609SOL     OW32725   4.005   6.142   1.347
10609SOL    HW132726   3.910   6.112   1.350
10609SOL    HW232727   4.063   6.071   1.387
10610SOL     OW32728   1.316   3.681   6.300
10610SOL    HW132729   1.377   3.756   6.276
10610SOL    HW232730   1.304   3.621   6.220
10611SOL     OW32731   5.396   2.972   6.377
10611SOL    HW132732   5.329   3.023   6.432
10611SOL    HW232733   5.471   3.033   6.351
10612SOL     OW32734   2.109   0.524   6.566
10612SOL    HW132735   2.098   0.428   6.591
10612SOL    HW232736   2.187   0.534   6.504
10613SOL     OW32737   0.244   6.952   5.196
10613SOL    HW132738   0.266   6.887   5.123
10613SOL    HW232739   0.329   6.983   5.239
10614SOL     OW32740   6.597   0.716   4.578
10614SOL    HW132741   6.608   0.809   4.542
10614SOL    HW232742   6.499   0.694   4.581
10615SOL     OW32743   4.824   5.559   5.316
10615SOL    HW132744   4.801   5.639   5.373
10615SOL    HW232745   4.906   5.579   5.262
10616SOL     OW32746   2.601   6.110   0.491
10616SOL    HW132747   2.576   6.056   0.571
10616SOL    HW232748   2.582   6.057   0.408
10617SOL     OW32749   2.521   2.576   0.189
10617SOL    HW132750   2.467   2.504   0.147
10617SOL    HW232751   2.461   2.648   0.224
10618SOL     OW32752   6.143   2.235   0.625
10618SOL    HW132753   6.237   2.204   0.612
10618SOL    HW232754   6.094   2.231   0.538
10619SOL     OW32755   0.707   3.885   3.016
10619SOL    HW132756   0.772   3.843   3.080
10619SOL    HW232757   0.756   3.935   2.945
10620SOL     OW32758   1.100   6.214   5.473
10620SOL    HW132759   1.062   6.174   5.390
10620SOL    HW232760   1.194   6.181   5.486
10621SOL     OW32761   1.447   5.949   6.826
10621SOL    HW132762   1.526   6.004   6.852
10621SOL    HW232763   1.380   6.008   6.780
10622SOL     OW32764   4.036   0.808   2.045
10622SOL    HW132765   3.941   0.793   2.073
10622SOL    HW232766   4.039   0.840   1.951
10623SOL     OW32767   5.531   2.543   3.650
10623SOL    HW132768   5.573   2.462   3.691
10623SOL    HW232769   5.563   2.625   3.698
10624SOL     OW32770   1.955   0.873   4.424
10624SOL    HW132771   2.048   0.903   4.401
10624SOL    HW232772   1.889   0.933   4.379
10625SOL     OW32773   0.904   4.044   6.744
10625SOL    HW132774   0.860   4.087   6.823
10625SOL    HW232775   0.841   4.046   6.667
10626SOL     OW32776   0.740   2.482   1.375
10626SOL    HW132777   0.781   2.415   1.312
10626SOL    HW232778   0.670   2.437   1.431
10627SOL     OW32779   6.712   6.225   2.522
10627SOL    HW132780   6.613   6.230   2.509
10627SOL    HW232781   6.753   6.171   2.449
10628SOL     OW32782   6.353   5.203   5.327
10628SOL    HW132783   6.315   5.120   5.285
10628SOL    HW232784   6.376   5.269   5.256
10629SOL     OW32785   2.277   4.881   5.801
10629SOL    HW132786   2.341   4.816   5.842
10629SOL    HW232787   2.192   4.834   5.777
10630SOL     OW32788   6.252   0.593   3.090
10630SOL    HW132789   6.262   0.494   3.100
10630SOL    HW232790   6.322   0.639   3.144
10631SOL     OW32791   0.363   6.948   3.700
10631SOL    HW132792   0.426   6.902   3.638
10631SOL    HW232793   0.404   0.008   3.732
10632SOL     OW32794   6.419   2.456   4.408
10632SOL    HW132795   6.441   2.391   4.335
10632SOL    HW232796   6.364   2.410   4.478
10633SOL     OW32797   2.596   5.090   1.457
10633SOL    HW132798   2.590   5.115   1.554
10633SOL    HW232799   2.594   5.173   1.401
10634SOL     OW32800   3.093   6.006   1.089
10634SOL    HW132801   3.050   6.011   0.999
10634SOL    HW232802   3.179   5.956   1.082
10635SOL     OW32803   3.183   0.959   0.959
10635SOL    HW132804   3.183   0.909   1.046
10635SOL    HW232805   3.238   1.042   0.970
10636SOL     OW32806   0.550   1.947   1.428
10636SOL    HW132807   0.591   1.886   1.496
10636SOL    HW232808   0.456   1.918   1.410
10637SOL     OW32809   3.545   4.170   5.147
10637SOL    HW132810   3.568   4.106   5.073
10637SOL    HW232811   3.616   4.240   5.152
10638SOL     OW32812   6.971   6.436   4.278
10638SOL    HW132813   6.933   6.380   4.204
10638SOL    HW232814   7.020   6.377   4.342
10639SOL     OW32815   0.815   1.260   4.989
10639SOL    HW132816   0.786   1.336   4.930
10639SOL    HW232817   0.761   1.179   4.967
10640SOL     OW32818   4.932   0.686   0.131
10640SOL    HW132819   4.925   0.639   0.219
10640SOL    HW232820   4.933   0.785   0.147
10641SOL     OW32821   5.292   1.935   0.217
10641SOL    HW132822   5.192   1.924   0.217
10641SOL    HW232823   5.330   1.896   0.301
10642SOL     OW32824   0.222   2.082   1.443
10642SOL    HW132825   0.135   2.087   1.493
10642SOL    HW232826   0.219   2.144   1.365
10643SOL     OW32827   2.265   3.802   5.272
10643SOL    HW132828   2.314   3.879   5.230
10643SOL    HW232829   2.331   3.734   5.304
10644SOL     OW32830   4.566   1.521   4.026
10644SOL    HW132831   4.525   1.430   4.024
10644SOL    HW232832   4.508   1.583   4.077
10645SOL     OW32833   1.198   0.833   4.688
10645SOL    HW132834   1.191   0.736   4.712
10645SOL    HW232835   1.203   0.842   4.588
10646SOL     OW32836   0.589   2.687   5.677
10646SOL    HW132837   0.668   2.746   5.692
10646SOL    HW232838   0.617   2.602   5.633
10647SOL     OW32839   6.266   4.738   0.502
10647SOL    HW132840   6.359   4.775   0.498
10647SOL    HW232841   6.250   4.696   0.591
10648SOL     OW32842   4.886   3.016   6.253
10648SOL    HW132843   4.923   2.929   6.220
10648SOL    HW232844   4.875   3.012   6.352
10649SOL     OW32845   0.414   5.244   5.629
10649SOL    HW132846   0.337   5.236   5.565
10649SOL    HW232847   0.380   5.266   5.720
10650SOL     OW32848   2.401   6.287   4.088
10650SOL    HW132849   2.383   6.362   4.152
10650SOL    HW232850   2.459   6.320   4.014
10651SOL     OW32851   4.457   6.414   5.921
10651SOL    HW132852   4.520   6.491   5.918
10651SOL    HW232853   4.508   6.330   5.942
10652SOL     OW32854   3.184   0.244   6.173
10652SOL    HW132855   3.113   0.191   6.126
10652SOL    HW232856   3.144   0.329   6.209
10653SOL     OW32857   5.012   4.520   4.252
10653SOL    HW132858   4.944   4.534   4.180
10653SOL    HW232859   5.012   4.599   4.314
10654SOL     OW32860   2.883   0.797   1.191
10654SOL    HW132861   2.865   0.745   1.108
10654SOL    HW232862   2.811   0.865   1.204
10655SOL     OW32863   3.084   6.036   2.047
10655SOL    HW132864   3.013   6.046   1.978
10655SOL    HW232865   3.081   5.944   2.086
10656SOL     OW32866   6.053   2.216   0.345
10656SOL    HW132867   6.090   2.298   0.300
10656SOL    HW232868   5.998   2.164   0.280
10657SOL     OW32869   5.678   6.842   0.883
10657SOL    HW132870   5.703   6.872   0.791
10657SOL    HW232871   5.658   6.744   0.881
10658SOL     OW32872   1.235   4.841   4.139
10658SOL    HW132873   1.303   4.808   4.205
10658SOL    HW232874   1.281   4.864   4.053
10659SOL     OW32875   5.713   6.916   0.606
10659SOL    HW132876   5.734   7.002   0.652
10659SOL    HW232877   5.786   6.895   0.541
10660SOL     OW32878   4.196   3.896   5.452
10660SOL    HW132879   4.136   3.898   5.532
10660SOL    HW232880   4.246   3.982   5.446
10661SOL     OW32881   0.437   6.608   1.717
10661SOL    HW132882   0.429   6.703   1.686
10661SOL    HW232883   0.377   6.593   1.795
10662SOL     OW32884   6.581   1.579   0.550
10662SOL    HW132885   6.528   1.564   0.467
10662SOL    HW232886   6.664   1.630   0.528
10663SOL     OW32887   0.714   0.536   1.261
10663SOL    HW132888   0.781   0.583   1.318
10663SOL    HW232889   0.760   0.494   1.182
10664SOL     OW32890   2.189   4.780   0.515
10664SOL    HW132891   2.179   4.688   0.478
10664SOL    HW232892   2.185   4.778   0.615
10665SOL     OW32893   0.095   2.167   0.565
10665SOL    HW132894   0.035   2.106   0.513
10665SOL    HW232895   0.058   2.178   0.658
10666SOL     OW32896   2.686   5.834   6.919
10666SOL    HW132897   2.618   5.904   6.899
10666SOL    HW232898   2.686   5.766   6.845
10667SOL     OW32899   3.913   1.708   5.679
10667SOL    HW132900   3.901   1.808   5.675
10667SOL    HW232901   3.829   1.666   5.713
10668SOL     OW32902   1.419   1.909   6.316
10668SOL    HW132903   1.459   1.941   6.402
10668SOL    HW232904   1.487   1.919   6.243
10669SOL     OW32905   1.549   0.065   0.336
10669SOL    HW132906   1.564   0.122   0.255
10669SOL    HW232907   1.542   0.124   0.417
10670SOL     OW32908   5.687   4.873   5.756
10670SOL    HW132909   5.690   4.972   5.770
10670SOL    HW232910   5.702   4.826   5.844
10671SOL     OW32911   2.198   2.625   2.791
10671SOL    HW132912   2.251   2.623   2.875
10671SOL    HW232913   2.109   2.667   2.809
10672SOL     OW32914   0.402   2.636   0.768
10672SOL    HW132915   0.455   2.608   0.687
10672SOL    HW232916   0.305   2.639   0.745
10673SOL     OW32917   2.777   3.157   5.281
10673SOL    HW132918   2.822   3.068   5.284
10673SOL    HW232919   2.684   3.146   5.246
10674SOL     OW32920   3.984   3.696   1.709
10674SOL    HW132921   3.932   3.615   1.684
10674SOL    HW232922   4.024   3.684   1.800
10675SOL     OW32923   0.426   6.743   5.574
10675SOL    HW132924   0.338   6.781   5.605
10675SOL    HW232925   0.434   6.648   5.604
10676SOL     OW32926   5.776   0.208   6.542
10676SOL    HW132927   5.786   0.110   6.560
10676SOL    HW232928   5.866   0.250   6.531
10677SOL     OW32929   0.363   0.760   1.354
10677SOL    HW132930   0.413   0.674   1.343
10677SOL    HW232931   0.422   0.827   1.400
10678SOL     OW32932   2.416   5.723   2.423
10678SOL    HW132933   2.383   5.639   2.465
10678SOL    HW232934   2.363   5.801   2.456
10679SOL     OW32935   5.964   5.100   4.008
10679SOL    HW132936   6.017   5.154   4.072
10679SOL    HW232937   5.868   5.126   4.013
10680SOL     OW32938   0.986   3.385   2.382
10680SOL    HW132939   0.963   3.412   2.288
10680SOL    HW232940   1.077   3.417   2.404
10681SOL     OW32941   6.698   2.681   5.724
10681SOL    HW132942   6.677   2.752   5.791
10681SOL    HW232943   6.613   2.640   5.691
10682SOL     OW32944   0.113   1.724   1.749
10682SOL    HW132945   0.067   1.757   1.831
10682SOL    HW232946   0.126   1.625   1.756
10683SOL     OW32947   1.729   1.813   4.742
10683SOL    HW132948   1.644   1.761   4.755
10683SOL    HW232949   1.769   1.789   4.654
10684SOL     OW32950   6.007   4.247   7.013
10684SOL    HW132951   5.941   4.244   6.938
10684SOL    HW232952   6.006   4.160   0.036
10685SOL     OW32953   0.512   3.307   3.294
10685SOL    HW132954   0.429   3.313   3.350
10685SOL    HW232955   0.550   3.399   3.281
10686SOL     OW32956   2.787   5.692   0.349
10686SOL    HW132957   2.735   5.713   0.266
10686SOL    HW232958   2.882   5.673   0.325
10687SOL     OW32959   0.139   4.791   2.723
10687SOL    HW132960   0.127   4.711   2.664
10687SOL    HW232961   0.054   4.845   2.724
10688SOL     OW32962   6.862   5.105   1.733
10688SOL    HW132963   6.802   5.049   1.791
10688SOL    HW232964   6.814   5.126   1.647
10689SOL     OW32965   0.233   0.563   2.596
10689SOL    HW132966   0.244   0.520   2.685
10689SOL    HW232967   0.183   0.649   2.607
10690SOL     OW32968   4.557   5.144   2.199
10690SOL    HW132969   4.623   5.202   2.151
10690SOL    HW232970   4.559   5.164   2.297
10691SOL     OW32971   7.022   1.220   1.407
10691SOL    HW132972   0.019   1.234   1.311
10691SOL    HW232973   6.924   1.234   1.421
10692SOL     OW32974   3.913   5.816   3.922
10692SOL    HW132975   3.967   5.792   3.841
10692SOL    HW232976   3.834   5.871   3.895
10693SOL     OW32977   6.784   1.418   1.568
10693SOL    HW132978   6.717   1.428   1.641
10693SOL    HW232979   6.771   1.330   1.523
10694SOL     OW32980   4.316   6.184   0.981
10694SOL    HW132981   4.308   6.148   1.074
10694SOL    HW232982   4.310   6.284   0.984
10695SOL     OW32983   6.898   2.388   4.139
10695SOL    HW132984   6.832   2.317   4.162
10695SOL    HW232985   6.909   2.392   4.039
10696SOL     OW32986   6.842   6.269   1.428
10696SOL    HW132987   6.922   6.312   1.470
10696SOL    HW232988   6.868   6.230   1.340
10697SOL     OW32989   1.278   6.114   4.465
10697SOL    HW132990   1.214   6.189   4.473
10697SOL    HW232991   1.248   6.038   4.523
10698SOL     OW32992   2.775   0.228   3.739
10698SOL    HW132993   2.771   0.325   3.764
10698SOL    HW232994   2.715   0.211   3.661
10699SOL     OW32995   3.544   1.924   2.795
10699SOL    HW132996   3.514   1.905   2.701
10699SOL    HW232997   3.504   2.010   2.826
10700SOL     OW32998   6.701   6.625   1.340
10700SOL    HW132999   6.666   6.718   1.349
10700SOL    HW233000   6.733   6.610   1.246
10701SOL     OW33001   3.177   6.445   0.235
10701SOL    HW133002   3.170   6.464   0.137
10701SOL    HW233003   3.185   6.347   0.250
10702SOL     OW33004   5.787   2.790   0.323
10702SOL    HW133005   5.769   2.693   0.303
10702SOL    HW233006   5.883   2.811   0.305
10703SOL     OW33007   3.833   3.940   3.934
10703SOL    HW133008   3.866   3.851   3.966
10703SOL    HW233009   3.805   3.995   4.013
10704SOL     OW33010   5.063   0.218   2.340
10704SOL    HW133011   5.121   0.144   2.307
10704SOL    HW233012   5.113   0.271   2.408
10705SOL     OW33013   0.267   3.115   6.275
10705SOL    HW133014   0.256   3.056   6.194
10705SOL    HW233015   0.258   3.211   6.248
10706SOL     OW33016   3.355   0.815   2.155
10706SOL    HW133017   3.294   0.817   2.076
10706SOL    HW233018   3.313   0.866   2.230
10707SOL     OW33019   5.915   6.942   5.833
10707SOL    HW133020   5.864   6.870   5.786
10707SOL    HW233021   5.945   6.909   5.922
10708SOL     OW33022   4.483   0.982   0.349
10708SOL    HW133023   4.509   1.075   0.324
10708SOL    HW233024   4.458   0.931   0.267
10709SOL     OW33025   6.352   6.824   5.282
10709SOL    HW133026   6.302   6.897   5.329
10709SOL    HW233027   6.449   6.846   5.279
10710SOL     OW33028   6.051   5.072   3.766
10710SOL    HW133029   6.128   5.121   3.723
10710SOL    HW233030   6.050   5.092   3.864
10711SOL     OW33031   1.263   0.016   3.921
10711SOL    HW133032   1.259   0.112   3.951
10711SOL    HW233033   1.231   0.010   3.827
10712SOL     OW33034   3.702   1.316   5.277
10712SOL    HW133035   3.692   1.415   5.286
10712SOL    HW233036   3.707   1.291   5.180
10713SOL     OW33037   1.267   5.972   1.315
10713SOL    HW133038   1.288   5.916   1.234
10713SOL    HW233039   1.255   6.067   1.288
10714SOL     OW33040   0.613   5.409   5.707
10714SOL    HW133041   0.652   5.451   5.625
10714SOL    HW233042   0.548   5.337   5.680
10715SOL     OW33043   4.732   2.018   4.369
10715SOL    HW133044   4.734   2.045   4.466
10715SOL    HW233045   4.732   2.099   4.311
10716SOL     OW33046   6.461   0.418   4.094
10716SOL    HW133047   6.481   0.513   4.119
10716SOL    HW233048   6.402   0.376   4.163
10717SOL     OW33049   7.006   0.606   1.692
10717SOL    HW133050   0.048   0.650   1.634
10717SOL    HW233051   6.920   0.595   1.641
10718SOL     OW33052   6.298   5.095   6.513
10718SOL    HW133053   6.207   5.094   6.470
10718SOL    HW233054   6.368   5.102   6.442
10719SOL     OW33055   5.827   0.765   1.735
10719SOL    HW133056   5.778   0.846   1.766
10719SOL    HW233057   5.821   0.693   1.804
10720SOL     OW33058   0.583   4.017   6.308
10720SOL    HW133059   0.548   3.925   6.292
10720SOL    HW233060   0.515   4.070   6.359
10721SOL     OW33061   5.153   3.044   4.773
10721SOL    HW133062   5.204   2.978   4.718
10721SOL    HW233063   5.196   3.053   4.863
10722SOL     OW33064   0.008   3.823   0.008
10722SOL    HW133065   6.979   3.749   0.046
10722SOL    HW233066   0.001   3.823   6.935
10723SOL     OW33067   5.559   3.920   6.914
10723SOL    HW133068   5.466   3.940   6.884
10723SOL    HW233069   5.566   3.930   7.013
10724SOL     OW33070   4.030   6.466   6.539
10724SOL    HW133071   4.027   6.431   6.446
10724SOL    HW233072   4.095   6.411   6.593
10725SOL     OW33073   0.433   5.981   5.212
10725SOL    HW133074   0.438   5.938   5.302
10725SOL    HW233075   0.467   5.918   5.143
10726SOL     OW33076   5.187   0.691   3.981
10726SOL    HW133077   5.244   0.749   3.923
10726SOL    HW233078   5.101   0.670   3.934
10727SOL     OW33079   2.475   6.230   6.102
10727SOL    HW133080   2.385   6.244   6.061
10727SOL    HW233081   2.513   6.143   6.070
10728SOL     OW33082   4.859   6.566   3.416
10728SOL    HW133083   4.844   6.656   3.375
10728SOL    HW233084   4.889   6.577   3.511
10729SOL     OW33085   5.916   2.542   2.853
10729SOL    HW133086   5.831   2.547   2.905
10729SOL    HW233087   5.975   2.620   2.876
10730SOL     OW33088   2.165   6.737   2.977
10730SOL    HW133089   2.157   6.778   2.886
10730SOL    HW233090   2.112   6.790   3.043
10731SOL     OW33091   3.349   6.969   6.760
10731SOL    HW133092   3.254   7.000   6.756
10731SOL    HW233093   3.404   0.009   6.811
10732SOL     OW33094   5.969   5.774   3.410
10732SOL    HW133095   5.893   5.816   3.460
10732SOL    HW233096   5.949   5.678   3.395
10733SOL     OW33097   6.943   0.316   5.859
10733SOL    HW133098   6.906   0.408   5.874
10733SOL    HW233099   0.002   0.305   5.910
10734SOL     OW33100   1.652   1.220   5.706
10734SOL    HW133101   1.553   1.231   5.695
10734SOL    HW233102   1.673   1.127   5.733
10735SOL     OW33103   1.378   5.694   1.905
10735SOL    HW133104   1.292   5.709   1.856
10735SOL    HW233105   1.441   5.642   1.847
10736SOL     OW33106   6.522   0.015   3.823
10736SOL    HW133107   6.470   0.008   3.737
10736SOL    HW233108   6.525   0.110   3.853
10737SOL     OW33109   6.965   1.436   1.885
10737SOL    HW133110   6.949   1.337   1.890
10737SOL    HW233111   6.882   1.481   1.850
10738SOL     OW33112   2.786   0.560   2.146
10738SOL    HW133113   2.820   0.653   2.133
10738SOL    HW233114   2.836   0.516   2.221
10739SOL     OW33115   5.967   2.156   2.673
10739SOL    HW133116   6.047   2.109   2.711
10739SOL    HW233117   5.981   2.173   2.576
10740SOL     OW33118   1.257   6.661   6.389
10740SOL    HW133119   1.235   6.658   6.486
10740SOL    HW233120   1.306   6.577   6.363
10741SOL     OW33121   2.431   2.687   3.366
10741SOL    HW133122   2.508   2.635   3.331
10741SOL    HW233123   2.429   2.680   3.466
10742SOL     OW33124   6.160   5.947   2.628
10742SOL    HW133125   6.127   5.989   2.544
10742SOL    HW233126   6.193   6.018   2.690
10743SOL     OW33127   3.827   1.006   5.779
10743SOL    HW133128   3.802   0.917   5.818
10743SOL    HW233129   3.773   1.078   5.822
10744SOL     OW33130   1.815   0.350   0.326
10744SOL    HW133131   1.799   0.287   0.402
10744SOL    HW233132   1.845   0.438   0.362
10745SOL     OW33133   2.273   5.014   1.366
10745SOL    HW133134   2.287   4.917   1.350
10745SOL    HW233135   2.256   5.030   1.463
10746SOL     OW33136   1.728   6.196   6.252
10746SOL    HW133137   1.691   6.205   6.159
10746SOL    HW233138   1.693   6.270   6.309
10747SOL     OW33139   6.409   1.654   4.192
10747SOL    HW133140   6.449   1.651   4.101
10747SOL    HW233141   6.398   1.561   4.227
10748SOL     OW33142   4.056   6.337   1.127
10748SOL    HW133143   3.960   6.330   1.153
10748SOL    HW233144   4.114   6.305   1.202
10749SOL     OW33145   5.665   5.173   3.071
10749SOL    HW133146   5.644   5.104   3.141
10749SOL    HW233147   5.707   5.252   3.115
10750SOL     OW33148   4.834   2.372   4.350
10750SOL    HW133149   4.882   2.444   4.298
10750SOL    HW233150   4.756   2.340   4.297
10751SOL     OW33151   0.881   4.473   5.182
10751SOL    HW133152   0.803   4.492   5.241
10751SOL    HW233153   0.946   4.549   5.186
10752SOL     OW33154   6.321   5.861   0.921
10752SOL    HW133155   6.271   5.935   0.875
10752SOL    HW233156   6.331   5.882   1.018
10753SOL     OW33157   4.982   6.002   4.216
10753SOL    HW133158   4.926   5.968   4.140
10753SOL    HW233159   4.954   6.096   4.238
10754SOL     OW33160   1.404   3.355   1.768
10754SOL    HW133161   1.441   3.447   1.763
10754SOL    HW233162   1.402   3.325   1.863
10755SOL     OW33163   6.181   3.218   1.259
10755SOL    HW133164   6.249   3.273   1.210
10755SOL    HW233165   6.197   3.227   1.358
10756SOL     OW33166   0.128   2.710   0.745
10756SOL    HW133167   0.051   2.678   0.801
10756SOL    HW233168   0.121   2.672   0.653
10757SOL     OW33169   6.830   4.462   1.653
10757SOL    HW133170   6.887   4.392   1.694
10757SOL    HW233171   6.784   4.425   1.572
10758SOL     OW33172   0.774   0.011   6.830
10758SOL    HW133173   0.803   0.080   6.896
10758SOL    HW233174   0.855   7.001   6.783
10759SOL     OW33175   2.295   2.234   6.117
10759SOL    HW133176   2.393   2.228   6.096
10759SOL    HW233177   2.279   2.304   6.186
10760SOL     OW33178   0.282   5.308   0.278
10760SOL    HW133179   0.295   5.402   0.247
10760SOL    HW233180   0.198   5.301   0.331
10761SOL     OW33181   0.890   1.853   6.195
10761SOL    HW133182   0.939   1.940   6.190
10761SOL    HW233183   0.916   1.795   6.118
10762SOL     OW33184   3.711   6.608   6.016
10762SOL    HW133185   3.632   6.642   6.067
10762SOL    HW233186   3.694   6.514   5.987
10763SOL     OW33187   5.595   0.540   2.987
10763SOL    HW133188   5.660   0.614   2.972
10763SOL    HW233189   5.532   0.535   2.909
10764SOL     OW33190   4.099   0.828   4.970
10764SOL    HW133191   4.090   0.729   4.969
10764SOL    HW233192   4.027   0.868   5.027
10765SOL     OW33193   6.903   1.673   2.621
10765SOL    HW133194   6.919   1.748   2.685
10765SOL    HW233195   6.918   1.586   2.667
10766SOL     OW33196   1.938   5.126   6.234
10766SOL    HW133197   1.966   5.032   6.218
10766SOL    HW233198   1.965   5.182   6.155
10767SOL     OW33199   1.397   5.699   0.855
10767SOL    HW133200   1.451   5.650   0.787
10767SOL    HW233201   1.385   5.794   0.827
10768SOL     OW33202   5.981   5.574   0.578
10768SOL    HW133203   5.910   5.635   0.542
10768SOL    HW233204   6.048   5.554   0.506
10769SOL     OW33205   3.085   3.341   4.825
10769SOL    HW133206   3.037   3.427   4.845
10769SOL    HW233207   3.128   3.346   4.735
10770SOL     OW33208   5.093   0.090   3.836
10770SOL    HW133209   5.172   0.046   3.793
10770SOL    HW233210   5.122   0.172   3.885
10771SOL     OW33211   4.922   6.138   5.970
10771SOL    HW133212   4.845   6.191   6.003
10771SOL    HW233213   4.930   6.053   6.024
10772SOL     OW33214   6.032   4.654   2.677
10772SOL    HW133215   6.119   4.649   2.725
10772SOL    HW233216   6.022   4.744   2.634
10773SOL     OW33217   6.521   4.696   0.910
10773SOL    HW133218   6.560   4.741   0.990
10773SOL    HW233219   6.507   4.763   0.837
10774SOL     OW33220   1.651   3.183   0.568
10774SOL    HW133221   1.687   3.090   0.557
10774SOL    HW233222   1.725   3.249   0.557
10775SOL     OW33223   1.083   4.285   1.270
10775SOL    HW133224   1.117   4.284   1.176
10775SOL    HW233225   1.093   4.376   1.309
10776SOL     OW33226   1.045   2.014   3.173
10776SOL    HW133227   1.040   1.916   3.157
10776SOL    HW233228   1.140   2.045   3.166
10777SOL     OW33229   3.525   1.230   2.376
10777SOL    HW133230   3.570   1.161   2.318
10777SOL    HW233231   3.582   1.248   2.456
10778SOL     OW33232   6.047   6.273   3.833
10778SOL    HW133233   6.038   6.182   3.875
10778SOL    HW233234   6.090   6.335   3.898
10779SOL     OW33235   5.610   3.852   4.435
10779SOL    HW133236   5.646   3.880   4.525
10779SOL    HW233237   5.550   3.773   4.446
10780SOL     OW33238   1.244   5.665   4.691
10780SOL    HW133239   1.303   5.717   4.753
10780SOL    HW233240   1.227   5.574   4.730
10781SOL     OW33241   5.977   2.342   5.450
10781SOL    HW133242   5.905   2.392   5.499
10781SOL    HW233243   6.057   2.401   5.438
10782SOL     OW33244   1.425   2.988   5.232
10782SOL    HW133245   1.494   2.918   5.214
10782SOL    HW233246   1.358   2.989   5.157
10783SOL     OW33247   1.112   2.603   2.974
10783SOL    HW133248   1.208   2.620   2.952
10783SOL    HW233249   1.057   2.615   2.891
10784SOL     OW33250   3.680   6.254   2.031
10784SOL    HW133251   3.737   6.332   2.007
10784SOL    HW233252   3.652   6.261   2.127
10785SOL     OW33253   1.834   6.371   2.539
10785SOL    HW133254   1.794   6.333   2.456
10785SOL    HW233255   1.843   6.470   2.530
10786SOL     OW33256   4.302   1.148   1.872
10786SOL    HW133257   4.241   1.127   1.948
10786SOL    HW233258   4.372   1.212   1.902
10787SOL     OW33259   3.601   1.169   3.395
10787SOL    HW133260   3.681   1.215   3.433
10787SOL    HW233261   3.529   1.236   3.377
10788SOL     OW33262   0.575   4.670   0.815
10788SOL    HW133263   0.631   4.642   0.737
10788SOL    HW233264   0.490   4.618   0.816
10789SOL     OW33265   6.445   1.268   0.508
10789SOL    HW133266   6.521   1.204   0.507
10789SOL    HW233267   6.442   1.319   0.422
10790SOL     OW33268   6.888   2.358   4.773
10790SOL    HW133269   6.946   2.280   4.797
10790SOL    HW233270   6.905   2.433   4.837
10791SOL     OW33271   1.874   1.635   3.535
10791SOL    HW133272   1.827   1.722   3.547
10791SOL    HW233273   1.840   1.590   3.452
10792SOL     OW33274   3.646   2.443   1.119
10792SOL    HW133275   3.628   2.467   1.214
10792SOL    HW233276   3.580   2.373   1.090
10793SOL     OW33277   4.974   1.479   5.040
10793SOL    HW133278   5.037   1.553   5.062
10793SOL    HW233279   4.985   1.405   5.107
10794SOL     OW33280   4.372   3.491   0.527
10794SOL    HW133281   4.438   3.556   0.565
10794SOL    HW233282   4.288   3.493   0.582
10795SOL     OW33283   6.938   3.336   3.267
10795SOL    HW133284   0.009   3.360   3.258
10795SOL    HW233285   6.904   3.301   3.180
10796SOL     OW33286   6.909   6.602   0.175
10796SOL    HW133287   6.933   6.606   0.078
10796SOL    HW233288   6.900   6.695   0.212
10797SOL     OW33289   4.020   3.428   0.291
10797SOL    HW133290   3.956   3.383   0.353
10797SOL    HW233291   3.982   3.428   0.198
10798SOL     OW33292   2.374   0.160   6.325
10798SOL    HW133293   2.344   0.080   6.272
10798SOL    HW233294   2.430   0.219   6.268
10799SOL     OW33295   3.006   1.889   2.529
10799SOL    HW133296   3.083   1.952   2.538
10799SOL    HW233297   2.921   1.942   2.525
10800SOL     OW33298   1.512   0.153   5.551
10800SOL    HW133299   1.418   0.189   5.544
10800SOL    HW233300   1.572   0.225   5.587
10801SOL     OW33301   2.818   6.645   6.131
10801SOL    HW133302   2.751   6.710   6.168
10801SOL    HW233303   2.837   6.667   6.035
10802SOL     OW33304   0.225   4.165   4.931
10802SOL    HW133305   0.231   4.171   5.031
10802SOL    HW233306   0.315   4.178   4.891
10803SOL     OW33307   6.667   4.554   5.377
10803SOL    HW133308   6.639   4.587   5.467
10803SOL    HW233309   6.646   4.456   5.370
10804SOL     OW33310   5.393   4.950   1.787
10804SOL    HW133311   5.390   4.990   1.879
10804SOL    HW233312   5.436   4.859   1.792
10805SOL     OW33313   4.476   6.721   0.506
10805SOL    HW133314   4.479   6.709   0.406
10805SOL    HW233315   4.382   6.707   0.538
10806SOL     OW33316   4.925   4.046   0.018
10806SOL    HW133317   4.936   4.035   6.945
10806SOL    HW233318   4.889   3.961   0.058
10807SOL     OW33319   4.015   6.132   3.634
10807SOL    HW133320   3.959   6.207   3.599
10807SOL    HW233321   4.062   6.162   3.717
10808SOL     OW33322   0.043   2.933   6.401
10808SOL    HW133323   0.138   2.899   6.405
10808SOL    HW233324   0.040   3.026   6.437
10809SOL     OW33325   2.076   0.712   3.562
10809SOL    HW133326   2.002   0.771   3.594
10809SOL    HW233327   2.129   0.760   3.492
10810SOL     OW33328   6.665   1.220   5.071
10810SOL    HW133329   6.694   1.125   5.062
10810SOL    HW233330   6.743   1.280   5.054
10811SOL     OW33331   4.632   4.525   5.417
10811SOL    HW133332   4.648   4.510   5.515
10811SOL    HW233333   4.706   4.582   5.380
10812SOL     OW33334   6.446   2.447   2.848
10812SOL    HW133335   6.469   2.513   2.920
10812SOL    HW233336   6.499   2.468   2.766
10813SOL     OW33337   3.113   6.294   1.782
10813SOL    HW133338   3.049   6.315   1.856
10813SOL    HW233339   3.085   6.210   1.737
10814SOL     OW33340   1.610   0.277   4.810
10814SOL    HW133341   1.618   0.178   4.806
10814SOL    HW233342   1.702   0.317   4.812
10815SOL     OW33343   5.114   3.160   3.137
10815SOL    HW133344   5.201   3.130   3.176
10815SOL    HW233345   5.043   3.093   3.160
10816SOL     OW33346   1.944   1.568   2.397
10816SOL    HW133347   1.899   1.585   2.485
10816SOL    HW233348   2.039   1.599   2.402
10817SOL     OW33349   4.488   6.922   2.002
10817SOL    HW133350   4.488   6.992   2.073
10817SOL    HW233351   4.521   6.835   2.039
10818SOL     OW33352   4.467   3.094   6.862
10818SOL    HW133353   4.476   3.091   6.961
10818SOL    HW233354   4.466   3.189   6.831
10819SOL     OW33355   0.035   4.025   6.582
10819SOL    HW133356   6.997   4.019   6.506
10819SOL    HW233357   0.124   3.991   6.553
10820SOL     OW33358   0.273   6.525   4.675
10820SOL    HW133359   0.199   6.578   4.718
10820SOL    HW233360   0.310   6.460   4.742
10821SOL     OW33361   6.849   0.550   0.712
10821SOL    HW133362   6.863   0.452   0.700
10821SOL    HW233363   6.773   0.565   0.775
10822SOL     OW33364   1.048   4.109   2.093
10822SOL    HW133365   1.010   4.147   2.177
10822SOL    HW233366   0.983   4.044   2.054
10823SOL     OW33367   1.629   0.161   1.150
10823SOL    HW133368   1.541   0.118   1.131
10823SOL    HW233369   1.703   0.098   1.125
10824SOL     OW33370   5.388   0.558   2.798
10824SOL    HW133371   5.378   0.522   2.705
10824SOL    HW233372   5.306   0.535   2.851
10825SOL     OW33373   3.681   1.470   1.058
10825SOL    HW133374   3.697   1.372   1.064
10825SOL    HW233375   3.762   1.519   1.090
10826SOL     OW33376   6.641   3.201   2.673
10826SOL    HW133377   6.668   3.106   2.656
10826SOL    HW233378   6.716   3.250   2.717
10827SOL     OW33379   6.754   2.667   4.070
10827SOL    HW133380   6.763   2.577   4.025
10827SOL    HW233381   6.682   2.663   4.139
10828SOL     OW33382   1.086   5.670   0.634
10828SOL    HW133383   1.134   5.652   0.549
10828SOL    HW233384   1.129   5.619   0.708
10829SOL     OW33385   3.053   3.548   1.271
10829SOL    HW133386   3.046   3.466   1.214
10829SOL    HW233387   3.110   3.529   1.351
10830SOL     OW33388   4.722   2.766   4.314
10830SOL    HW133389   4.798   2.702   4.316
10830SOL    HW233390   4.666   2.753   4.396
10831SOL     OW33391   5.323   1.559   3.032
10831SOL    HW133392   5.281   1.590   2.946
10831SOL    HW233393   5.365   1.636   3.078
10832SOL     OW33394   0.258   1.791   0.682
10832SOL    HW133395   0.335   1.727   0.689
10832SOL    HW233396   0.173   1.744   0.708
10833SOL     OW33397   3.441   6.946   4.742
10833SOL    HW133398   3.531   6.903   4.752
10833SOL    HW233399   3.440   0.008   4.790
10834SOL     OW33400   0.792   1.911   5.009
10834SOL    HW133401   0.758   1.989   4.956
10834SOL    HW233402   0.891   1.908   5.003
10835SOL     OW33403   6.349   1.345   2.068
10835SOL    HW133404   6.310   1.330   2.159
10835SOL    HW233405   6.300   1.288   2.002
10836SOL     OW33406   1.778   2.432   6.655
10836SOL    HW133407   1.733   2.498   6.716
10836SOL    HW233408   1.873   2.461   6.639
10837SOL     OW33409   0.305   4.896   1.085
10837SOL    HW133410   0.334   4.871   1.178
10837SOL    HW233411   0.207   4.915   1.085
10838SOL     OW33412   6.049   6.716   6.821
10838SOL    HW133413   6.115   6.704   6.747
10838SOL    HW233414   6.073   6.797   6.874
10839SOL     OW33415   2.165   2.095   0.300
10839SOL    HW133416   2.201   2.182   0.334
10839SOL    HW233417   2.226   2.059   0.230
10840SOL     OW33418   4.186   5.492   1.654
10840SOL    HW133419   4.247   5.524   1.582
10840SOL    HW233420   4.234   5.424   1.710
10841SOL     OW33421   3.700   4.759   6.428
10841SOL    HW133422   3.777   4.780   6.368
10841SOL    HW233423   3.655   4.675   6.397
10842SOL     OW33424   6.188   2.806   1.473
10842SOL    HW133425   6.152   2.721   1.512
10842SOL    HW233426   6.171   2.882   1.536
10843SOL     OW33427   0.487   1.759   1.699
10843SOL    HW133428   0.581   1.762   1.663
10843SOL    HW233429   0.466   1.665   1.728
10844SOL     OW33430   4.636   0.111   3.933
10844SOL    HW133431   4.716   0.054   3.921
10844SOL    HW233432   4.558   0.054   3.959
10845SOL     OW33433   1.582   2.192   0.723
10845SOL    HW133434   1.516   2.261   0.751
10845SOL    HW233435   1.653   2.184   0.794
10846SOL     OW33436   3.881   1.334   1.529
10846SOL    HW133437   3.947   1.376   1.466
10846SOL    HW233438   3.897   1.367   1.622
10847SOL     OW33439   3.990   2.776   6.389
10847SOL    HW133440   4.007   2.770   6.488
10847SOL    HW233441   4.077   2.788   6.341
10848SOL     OW33442   1.122   0.746   6.361
10848SOL    HW133443   1.197   0.701   6.312
10848SOL    HW233444   1.155   0.831   6.402
10849SOL     OW33445   2.956   4.802   4.392
10849SOL    HW133446   3.051   4.832   4.385
10849SOL    HW233447   2.947   4.736   4.466
10850SOL     OW33448   5.149   6.725   0.720
10850SOL    HW133449   5.183   6.797   0.659
10850SOL    HW233450   5.215   6.712   0.795
10851SOL     OW33451   4.005   1.908   6.415
10851SOL    HW133452   3.998   1.938   6.510
10851SOL    HW233453   4.029   1.985   6.357
10852SOL     OW33454   0.357   0.443   6.040
10852SOL    HW133455   0.385   0.382   6.114
10852SOL    HW233456   0.376   0.399   5.952
10853SOL     OW33457   2.512   1.582   4.614
10853SOL    HW133458   2.584   1.571   4.546
10853SOL    HW233459   2.423   1.587   4.568
10854SOL     OW33460   0.008   6.212   6.924
10854SOL    HW133461   0.042   6.247   7.011
10854SOL    HW233462   6.970   6.136   6.941
10855SOL     OW33463   1.460   6.373   1.164
10855SOL    HW133464   1.466   6.349   1.067
10855SOL    HW233465   1.480   6.471   1.175
10856SOL     OW33466   6.529   6.791   6.635
10856SOL    HW133467   6.614   6.845   6.628
10856SOL    HW233468   6.547   6.697   6.607
10857SOL     OW33469   5.793   1.607   3.790
10857SOL    HW133470   5.854   1.684   3.772
10857SOL    HW233471   5.827   1.554   3.868
10858SOL     OW33472   2.363   2.317   0.142
10858SOL    HW133473   2.353   2.326   0.241
10858SOL    HW233474   2.387   2.222   0.120
10859SOL     OW33475   0.809   4.268   2.301
10859SOL    HW133476   0.757   4.313   2.374
10859SOL    HW233477   0.759   4.187   2.270
10860SOL     OW33478   6.496   2.192   0.275
10860SOL    HW133479   6.449   2.259   0.217
10860SOL    HW233480   6.594   2.198   0.260
10861SOL     OW33481   3.242   2.874   2.078
10861SOL    HW133482   3.223   2.960   2.125
10861SOL    HW233483   3.335   2.844   2.100
10862SOL     OW33484   3.637   2.992   5.818
10862SOL    HW133485   3.657   2.896   5.841
10862SOL    HW233486   3.590   2.996   5.730
10863SOL     OW33487   2.167   1.724   2.781
10863SOL    HW133488   2.184   1.630   2.810
10863SOL    HW233489   2.243   1.782   2.809
10864SOL     OW33490   3.044   4.771   2.012
10864SOL    HW133491   2.982   4.693   2.014
10864SOL    HW233492   3.088   4.777   1.923
10865SOL     OW33493   4.208   1.323   3.451
10865SOL    HW133494   4.144   1.332   3.374
10865SOL    HW233495   4.180   1.246   3.508
10866SOL     OW33496   0.072   3.670   3.139
10866SOL    HW133497   0.106   3.624   3.057
10866SOL    HW233498   6.998   3.670   3.137
10867SOL     OW33499   4.338   3.450   0.260
10867SOL    HW133500   4.389   3.472   0.344
10867SOL    HW233501   4.241   3.471   0.273
10868SOL     OW33502   1.559   1.402   4.288
10868SOL    HW133503   1.654   1.377   4.265
10868SOL    HW233504   1.558   1.447   4.377
10869NA      NA33505   0.170   2.335   5.665
10870NA      NA33506   4.223   4.692   5.219
10871NA      NA33507   0.937   4.715   2.760
10872NA      NA33508   5.654   4.321   3.176
10873NA      NA33509   4.246   2.150   5.290
10874NA      NA33510   2.589   5.077   0.547
10875NA      NA33511   1.096   5.271   6.905
10876NA      NA33512   3.563   4.387   1.202
10877NA      NA33513   4.333   5.199   0.890
10878NA      NA33514   3.418   0.827   6.382
10879NA      NA33515   5.514   6.284   2.067
10880NA      NA33516   1.576   6.756   5.566
10881NA      NA33517   4.203   5.090   1.882
10882NA      NA33518   3.520   3.242   6.719
   7.02587   7.02587   7.02587
